<event>
 8    2  0.4306980E-052  0.1484301E+04  0.7818608E-02  0.8894960E-01
         -2   -1    0    0    0  501 -0.00000000000E+00  0.00000000000E+00  0.19747045835E+04  0.19747045835E+04  0.25500000000E-02 0. -1.
          2   -1    0    0  501    0  0.00000000000E+00 -0.00000000000E+00 -0.27892131745E+03  0.27892131746E+03  0.25500000000E-02 0.  1.
    -200001    2    1    2    0    0  0.99718118374E+02  0.32269379149E+03  0.46808131736E+03  0.84043940902E+03  0.61087093103E+03 0.  0.
   -5000001    2    3    3    0    0  0.17700942819E+03  0.42443845345E+03  0.48897130120E+03  0.67623431094E+03  0.81972992242E+02 0.  0.
     200001    1    1    2    0    0 -0.99718118374E+02 -0.32269379149E+03  0.12277019487E+04  0.14131864920E+04  0.61300000000E+03 0. -1.
         13    1    4    4    0    0  0.81287741553E+01  0.47647968252E+00  0.24561434550E+01  0.85057513991E+01  0.10566000000E+00 0.  1.
    -200003    1    4    4    0    0  0.16888065404E+03  0.42396197377E+03  0.48651515775E+03  0.66772855954E+03  0.30000000000E+02 0.  1.
    -200000    1    3    3    0    0 -0.77291309819E+02 -0.10174466196E+03 -0.20889983846E+02  0.16420509808E+03  0.10100000000E+03 0.  1.
<mgrwt>
<rscale>  0 0.14843008E+04</rscale>
<asrwt>0</asrwt>
<pdfrwt beam="1">  1        2 0.39845901E-01 0.14843008E+04</pdfrwt>
<pdfrwt beam="2">  1       -2 0.28210066E+00 0.14843008E+04</pdfrwt>
<totfact> 0.51404290E+00</totfact>
</mgrwt>
</event>
<event>
 8    2  0.4306980E-052  0.1272489E+04  0.7818608E-02  0.9051671E-01
          2   -1    0    0  501    0  0.00000000000E+00  0.00000000000E+00  0.10462942633E+04  0.10462942633E+04  0.25500000000E-02 0.  1.
         -2   -1    0    0    0  501 -0.00000000000E+00 -0.00000000000E+00 -0.38689572054E+03  0.38689572055E+03  0.25500000000E-02 0. -1.
    -200001    2    1    2    0    0 -0.99927075358E+01 -0.66404133440E+02  0.15258797002E+03  0.63498241698E+03  0.61270728585E+03 0.  0.
   -5000001    2    3    3    0    0  0.17132859794E+03 -0.26317077460E+03  0.39045085370E+02  0.32726905434E+03  0.83475566256E+02 0.  0.
     200001    1    1    2    0    0  0.99927075358E+01  0.66404133440E+02  0.50681057271E+03  0.79820756683E+03  0.61300000000E+03 0.  1.
         13    1    4    4    0    0  0.14463519214E+03 -0.22865776121E+03  0.43887597469E+02  0.27409823594E+03  0.10566000000E+00 0.  1.
    -200003    1    4    4    0    0  0.26693405799E+02 -0.34513013387E+02 -0.48425120986E+01  0.53170818403E+02  0.30000000000E+02 0.  1.
    -200000    1    3    3    0    0 -0.18132130548E+03  0.19676664116E+03  0.11354288465E+03  0.30771336264E+03  0.10100000000E+03 0. -1.
<mgrwt>
<rscale>  0 0.12724885E+04</rscale>
<asrwt>0</asrwt>
<pdfrwt beam="1">  1        2 0.14947061E+00 0.12724885E+04</pdfrwt>
<pdfrwt beam="2">  1       -2 0.55270818E-01 0.12724885E+04</pdfrwt>
<totfact> 0.79557119E+01</totfact>
</mgrwt>
</event>
<event>
 8    2  0.4306980E-052  0.1386901E+04  0.7818608E-02  0.8963355E-01
          2   -1    0    0  501    0  0.00000000000E+00  0.00000000000E+00  0.22962906010E+04  0.22962906010E+04  0.25500000000E-02 0.  1.
         -2   -1    0    0    0  501 -0.00000000000E+00 -0.00000000000E+00 -0.20941325948E+03  0.20941325949E+03  0.25500000000E-02 0. -1.
    -200001    2    1    2    0    0  0.57060343709E+02 -0.26631182885E+03  0.72700767694E+03  0.98939506026E+03  0.61333885408E+03 0.  0.
   -5000001    2    3    3    0    0 -0.17862061156E+03 -0.25649802592E+03  0.34043195436E+03  0.52540840884E+03  0.24992703007E+03 0.  0.
     200001    1    1    2    0    0 -0.57060343709E+02  0.26631182885E+03  0.13598696646E+04  0.15163088002E+04  0.61300000000E+03 0.  1.
         13    1    4    4    0    0 -0.14432714945E+03 -0.80770638586E+02  0.33411100184E+02  0.16873213952E+03  0.10566000000E+00 0.  1.
    -200003    1    4    4    0    0 -0.34293462107E+02 -0.17572738733E+03  0.30702085418E+03  0.35667626933E+03  0.30000000000E+02 0.  1.
    -200000    1    3    3    0    0  0.23568095527E+03 -0.98138029303E+01  0.38657572258E+03  0.46398665142E+03  0.10100000000E+03 0.  1.
<mgrwt>
<rscale>  0 0.13869011E+04</rscale>
<asrwt>0</asrwt>
<pdfrwt beam="1">  1        2 0.32804148E+00 0.13869011E+04</pdfrwt>
<pdfrwt beam="2">  1       -2 0.29916183E-01 0.13869011E+04</pdfrwt>
<totfact> 0.56725430E+01</totfact>
</mgrwt>
</event>
<event>
 8    2  0.4306980E-052  0.1452488E+04  0.7818608E-02  0.8916678E-01
          2   -1    0    0  501    0  0.00000000000E+00  0.00000000000E+00  0.11505456332E+04  0.11505456332E+04  0.25500000000E-02 0.  1.
         -2   -1    0    0    0  501 -0.00000000000E+00 -0.00000000000E+00 -0.45841731164E+03  0.45841731165E+03  0.25500000000E-02 0. -1.
    -200001    2    1    2    0    0 -0.54481545661E+02  0.12705349804E+03 -0.57377402582E+02  0.63088387816E+03  0.61287149650E+03 0.  0.
   -5000001    2    3    3    0    0  0.12485603022E+03  0.50495828971E+01 -0.27006908774E+03  0.31075003995E+03  0.89519543150E+02 0.  0.
     200001    1    1    2    0    0  0.54481545661E+02 -0.12705349804E+03  0.74950572414E+03  0.97807906669E+03  0.61300000000E+03 0.  1.
         13    1    4    4    0    0  0.10863081022E+03 -0.90846002305E+01 -0.23827635122E+03  0.26202826872E+03  0.10566000000E+00 0.  1.
    -200003    1    4    4    0    0  0.16225220004E+02  0.14134183128E+02 -0.31792736514E+02  0.48721771231E+02  0.30000000000E+02 0. -1.
    -200000    1    3    3    0    0 -0.17933757589E+03  0.12200391514E+03  0.21269168516E+03  0.32013383821E+03  0.10100000000E+03 0.  1.
<mgrwt>
<rscale>  0 0.14524876E+04</rscale>
<asrwt>0</asrwt>
<pdfrwt beam="1">  1        2 0.16436366E+00 0.14524876E+04</pdfrwt>
<pdfrwt beam="2">  1       -2 0.65488187E-01 0.14524876E+04</pdfrwt>
<totfact> 0.47607361E+01</totfact>
</mgrwt>
</event>
<event>
 8    2  0.4306980E-052  0.1482265E+04  0.7818608E-02  0.8896333E-01
         -2   -1    0    0    0  501 -0.00000000000E+00  0.00000000000E+00  0.30570094365E+03  0.30570094366E+03  0.25500000000E-02 0. -1.
          2   -1    0    0  501    0  0.00000000000E+00 -0.00000000000E+00 -0.17967795124E+04  0.17967795124E+04  0.25500000000E-02 0.  1.
    -200001    2    1    2    0    0  0.37106876576E+03  0.84020188135E+02 -0.98413227918E+03  0.12207123678E+04  0.61389813579E+03 0.  0.
   -5000001    2    3    3    0    0  0.49278830661E+03  0.76259157387E+02 -0.50202302760E+03  0.71326167005E+03  0.89773690444E+02 0.  0.
     200001    1    1    2    0    0 -0.37106876576E+03 -0.84020188135E+02 -0.50694628962E+03  0.88176808827E+03  0.61300000000E+03 0.  1.
         13    1    4    4    0    0  0.13633735513E+03  0.53733276119E+02 -0.17296734322E+03  0.22669991696E+03  0.10566000000E+00 0.  1.
    -200003    1    4    4    0    0  0.35645095149E+03  0.22525881268E+02 -0.32905568439E+03  0.48656175309E+03  0.30000000000E+02 0.  1.
    -200000    1    3    3    0    0 -0.12171954086E+03  0.77610307486E+01 -0.48210925158E+03  0.50745069778E+03  0.10100000000E+03 0.  1.
<mgrwt>
<rscale>  0 0.14822647E+04</rscale>
<asrwt>0</asrwt>
<pdfrwt beam="1">  1        2 0.25668278E+00 0.14822647E+04</pdfrwt>
<pdfrwt beam="2">  1       -2 0.43671564E-01 0.14822647E+04</pdfrwt>
<totfact> 0.49199478E+01</totfact>
</mgrwt>
</event>
<event>
 8    2  0.4306980E-052  0.2312333E+04  0.7818608E-02  0.8473074E-01
          2   -1    0    0  501    0  0.00000000000E+00  0.00000000000E+00  0.14246745486E+04  0.14246745486E+04  0.25500000000E-02 0.  1.
         -2   -1    0    0    0  501 -0.00000000000E+00 -0.00000000000E+00 -0.93826404718E+03  0.93826404718E+03  0.25500000000E-02 0. -1.
    -200001    2    1    2    0    0  0.55869608059E+03 -0.26775134200E+02  0.10658238398E+04  0.13508382870E+04  0.61312755747E+03 0.  0.
   -5000001    2    3    3    0    0  0.57585681278E+03 -0.16211727377E+03  0.58499635826E+03  0.84092843955E+03  0.83945351167E+02 0.  0.
     200001    1    1    2    0    0 -0.55869608059E+03  0.26775134200E+02 -0.57941333844E+03  0.10121003088E+04  0.61300000000E+03 0. -1.
         13    1    4    4    0    0  0.41080555055E+03 -0.90739971891E+02  0.43087190194E+03  0.60220058943E+03  0.10566000000E+00 0.  1.
    -200003    1    4    4    0    0  0.16505126223E+03 -0.71377301874E+02  0.15412445632E+03  0.23872785012E+03  0.30000000000E+02 0.  1.
    -200000    1    3    3    0    0 -0.17160732194E+02  0.13534213956E+03  0.48082748156E+03  0.50990984742E+03  0.10100000000E+03 0. -1.
<mgrwt>
<rscale>  0 0.23123329E+04</rscale>
<asrwt>0</asrwt>
<pdfrwt beam="1">  1        2 0.20352493E+00 0.23123329E+04</pdfrwt>
<pdfrwt beam="2">  1       -2 0.13403772E+00 0.23123329E+04</pdfrwt>
<totfact> 0.58704583E+00</totfact>
</mgrwt>
</event>
<event>
 8    2  0.4306980E-052  0.2061325E+04  0.7818608E-02  0.8578474E-01
          2   -1    0    0  501    0  0.00000000000E+00  0.00000000000E+00  0.16013253209E+04  0.16013253209E+04  0.25500000000E-02 0.  1.
         -2   -1    0    0    0  501 -0.00000000000E+00 -0.00000000000E+00 -0.66336650419E+03  0.66336650420E+03  0.25500000000E-02 0. -1.
    -200001    2    1    2    0    0 -0.28832600698E+03  0.57080425083E+03  0.10478661839E+04  0.13720563965E+04  0.61283426524E+03 0.  0.
   -5000001    2    3    3    0    0  0.29072799811E+02  0.22067843327E+02 -0.37528144361E+02  0.11105064894E+03  0.97937059446E+02 0.  0.
     200001    1    1    2    0    0  0.28832600698E+03 -0.57080425083E+03 -0.10990736721E+03  0.89263542862E+03  0.61300000000E+03 0. -1.
         13    1    4    4    0    0  0.40779903370E+01 -0.24614412945E+02 -0.43240941157E+02  0.49922835316E+02  0.10566000000E+00 0.  1.
    -200003    1    4    4    0    0  0.24994809474E+02  0.46682256272E+02  0.57127967966E+01  0.61127813624E+02  0.30000000000E+02 0.  1.
    -200000    1    3    3    0    0 -0.31739880679E+03  0.54873640750E+03  0.10853943283E+04  0.12610057475E+04  0.10100000000E+03 0.  1.
<mgrwt>
<rscale>  0 0.20613254E+04</rscale>
<asrwt>0</asrwt>
<pdfrwt beam="1">  1        2 0.22876076E+00 0.20613254E+04</pdfrwt>
<pdfrwt beam="2">  1       -2 0.94766644E-01 0.20613254E+04</pdfrwt>
<totfact> 0.11244384E+01</totfact>
</mgrwt>
</event>
<event>
 8    2  0.4306980E-052  0.1897003E+04  0.7818608E-02  0.8656349E-01
          2   -1    0    0  501    0  0.00000000000E+00  0.00000000000E+00  0.28647211113E+04  0.28647211113E+04  0.25500000000E-02 0.  1.
         -2   -1    0    0    0  501 -0.00000000000E+00 -0.00000000000E+00 -0.31404643243E+03  0.31404643244E+03  0.25500000000E-02 0. -1.
    -200001    2    1    2    0    0  0.44876478521E+03 -0.54708980156E+02  0.22225249213E+04  0.23494098595E+04  0.61296554353E+03 0.  0.
   -5000001    2    3    3    0    0  0.46353897508E+03 -0.19051646116E+03  0.19566751514E+04  0.20339117633E+04  0.23886085808E+03 0.  0.
     200001    1    1    2    0    0 -0.44876478521E+03  0.54708980156E+02  0.32814975766E+03  0.82935768424E+03  0.61300000000E+03 0. -1.
         13    1    4    4    0    0  0.42895466708E+01 -0.51521099627E+02  0.70460078864E+02  0.87392549997E+02  0.10566000000E+00 0.  1.
    -200003    1    4    4    0    0  0.45924942841E+03 -0.13899536153E+03  0.18862150725E+04  0.19465192133E+04  0.30000000000E+02 0.  1.
    -200000    1    3    3    0    0 -0.14774189874E+02  0.13580748100E+03  0.26584976990E+03  0.31549809625E+03  0.10100000000E+03 0.  1.
<mgrwt>
<rscale>  0 0.18970034E+04</rscale>
<asrwt>0</asrwt>
<pdfrwt beam="1">  1        2 0.40924589E+00 0.18970034E+04</pdfrwt>
<pdfrwt beam="2">  1       -2 0.44863774E-01 0.18970034E+04</pdfrwt>
<totfact> 0.12430651E+01</totfact>
</mgrwt>
</event>
<event>
 8    2  0.4306980E-052  0.2011073E+04  0.7818608E-02  0.8601461E-01
         -2   -1    0    0    0  501 -0.00000000000E+00  0.00000000000E+00  0.42549660029E+03  0.42549660030E+03  0.25500000000E-02 0. -1.
          2   -1    0    0  501    0  0.00000000000E+00 -0.00000000000E+00 -0.23762908682E+04  0.23762908682E+04  0.25500000000E-02 0.  1.
    -200001    2    1    2    0    0 -0.35812224129E+03 -0.46807149203E+03 -0.22764089207E+03  0.88023366544E+03  0.61290167946E+03 0.  0.
   -5000001    2    3    3    0    0 -0.33600905213E+03 -0.57040444574E+03 -0.78482879472E+02  0.67188266527E+03  0.83686550215E+02 0.  0.
     200001    1    1    2    0    0  0.35812224129E+03  0.46807149203E+03 -0.17231533758E+04  0.19215538030E+04  0.61300000000E+03 0.  1.
         13    1    4    4    0    0 -0.22010303334E+02 -0.89462778340E+02 -0.11032370663E+02  0.92788827602E+02  0.10566000000E+00 0.  1.
    -200003    1    4    4    0    0 -0.31399874880E+03 -0.48094166740E+03 -0.67450508809E+02  0.57909383767E+03  0.30000000000E+02 0.  1.
    -200000    1    3    3    0    0 -0.22113189161E+02  0.10233295371E+03 -0.14915801260E+03  0.20835100017E+03  0.10100000000E+03 0.  1.
<mgrwt>
<rscale>  0 0.20110730E+04</rscale>
<asrwt>0</asrwt>
<pdfrwt beam="1">  1        2 0.33947011E+00 0.20110730E+04</pdfrwt>
<pdfrwt beam="2">  1       -2 0.60785230E-01 0.20110730E+04</pdfrwt>
<totfact> 0.12018661E+01</totfact>
</mgrwt>
</event>
<event>
 8    2  0.4306980E-052  0.2048369E+04  0.7818608E-02  0.8584334E-01
          2   -1    0    0  501    0  0.00000000000E+00  0.00000000000E+00  0.12794876829E+04  0.12794876829E+04  0.25500000000E-02 0.  1.
         -2   -1    0    0    0  501 -0.00000000000E+00 -0.00000000000E+00 -0.81982355904E+03  0.81982355905E+03  0.25500000000E-02 0. -1.
    -200001    2    1    2    0    0  0.70603320941E+03 -0.40962936349E+03  0.31256823919E+03  0.10679600372E+04  0.61364536076E+03 0.  0.
   -5000001    2    3    3    0    0  0.46453344643E+03 -0.51722917070E+03  0.85366171889E+02  0.70502528634E+03  0.80348822051E+02 0.  0.
     200001    1    1    2    0    0 -0.70603320941E+03  0.40962936349E+03  0.14709588470E+03  0.10313512047E+04  0.61300000000E+03 0. -1.
         13    1    4    4    0    0  0.25817332241E+03 -0.31134227036E+03  0.21044388266E+02  0.40500660631E+03  0.10566000000E+00 0.  1.
    -200003    1    4    4    0    0  0.20636012403E+03 -0.20588690034E+03  0.64321783623E+02  0.30001868003E+03  0.30000000000E+02 0. -1.
    -200000    1    3    3    0    0  0.24149976297E+03  0.10759980721E+03  0.22720206730E+03  0.36293475090E+03  0.10100000000E+03 0. -1.
<mgrwt>
<rscale>  0 0.20483692E+04</rscale>
<asrwt>0</asrwt>
<pdfrwt beam="1">  1        2 0.18278395E+00 0.20483692E+04</pdfrwt>
<pdfrwt beam="2">  1       -2 0.11711765E+00 0.20483692E+04</pdfrwt>
<totfact> 0.10101495E+01</totfact>
</mgrwt>
</event>
<event>
 8    2  0.4306980E-052  0.1380856E+04  0.7818608E-02  0.8967793E-01
          2   -1    0    0  501    0  0.00000000000E+00  0.00000000000E+00  0.32201298449E+03  0.32201298450E+03  0.25500000000E-02 0.  1.
         -2   -1    0    0    0  501 -0.00000000000E+00 -0.00000000000E+00 -0.14803474740E+04  0.14803474740E+04  0.25500000000E-02 0. -1.
    -200001    2    1    2    0    0 -0.10534442444E+03 -0.20183325139E+03 -0.87085810655E+03  0.10880455561E+04  0.61124069008E+03 0.  0.
   -5000001    2    3    3    0    0  0.20967572649E+03 -0.22465837005E+03 -0.35327568180E+03  0.47334949464E+03  0.69431572126E+02 0.  0.
     200001    1    1    2    0    0  0.10534442444E+03  0.20183325139E+03 -0.28747638300E+03  0.71431490248E+03  0.61300000000E+03 0.  1.
         13    1    4    4    0    0  0.97452693415E+02 -0.13844986074E+03 -0.17086638072E+03  0.24054255885E+03  0.10566000000E+00 0.  1.
    -200003    1    4    4    0    0  0.11222303307E+03 -0.86208509308E+02 -0.18240930108E+03  0.23280693579E+03  0.30000000000E+02 0.  1.
    -200000    1    3    3    0    0 -0.31502015092E+03  0.22825118661E+02 -0.51758242475E+03  0.61469606143E+03  0.10100000000E+03 0.  1.
<mgrwt>
<rscale>  0 0.13808564E+04</rscale>
<asrwt>0</asrwt>
<pdfrwt beam="1">  1        2 0.46001856E-01 0.13808564E+04</pdfrwt>
<pdfrwt beam="2">  1       -2 0.21147821E+00 0.13808564E+04</pdfrwt>
<totfact> 0.12046339E+01</totfact>
</mgrwt>
</event>
<event>
 8    2  0.4306980E-052  0.1273573E+04  0.7818608E-02  0.9050789E-01
         -2   -1    0    0    0  501 -0.00000000000E+00  0.00000000000E+00  0.27923479225E+03  0.27923479227E+03  0.25500000000E-02 0. -1.
          2   -1    0    0  501    0  0.00000000000E+00 -0.00000000000E+00 -0.14521713787E+04  0.14521713787E+04  0.25500000000E-02 0.  1.
    -200001    2    1    2    0    0  0.54975153589E+02  0.80806649620E+02 -0.78015101436E+03  0.99683045142E+03  0.61276697165E+03 0.  0.
   -5000001    2    3    3    0    0 -0.22356853113E+03  0.15696002152E+03 -0.21625446623E+03  0.35529616758E+03  0.69642200363E+02 0.  0.
     200001    1    1    2    0    0 -0.54975153589E+02 -0.80806649620E+02 -0.39278557213E+03  0.73457571959E+03  0.61300000000E+03 0. -1.
         13    1    4    4    0    0 -0.15829962077E+03  0.87487774711E+02 -0.12400394858E+03  0.21929402884E+03  0.10566000000E+00 0.  1.
    -200003    1    4    4    0    0 -0.65268910361E+02  0.69472246806E+02 -0.92250517646E+02  0.13600213874E+03  0.30000000000E+02 0. -1.
    -200000    1    3    3    0    0  0.27854368472E+03 -0.76153371897E+02 -0.56389654813E+03  0.64153428384E+03  0.10100000000E+03 0. -1.
<mgrwt>
<rscale>  0 0.12735726E+04</rscale>
<asrwt>0</asrwt>
<pdfrwt beam="1">  1        2 0.20745305E+00 0.12735726E+04</pdfrwt>
<pdfrwt beam="2">  1       -2 0.39890685E-01 0.12735726E+04</pdfrwt>
<totfact> 0.90510714E+01</totfact>
</mgrwt>
</event>
<event>
 8    2  0.4306980E-052  0.2970883E+04  0.7818608E-02  0.8252095E-01
          2   -1    0    0  501    0  0.00000000000E+00  0.00000000000E+00  0.20734015103E+04  0.20734015103E+04  0.25500000000E-02 0.  1.
         -2   -1    0    0    0  501 -0.00000000000E+00 -0.00000000000E+00 -0.10642106629E+04  0.10642106629E+04  0.25500000000E-02 0. -1.
    -200001    2    1    2    0    0  0.40527475651E+03 -0.42756171531E+03  0.17909908812E+04  0.19826070038E+04  0.61320921915E+03 0.  0.
   -5000001    2    3    3    0    0  0.33186708420E+03 -0.38453801942E+03  0.17640170399E+04  0.18478171196E+04  0.21134507448E+03 0.  0.
     200001    1    1    2    0    0 -0.40527475651E+03  0.42756171531E+03 -0.78180003374E+03  0.11550051694E+04  0.61300000000E+03 0. -1.
         13    1    4    4    0    0  0.11771555710E+03 -0.11556240391E+03  0.94129148609E+03  0.95563659125E+03  0.10566000000E+00 0.  1.
    -200003    1    4    4    0    0  0.21415152711E+03 -0.26897561551E+03  0.82272555384E+03  0.89218052839E+03  0.30000000000E+02 0.  1.
    -200000    1    3    3    0    0  0.73407672305E+02 -0.43023695885E+02  0.26973841232E+02  0.13478988416E+03  0.10100000000E+03 0. -1.
<mgrwt>
<rscale>  0 0.29708827E+04</rscale>
<asrwt>0</asrwt>
<pdfrwt beam="1">  1        2 0.29620021E+00 0.29708827E+04</pdfrwt>
<pdfrwt beam="2">  1       -2 0.15203010E+00 0.29708827E+04</pdfrwt>
<totfact> 0.18385736E+00</totfact>
</mgrwt>
</event>
<event>
 8    2  0.4306980E-052  0.1622507E+04  0.7818608E-02  0.8806839E-01
         -2   -1    0    0    0  501 -0.00000000000E+00  0.00000000000E+00  0.25557879726E+03  0.25557879727E+03  0.25500000000E-02 0. -1.
          2   -1    0    0  501    0  0.00000000000E+00 -0.00000000000E+00 -0.25750655468E+04  0.25750655468E+04  0.25500000000E-02 0.  1.
    -200001    2    1    2    0    0 -0.27089670500E+03 -0.31296069596E+03 -0.57892532884E+03  0.93944036745E+03  0.61324077296E+03 0.  0.
   -5000001    2    3    3    0    0 -0.16702178691E+03 -0.13408658005E+03  0.78876688664E+02  0.24252542128E+03  0.81985118791E+02 0.  0.
     200001    1    1    2    0    0  0.27089670500E+03  0.31296069596E+03 -0.17405614207E+04  0.18912039766E+04  0.61300000000E+03 0.  1.
         13    1    4    4    0    0 -0.64542664745E+02 -0.16191777002E+02  0.38455388312E+01  0.66653796199E+02  0.10566000000E+00 0.  1.
    -200003    1    4    4    0    0 -0.10247912216E+03 -0.11789480305E+03  0.75031149833E+02  0.17587162509E+03  0.30000000000E+02 0.  1.
    -200000    1    3    3    0    0 -0.10387491809E+03 -0.17887411591E+03 -0.65780201751E+03  0.69691494617E+03  0.10100000000E+03 0.  1.
<mgrwt>
<rscale>  0 0.16225069E+04</rscale>
<asrwt>0</asrwt>
<pdfrwt beam="1">  1        2 0.36786649E+00 0.16225069E+04</pdfrwt>
<pdfrwt beam="2">  1       -2 0.36511258E-01 0.16225069E+04</pdfrwt>
<totfact> 0.27283255E+01</totfact>
</mgrwt>
</event>
<event>
 8    2  0.4306980E-052  0.1267436E+04  0.7818608E-02  0.9055795E-01
         -2   -1    0    0    0  501 -0.00000000000E+00  0.00000000000E+00  0.72752148035E+03  0.72752148036E+03  0.25500000000E-02 0. -1.
          2   -1    0    0  501    0  0.00000000000E+00 -0.00000000000E+00 -0.55200876301E+03  0.55200876301E+03  0.25500000000E-02 0.  1.
    -200001    2    1    2    0    0 -0.12842363627E+02 -0.16031902349E+03  0.92361392475E+02  0.64035088010E+03  0.61290415828E+03 0.  0.
   -5000001    2    3    3    0    0  0.28348588025E+02  0.28494060020E+02  0.24286737669E+03  0.37539781579E+03  0.28341383795E+03 0.  0.
     200001    1    1    2    0    0  0.12842363627E+02  0.16031902349E+03  0.83151324869E+02  0.63917936327E+03  0.61300000000E+03 0. -1.
         13    1    4    4    0    0  0.11213460190E+03  0.10677407397E+03  0.80908826819E+02  0.17470295143E+03  0.10566000000E+00 0.  1.
    -200003    1    4    4    0    0 -0.83786013874E+02 -0.78280013952E+02  0.16195854987E+03  0.20069486437E+03  0.30000000000E+02 0.  1.
    -200000    1    3    3    0    0 -0.41190951653E+02 -0.18881308351E+03 -0.15050598422E+03  0.26495306431E+03  0.10100000000E+03 0.  1.
<mgrwt>
<rscale>  0 0.12674356E+04</rscale>
<asrwt>0</asrwt>
<pdfrwt beam="1">  1        2 0.78858394E-01 0.12674356E+04</pdfrwt>
<pdfrwt beam="2">  1       -2 0.10393164E+00 0.12674356E+04</pdfrwt>
<totfact> 0.44365926E+01</totfact>
</mgrwt>
</event>
<event>
 8    2  0.4306980E-052  0.1465850E+04  0.7818608E-02  0.8907486E-01
         -2   -1    0    0    0  501 -0.00000000000E+00  0.00000000000E+00  0.70631933219E+03  0.70631933220E+03  0.25500000000E-02 0. -1.
          2   -1    0    0  501    0  0.00000000000E+00 -0.00000000000E+00 -0.76053246270E+03  0.76053246271E+03  0.25500000000E-02 0.  1.
    -200001    2    1    2    0    0  0.72115130940E+02  0.39280590736E+03  0.24283500134E+02  0.73103402263E+03  0.61182021943E+03 0.  0.
   -5000001    2    3    3    0    0  0.28521386765E+03  0.31851152100E+03 -0.92808613491E+02  0.45746083224E+03  0.13364293841E+03 0.  0.
     200001    1    1    2    0    0 -0.72115130940E+02 -0.39280590736E+03 -0.78496630645E+02  0.73581777227E+03  0.61300000000E+03 0. -1.
         13    1    4    4    0    0  0.12173221624E+03  0.74217024926E+02  0.14033315405E+02  0.14326145456E+03  0.10566000000E+00 0.  1.
    -200003    1    4    4    0    0  0.16348165141E+03  0.24429449608E+03 -0.10684192890E+03  0.31419937767E+03  0.30000000000E+02 0.  1.
    -200000    1    3    3    0    0 -0.21309873671E+03  0.74294386353E+02  0.11709211363E+03  0.27357319039E+03  0.10100000000E+03 0. -1.
<mgrwt>
<rscale>  0 0.14658496E+04</rscale>
<asrwt>0</asrwt>
<pdfrwt beam="1">  1        2 0.10864749E+00 0.14658496E+04</pdfrwt>
<pdfrwt beam="2">  1       -2 0.10090276E+00 0.14658496E+04</pdfrwt>
<totfact> 0.31831527E+01</totfact>
</mgrwt>
</event>
<event>
 8    2  0.4306980E-052  0.1794587E+04  0.7818608E-02  0.8709183E-01
         -2   -1    0    0    0  501 -0.00000000000E+00  0.00000000000E+00  0.40664929096E+03  0.40664929097E+03  0.25500000000E-02 0. -1.
          2   -1    0    0  501    0  0.00000000000E+00 -0.00000000000E+00 -0.19799270253E+04  0.19799270253E+04  0.25500000000E-02 0.  1.
    -200001    2    1    2    0    0 -0.34596729810E+03 -0.30527224073E+03 -0.16643680311E+03  0.78412353441E+03  0.61177119535E+03 0.  0.
   -5000001    2    3    3    0    0 -0.41791110415E+03 -0.19826703528E+03  0.93912602032E+02  0.47653803739E+03  0.65646142378E+02 0.  0.
     200001    1    1    2    0    0  0.34596729810E+03  0.30527224073E+03 -0.14068409312E+04  0.16024527818E+04  0.61300000000E+03 0.  1.
         13    1    4    4    0    0 -0.30699776245E+03 -0.15732051296E+03  0.62429988539E+02  0.35056366695E+03  0.10566000000E+00 0.  1.
    -200003    1    4    4    0    0 -0.11091334169E+03 -0.40946522311E+02  0.31482613493E+02  0.12597437044E+03  0.30000000000E+02 0.  1.
    -200000    1    3    3    0    0  0.71943806041E+02 -0.10700520546E+03 -0.26034940514E+03  0.30758549702E+03  0.10100000000E+03 0.  1.
<mgrwt>
<rscale>  0 0.17945873E+04</rscale>
<asrwt>0</asrwt>
<pdfrwt beam="1">  1        2 0.28284671E+00 0.17945873E+04</pdfrwt>
<pdfrwt beam="2">  1       -2 0.58092757E-01 0.17945873E+04</pdfrwt>
<totfact> 0.21575589E+01</totfact>
</mgrwt>
</event>
<event>
 8    2  0.4306980E-052  0.1406988E+04  0.7818608E-02  0.8948775E-01
          2   -1    0    0  501    0  0.00000000000E+00  0.00000000000E+00  0.35365985060E+03  0.35365985061E+03  0.25500000000E-02 0.  1.
         -2   -1    0    0    0  501 -0.00000000000E+00 -0.00000000000E+00 -0.13993787516E+04  0.13993787516E+04  0.25500000000E-02 0. -1.
    -200001    2    1    2    0    0 -0.42338750916E+02  0.15028255161E+02 -0.96390924208E+02  0.62210490575E+03  0.61294770185E+03 0.  0.
   -5000001    2    3    3    0    0  0.20939244026E+03 -0.12347692187E+03  0.78139985773E+02  0.27108593872E+03  0.91049352119E+02 0.  0.
     200001    1    1    2    0    0  0.42338750916E+02 -0.15028255161E+02 -0.94932797677E+03  0.11309336965E+04  0.61300000000E+03 0. -1.
         13    1    4    4    0    0  0.53187241341E+02 -0.27633242675E+02 -0.17174491440E+02  0.62349443161E+02  0.10566000000E+00 0.  1.
    -200003    1    4    4    0    0  0.15620519892E+03 -0.95843679197E+02  0.95314477213E+02  0.20873649556E+03  0.30000000000E+02 0.  1.
    -200000    1    3    3    0    0 -0.25173119118E+03  0.13850517703E+03 -0.17453090998E+03  0.35101896703E+03  0.10100000000E+03 0. -1.
<mgrwt>
<rscale>  0 0.14069884E+04</rscale>
<asrwt>0</asrwt>
<pdfrwt beam="1">  1        2 0.50522837E-01 0.14069884E+04</pdfrwt>
<pdfrwt beam="2">  1       -2 0.19991125E+00 0.14069884E+04</pdfrwt>
<totfact> 0.12871037E+01</totfact>
</mgrwt>
</event>
<event>
 8    2  0.4306980E-052  0.1387983E+04  0.7818608E-02  0.8962563E-01
         -2   -1    0    0    0  501 -0.00000000000E+00  0.00000000000E+00  0.85402006559E+03  0.85402006559E+03  0.25500000000E-02 0. -1.
          2   -1    0    0  501    0  0.00000000000E+00 -0.00000000000E+00 -0.56394958182E+03  0.56394958183E+03  0.25500000000E-02 0.  1.
    -200001    2    1    2    0    0 -0.11664269230E+03  0.20717593547E+03 -0.81232965913E+02  0.66287850216E+03  0.61341806949E+03 0.  0.
   -5000001    2    3    3    0    0 -0.17355013381E+03 -0.78311168920E+02 -0.76554474216E+02  0.35471583090E+03  0.28932757395E+03 0.  0.
     200001    1    1    2    0    0  0.11664269230E+03 -0.20717593547E+03  0.37130344967E+03  0.75509114526E+03  0.61300000000E+03 0. -1.
         13    1    4    4    0    0 -0.72609282355E+02 -0.17147774503E+03  0.15179178514E+02  0.18683453522E+03  0.10566000000E+00 0.  1.
    -200003    1    4    4    0    0 -0.10094085146E+03  0.93166576113E+02 -0.91733652731E+02  0.16788129568E+03  0.30000000000E+02 0.  1.
    -200000    1    3    3    0    0  0.56907441509E+02  0.28548710439E+03 -0.46784916964E+01  0.30816267126E+03  0.10100000000E+03 0. -1.
<mgrwt>
<rscale>  0 0.13879831E+04</rscale>
<asrwt>0</asrwt>
<pdfrwt beam="1">  1        2 0.80564226E-01 0.13879831E+04</pdfrwt>
<pdfrwt beam="2">  1       -2 0.12200287E+00 0.13879831E+04</pdfrwt>
<totfact> 0.29020611E+01</totfact>
</mgrwt>
</event>
<event>
 8    2  0.4306980E-052  0.1483973E+04  0.7818608E-02  0.8895181E-01
         -2   -1    0    0    0  501 -0.00000000000E+00  0.00000000000E+00  0.25179899406E+03  0.25179899407E+03  0.25500000000E-02 0. -1.
          2   -1    0    0  501    0  0.00000000000E+00 -0.00000000000E+00 -0.21864411638E+04  0.21864411638E+04  0.25500000000E-02 0.  1.
    -200001    2    1    2    0    0  0.13398650162E+03 -0.32757898693E+03 -0.60452547979E+03  0.93150866746E+03  0.61400078708E+03 0.  0.
   -5000001    2    3    3    0    0  0.15381035128E+02 -0.11467357585E+03  0.11013952330E+03  0.16970617508E+03  0.57296300285E+02 0.  0.
     200001    1    1    2    0    0 -0.13398650162E+03  0.32757898693E+03 -0.13301166899E+04  0.15067314904E+04  0.61300000000E+03 0.  1.
         13    1    4    4    0    0  0.24447302027E+02 -0.37091041987E+02  0.48568983527E+02  0.65820766456E+02  0.10566000000E+00 0.  1.
    -200003    1    4    4    0    0 -0.90662668989E+01 -0.77582533866E+02  0.61570539776E+02  0.10388540862E+03  0.30000000000E+02 0.  1.
    -200000    1    3    3    0    0  0.11860546649E+03 -0.21290541108E+03 -0.71466500309E+03  0.76180249238E+03  0.10100000000E+03 0.  1.
<mgrwt>
<rscale>  0 0.14839726E+04</rscale>
<asrwt>0</asrwt>
<pdfrwt beam="1">  1        2 0.31234873E+00 0.14839726E+04</pdfrwt>
<pdfrwt beam="2">  1       -2 0.35971286E-01 0.14839726E+04</pdfrwt>
<totfact> 0.45273542E+01</totfact>
</mgrwt>
</event>
<event>
 8    2  0.4306980E-052  0.1358928E+04  0.7818608E-02  0.8984097E-01
         -2   -1    0    0    0  501 -0.00000000000E+00  0.00000000000E+00  0.43311985874E+03  0.43311985875E+03  0.25500000000E-02 0. -1.
          2   -1    0    0  501    0  0.00000000000E+00 -0.00000000000E+00 -0.10659197576E+04  0.10659197576E+04  0.25500000000E-02 0.  1.
    -200001    2    1    2    0    0 -0.17906405245E+03 -0.22488511346E+03 -0.37583415168E+03  0.77485894528E+03  0.61361048424E+03 0.  0.
   -5000001    2    3    3    0    0  0.70121169257E+01 -0.13601823928E+03 -0.49359426139E+03  0.51680835804E+03  0.70038938194E+02 0.  0.
     200001    1    1    2    0    0  0.17906405245E+03  0.22488511346E+03 -0.25696574717E+03  0.72418067107E+03  0.61300000000E+03 0.  1.
         13    1    4    4    0    0  0.96468363269E+01 -0.44099263179E+02 -0.26145439176E+03  0.26532285351E+03  0.10566000000E+00 0.  1.
    -200003    1    4    4    0    0 -0.26347194013E+01 -0.91918976099E+02 -0.23213986963E+03  0.25148550452E+03  0.30000000000E+02 0.  1.
    -200000    1    3    3    0    0 -0.18607616938E+03 -0.88866874183E+02  0.11776010970E+03  0.25805058724E+03  0.10100000000E+03 0. -1.
<mgrwt>
<rscale>  0 0.13589275E+04</rscale>
<asrwt>0</asrwt>
<pdfrwt beam="1">  1        2 0.15227425E+00 0.13589275E+04</pdfrwt>
<pdfrwt beam="2">  1       -2 0.61874266E-01 0.13589275E+04</pdfrwt>
<totfact> 0.60705993E+01</totfact>
</mgrwt>
</event>
<event>
 8    2  0.4306980E-052  0.3082469E+04  0.7818608E-02  0.8220566E-01
          2   -1    0    0  501    0  0.00000000000E+00  0.00000000000E+00  0.26180947556E+04  0.26180947556E+04  0.25500000000E-02 0.  1.
         -2   -1    0    0    0  501 -0.00000000000E+00 -0.00000000000E+00 -0.90730243722E+03  0.90730243722E+03  0.25500000000E-02 0. -1.
    -200001    2    1    2    0    0 -0.13460907221E+03  0.29678662346E+03  0.24291515003E+04  0.25263922798E+04  0.61292661699E+03 0.  0.
   -5000001    2    3    3    0    0 -0.15801259652E+03  0.19981124502E+03  0.23353136564E+04  0.23562203376E+04  0.18218641857E+03 0.  0.
     200001    1    1    2    0    0  0.13460907221E+03 -0.29678662346E+03 -0.71835918187E+03  0.99900491308E+03  0.61300000000E+03 0. -1.
         13    1    4    4    0    0  0.53457716145E+01  0.13457541554E+03  0.98163042712E+03  0.99082663789E+03  0.10566000000E+00 0.  1.
    -200003    1    4    4    0    0 -0.16335836813E+03  0.65235829480E+02  0.13536832293E+04  0.13653936997E+04  0.30000000000E+02 0.  1.
    -200000    1    3    3    0    0  0.23403524312E+02  0.96975378438E+02  0.93837843903E+02  0.17017194223E+03  0.10100000000E+03 0. -1.
<mgrwt>
<rscale>  0 0.30824690E+04</rscale>
<asrwt>0</asrwt>
<pdfrwt beam="1">  1        2 0.37401354E+00 0.30824690E+04</pdfrwt>
<pdfrwt beam="2">  1       -2 0.12961463E+00 0.30824690E+04</pdfrwt>
<totfact> 0.14304102E+00</totfact>
</mgrwt>
</event>
<event>
 8    2  0.4306980E-052  0.1689647E+04  0.7818608E-02  0.8767291E-01
          2   -1    0    0  501    0  0.00000000000E+00  0.00000000000E+00  0.91325977926E+03  0.91325977927E+03  0.25500000000E-02 0. -1.
         -2   -1    0    0    0  501 -0.00000000000E+00 -0.00000000000E+00 -0.78151587444E+03  0.78151587445E+03  0.25500000000E-02 0.  1.
    -200001    2    1    2    0    0 -0.56093776015E+03  0.14825252887E+03  0.97747882556E+02  0.85005397611E+03  0.61352027732E+03 0.  0.
   -5000001    2    3    3    0    0 -0.15770515702E+03 -0.15462357878E+03 -0.15159546764E+03  0.27847408222E+03  0.76074049413E+02 0.  0.
     200001    1    1    2    0    0  0.56093776015E+03 -0.14825252887E+03  0.33996022264E+02  0.84472167760E+03  0.61300000000E+03 0. -1.
         13    1    4    4    0    0 -0.25220511149E+02 -0.41920127665E+01 -0.38942168785E+02  0.46584877668E+02  0.10566000000E+00 0.  1.
    -200003    1    4    4    0    0 -0.13248464587E+03 -0.15043156602E+03 -0.11265329886E+03  0.23188920455E+03  0.30000000000E+02 0.  1.
    -200000    1    3    3    0    0 -0.40323260313E+03  0.30287610766E+03  0.24934335020E+03  0.57157989389E+03  0.10100000000E+03 0. -1.
<mgrwt>
<rscale>  0 0.16896473E+04</rscale>
<asrwt>0</asrwt>
<pdfrwt beam="1">  1        2 0.13046568E+00 0.16896473E+04</pdfrwt>
<pdfrwt beam="2">  1       -2 0.11164512E+00 0.16896473E+04</pdfrwt>
<totfact> 0.19292882E+01</totfact>
</mgrwt>
</event>
<event>
 8    2  0.4306980E-052  0.1857685E+04  0.7818608E-02  0.8676211E-01
         -2   -1    0    0    0  501 -0.00000000000E+00  0.00000000000E+00  0.44704910189E+03  0.44704910190E+03  0.25500000000E-02 0. -1.
          2   -1    0    0  501    0  0.00000000000E+00 -0.00000000000E+00 -0.19298730637E+04  0.19298730637E+04  0.25500000000E-02 0.  1.
    -200001    2    1    2    0    0 -0.21757795341E+03  0.17624723251E+03 -0.15593374890E+04  0.16986695780E+04  0.61281455418E+03 0.  0.
   -5000001    2    3    3    0    0  0.19132677770E+03  0.87963329758E+02 -0.35463049833E+03  0.41940531289E+03  0.76121894907E+02 0.  0.
     200001    1    1    2    0    0  0.21757795341E+03 -0.17624723251E+03  0.76513527178E+02  0.67825258763E+03  0.61300000000E+03 0. -1.
         13    1    4    4    0    0  0.13647972998E+03  0.74130387704E+02 -0.20961654912E+03  0.26088530029E+03  0.10566000000E+00 0.  1.
    -200003    1    4    4    0    0  0.54847047723E+02  0.13832942055E+02 -0.14501394921E+03  0.15852001260E+03  0.30000000000E+02 0.  1.
    -200000    1    3    3    0    0 -0.40890473111E+03  0.88283902752E+02 -0.12047069906E+04  0.12792642651E+04  0.10100000000E+03 0.  1.
<mgrwt>
<rscale>  0 0.18576846E+04</rscale>
<asrwt>0</asrwt>
<pdfrwt beam="1">  1        2 0.27569615E+00 0.18576846E+04</pdfrwt>
<pdfrwt beam="2">  1       -2 0.63864158E-01 0.18576846E+04</pdfrwt>
<totfact> 0.18636680E+01</totfact>
</mgrwt>
</event>
<event>
 8    2  0.4306980E-052  0.1439798E+04  0.7818608E-02  0.8925504E-01
         -2   -1    0    0    0  501 -0.00000000000E+00  0.00000000000E+00  0.25490659790E+03  0.25490659791E+03  0.25500000000E-02 0. -1.
          2   -1    0    0  501    0  0.00000000000E+00 -0.00000000000E+00 -0.20331156709E+04  0.20331156709E+04  0.25500000000E-02 0.  1.
    -200001    2    1    2    0    0  0.36921442573E+03 -0.15910538093E+02 -0.76734437741E+03  0.10493984881E+04  0.61306390848E+03 0.  0.
   -5000001    2    3    3    0    0  0.36889731073E+03  0.12921176647E+03 -0.77450435630E+03  0.87244411786E+03  0.92308365845E+02 0.  0.
     200001    1    1    2    0    0 -0.36921442573E+03  0.15910538093E+02 -0.10108646956E+04  0.12386237807E+04  0.61300000000E+03 0.  1.
         13    1    4    4    0    0  0.32707992584E+03  0.99611604910E+02 -0.67223171812E+03  0.75418780401E+03  0.10566000000E+00 0.  1.
    -200003    1    4    4    0    0  0.41817384898E+02  0.29600161562E+02 -0.10227263818E+03  0.11825631385E+03  0.30000000000E+02 0.  1.
    -200000    1    3    3    0    0  0.31711499272E+00 -0.14512230457E+03  0.71599788944E+01  0.17695437023E+03  0.10100000000E+03 0. -1.
<mgrwt>
<rscale>  0 0.14397980E+04</rscale>
<asrwt>0</asrwt>
<pdfrwt beam="1">  1        2 0.29044509E+00 0.14397980E+04</pdfrwt>
<pdfrwt beam="2">  1       -2 0.36415229E-01 0.14397980E+04</pdfrwt>
<totfact> 0.53207819E+01</totfact>
</mgrwt>
</event>
<event>
 8    2  0.4306980E-052  0.1369912E+04  0.7818608E-02  0.8975890E-01
          2   -1    0    0  501    0  0.00000000000E+00  0.00000000000E+00  0.86843559247E+03  0.86843559247E+03  0.25500000000E-02 0.  1.
         -2   -1    0    0    0  501 -0.00000000000E+00 -0.00000000000E+00 -0.54024136155E+03  0.54024136156E+03  0.25500000000E-02 0. -1.
    -200001    2    1    2    0    0 -0.12226860998E+03 -0.21150142910E+03 -0.24724419204E+02  0.66034344476E+03  0.61299241482E+03 0.  0.
   -5000001    2    3    3    0    0  0.65748763514E+02 -0.33502104539E+00  0.23885181152E+03  0.26082471675E+03  0.81586352157E+02 0.  0.
     200001    1    1    2    0    0  0.12226860998E+03  0.21150142910E+03  0.35291865012E+03  0.74833350927E+03  0.61300000000E+03 0.  1.
         13    1    4    4    0    0  0.34646143268E+02 -0.15688784819E+02  0.19020205388E+03  0.19396733147E+03  0.10566000000E+00 0.  1.
    -200003    1    4    4    0    0  0.31102620246E+02  0.15353763773E+02  0.48649757637E+02  0.66857385278E+02  0.30000000000E+02 0.  1.
    -200000    1    3    3    0    0 -0.18801737349E+03 -0.21116640805E+03 -0.26357623073E+03  0.39951872801E+03  0.10100000000E+03 0. -1.
<mgrwt>
<rscale>  0 0.13699122E+04</rscale>
<asrwt>0</asrwt>
<pdfrwt beam="1">  1        2 0.12406223E+00 0.13699122E+04</pdfrwt>
<pdfrwt beam="2">  1       -2 0.77177339E-01 0.13699122E+04</pdfrwt>
<totfact> 0.49947065E+01</totfact>
</mgrwt>
</event>
<event>
 8    2  0.4306980E-052  0.3944269E+04  0.7818608E-02  0.8015885E-01
         -2   -1    0    0    0  501 -0.00000000000E+00  0.00000000000E+00  0.18269608870E+04  0.18269608870E+04  0.25500000000E-02 0. -1.
          2   -1    0    0  501    0  0.00000000000E+00 -0.00000000000E+00 -0.21288435468E+04  0.21288435468E+04  0.25500000000E-02 0.  1.
    -200001    2    1    2    0    0  0.18475171219E+04  0.31269000314E+03 -0.99439357619E+02  0.19739248097E+04  0.61269602136E+03 0.  0.
   -5000001    2    3    3    0    0  0.17814005266E+04  0.21268929535E+03 -0.16575432374E+03  0.18037184042E+04  0.85445966492E+02 0.  0.
     200001    1    1    2    0    0 -0.18475171219E+04 -0.31269000314E+03 -0.20244330218E+03  0.19818796241E+04  0.61300000000E+03 0. -1.
         13    1    4    4    0    0  0.68254735162E+03  0.11206215950E+03 -0.85425876124E+02  0.69694074804E+03  0.10566000000E+00 0.  1.
    -200003    1    4    4    0    0  0.10988531750E+04  0.10062713585E+03 -0.80328447620E+02  0.11067776562E+04  0.30000000000E+02 0.  1.
    -200000    1    3    3    0    0  0.66116595275E+02  0.10000070779E+03  0.66314966125E+02  0.17020640547E+03  0.10100000000E+03 0. -1.
<mgrwt>
<rscale>  0 0.39442687E+04</rscale>
<asrwt>0</asrwt>
<pdfrwt beam="1">  1        2 0.30412051E+00 0.39442687E+04</pdfrwt>
<pdfrwt beam="2">  1       -2 0.26099441E+00 0.39442687E+04</pdfrwt>
<totfact> 0.30349216E-01</totfact>
</mgrwt>
</event>
<event>
 8    2  0.4306980E-052  0.1524992E+04  0.7818608E-02  0.8868002E-01
         -2   -1    0    0    0  501 -0.00000000000E+00  0.00000000000E+00  0.34807539638E+03  0.34807539638E+03  0.25500000000E-02 0. -1.
          2   -1    0    0  501    0  0.00000000000E+00 -0.00000000000E+00 -0.16703276175E+04  0.16703276175E+04  0.25500000000E-02 0.  1.
    -200001    2    1    2    0    0 -0.19671968117E+02  0.44196645640E+03 -0.78752756190E+03  0.10924328221E+04  0.61440090750E+03 0.  0.
   -5000001    2    3    3    0    0  0.16038024742E+03 -0.66513034115E+02 -0.32687575187E+03  0.37593349714E+03  0.65821194431E+02 0.  0.
     200001    1    1    2    0    0  0.19671968117E+02 -0.44196645640E+03 -0.53472465925E+03  0.92597019182E+03  0.61300000000E+03 0.  1.
         13    1    4    4    0    0  0.35392206732E+02  0.10219757148E+01 -0.34238023672E+02  0.49253488818E+02  0.10566000000E+00 0.  1.
    -200003    1    4    4    0    0  0.12498804068E+03 -0.67535009830E+02 -0.29263772820E+03  0.32668000832E+03  0.30000000000E+02 0.  1.
    -200000    1    3    3    0    0 -0.18005221553E+03  0.50847949052E+03 -0.46065181002E+03  0.71649932497E+03  0.10100000000E+03 0. -1.
<mgrwt>
<rscale>  0 0.15249917E+04</rscale>
<asrwt>0</asrwt>
<pdfrwt beam="1">  1        2 0.23861823E+00 0.15249917E+04</pdfrwt>
<pdfrwt beam="2">  1       -2 0.49725058E-01 0.15249917E+04</pdfrwt>
<totfact> 0.43932675E+01</totfact>
</mgrwt>
</event>
<event>
 8    2  0.4306980E-052  0.1343890E+04  0.7818608E-02  0.8995466E-01
         -2   -1    0    0    0  501 -0.00000000000E+00  0.00000000000E+00  0.31164192562E+03  0.31164192563E+03  0.25500000000E-02 0. -1.
          2   -1    0    0  501    0  0.00000000000E+00 -0.00000000000E+00 -0.14488107790E+04  0.14488107790E+04  0.25500000000E-02 0.  1.
    -200001    2    1    2    0    0 -0.63450653091E+02  0.26540764478E+03 -0.61095836561E+03  0.90773136640E+03  0.61338316389E+03 0.  0.
   -5000001    2    3    3    0    0  0.27035776105E+02  0.64943400876E+02  0.43051816316E+02  0.21037634561E+03  0.19353596409E+03 0.  0.
     200001    1    1    2    0    0  0.63450653091E+02 -0.26540764478E+03 -0.52621048781E+03  0.85272133829E+03  0.61300000000E+03 0. -1.
         13    1    4    4    0    0  0.10417223414E+03  0.12044231258E+02  0.48349187297E+01  0.10497764274E+03  0.10566000000E+00 0.  1.
    -200003    1    4    4    0    0 -0.77136458036E+02  0.52899169618E+02  0.38216897586E+02  0.10539870287E+03  0.30000000000E+02 0.  1.
    -200000    1    3    3    0    0 -0.90486429196E+02  0.20046424390E+03 -0.65401018193E+03  0.69735502079E+03  0.10100000000E+03 0.  1.
<mgrwt>
<rscale>  0 0.13438901E+04</rscale>
<asrwt>0</asrwt>
<pdfrwt beam="1">  1        2 0.20697297E+00 0.13438901E+04</pdfrwt>
<pdfrwt beam="2">  1       -2 0.44520276E-01 0.13438901E+04</pdfrwt>
<totfact> 0.72824800E+01</totfact>
</mgrwt>
</event>
<event>
 8    2  0.4306980E-052  0.1337385E+04  0.7818608E-02  0.9000432E-01
         -2   -1    0    0    0  501 -0.00000000000E+00  0.00000000000E+00  0.45687727296E+03  0.45687727296E+03  0.25500000000E-02 0. -1.
          2   -1    0    0  501    0  0.00000000000E+00 -0.00000000000E+00 -0.97870914376E+03  0.97870914376E+03  0.25500000000E-02 0.  1.
    -200001    2    1    2    0    0 -0.15981642751E+02 -0.54980944645E+02 -0.54013182329E+03  0.81964631782E+03  0.61383986723E+03 0.  0.
   -5000001    2    3    3    0    0  0.40265308303E+02 -0.30708359137E+03 -0.37336848941E+03  0.49602543853E+03  0.10351608396E+03 0.  0.
     200001    1    1    2    0    0  0.15981642751E+02  0.54980944645E+02  0.18299952488E+02  0.61594009891E+03  0.61300000000E+03 0. -1.
         13    1    4    4    0    0 -0.10025724984E+02 -0.21893475697E+03 -0.27389007818E+03  0.35078302277E+03  0.10566000000E+00 0.  1.
    -200003    1    4    4    0    0  0.50291033288E+02 -0.88148834397E+02 -0.99478411233E+02  0.14524241576E+03  0.30000000000E+02 0.  1.
    -200000    1    3    3    0    0 -0.56246951054E+02  0.25210264672E+03 -0.16676333388E+03  0.32362087929E+03  0.10100000000E+03 0.  1.
<mgrwt>
<rscale>  0 0.13373855E+04</rscale>
<asrwt>0</asrwt>
<pdfrwt beam="1">  1        2 0.13981559E+00 0.13373855E+04</pdfrwt>
<pdfrwt beam="2">  1       -2 0.65268182E-01 0.13373855E+04</pdfrwt>
<totfact> 0.61333586E+01</totfact>
</mgrwt>
</event>
<event>
 8    2  0.4306980E-052  0.1961495E+04  0.7818608E-02  0.8624838E-01
          2   -1    0    0  501    0  0.00000000000E+00  0.00000000000E+00  0.16933444005E+04  0.16933444005E+04  0.25500000000E-02 0.  1.
         -2   -1    0    0    0  501 -0.00000000000E+00 -0.00000000000E+00 -0.56802699544E+03  0.56802699544E+03  0.25500000000E-02 0. -1.
    -200001    2    1    2    0    0  0.76060831697E+02  0.38084762282E+03  0.13231594072E+04  0.15092140855E+04  0.61330757145E+03 0.  0.
   -5000001    2    3    3    0    0  0.89399542146E+02 -0.12782266301E+03  0.56750912384E+03  0.59262708387E+03  0.69349430958E+02 0.  0.
     200001    1    1    2    0    0 -0.76060831697E+02 -0.38084762282E+03 -0.19784200206E+03  0.75215731048E+03  0.61300000000E+03 0. -1.
         13    1    4    4    0    0  0.92056798983E+01 -0.24103544195E+02  0.35532432280E+02  0.43912302296E+02  0.10566000000E+00 0.  1.
    -200003    1    4    4    0    0  0.80193862248E+02 -0.10371911882E+03  0.53197669156E+03  0.54871478157E+03  0.30000000000E+02 0.  1.
    -200000    1    3    3    0    0 -0.13338710449E+02  0.50867028583E+03  0.75565028331E+03  0.91658700162E+03  0.10100000000E+03 0. -1.
<mgrwt>
<rscale>  0 0.19614947E+04</rscale>
<asrwt>0</asrwt>
<pdfrwt beam="1">  1        2 0.24190634E+00 0.19614947E+04</pdfrwt>
<pdfrwt beam="2">  1       -2 0.81146714E-01 0.19614947E+04</pdfrwt>
<totfact> 0.14479139E+01</totfact>
</mgrwt>
</event>
<event>
 8    2  0.4306980E-052  0.2627476E+04  0.7818608E-02  0.8358928E-01
         -2   -1    0    0    0  501 -0.00000000000E+00  0.00000000000E+00  0.20476948929E+04  0.20476948929E+04  0.25500000000E-02 0. -1.
          2   -1    0    0  501    0  0.00000000000E+00 -0.00000000000E+00 -0.84285401657E+03  0.84285401657E+03  0.25500000000E-02 0.  1.
    -200001    2    1    2    0    0  0.55838201447E+03  0.75049738713E+03  0.13606758232E+04  0.17613499311E+04  0.61308896727E+03 0.  0.
   -5000001    2    3    3    0    0  0.27199051349E+03  0.14278640141E+03  0.10728557692E+03  0.33568487807E+03  0.82506645135E+02 0.  0.
     200001    1    1    2    0    0 -0.55838201447E+03 -0.75049738713E+03 -0.15583494683E+03  0.11291989784E+04  0.61300000000E+03 0.  1.
         13    1    4    4    0    0  0.15293674573E+03  0.73055556238E+02  0.22468265797E+02  0.17097250254E+03  0.10566000000E+00 0.  1.
    -200003    1    4    4    0    0  0.11905376776E+03  0.69730845175E+02  0.84817311125E+02  0.16471237553E+03  0.30000000000E+02 0.  1.
    -200000    1    3    3    0    0  0.28639150098E+03  0.60771098572E+03  0.12533902462E+04  0.14256650530E+04  0.10100000000E+03 0. -1.
<mgrwt>
<rscale>  0 0.26274763E+04</rscale>
<asrwt>0</asrwt>
<pdfrwt beam="1">  1        2 0.12040772E+00 0.26274763E+04</pdfrwt>
<pdfrwt beam="2">  1       -2 0.29252784E+00 0.26274763E+04</pdfrwt>
<totfact> 0.11123369E+00</totfact>
</mgrwt>
</event>
<event>
 8    2  0.4306980E-052  0.3304594E+04  0.7818608E-02  0.8161727E-01
          2   -1    0    0  501    0  0.00000000000E+00  0.00000000000E+00  0.40251145277E+04  0.40251145277E+04  0.25500000000E-02 0.  1.
         -2   -1    0    0    0  501 -0.00000000000E+00 -0.00000000000E+00 -0.67826295186E+03  0.67826295187E+03  0.25500000000E-02 0. -1.
    -200001    2    1    2    0    0  0.23564820268E+03  0.42603714237E+03 -0.39731787068E+03  0.87824851881E+03  0.61353178265E+03 0.  0.
   -5000001    2    3    3    0    0  0.25879587818E+03  0.55332828960E+03 -0.30434205525E+03  0.68961036440E+03  0.98948802243E+02 0.  0.
     200001    1    1    2    0    0 -0.23564820268E+03 -0.42603714237E+03  0.37441694465E+04  0.38251289607E+04  0.61300000000E+03 0.  1.
         13    1    4    4    0    0  0.96828895029E+02  0.29598327819E+03 -0.12695084101E+03  0.33630114938E+03  0.10566000000E+00 0.  1.
    -200003    1    4    4    0    0  0.16196698315E+03  0.25734501141E+03 -0.17739121423E+03  0.35330921502E+03  0.30000000000E+02 0.  1.
    -200000    1    3    3    0    0 -0.23147675502E+02 -0.12729114723E+03 -0.92975815436E+02  0.18863815441E+03  0.10100000000E+03 0. -1.
<mgrwt>
<rscale>  0 0.33045944E+04</rscale>
<asrwt>0</asrwt>
<pdfrwt beam="1">  1        2 0.57501634E+00 0.33045944E+04</pdfrwt>
<pdfrwt beam="2">  1       -2 0.96894712E-01 0.33045944E+04</pdfrwt>
<totfact> 0.40881653E-01</totfact>
</mgrwt>
</event>
<event>
 8    2  0.4306980E-052  0.1706466E+04  0.7818608E-02  0.8757685E-01
          2   -1    0    0  501    0  0.00000000000E+00  0.00000000000E+00  0.45737794434E+03  0.45737794435E+03  0.25500000000E-02 0.  1.
         -2   -1    0    0    0  501 -0.00000000000E+00 -0.00000000000E+00 -0.15916964226E+04  0.15916964226E+04  0.25500000000E-02 0. -1.
    -200001    2    1    2    0    0  0.40272927270E+03  0.78936867925E+02 -0.53923523239E+02  0.74085261394E+03  0.61443710258E+03 0.  0.
   -5000001    2    3    3    0    0 -0.85769183797E+02 -0.38047459860E+02 -0.17760446960E+03  0.21377192616E+03  0.73151395757E+02 0.  0.
     200001    1    1    2    0    0 -0.40272927270E+03 -0.78936867925E+02 -0.10803949550E+04  0.13082217530E+04  0.61300000000E+03 0. -1.
         13    1    4    4    0    0 -0.60504612173E+02 -0.49400663562E+02 -0.11421400313E+03  0.13836937280E+03  0.10566000000E+00 0.  1.
    -200003    1    4    4    0    0 -0.25264571624E+02  0.11353203702E+02 -0.63390466469E+02  0.75402553358E+02  0.30000000000E+02 0.  1.
    -200000    1    3    3    0    0  0.48849845650E+03  0.11698432778E+03  0.12368094636E+03  0.52708068779E+03  0.10100000000E+03 0.  1.
<mgrwt>
<rscale>  0 0.17064663E+04</rscale>
<asrwt>0</asrwt>
<pdfrwt beam="1">  1        2 0.65339707E-01 0.17064663E+04</pdfrwt>
<pdfrwt beam="2">  1       -2 0.22738520E+00 0.17064663E+04</pdfrwt>
<totfact> 0.62900303E+00</totfact>
</mgrwt>
</event>
<event>
 8    2  0.4306980E-052  0.1448210E+04  0.7818608E-02  0.8919642E-01
          2   -1    0    0  501    0  0.00000000000E+00  0.00000000000E+00  0.20113185715E+04  0.20113185715E+04  0.25500000000E-02 0.  1.
         -2   -1    0    0    0  501 -0.00000000000E+00 -0.00000000000E+00 -0.26068876518E+03  0.26068876519E+03  0.25500000000E-02 0. -1.
    -200001    2    1    2    0    0 -0.14314478408E+03  0.35337119513E+03  0.96449432033E+03  0.12047024913E+04  0.61294140645E+03 0.  0.
   -5000001    2    3    3    0    0  0.11706737897E+03 -0.37980888914E+02  0.52093177172E+03  0.55062638100E+03  0.12912080205E+03 0.  0.
     200001    1    1    2    0    0  0.14314478408E+03 -0.35337119513E+03  0.78613548598E+03  0.10673048454E+04  0.61300000000E+03 0. -1.
         13    1    4    4    0    0  0.13072642533E+03 -0.47962497168E+02  0.46023415872E+03  0.48083811354E+03  0.10566000000E+00 0.  1.
    -200003    1    4    4    0    0 -0.13659046363E+02  0.99816082543E+01  0.60697612998E+02  0.69788267456E+02  0.30000000000E+02 0.  1.
    -200000    1    3    3    0    0 -0.26021216305E+03  0.39135208404E+03  0.44356254861E+03  0.65407611026E+03  0.10100000000E+03 0.  1.
<mgrwt>
<rscale>  0 0.14482101E+04</rscale>
<asrwt>0</asrwt>
<pdfrwt beam="1">  1        2 0.28733123E+00 0.14482101E+04</pdfrwt>
<pdfrwt beam="2">  1       -2 0.37241251E-01 0.14482101E+04</pdfrwt>
<totfact> 0.52254151E+01</totfact>
</mgrwt>
</event>
<event>
 8    2  0.4306980E-052  0.1590212E+04  0.7818608E-02  0.8826584E-01
          2   -1    0    0  501    0  0.00000000000E+00  0.00000000000E+00  0.31194979080E+04  0.31194979080E+04  0.25500000000E-02 0.  1.
         -2   -1    0    0    0  501 -0.00000000000E+00 -0.00000000000E+00 -0.20265869414E+03  0.20265869415E+03  0.25500000000E-02 0. -1.
    -200001    2    1    2    0    0 -0.45896756795E+03  0.10550105029E+03  0.10675790677E+04  0.13178328288E+04  0.61251661117E+03 0.  0.
   -5000001    2    3    3    0    0 -0.25071989105E+03  0.26283745103E+03  0.23672406659E+03  0.44111002727E+03  0.81214426213E+02 0.  0.
     200001    1    1    2    0    0  0.45896756795E+03 -0.10550105029E+03  0.18492601462E+04  0.20043237733E+04  0.61300000000E+03 0.  1.
         13    1    4    4    0    0 -0.46515609619E+02  0.62678994790E+02  0.18648948212E+02  0.80250562363E+02  0.10566000000E+00 0.  1.
    -200003    1    4    4    0    0 -0.20420428143E+03  0.20015845624E+03  0.21807511838E+03  0.36085946491E+03  0.30000000000E+02 0.  1.
    -200000    1    3    3    0    0 -0.20824767690E+03 -0.15733640075E+03  0.83085500110E+03  0.87672280157E+03  0.10100000000E+03 0.  1.
<mgrwt>
<rscale>  0 0.15902118E+04</rscale>
<asrwt>0</asrwt>
<pdfrwt beam="1">  1        2 0.44564255E+00 0.15902118E+04</pdfrwt>
<pdfrwt beam="2">  1       -2 0.28951243E-01 0.15902118E+04</pdfrwt>
<totfact> 0.21365227E+01</totfact>
</mgrwt>
</event>
<event>
 8    2  0.4306980E-052  0.1729737E+04  0.7818608E-02  0.8744584E-01
         -2   -1    0    0    0  501 -0.00000000000E+00  0.00000000000E+00  0.15711615535E+03  0.15711615537E+03  0.25500000000E-02 0. -1.
          2   -1    0    0  501    0  0.00000000000E+00 -0.00000000000E+00 -0.47607912740E+04  0.47607912740E+04  0.25500000000E-02 0.  1.
    -200001    2    1    2    0    0  0.10038364316E+03 -0.60185027383E+03 -0.22894811879E+04  0.24473683835E+04  0.61285174961E+03 0.  0.
   -5000001    2    3    3    0    0  0.67270569421E+02 -0.55116461119E+03 -0.22564497976E+04  0.23250671783E+04  0.77871280430E+02 0.  0.
     200001    1    1    2    0    0 -0.10038364316E+03  0.60185027383E+03 -0.23141939308E+04  0.24705390459E+04  0.61300000000E+03 0. -1.
         13    1    4    4    0    0  0.18774001318E+02 -0.31239160551E+03 -0.13666149701E+04  0.14019905371E+04  0.10566000000E+00 0.  1.
    -200003    1    4    4    0    0  0.48496568102E+02 -0.23877300568E+03 -0.88983482751E+03  0.92307664124E+03  0.30000000000E+02 0. -1.
    -200000    1    3    3    0    0  0.33113073744E+02 -0.50685662638E+02 -0.33031390258E+02  0.12230120520E+03  0.10100000000E+03 0. -1.
<mgrwt>
<rscale>  0 0.17297367E+04</rscale>
<asrwt>0</asrwt>
<pdfrwt beam="1">  1        2 0.68011295E+00 0.17297367E+04</pdfrwt>
<pdfrwt beam="2">  1       -2 0.22445168E-01 0.17297367E+04</pdfrwt>
<totfact> 0.24894000E+00</totfact>
</mgrwt>
</event>
<event>
 8    2  0.4306980E-052  0.1454415E+04  0.7818608E-02  0.8915345E-01
          2   -1    0    0  501    0  0.00000000000E+00  0.00000000000E+00  0.28819913093E+04  0.28819913093E+04  0.25500000000E-02 0.  1.
         -2   -1    0    0    0  501 -0.00000000000E+00 -0.00000000000E+00 -0.18349493291E+03  0.18349493292E+03  0.25500000000E-02 0. -1.
    -200001    2    1    2    0    0  0.27834868374E+03 -0.64964257039E+02  0.19136714987E+04  0.20294276372E+04  0.61215977095E+03 0.  0.
   -5000001    2    3    3    0    0 -0.95073307679E+02  0.40755034708E+02  0.89220161963E+02  0.16142222165E+03  0.86005753609E+02 0.  0.
     200001    1    1    2    0    0 -0.27834868374E+03  0.64964257039E+02  0.78482487767E+03  0.10360586050E+04  0.61300000000E+03 0. -1.
         13    1    4    4    0    0 -0.20310563436E+02 -0.18900532321E+02  0.42677437676E+02  0.50903083991E+02  0.10566000000E+00 0.  1.
    -200003    1    4    4    0    0 -0.74762744243E+02  0.59655567030E+02  0.46542724287E+02  0.11051913766E+03  0.30000000000E+02 0.  1.
    -200000    1    3    3    0    0  0.37342199142E+03 -0.10571929175E+03  0.18244513368E+04  0.18680054155E+04  0.10100000000E+03 0.  1.
<mgrwt>
<rscale>  0 0.14544151E+04</rscale>
<asrwt>0</asrwt>
<pdfrwt beam="1">  1        2 0.41171306E+00 0.14544151E+04</pdfrwt>
<pdfrwt beam="2">  1       -2 0.26213561E-01 0.14544151E+04</pdfrwt>
<totfact> 0.35203404E+01</totfact>
</mgrwt>
</event>
<event>
 8    2  0.4306980E-052  0.1582550E+04  0.7818608E-02  0.8831340E-01
         -2   -1    0    0    0  501 -0.00000000000E+00  0.00000000000E+00  0.12596222617E+03  0.12596222620E+03  0.25500000000E-02 0. -1.
          2   -1    0    0  501    0  0.00000000000E+00 -0.00000000000E+00 -0.49706664382E+04  0.49706664382E+04  0.25500000000E-02 0.  1.
    -200001    2    1    2    0    0 -0.43240489714E+03 -0.67946812082E+02 -0.16422373754E+04  0.18067724967E+04  0.61310072044E+03 0.  0.
   -5000001    2    3    3    0    0 -0.67577404035E+02 -0.89516992730E+02 -0.12648345614E+04  0.12717974913E+04  0.71290908247E+02 0.  0.
     200001    1    1    2    0    0  0.43240489714E+03  0.67946812082E+02 -0.32024668366E+04  0.32898561677E+04  0.61300000000E+03 0.  1.
         13    1    4    4    0    0  0.91696436301E+00 -0.43370600370E+02 -0.51748500967E+03  0.51930010225E+03  0.10566000000E+00 0.  1.
    -200003    1    4    4    0    0 -0.68494368399E+02 -0.46146392360E+02 -0.74734955176E+03  0.75249738906E+03  0.30000000000E+02 0.  1.
    -200000    1    3    3    0    0 -0.36482749310E+03  0.21570180648E+02 -0.37740281396E+03  0.53497500540E+03  0.10100000000E+03 0. -1.
<mgrwt>
<rscale>  0 0.15825501E+04</rscale>
<asrwt>0</asrwt>
<pdfrwt beam="1">  1        2 0.71009508E+00 0.15825501E+04</pdfrwt>
<pdfrwt beam="2">  1       -2 0.17994607E-01 0.15825501E+04</pdfrwt>
<totfact> 0.24106642E+00</totfact>
</mgrwt>
</event>
<event>
 8    2  0.4306980E-052  0.1600258E+04  0.7818608E-02  0.8820390E-01
         -2   -1    0    0    0  501 -0.00000000000E+00  0.00000000000E+00  0.49449523570E+03  0.49449523571E+03  0.25500000000E-02 0.  1.
          2   -1    0    0  501    0  0.00000000000E+00 -0.00000000000E+00 -0.12946664053E+04  0.12946664053E+04  0.25500000000E-02 0. -1.
    -200001    2    1    2    0    0  0.48676472768E+03 -0.10950289251E+03 -0.26189473354E+03  0.83289739655E+03  0.61335017579E+03 0.  0.
   -5000001    2    3    3    0    0  0.43363657593E+03 -0.22834583572E+03 -0.36293435722E+03  0.63961974340E+03  0.19289781703E+03 0.  0.
     200001    1    1    2    0    0 -0.48676472768E+03  0.10950289251E+03 -0.53827643601E+03  0.95626424441E+03  0.61300000000E+03 0. -1.
         13    1    4    4    0    0  0.27802288341E+02 -0.44462586748E+02  0.15061497587E+02  0.54559588808E+02  0.10566000000E+00 0.  1.
    -200003    1    4    4    0    0  0.40583428759E+03 -0.18388324897E+03 -0.37799585480E+03  0.58506015459E+03  0.30000000000E+02 0.  1.
    -200000    1    3    3    0    0  0.53128151746E+02  0.11884294321E+03  0.10103962367E+03  0.19327765316E+03  0.10100000000E+03 0.  1.
<mgrwt>
<rscale>  0 0.16002579E+04</rscale>
<asrwt>0</asrwt>
<pdfrwt beam="1">  1        2 0.18495234E+00 0.16002579E+04</pdfrwt>
<pdfrwt beam="2">  1       -2 0.70642177E-01 0.16002579E+04</pdfrwt>
<totfact> 0.33099412E+01</totfact>
</mgrwt>
</event>
<event>
 8    2  0.4306980E-052  0.1392772E+04  0.7818608E-02  0.8959067E-01
          2   -1    0    0  501    0  0.00000000000E+00  0.00000000000E+00  0.33899449969E+03  0.33899449970E+03  0.25500000000E-02 0.  1.
         -2   -1    0    0    0  501 -0.00000000000E+00 -0.00000000000E+00 -0.14305654005E+04  0.14305654005E+04  0.25500000000E-02 0. -1.
    -200001    2    1    2    0    0 -0.44427165244E+02 -0.29977295269E+03 -0.71168461895E+03  0.98730662709E+03  0.61354851713E+03 0.  0.
   -5000001    2    3    3    0    0 -0.21721655320E+02  0.12277860081E+03 -0.45875766289E+03  0.48407864631E+03  0.91253095385E+02 0.  0.
     200001    1    1    2    0    0  0.44427165244E+02  0.29977295269E+03 -0.37988628189E+03  0.78225327314E+03  0.61300000000E+03 0. -1.
         13    1    4    4    0    0  0.94649510308E+01  0.10635298173E+03 -0.28787859019E+03  0.30704174940E+03  0.10566000000E+00 0.  1.
    -200003    1    4    4    0    0 -0.31186606351E+02  0.16425619087E+02 -0.17087907271E+03  0.17703689691E+03  0.30000000000E+02 0.  1.
    -200000    1    3    3    0    0 -0.22705509924E+02 -0.42255155350E+03 -0.25292695606E+03  0.50322798079E+03  0.10100000000E+03 0. -1.
<mgrwt>
<rscale>  0 0.13927725E+04</rscale>
<asrwt>0</asrwt>
<pdfrwt beam="1">  1        2 0.48427786E-01 0.13927725E+04</pdfrwt>
<pdfrwt beam="2">  1       -2 0.20436648E+00 0.13927725E+04</pdfrwt>
<totfact> 0.12632278E+01</totfact>
</mgrwt>
</event>
<event>
 8    2  0.4306980E-052  0.1662367E+04  0.7818608E-02  0.8783124E-01
         -2   -1    0    0    0  501 -0.00000000000E+00  0.00000000000E+00  0.49732322075E+03  0.49732322076E+03  0.25500000000E-02 0. -1.
          2   -1    0    0  501    0  0.00000000000E+00 -0.00000000000E+00 -0.13891694355E+04  0.13891694355E+04  0.25500000000E-02 0.  1.
    -200001    2    1    2    0    0 -0.44493516416E+03  0.93627940858E+02 -0.81964593227E+03  0.11198666898E+04  0.61282008539E+03 0.  0.
   -5000001    2    3    3    0    0 -0.33369849750E+03  0.21217908872E+03 -0.74264930055E+03  0.91357211411E+03  0.35596540722E+03 0.  0.
     200001    1    1    2    0    0  0.44493516416E+03 -0.93627940858E+02 -0.72200282466E+02  0.76662596643E+03  0.61300000000E+03 0. -1.
         13    1    4    4    0    0  0.43372692302E+02  0.14044189294E+03 -0.21168544130E+03  0.25771273339E+03  0.10566000000E+00 0.  1.
    -200003    1    4    4    0    0 -0.37707118980E+03  0.71737195779E+02 -0.53096385926E+03  0.65585938072E+03  0.30000000000E+02 0.  1.
    -200000    1    3    3    0    0 -0.11123666666E+03 -0.11855114786E+03 -0.76996631716E+02  0.20629457571E+03  0.10100000000E+03 0. -1.
<mgrwt>
<rscale>  0 0.16623672E+04</rscale>
<asrwt>0</asrwt>
<pdfrwt beam="1">  1        2 0.19845278E+00 0.16623672E+04</pdfrwt>
<pdfrwt beam="2">  1       -2 0.71046175E-01 0.16623672E+04</pdfrwt>
<totfact> 0.28871850E+01</totfact>
</mgrwt>
</event>
<event>
 8    2  0.4306980E-052  0.1332853E+04  0.7818608E-02  0.9003910E-01
         -2   -1    0    0    0  501 -0.00000000000E+00  0.00000000000E+00  0.53997886930E+03  0.53997886931E+03  0.25500000000E-02 0. -1.
          2   -1    0    0  501    0  0.00000000000E+00 -0.00000000000E+00 -0.82248490165E+03  0.82248490165E+03  0.25500000000E-02 0.  1.
    -200001    2    1    2    0    0  0.45225362569E+02 -0.25154848496E+03 -0.81414013250E+02  0.66854088342E+03  0.61236973925E+03 0.  0.
   -5000001    2    3    3    0    0 -0.15548095504E+03 -0.11134524711E+03 -0.11399486179E+03  0.40170294473E+03  0.33436258142E+03 0.  0.
     200001    1    1    2    0    0 -0.45225362569E+02  0.25154848496E+03 -0.20109201909E+03  0.69392288754E+03  0.61300000000E+03 0. -1.
         13    1    4    4    0    0 -0.94837281014E+02  0.65767832515E+02  0.72065140710E+02  0.13606216716E+03  0.10566000000E+00 0.  1.
    -200003    1    4    4    0    0 -0.60643674029E+02 -0.17711307963E+03 -0.18606000250E+03  0.26564077757E+03  0.30000000000E+02 0.  1.
    -200000    1    3    3    0    0  0.20070631761E+03 -0.14020323785E+03  0.32580848545E+02  0.26683793869E+03  0.10100000000E+03 0. -1.
<mgrwt>
<rscale>  0 0.13328533E+04</rscale>
<asrwt>0</asrwt>
<pdfrwt beam="1">  1        2 0.11749784E+00 0.13328533E+04</pdfrwt>
<pdfrwt beam="2">  1       -2 0.77139839E-01 0.13328533E+04</pdfrwt>
<totfact> 0.53864917E+01</totfact>
</mgrwt>
</event>
<event>
 8    2  0.4306980E-052  0.2315862E+04  0.7818608E-02  0.8471693E-01
          2   -1    0    0  501    0  0.00000000000E+00  0.00000000000E+00  0.26873564270E+04  0.26873564270E+04  0.25500000000E-02 0.  1.
         -2   -1    0    0    0  501 -0.00000000000E+00 -0.00000000000E+00 -0.49893034850E+03  0.49893034851E+03  0.25500000000E-02 0. -1.
    -200001    2    1    2    0    0  0.56791997275E+03 -0.79979555636E+03  0.10243309001E+04  0.15452223003E+04  0.61339394931E+03 0.  0.
   -5000001    2    3    3    0    0  0.59808245142E+02 -0.56264767387E+03  0.37401329606E+03  0.68062376225E+03  0.56686232908E+02 0.  0.
     200001    1    1    2    0    0 -0.56791997275E+03  0.79979555636E+03  0.11640951784E+04  0.16410644752E+04  0.61300000000E+03 0. -1.
         13    1    4    4    0    0  0.21200718549E+01 -0.65805267642E+01 -0.68642938503E+00  0.69484089187E+01  0.10566000000E+00 0.  1.
    -200003    1    4    4    0    0  0.57688173287E+02 -0.55606714711E+03  0.37469972545E+03  0.67367535333E+03  0.30000000000E+02 0.  1.
    -200000    1    3    3    0    0  0.50811172761E+03 -0.23714788249E+03  0.65031760402E+03  0.86459853805E+03  0.10100000000E+03 0.  1.
<mgrwt>
<rscale>  0 0.23158615E+04</rscale>
<asrwt>0</asrwt>
<pdfrwt beam="1">  1        2 0.38390806E+00 0.23158615E+04</pdfrwt>
<pdfrwt beam="2">  1       -2 0.71275765E-01 0.23158615E+04</pdfrwt>
<totfact> 0.56926622E+00</totfact>
</mgrwt>
</event>
<event>
 8    2  0.4306980E-052  0.1272666E+04  0.7818608E-02  0.9051527E-01
         -2   -1    0    0    0  501 -0.00000000000E+00  0.00000000000E+00  0.81906214478E+03  0.81906214479E+03  0.25500000000E-02 0. -1.
          2   -1    0    0  501    0  0.00000000000E+00 -0.00000000000E+00 -0.49436992441E+03  0.49436992441E+03  0.25500000000E-02 0.  1.
    -200001    2    1    2    0    0  0.34870778670E+02  0.16550422080E+03  0.14732543144E+03  0.65325361141E+03  0.61353718695E+03 0.  0.
   -5000001    2    3    3    0    0  0.30621465020E+03  0.88913739628E+02  0.34916832474E+02  0.33336254942E+03  0.90765296650E+02 0.  0.
     200001    1    1    2    0    0 -0.34870778670E+02 -0.16550422080E+03  0.17736678894E+03  0.66017845779E+03  0.61300000000E+03 0.  1.
         13    1    4    4    0    0  0.25271384175E+03  0.91683510804E+02  0.16847163674E+02  0.26935847871E+03  0.10566000000E+00 0.  1.
    -200003    1    4    4    0    0  0.53500808446E+02 -0.27697711761E+01  0.18069668799E+02  0.64004070708E+02  0.30000000000E+02 0. -1.
    -200000    1    3    3    0    0 -0.27134387153E+03  0.76590481174E+02  0.11240859897E+03  0.31989106199E+03  0.10100000000E+03 0. -1.
<mgrwt>
<rscale>  0 0.12726660E+04</rscale>
<asrwt>0</asrwt>
<pdfrwt beam="1">  1        2 0.70624275E-01 0.12726660E+04</pdfrwt>
<pdfrwt beam="2">  1       -2 0.11700888E+00 0.12726660E+04</pdfrwt>
<totfact> 0.37793489E+01</totfact>
</mgrwt>
</event>
<event>
 8    2  0.4306980E-052  0.1637080E+04  0.7818608E-02  0.8798087E-01
          2   -1    0    0  501    0  0.00000000000E+00  0.00000000000E+00  0.28343620662E+04  0.28343620662E+04  0.25500000000E-02 0.  1.
         -2   -1    0    0    0  501 -0.00000000000E+00 -0.00000000000E+00 -0.23638737061E+03  0.23638737062E+03  0.25500000000E-02 0. -1.
    -200001    2    1    2    0    0  0.82392127625E+02 -0.43305370458E+03  0.18910827971E+04  0.20364433265E+04  0.61366383522E+03 0.  0.
   -5000001    2    3    3    0    0 -0.28903008741E+01 -0.45827237785E+03  0.18306548256E+04  0.18889251451E+04  0.81970648881E+02 0.  0.
     200001    1    1    2    0    0 -0.82392127625E+02  0.43305370458E+03  0.70689189845E+03  0.10343061103E+04  0.61300000000E+03 0.  1.
         13    1    4    4    0    0  0.15591004353E+02 -0.13491320217E+03  0.42713653751E+03  0.44820785845E+03  0.10566000000E+00 0.  1.
    -200003    1    4    4    0    0 -0.18481305228E+02 -0.32335917568E+03  0.14035182881E+04  0.14407172867E+04  0.30000000000E+02 0.  1.
    -200000    1    3    3    0    0  0.85282428499E+02  0.25218673271E+02  0.60427971554E+02  0.14751818138E+03  0.10100000000E+03 0. -1.
<mgrwt>
<rscale>  0 0.16370796E+04</rscale>
<asrwt>0</asrwt>
<pdfrwt beam="1">  1        2 0.40490886E+00 0.16370796E+04</pdfrwt>
<pdfrwt beam="2">  1       -2 0.33769625E-01 0.16370796E+04</pdfrwt>
<totfact> 0.22959791E+01</totfact>
</mgrwt>
</event>
<event>
 8    2  0.4306980E-052  0.1564798E+04  0.7818608E-02  0.8842471E-01
          2   -1    0    0  501    0  0.00000000000E+00  0.00000000000E+00  0.11940848945E+04  0.11940848946E+04  0.25500000000E-02 0.  1.
         -2   -1    0    0    0  501 -0.00000000000E+00 -0.00000000000E+00 -0.51265053227E+03  0.51265053228E+03  0.25500000000E-02 0. -1.
    -200001    2    1    2    0    0 -0.19333711526E+03 -0.33942735469E+03  0.65696700823E+03  0.97944056183E+03  0.61246060690E+03 0.  0.
   -5000001    2    3    3    0    0  0.38755713638E+02 -0.32567427695E+03  0.87096981930E+02  0.35573464134E+03  0.10674975774E+03 0.  0.
     200001    1    1    2    0    0  0.19333711526E+03  0.33942735469E+03  0.24467354042E+02  0.72729486500E+03  0.61300000000E+03 0. -1.
         13    1    4    4    0    0  0.58204363827E+01 -0.39861535137E+01  0.23854204107E+02  0.24875713400E+02  0.10566000000E+00 0.  1.
    -200003    1    4    4    0    0  0.32935277255E+02 -0.32168812344E+03  0.63242777823E+02  0.33085892794E+03  0.30000000000E+02 0.  1.
    -200000    1    3    3    0    0 -0.23209282890E+03 -0.13753077732E+02  0.56987002630E+03  0.62370592049E+03  0.10100000000E+03 0.  1.
<mgrwt>
<rscale>  0 0.15647981E+04</rscale>
<asrwt>0</asrwt>
<pdfrwt beam="1">  1        2 0.17058355E+00 0.15647981E+04</pdfrwt>
<pdfrwt beam="2">  1       -2 0.73235791E-01 0.15647981E+04</pdfrwt>
<totfact> 0.34932309E+01</totfact>
</mgrwt>
</event>
<event>
 8    2  0.4306980E-052  0.1523682E+04  0.7818608E-02  0.8868856E-01
          2   -1    0    0  501    0  0.00000000000E+00  0.00000000000E+00  0.24213495643E+04  0.24213495643E+04  0.25500000000E-02 0.  1.
         -2   -1    0    0    0  501 -0.00000000000E+00 -0.00000000000E+00 -0.23970174448E+03  0.23970174449E+03  0.25500000000E-02 0. -1.
    -200001    2    1    2    0    0 -0.42594308392E+01  0.38172519356E+03  0.66802903370E+03  0.98398747702E+03  0.61338103892E+03 0.  0.
   -5000001    2    3    3    0    0 -0.22206605940E+03  0.67056479249E+02  0.49070498659E+03  0.55028141884E+03  0.90599944292E+02 0.  0.
     200001    1    1    2    0    0  0.42594308392E+01 -0.38172519356E+03  0.15136187861E+04  0.16770638318E+04  0.61300000000E+03 0.  1.
         13    1    4    4    0    0 -0.51772815958E+01 -0.35130752041E+01 -0.19571614655E+01  0.65564919850E+01  0.10566000000E+00 0.  1.
    -200003    1    4    4    0    0 -0.21688877781E+03  0.70569554453E+02  0.49266214806E+03  0.54372492686E+03  0.30000000000E+02 0.  1.
    -200000    1    3    3    0    0  0.21780662856E+03  0.31466871431E+03  0.17732404711E+03  0.43370605817E+03  0.10100000000E+03 0. -1.
<mgrwt>
<rscale>  0 0.15236820E+04</rscale>
<asrwt>0</asrwt>
<pdfrwt beam="1">  1        2 0.34590708E+00 0.15236820E+04</pdfrwt>
<pdfrwt beam="2">  1       -2 0.34243106E-01 0.15236820E+04</pdfrwt>
<totfact> 0.37457089E+01</totfact>
</mgrwt>
</event>
<event>
 8    2  0.4306980E-052  0.1615055E+04  0.7818608E-02  0.8811352E-01
          2   -1    0    0  501    0  0.00000000000E+00  0.00000000000E+00  0.34532932524E+03  0.34532932525E+03  0.25500000000E-02 0. -1.
         -2   -1    0    0    0  501 -0.00000000000E+00 -0.00000000000E+00 -0.18883441253E+04  0.18883441253E+04  0.25500000000E-02 0.  1.
    -200001    2    1    2    0    0 -0.16211492020E+03 -0.44640431933E+03 -0.46343824755E+03  0.90445842040E+03  0.61458275380E+03 0.  0.
   -5000001    2    3    3    0    0 -0.50355846826E+01  0.14311752844E+03 -0.10901159955E+03  0.19169676637E+03  0.66001040423E+02 0.  0.
     200001    1    1    2    0    0  0.16211492020E+03  0.44640431933E+03 -0.10795765525E+04  0.13292150302E+04  0.61300000000E+03 0.  1.
         13    1    4    4    0    0 -0.23488100289E+02  0.73564042466E+02 -0.71247320188E+02  0.10506926762E+03  0.10566000000E+00 0.  1.
    -200003    1    4    4    0    0  0.18452515606E+02  0.69553485978E+02 -0.37764279366E+02  0.86627498751E+02  0.30000000000E+02 0.  1.
    -200000    1    3    3    0    0 -0.15707933552E+03 -0.58952184778E+03 -0.35442664800E+03  0.71276165404E+03  0.10100000000E+03 0. -1.
<mgrwt>
<rscale>  0 0.16150549E+04</rscale>
<asrwt>0</asrwt>
<pdfrwt beam="1">  1        2 0.49332762E-01 0.16150549E+04</pdfrwt>
<pdfrwt beam="2">  1       -2 0.26976344E+00 0.16150549E+04</pdfrwt>
<totfact> 0.47647099E+00</totfact>
</mgrwt>
</event>
<event>
 8    2  0.4306980E-052  0.1720537E+04  0.7818608E-02  0.8749737E-01
         -2   -1    0    0    0  501 -0.00000000000E+00  0.00000000000E+00  0.36702254823E+03  0.36702254824E+03  0.25500000000E-02 0. -1.
          2   -1    0    0  501    0  0.00000000000E+00 -0.00000000000E+00 -0.20163943664E+04  0.20163943664E+04  0.25500000000E-02 0.  1.
    -200001    2    1    2    0    0  0.12651515644E+03  0.27956107239E+02 -0.80178677644E+01  0.62654485919E+03  0.61294905631E+03 0.  0.
   -5000001    2    3    3    0    0 -0.22340143343E+03 -0.75844509927E+02  0.21188608071E+02  0.24671567887E+03  0.68986077906E+02 0.  0.
     200001    1    1    2    0    0 -0.12651515644E+03 -0.27956107239E+02 -0.16413539504E+04  0.17568720555E+04  0.61300000000E+03 0.  1.
         13    1    4    4    0    0 -0.17302914734E+03 -0.68903968432E+02  0.91924126085E+01  0.18647078674E+03  0.10566000000E+00 0.  1.
    -200003    1    4    4    0    0 -0.50372286094E+02 -0.69405414950E+01  0.11996195463E+02  0.60244892133E+02  0.30000000000E+02 0. -1.
    -200000    1    3    3    0    0  0.34991658987E+03  0.10380061717E+03 -0.29206475836E+02  0.37982918032E+03  0.10100000000E+03 0.  1.
<mgrwt>
<rscale>  0 0.17205374E+04</rscale>
<asrwt>0</asrwt>
<pdfrwt beam="1">  1        2 0.28805633E+00 0.17205374E+04</pdfrwt>
<pdfrwt beam="2">  1       -2 0.52431794E-01 0.17205374E+04</pdfrwt>
<totfact> 0.25721982E+01</totfact>
</mgrwt>
</event>
<event>
 8    2  0.4306980E-052  0.2108880E+04  0.7818608E-02  0.8557342E-01
          2   -1    0    0  501    0  0.00000000000E+00  0.00000000000E+00  0.11830610871E+04  0.11830610871E+04  0.25500000000E-02 0.  1.
         -2   -1    0    0    0  501 -0.00000000000E+00 -0.00000000000E+00 -0.93980278710E+03  0.93980278711E+03  0.25500000000E-02 0. -1.
    -200001    2    1    2    0    0 -0.20814346880E+03  0.13420780337E+03 -0.70509256727E+03  0.96680427127E+03  0.61336737152E+03 0.  0.
   -5000001    2    3    3    0    0  0.18028032232E+03  0.11268797977E+03 -0.39875027806E+03  0.46145019493E+03  0.93460808614E+02 0.  0.
     200001    1    1    2    0    0  0.20814346880E+03 -0.13420780337E+03  0.94835086722E+03  0.11560596029E+04  0.61300000000E+03 0.  1.
         13    1    4    4    0    0  0.10965391082E+03  0.19723653815E+02 -0.20290519769E+03  0.23148117222E+03  0.10566000000E+00 0.  1.
    -200003    1    4    4    0    0  0.70626411503E+02  0.92964325953E+02 -0.19584508037E+03  0.22996902271E+03  0.30000000000E+02 0.  1.
    -200000    1    3    3    0    0 -0.38842379112E+03  0.21519823606E+02 -0.30634228921E+03  0.50535407634E+03  0.10100000000E+03 0.  1.
<mgrwt>
<rscale>  0 0.21088804E+04</rscale>
<asrwt>0</asrwt>
<pdfrwt beam="1">  1        2 0.16900873E+00 0.21088804E+04</pdfrwt>
<pdfrwt beam="2">  1       -2 0.13425754E+00 0.21088804E+04</pdfrwt>
<totfact> 0.80884378E+00</totfact>
</mgrwt>
</event>
<event>
 8    2  0.4306980E-052  0.1584197E+04  0.7818608E-02  0.8830315E-01
          2   -1    0    0  501    0  0.00000000000E+00  0.00000000000E+00  0.27973135409E+04  0.27973135409E+04  0.25500000000E-02 0.  1.
         -2   -1    0    0    0  501 -0.00000000000E+00 -0.00000000000E+00 -0.22429388022E+03  0.22429388024E+03  0.25500000000E-02 0. -1.
    -200001    2    1    2    0    0  0.42650125646E+03 -0.14401166299E+03  0.17073480292E+04  0.18693057877E+04  0.61369711939E+03 0.  0.
   -5000001    2    3    3    0    0  0.41281582993E+03 -0.27804817758E+03  0.13376436268E+04  0.14630602667E+04  0.32175638824E+03 0.  0.
     200001    1    1    2    0    0 -0.42650125646E+03  0.14401166299E+03  0.86567163151E+03  0.11523016334E+04  0.61300000000E+03 0. -1.
         13    1    4    4    0    0  0.40094351042E+03 -0.26912432136E+03  0.13447637120E+04  0.14288362577E+04  0.10566000000E+00 0.  1.
    -200003    1    4    4    0    0  0.11872319512E+02 -0.89238562175E+01 -0.71200852824E+01  0.34224009041E+02  0.30000000000E+02 0.  1.
    -200000    1    3    3    0    0  0.13685426531E+02  0.13403651459E+03  0.36970440242E+03  0.40624552098E+03  0.10100000000E+03 0.  1.
<mgrwt>
<rscale>  0 0.15841973E+04</rscale>
<asrwt>0</asrwt>
<pdfrwt beam="1">  1        2 0.39961622E+00 0.15841973E+04</pdfrwt>
<pdfrwt beam="2">  1       -2 0.32041983E-01 0.15841973E+04</pdfrwt>
<totfact> 0.26681281E+01</totfact>
</mgrwt>
</event>
<event>
 8    2  0.4306980E-052  0.1935517E+04  0.7818608E-02  0.8637376E-01
          2   -1    0    0  501    0  0.00000000000E+00  0.00000000000E+00  0.75524200478E+03  0.75524200479E+03  0.25500000000E-02 0. -1.
         -2   -1    0    0    0  501 -0.00000000000E+00 -0.00000000000E+00 -0.12400751132E+04  0.12400751133E+04  0.25500000000E-02 0.  1.
    -200001    2    1    2    0    0  0.41842099913E+03  0.34818213104E+03  0.28731642140E+03  0.86913293002E+03  0.61362398514E+03 0.  0.
   -5000001    2    3    3    0    0  0.40328707501E+03  0.35568316655E+03 -0.18201582015E+02  0.54691010090E+03  0.98124314208E+02 0.  0.
     200001    1    1    2    0    0 -0.41842099913E+03 -0.34818213104E+03 -0.77214952986E+03  0.11261841880E+04  0.61300000000E+03 0.  1.
         13    1    4    4    0    0  0.24883649183E+03  0.16142819790E+03 -0.78457449596E+01  0.29671573875E+03  0.10566000000E+00 0.  1.
    -200003    1    4    4    0    0  0.15445058318E+03  0.19425496865E+03 -0.10355837055E+02  0.25019436215E+03  0.30000000000E+02 0.  1.
    -200000    1    3    3    0    0  0.15133924117E+02 -0.75010355102E+01  0.30551800341E+03  0.32222282912E+03  0.10100000000E+03 0. -1.
<mgrwt>
<rscale>  0 0.19355173E+04</rscale>
<asrwt>0</asrwt>
<pdfrwt beam="1">  1        2 0.10789172E+00 0.19355173E+04</pdfrwt>
<pdfrwt beam="2">  1       -2 0.17715359E+00 0.19355173E+04</pdfrwt>
<totfact> 0.72737054E+00</totfact>
</mgrwt>
</event>
<event>
 8    2  0.4306980E-052  0.1680303E+04  0.7818608E-02  0.8772679E-01
          2   -1    0    0  501    0  0.00000000000E+00  0.00000000000E+00  0.10816293731E+04  0.10816293731E+04  0.25500000000E-02 0.  1.
         -2   -1    0    0    0  501 -0.00000000000E+00 -0.00000000000E+00 -0.65258423700E+03  0.65258423701E+03  0.25500000000E-02 0. -1.
    -200001    2    1    2    0    0 -0.17508008137E+03  0.52866908635E+01  0.77828362102E+03  0.10072902969E+04  0.61500192157E+03 0.  0.
   -5000001    2    3    3    0    0  0.20085237933E+03  0.74151019271E+02  0.19448779014E+03  0.30224697706E+03  0.87679431352E+02 0.  0.
     200001    1    1    2    0    0  0.17508008137E+03 -0.52866908635E+01 -0.34923848488E+03  0.72692331323E+03  0.61300000000E+03 0. -1.
         13    1    4    4    0    0  0.13466794834E+03  0.77819691375E+02  0.15447357559E+03  0.21921098831E+03  0.10566000000E+00 0.  1.
    -200003    1    4    4    0    0  0.66184430996E+02 -0.36686721040E+01  0.40014214554E+02  0.83035988750E+02  0.30000000000E+02 0.  1.
    -200000    1    3    3    0    0 -0.37593246070E+03 -0.68864328408E+02  0.58379583087E+03  0.70504331986E+03  0.10100000000E+03 0.  1.
<mgrwt>
<rscale>  0 0.16803027E+04</rscale>
<asrwt>0</asrwt>
<pdfrwt beam="1">  1        2 0.15451848E+00 0.16803027E+04</pdfrwt>
<pdfrwt beam="2">  1       -2 0.93226321E-01 0.16803027E+04</pdfrwt>
<totfact> 0.23319501E+01</totfact>
</mgrwt>
</event>
<event>
 8    2  0.4306980E-052  0.1244039E+04  0.7818608E-02  0.9075159E-01
         -2   -1    0    0    0  501 -0.00000000000E+00  0.00000000000E+00  0.13238328651E+03  0.13238328653E+03  0.25500000000E-02 0. -1.
          2   -1    0    0  501    0  0.00000000000E+00 -0.00000000000E+00 -0.29226379956E+04  0.29226379956E+04  0.25500000000E-02 0.  1.
    -200001    2    1    2    0    0  0.36246072630E+02 -0.59402385043E+02 -0.15923053636E+04  0.17075443601E+04  0.61272257141E+03 0.  0.
   -5000001    2    3    3    0    0  0.33842670258E+02  0.24243763434E+03 -0.41316878839E+03  0.48620196882E+03  0.75911619116E+02 0.  0.
     200001    1    1    2    0    0 -0.36246072630E+02  0.59402385043E+02 -0.11979493454E+04  0.13474769220E+04  0.61300000000E+03 0. -1.
         13    1    4    4    0    0  0.50515202318E+01  0.71768194565E+02 -0.18318484789E+03  0.19680673583E+03  0.10566000000E+00 0.  1.
    -200003    1    4    4    0    0  0.28791150026E+02  0.17066943977E+03 -0.22998394049E+03  0.28939523299E+03  0.30000000000E+02 0.  1.
    -200000    1    3    3    0    0  0.24034023716E+01 -0.30184001938E+03 -0.11791365753E+04  0.12213423913E+04  0.10100000000E+03 0.  1.
<mgrwt>
<rscale>  0 0.12440393E+04</rscale>
<asrwt>0</asrwt>
<pdfrwt beam="1">  1        2 0.41751967E+00 0.12440393E+04</pdfrwt>
<pdfrwt beam="2">  1       -2 0.18911900E-01 0.12440393E+04</pdfrwt>
<totfact> 0.60997328E+01</totfact>
</mgrwt>
</event>
<event>
 8    2  0.4306980E-052  0.1844212E+04  0.7818608E-02  0.8683135E-01
          2   -1    0    0  501    0  0.00000000000E+00  0.00000000000E+00  0.18066248240E+04  0.18066248240E+04  0.25500000000E-02 0.  1.
         -2   -1    0    0    0  501 -0.00000000000E+00 -0.00000000000E+00 -0.47064548229E+03  0.47064548229E+03  0.25500000000E-02 0. -1.
    -200001    2    1    2    0    0 -0.59498434727E+01 -0.44257769619E+03  0.13201970755E+04  0.15210107624E+04  0.61208087989E+03 0.  0.
   -5000001    2    3    3    0    0 -0.52726430514E+02  0.94807084471E+02  0.59735381063E+03  0.61344597845E+03  0.87840387421E+02 0.  0.
     200001    1    1    2    0    0  0.59498434727E+01  0.44257769619E+03  0.15782266269E+02  0.75625954390E+03  0.61300000000E+03 0. -1.
         13    1    4    4    0    0 -0.57545474460E+02  0.35506991909E+02  0.38470888402E+03  0.39060615037E+03  0.10566000000E+00 0.  1.
    -200003    1    4    4    0    0  0.48190439457E+01  0.59300092563E+02  0.21264492661E+03  0.22283982807E+03  0.30000000000E+02 0.  1.
    -200000    1    3    3    0    0  0.46776587041E+02 -0.53738478067E+03  0.72284326486E+03  0.90756478399E+03  0.10100000000E+03 0. -1.
<mgrwt>
<rscale>  0 0.18442124E+04</rscale>
<asrwt>0</asrwt>
<pdfrwt beam="1">  1        2 0.25808926E+00 0.18442124E+04</pdfrwt>
<pdfrwt beam="2">  1       -2 0.67235070E-01 0.18442124E+04</pdfrwt>
<totfact> 0.19335576E+01</totfact>
</mgrwt>
</event>
<event>
 8    2  0.4306980E-052  0.1395648E+04  0.7818608E-02  0.8956975E-01
          2   -1    0    0  501    0  0.00000000000E+00  0.00000000000E+00  0.45301053895E+03  0.45301053895E+03  0.25500000000E-02 0.  1.
         -2   -1    0    0    0  501 -0.00000000000E+00 -0.00000000000E+00 -0.10749387739E+04  0.10749387739E+04  0.25500000000E-02 0. -1.
    -200001    2    1    2    0    0  0.22128117155E+03  0.23786400150E+03 -0.22618514446E+03  0.72924646840E+03  0.61245085682E+03 0.  0.
   -5000001    2    3    3    0    0  0.30879487505E+03 -0.31877369159E+02 -0.27565160489E+03  0.42417764657E+03  0.87019693470E+02 0.  0.
     200001    1    1    2    0    0 -0.22128117155E+03 -0.23786400150E+03 -0.39574309054E+03  0.79870284449E+03  0.61300000000E+03 0. -1.
         13    1    4    4    0    0  0.15298540511E+03 -0.53868523190E+02 -0.13624276201E+03  0.21182174895E+03  0.10566000000E+00 0.  1.
    -200003    1    4    4    0    0  0.15580946994E+03  0.21991154031E+02 -0.13940884289E+03  0.21235589762E+03  0.30000000000E+02 0.  1.
    -200000    1    3    3    0    0 -0.87513703498E+02  0.26974137066E+03  0.49466460437E+02  0.30506882183E+03  0.10100000000E+03 0.  1.
<mgrwt>
<rscale>  0 0.13956484E+04</rscale>
<asrwt>0</asrwt>
<pdfrwt beam="1">  1        2 0.64715792E-01 0.13956484E+04</pdfrwt>
<pdfrwt beam="2">  1       -2 0.15356268E+00 0.13956484E+04</pdfrwt>
<totfact> 0.20609717E+01</totfact>
</mgrwt>
</event>
<event>
 8    2  0.4306980E-052  0.1545203E+04  0.7818608E-02  0.8854937E-01
          2   -1    0    0  501    0  0.00000000000E+00  0.00000000000E+00  0.16804053480E+04  0.16804053480E+04  0.25500000000E-02 0.  1.
         -2   -1    0    0    0  501 -0.00000000000E+00 -0.00000000000E+00 -0.35521980858E+03  0.35521980859E+03  0.25500000000E-02 0. -1.
    -200001    2    1    2    0    0 -0.22513358213E+03 -0.14016253796E+03  0.15153966242E+03  0.68523842997E+03  0.61339772560E+03 0.  0.
   -5000001    2    3    3    0    0  0.13593515896E+03 -0.69352782680E+02  0.23808786886E+03  0.29398883026E+03  0.80345647733E+02 0.  0.
     200001    1    1    2    0    0  0.22513358213E+03  0.14016253796E+03  0.11736458770E+04  0.13503867266E+04  0.61300000000E+03 0.  1.
         13    1    4    4    0    0  0.76348451926E+02 -0.25654115502E+02  0.65315211330E+02  0.10369815692E+03  0.10566000000E+00 0.  1.
    -200003    1    4    4    0    0  0.59586707037E+02 -0.43698667178E+02  0.17277265753E+03  0.19029067334E+03  0.30000000000E+02 0.  1.
    -200000    1    3    3    0    0 -0.36106874109E+03 -0.70809755277E+02 -0.86548206436E+02  0.39124959971E+03  0.10100000000E+03 0. -1.
<mgrwt>
<rscale>  0 0.15452032E+04</rscale>
<asrwt>0</asrwt>
<pdfrwt beam="1">  1        2 0.24005791E+00 0.15452032E+04</pdfrwt>
<pdfrwt beam="2">  1       -2 0.50745687E-01 0.15452032E+04</pdfrwt>
<totfact> 0.41578736E+01</totfact>
</mgrwt>
</event>
<event>
 8    2  0.4306980E-052  0.1403079E+04  0.7818608E-02  0.8951593E-01
          2   -1    0    0  501    0  0.00000000000E+00  0.00000000000E+00  0.19738752216E+04  0.19738752216E+04  0.25500000000E-02 0.  1.
         -2   -1    0    0    0  501 -0.00000000000E+00 -0.00000000000E+00 -0.24933575165E+03  0.24933575167E+03  0.25500000000E-02 0. -1.
    -200001    2    1    2    0    0 -0.31973632860E+03  0.11161472054E+03  0.93302186094E+03  0.11663484983E+04  0.61249478429E+03 0.  0.
   -5000001    2    3    3    0    0  0.79260554742E+01 -0.16825730532E+03  0.10038392328E+03  0.22338618513E+03  0.10700987107E+03 0.  0.
     200001    1    1    2    0    0  0.31973632860E+03 -0.11161472054E+03  0.79151760900E+03  0.10568624750E+04  0.61300000000E+03 0. -1.
         13    1    4    4    0    0 -0.20534770509E+02 -0.10597656804E+01  0.32073819388E+02  0.38099093917E+02  0.10566000000E+00 0.  1.
    -200003    1    4    4    0    0  0.28460825983E+02 -0.16719753964E+03  0.68310103888E+02  0.18528709121E+03  0.30000000000E+02 0.  1.
    -200000    1    3    3    0    0 -0.32766238407E+03  0.27987202585E+03  0.83263793766E+03  0.94296231315E+03  0.10100000000E+03 0.  1.
<mgrwt>
<rscale>  0 0.14030790E+04</rscale>
<asrwt>0</asrwt>
<pdfrwt beam="1">  1        2 0.28198217E+00 0.14030790E+04</pdfrwt>
<pdfrwt beam="2">  1       -2 0.35619393E-01 0.14030790E+04</pdfrwt>
<totfact> 0.59709151E+01</totfact>
</mgrwt>
</event>
<event>
 8    2  0.4306980E-052  0.1460832E+04  0.7818608E-02  0.8910925E-01
         -2   -1    0    0    0  501 -0.00000000000E+00  0.00000000000E+00  0.31612526447E+03  0.31612526448E+03  0.25500000000E-02 0. -1.
          2   -1    0    0  501    0  0.00000000000E+00 -0.00000000000E+00 -0.16876454927E+04  0.16876454927E+04  0.25500000000E-02 0.  1.
    -200001    2    1    2    0    0  0.24329060696E+03  0.31598026337E+03 -0.66112158596E+03  0.98422719402E+03  0.61039951815E+03 0.  0.
   -5000001    2    3    3    0    0 -0.13611785732E+03 -0.18145808642E+02 -0.33156402077E+03  0.37234468607E+03  0.99239729548E+02 0.  0.
     200001    1    1    2    0    0 -0.24329060696E+03 -0.31598026337E+03 -0.71039864229E+03  0.10195435632E+04  0.61300000000E+03 0. -1.
         13    1    4    4    0    0 -0.68835602531E+02 -0.38652259721E+01 -0.25877750394E+03  0.26780419686E+03  0.10566000000E+00 0.  1.
    -200003    1    4    4    0    0 -0.67282254789E+02 -0.14280582670E+02 -0.72786516828E+02  0.10454048920E+03  0.30000000000E+02 0.  1.
    -200000    1    3    3    0    0  0.37940846428E+03  0.33412607201E+03 -0.32955756519E+03  0.61188250795E+03  0.10100000000E+03 0. -1.
<mgrwt>
<rscale>  0 0.14608318E+04</rscale>
<asrwt>0</asrwt>
<pdfrwt beam="1">  1        2 0.24109221E+00 0.14608318E+04</pdfrwt>
<pdfrwt beam="2">  1       -2 0.45160753E-01 0.14608318E+04</pdfrwt>
<totfact> 0.52507282E+01</totfact>
</mgrwt>
</event>
<event>
 8    2  0.4306980E-052  0.1356398E+04  0.7818608E-02  0.8985999E-01
          2   -1    0    0  501    0  0.00000000000E+00  0.00000000000E+00  0.88011045234E+03  0.88011045234E+03  0.25500000000E-02 0. -1.
         -2   -1    0    0    0  501 -0.00000000000E+00 -0.00000000000E+00 -0.52260902103E+03  0.52260902104E+03  0.25500000000E-02 0.  1.
    -200001    2    1    2    0    0  0.78182470866E+01  0.20933426976E+03  0.38603203663E+03  0.75428678071E+03  0.61322577634E+03 0.  0.
   -5000001    2    3    3    0    0  0.57029647957E+02 -0.18628706762E+03  0.41244132653E+02  0.21761397229E+03  0.87746852628E+02 0.  0.
     200001    1    1    2    0    0 -0.78182470866E+01 -0.20933426976E+03 -0.28530605324E+02  0.64843269267E+03  0.61300000000E+03 0.  1.
         13    1    4    4    0    0 -0.17313641665E+02 -0.37743957670E+02 -0.68809351862E+01  0.42091887121E+02  0.10566000000E+00 0.  1.
    -200003    1    4    4    0    0  0.74343289621E+02 -0.14854310995E+03  0.48125067839E+02  0.17552208517E+03  0.30000000000E+02 0.  1.
    -200000    1    3    3    0    0 -0.49211400870E+02  0.39562133739E+03  0.34478790398E+03  0.53667280842E+03  0.10100000000E+03 0.  1.
<mgrwt>
<rscale>  0 0.13563977E+04</rscale>
<asrwt>0</asrwt>
<pdfrwt beam="1">  1        2 0.12573006E+00 0.13563977E+04</pdfrwt>
<pdfrwt beam="2">  1       -2 0.74658432E-01 0.13563977E+04</pdfrwt>
<totfact> 0.52866536E+01</totfact>
</mgrwt>
</event>
<event>
 8    2  0.4306980E-052  0.1406092E+04  0.7818608E-02  0.8949420E-01
         -2   -1    0    0    0  501 -0.00000000000E+00  0.00000000000E+00  0.60222827942E+03  0.60222827942E+03  0.25500000000E-02 0. -1.
          2   -1    0    0  501    0  0.00000000000E+00 -0.00000000000E+00 -0.82074190268E+03  0.82074190269E+03  0.25500000000E-02 0.  1.
    -200001    2    1    2    0    0 -0.27806227973E+03 -0.11170206438E+03  0.62632741298E+02  0.68499439598E+03  0.61277930746E+03 0.  0.
   -5000001    2    3    3    0    0 -0.39032194343E+03  0.93729614326E+02 -0.38737616281E+02  0.41061991447E+03  0.77276459000E+02 0.  0.
     200001    1    1    2    0    0  0.27806227973E+03  0.11170206438E+03 -0.28114636456E+03  0.73797578612E+03  0.61300000000E+03 0. -1.
         13    1    4    4    0    0 -0.13382922584E+03 -0.22268794471E+00 -0.18053177975E+02  0.13504162202E+03  0.10566000000E+00 0.  1.
    -200003    1    4    4    0    0 -0.25649271759E+03  0.93952302271E+02 -0.20684438306E+02  0.27557829245E+03  0.30000000000E+02 0.  1.
    -200000    1    3    3    0    0  0.11225966370E+03 -0.20543167871E+03  0.10137035758E+03  0.27437448152E+03  0.10100000000E+03 0. -1.
<mgrwt>
<rscale>  0 0.14060924E+04</rscale>
<asrwt>0</asrwt>
<pdfrwt beam="1">  1        2 0.11724884E+00 0.14060924E+04</pdfrwt>
<pdfrwt beam="2">  1       -2 0.86032611E-01 0.14060924E+04</pdfrwt>
<totfact> 0.42005827E+01</totfact>
</mgrwt>
</event>
<event>
 8    2  0.4306980E-052  0.1424225E+04  0.7818608E-02  0.8936468E-01
         -2   -1    0    0    0  501 -0.00000000000E+00  0.00000000000E+00  0.25859279530E+03  0.25859279531E+03  0.25500000000E-02 0. -1.
          2   -1    0    0  501    0  0.00000000000E+00 -0.00000000000E+00 -0.19610146658E+04  0.19610146658E+04  0.25500000000E-02 0.  1.
    -200001    2    1    2    0    0  0.22476338720E+03  0.28455560987E+03 -0.88184152145E+03  0.11330479438E+04  0.61209696843E+03 0.  0.
   -5000001    2    3    3    0    0  0.15814991024E+03  0.37783809509E+03 -0.88686909286E+03  0.98019097201E+03  0.80402323011E+02 0.  0.
     200001    1    1    2    0    0 -0.22476338720E+03 -0.28455560987E+03 -0.82058034910E+03  0.10865595173E+04  0.61300000000E+03 0. -1.
         13    1    4    4    0    0  0.72705512777E+02  0.16918886925E+03 -0.31699412453E+03  0.36660094274E+03  0.10566000000E+00 0.  1.
    -200003    1    4    4    0    0  0.85444397464E+02  0.20864922583E+03 -0.56987496833E+03  0.61359002928E+03  0.30000000000E+02 0.  1.
    -200000    1    3    3    0    0  0.66613476962E+02 -0.93282485221E+02  0.50275714082E+01  0.15285697183E+03  0.10100000000E+03 0. -1.
<mgrwt>
<rscale>  0 0.14242251E+04</rscale>
<asrwt>0</asrwt>
<pdfrwt beam="1">  1        2 0.28014495E+00 0.14242251E+04</pdfrwt>
<pdfrwt beam="2">  1       -2 0.36941829E-01 0.14242251E+04</pdfrwt>
<totfact> 0.56431736E+01</totfact>
</mgrwt>
</event>
<event>
 8    2  0.4306980E-052  0.1487452E+04  0.7818608E-02  0.8892840E-01
          2   -1    0    0  501    0  0.00000000000E+00  0.00000000000E+00  0.27225792336E+04  0.27225792336E+04  0.25500000000E-02 0.  1.
         -2   -1    0    0    0  501 -0.00000000000E+00 -0.00000000000E+00 -0.20316348724E+03  0.20316348725E+03  0.25500000000E-02 0. -1.
    -200001    2    1    2    0    0  0.36872063271E+03 -0.12972402955E+03  0.94787457070E+03  0.11941844932E+04  0.61223130701E+03 0.  0.
   -5000001    2    3    3    0    0  0.39926295000E+03 -0.16875090135E+03  0.29247902856E+03  0.52920310513E+03  0.81389031122E+02 0.  0.
     200001    1    1    2    0    0 -0.36872063271E+03  0.12972402955E+03  0.15715411757E+04  0.17315582276E+04  0.61300000000E+03 0.  1.
         13    1    4    4    0    0  0.14467189847E+03 -0.59194448000E+02  0.14775621856E+03  0.21509498406E+03  0.10566000000E+00 0.  1.
    -200003    1    4    4    0    0  0.25459105153E+03 -0.10955645335E+03  0.14472281000E+03  0.31410812108E+03  0.30000000000E+02 0.  1.
    -200000    1    3    3    0    0 -0.30542317296E+02  0.39026871795E+02  0.65539554214E+03  0.66498138810E+03  0.10100000000E+03 0.  1.
<mgrwt>
<rscale>  0 0.14874524E+04</rscale>
<asrwt>0</asrwt>
<pdfrwt beam="1">  1        2 0.38893986E+00 0.14874524E+04</pdfrwt>
<pdfrwt beam="2">  1       -2 0.29023357E-01 0.14874524E+04</pdfrwt>
<totfact> 0.35514358E+01</totfact>
</mgrwt>
</event>
<event>
 8    2  0.4306980E-052  0.1587865E+04  0.7818608E-02  0.8828038E-01
          2   -1    0    0  501    0  0.00000000000E+00  0.00000000000E+00  0.79732375115E+03  0.79732375116E+03  0.25500000000E-02 0.  1.
         -2   -1    0    0    0  501 -0.00000000000E+00 -0.00000000000E+00 -0.79055528259E+03  0.79055528259E+03  0.25500000000E-02 0. -1.
    -200001    2    1    2    0    0 -0.34177533219E+03  0.36899756284E+03 -0.42653497254E+02  0.79340995960E+03  0.61213598496E+03 0.  0.
   -5000001    2    3    3    0    0 -0.23351868305E+03  0.10353596234E+03 -0.27294119003E+03  0.41206656465E+03  0.17335307800E+03 0.  0.
     200001    1    1    2    0    0  0.34177533219E+03 -0.36899756284E+03  0.49421965823E+02  0.79446907415E+03  0.61300000000E+03 0.  1.
         13    1    4    4    0    0 -0.71979311677E+02  0.90660432193E+02 -0.20162455308E+03  0.23249259525E+03  0.10566000000E+00 0.  1.
    -200003    1    4    4    0    0 -0.16153937137E+03  0.12875530147E+02 -0.71316636953E+02  0.17957396940E+03  0.30000000000E+02 0.  1.
    -200000    1    3    3    0    0 -0.10825664914E+03  0.26546160051E+03  0.23028769278E+03  0.38134339495E+03  0.10100000000E+03 0.  1.
<mgrwt>
<rscale>  0 0.15878646E+04</rscale>
<asrwt>0</asrwt>
<pdfrwt beam="1">  1        2 0.11390339E+00 0.15878646E+04</pdfrwt>
<pdfrwt beam="2">  1       -2 0.11293647E+00 0.15878646E+04</pdfrwt>
<totfact> 0.22635370E+01</totfact>
</mgrwt>
</event>
<event>
 8    2  0.4306980E-052  0.1272072E+04  0.7818608E-02  0.9052010E-01
          2   -1    0    0  501    0  0.00000000000E+00  0.00000000000E+00  0.25220478735E+04  0.25220478735E+04  0.25500000000E-02 0.  1.
         -2   -1    0    0    0  501 -0.00000000000E+00 -0.00000000000E+00 -0.16040221810E+03  0.16040221812E+03  0.25500000000E-02 0. -1.
    -200001    2    1    2    0    0 -0.15477867070E+03 -0.10739799390E+02  0.10363448099E+04  0.12140281117E+04  0.61301053064E+03 0.  0.
   -5000001    2    3    3    0    0 -0.18049765433E+03  0.26352265371E+03  0.53315479543E+03  0.63154845538E+03  0.11214197864E+03 0.  0.
     200001    1    1    2    0    0  0.15477867070E+03  0.10739799390E+02  0.13253008455E+04  0.14684219800E+04  0.61300000000E+03 0.  1.
         13    1    4    4    0    0 -0.76984534656E+02  0.19785646337E+03  0.33130430153E+03  0.39349250317E+03  0.10566000000E+00 0.  1.
    -200003    1    4    4    0    0 -0.10351311968E+03  0.65666190341E+02  0.20185049390E+03  0.23805595222E+03  0.30000000000E+02 0.  1.
    -200000    1    3    3    0    0  0.25718983635E+02 -0.27426245310E+03  0.50319001448E+03  0.58247965627E+03  0.10100000000E+03 0. -1.
<mgrwt>
<rscale>  0 0.12720724E+04</rscale>
<asrwt>0</asrwt>
<pdfrwt beam="1">  1        2 0.36029253E+00 0.12720724E+04</pdfrwt>
<pdfrwt beam="2">  1       -2 0.22914604E-01 0.12720724E+04</pdfrwt>
<totfact> 0.71040247E+01</totfact>
</mgrwt>
</event>
<event>
 8    2  0.4306980E-052  0.1371116E+04  0.7818608E-02  0.8974996E-01
          2   -1    0    0  501    0  0.00000000000E+00  0.00000000000E+00  0.25884966939E+03  0.25884966940E+03  0.25500000000E-02 0.  1.
         -2   -1    0    0    0  501 -0.00000000000E+00 -0.00000000000E+00 -0.18156850491E+04  0.18156850491E+04  0.25500000000E-02 0. -1.
    -200001    2    1    2    0    0 -0.14388852671E+03 -0.18967823304E+03 -0.10711057174E+04  0.12569871388E+04  0.61324340113E+03 0.  0.
   -5000001    2    3    3    0    0 -0.38195080260E+01  0.13322758526E+03 -0.76151953549E+03  0.77747478076E+03  0.82406636071E+02 0.  0.
     200001    1    1    2    0    0  0.14388852671E+03  0.18967823304E+03 -0.48572966222E+03  0.81754757964E+03  0.61300000000E+03 0.  1.
         13    1    4    4    0    0 -0.35425168401E+02  0.79564663673E+02 -0.39414003774E+03  0.40364818688E+03  0.10566000000E+00 0.  1.
    -200003    1    4    4    0    0  0.31605660375E+02  0.53662921582E+02 -0.36737949775E+03  0.37382659388E+03  0.30000000000E+02 0.  1.
    -200000    1    3    3    0    0 -0.14006901868E+03 -0.32290581829E+03 -0.30958618195E+03  0.47951235806E+03  0.10100000000E+03 0. -1.
<mgrwt>
<rscale>  0 0.13711156E+04</rscale>
<asrwt>0</asrwt>
<pdfrwt beam="1">  1        2 0.36978525E-01 0.13711156E+04</pdfrwt>
<pdfrwt beam="2">  1       -2 0.25938357E+00 0.13711156E+04</pdfrwt>
<totfact> 0.77486149E+00</totfact>
</mgrwt>
</event>
<event>
 8    2  0.4306980E-052  0.1773196E+04  0.7818608E-02  0.8720685E-01
         -2   -1    0    0    0  501 -0.00000000000E+00  0.00000000000E+00  0.34614462976E+03  0.34614462977E+03  0.25500000000E-02 0. -1.
          2   -1    0    0  501    0  0.00000000000E+00 -0.00000000000E+00 -0.22708895861E+04  0.22708895861E+04  0.25500000000E-02 0.  1.
    -200001    2    1    2    0    0  0.49201667029E+03  0.33642296925E+03 -0.61621936445E+03  0.10539382359E+04  0.61302420979E+03 0.  0.
   -5000001    2    3    3    0    0  0.35956097662E+03  0.18777860139E+03 -0.16959700386E+02  0.41444405773E+03  0.83254708600E+02 0.  0.
     200001    1    1    2    0    0 -0.49201667029E+03 -0.33642296925E+03 -0.13085255919E+04  0.15630959800E+04  0.61300000000E+03 0.  1.
         13    1    4    4    0    0  0.10037672258E+03  0.87075548679E+02  0.11214405939E+02  0.13335445878E+03  0.10566000000E+00 0.  1.
    -200003    1    4    4    0    0  0.25918425404E+03  0.10070305271E+03 -0.28174106326E+02  0.28108959895E+03  0.30000000000E+02 0.  1.
    -200000    1    3    3    0    0  0.13245569367E+03  0.14864436786E+03 -0.59925966406E+03  0.63949417813E+03  0.10100000000E+03 0.  1.
<mgrwt>
<rscale>  0 0.17731962E+04</rscale>
<asrwt>0</asrwt>
<pdfrwt beam="1">  1        2 0.32441279E+00 0.17731962E+04</pdfrwt>
<pdfrwt beam="2">  1       -2 0.49449234E-01 0.17731962E+04</pdfrwt>
<totfact> 0.21339500E+01</totfact>
</mgrwt>
</event>
<event>
 8    2  0.4306980E-052  0.1253460E+04  0.7818608E-02  0.9067309E-01
          2   -1    0    0  501    0  0.00000000000E+00  0.00000000000E+00  0.18404399906E+04  0.18404399906E+04  0.25500000000E-02 0. -1.
         -2   -1    0    0    0  501 -0.00000000000E+00 -0.00000000000E+00 -0.21342194011E+03  0.21342194013E+03  0.25500000000E-02 0.  1.
    -200001    2    1    2    0    0  0.10640455053E+03  0.67311078151E+02  0.76924500730E+03  0.99207273167E+03  0.61369187224E+03 0.  0.
   -5000001    2    3    3    0    0 -0.67606059373E+02  0.27637510388E+03  0.33435973217E+03  0.46927864052E+03  0.16574750270E+03 0.  0.
     200001    1    1    2    0    0 -0.10640455053E+03 -0.67311078151E+02  0.85777304320E+03  0.10617891991E+04  0.61300000000E+03 0.  1.
         13    1    4    4    0    0 -0.11687113381E+03  0.21690873327E+03  0.24681505802E+03  0.34874911400E+03  0.10566000000E+00 0.  1.
    -200003    1    4    4    0    0  0.49265074437E+02  0.59466370607E+02  0.87544674152E+02  0.12052952653E+03  0.30000000000E+02 0. -1.
    -200000    1    3    3    0    0  0.17401060990E+03 -0.20906402572E+03  0.43488527513E+03  0.52279409114E+03  0.10100000000E+03 0. -1.
<mgrwt>
<rscale>  0 0.12534596E+04</rscale>
<asrwt>0</asrwt>
<pdfrwt beam="1">  1        2 0.26291999E+00 0.12534596E+04</pdfrwt>
<pdfrwt beam="2">  1       -2 0.30488850E-01 0.12534596E+04</pdfrwt>
<totfact> 0.94872267E+01</totfact>
</mgrwt>
</event>
<event>
 8    2  0.4306980E-052  0.1502692E+04  0.7818608E-02  0.8882665E-01
         -2   -1    0    0    0  501 -0.00000000000E+00  0.00000000000E+00  0.28250531494E+03  0.28250531495E+03  0.25500000000E-02 0. -1.
          2   -1    0    0  501    0  0.00000000000E+00 -0.00000000000E+00 -0.19982662279E+04  0.19982662279E+04  0.25500000000E-02 0.  1.
    -200001    2    1    2    0    0 -0.10417460009E+03  0.16131347177E+03 -0.14493114272E+04  0.15853301636E+04  0.61310172994E+03 0.  0.
   -5000001    2    3    3    0    0 -0.10087852851E+03  0.11606517786E+03 -0.14604000572E+04  0.14740546951E+04  0.12814567428E+03 0.  0.
     200001    1    1    2    0    0  0.10417460009E+03 -0.16131347177E+03 -0.26644948579E+03  0.69544137924E+03  0.61300000000E+03 0. -1.
         13    1    4    4    0    0 -0.10187497958E+03  0.52402653408E+02 -0.11540923890E+04  0.11597645463E+04  0.10566000000E+00 0.  1.
    -200003    1    4    4    0    0  0.99645106883E+00  0.63662524454E+02 -0.30630766829E+03  0.31429014873E+03  0.30000000000E+02 0. -1.
    -200000    1    3    3    0    0 -0.32960715799E+01  0.45248293905E+02  0.11088630043E+02  0.11127546857E+03  0.10100000000E+03 0. -1.
<mgrwt>
<rscale>  0 0.15026920E+04</rscale>
<asrwt>0</asrwt>
<pdfrwt beam="1">  1        2 0.28546659E+00 0.15026920E+04</pdfrwt>
<pdfrwt beam="2">  1       -2 0.40357903E-01 0.15026920E+04</pdfrwt>
<totfact> 0.45199247E+01</totfact>
</mgrwt>
</event>
<event>
 8    2  0.4306980E-052  0.1564641E+04  0.7818608E-02  0.8842570E-01
         -2   -1    0    0    0  501 -0.00000000000E+00  0.00000000000E+00  0.29865544422E+04  0.29865544422E+04  0.25500000000E-02 0. -1.
          2   -1    0    0  501    0  0.00000000000E+00 -0.00000000000E+00 -0.20492700092E+03  0.20492700094E+03  0.25500000000E-02 0.  1.
    -200001    2    1    2    0    0  0.32221208266E+03  0.33846618686E+03  0.11223257927E+04  0.13618828678E+04  0.61378316596E+03 0.  0.
   -5000001    2    3    3    0    0  0.49189109240E+02  0.15551418663E+03  0.17420118357E+02  0.20471800159E+03  0.12248170860E+03 0.  0.
     200001    1    1    2    0    0 -0.32221208266E+03 -0.33846618686E+03  0.16593016485E+04  0.18295985753E+04  0.61300000000E+03 0.  1.
         13    1    4    4    0    0 -0.30509552651E+02  0.14948064051E+02  0.21698975979E+02  0.40312952564E+02  0.10566000000E+00 0.  1.
    -200003    1    4    4    0    0  0.79698661891E+02  0.14056612258E+03 -0.42788576220E+01  0.16440504903E+03  0.30000000000E+02 0.  1.
    -200000    1    3    3    0    0  0.27302297342E+03  0.18295200023E+03  0.11049056744E+04  0.11571648662E+04  0.10100000000E+03 0. -1.
<mgrwt>
<rscale>  0 0.15646414E+04</rscale>
<asrwt>0</asrwt>
<pdfrwt beam="1">  1        2 0.29275288E-01 0.15646414E+04</pdfrwt>
<pdfrwt beam="2">  1       -2 0.42665060E+00 0.15646414E+04</pdfrwt>
<totfact> 0.88141517E-01</totfact>
</mgrwt>
</event>
<event>
 8    2  0.4306980E-052  0.1360673E+04  0.7818608E-02  0.8982788E-01
         -2   -1    0    0    0  501 -0.00000000000E+00  0.00000000000E+00  0.24273588579E+03  0.24273588580E+03  0.25500000000E-02 0. -1.
          2   -1    0    0  501    0  0.00000000000E+00 -0.00000000000E+00 -0.19068379691E+04  0.19068379691E+04  0.25500000000E-02 0.  1.
    -200001    2    1    2    0    0  0.14515061138E+03  0.20544075631E+03 -0.10713781494E+04  0.12605489586E+04  0.61470149975E+03 0.  0.
   -5000001    2    3    3    0    0  0.48196954039E+02  0.23668119164E+03 -0.10229815158E+03  0.28090972983E+03  0.10052080203E+03 0.  0.
     200001    1    1    2    0    0 -0.14515061138E+03 -0.20544075631E+03 -0.59272393395E+03  0.88902489629E+03  0.61300000000E+03 0. -1.
         13    1    4    4    0    0 -0.25408289287E+02  0.27421277099E+02 -0.20127990863E+02  0.42457682255E+02  0.10566000000E+00 0.  1.
    -200003    1    4    4    0    0  0.73605243326E+02  0.20925991455E+03 -0.82170160714E+02  0.23845204758E+03  0.30000000000E+02 0.  1.
    -200000    1    3    3    0    0  0.96953657341E+02 -0.31240435331E+02 -0.96907999778E+03  0.97963922878E+03  0.10100000000E+03 0.  1.
<mgrwt>
<rscale>  0 0.13606734E+04</rscale>
<asrwt>0</asrwt>
<pdfrwt beam="1">  1        2 0.27240542E+00 0.13606734E+04</pdfrwt>
<pdfrwt beam="2">  1       -2 0.34676556E-01 0.13606734E+04</pdfrwt>
<totfact> 0.68254809E+01</totfact>
</mgrwt>
</event>
<event>
 8    2  0.4306980E-052  0.1458982E+04  0.7818608E-02  0.8912197E-01
         -2   -1    0    0    0  501 -0.00000000000E+00  0.00000000000E+00  0.12699438236E+03  0.12699438238E+03  0.25500000000E-02 0. -1.
          2   -1    0    0  501    0  0.00000000000E+00 -0.00000000000E+00 -0.41903997452E+04  0.41903997452E+04  0.25500000000E-02 0.  1.
    -200001    2    1    2    0    0  0.12360421405E+03 -0.12830812351E+03 -0.95837839789E+03  0.11474252903E+04  0.60527239072E+03 0.  0.
   -5000001    2    3    3    0    0 -0.12368355131E+02 -0.26184175172E+02 -0.94129944850E+03  0.94890443268E+03  0.11634596414E+03 0.  0.
     200001    1    1    2    0    0 -0.12360421405E+03  0.12830812351E+03 -0.31050269650E+04  0.31699688373E+04  0.61300000000E+03 0.  1.
         13    1    4    4    0    0 -0.45781582099E+02 -0.11628459867E+01 -0.73025590549E+03  0.73169051117E+03  0.10566000000E+00 0.  1.
    -200003    1    4    4    0    0  0.33413226969E+02 -0.25021329185E+02 -0.21104354301E+03  0.21721392151E+03  0.30000000000E+02 0.  1.
    -200000    1    3    3    0    0  0.13597256918E+03 -0.10212394834E+03 -0.17078949387E+02  0.19852085761E+03  0.10100000000E+03 0. -1.
<mgrwt>
<rscale>  0 0.14589821E+04</rscale>
<asrwt>0</asrwt>
<pdfrwt beam="1">  1        2 0.59862845E+00 0.14589821E+04</pdfrwt>
<pdfrwt beam="2">  1       -2 0.18142057E-01 0.14589821E+04</pdfrwt>
<totfact> 0.10516631E+01</totfact>
</mgrwt>
</event>
<event>
 8    2  0.4306980E-052  0.1408378E+04  0.7818608E-02  0.8947776E-01
         -2   -1    0    0    0  501 -0.00000000000E+00  0.00000000000E+00  0.28831238976E+03  0.28831238977E+03  0.25500000000E-02 0. -1.
          2   -1    0    0  501    0  0.00000000000E+00 -0.00000000000E+00 -0.17199483292E+04  0.17199483292E+04  0.25500000000E-02 0.  1.
    -200001    2    1    2    0    0 -0.21132865401E+03  0.22072961500E+03 -0.94974375171E+03  0.11707820962E+04  0.61264684771E+03 0.  0.
   -5000001    2    3    3    0    0  0.15166727896E+03  0.24901699180E+03 -0.42261095587E+03  0.52221736740E+03  0.95386231092E+02 0.  0.
     200001    1    1    2    0    0  0.21132865401E+03 -0.22072961500E+03 -0.48189218772E+03  0.83747862273E+03  0.61300000000E+03 0. -1.
         13    1    4    4    0    0  0.91731426321E+02  0.13093633580E+03 -0.15783165446E+03  0.22465489294E+03  0.10566000000E+00 0.  1.
    -200003    1    4    4    0    0  0.59935852642E+02  0.11808065599E+03 -0.26477930141E+03  0.29756247446E+03  0.30000000000E+02 0.  1.
    -200000    1    3    3    0    0 -0.36299593297E+03 -0.28287376795E+02 -0.52713279584E+03  0.64856472884E+03  0.10100000000E+03 0. -1.
<mgrwt>
<rscale>  0 0.14083784E+04</rscale>
<asrwt>0</asrwt>
<pdfrwt beam="1">  1        2 0.24570690E+00 0.14083784E+04</pdfrwt>
<pdfrwt beam="2">  1       -2 0.41187485E-01 0.14083784E+04</pdfrwt>
<totfact> 0.60868896E+01</totfact>
</mgrwt>
</event>
<event>
 8    2  0.4306980E-052  0.1355310E+04  0.7818608E-02  0.8986818E-01
          2   -1    0    0  501    0  0.00000000000E+00  0.00000000000E+00  0.11692077681E+04  0.11692077681E+04  0.25500000000E-02 0.  1.
         -2   -1    0    0    0  501 -0.00000000000E+00 -0.00000000000E+00 -0.39275836080E+03  0.39275836081E+03  0.25500000000E-02 0. -1.
    -200001    2    1    2    0    0 -0.17280211020E+03  0.18186530714E+03  0.55216790925E+03  0.86267595334E+03  0.61350211185E+03 0.  0.
   -5000001    2    3    3    0    0 -0.23693727156E+03  0.16500670767E+02  0.48306313200E+02  0.31904345812E+03  0.20746972185E+03 0.  0.
     200001    1    1    2    0    0  0.17280211020E+03 -0.18186530714E+03  0.22428149800E+03  0.69929017552E+03  0.61300000000E+03 0. -1.
         13    1    4    4    0    0  0.13893192836E+02  0.38163048526E+02 -0.33479409010E+02  0.52633839606E+02  0.10566000000E+00 0.  1.
    -200003    1    4    4    0    0 -0.25083046440E+03 -0.21662377758E+02  0.81785722210E+02  0.26640961852E+03  0.30000000000E+02 0.  1.
    -200000    1    3    3    0    0  0.64135161367E+02  0.16536463637E+03  0.50386159605E+03  0.54363249522E+03  0.10100000000E+03 0.  1.
<mgrwt>
<rscale>  0 0.13553097E+04</rscale>
<asrwt>0</asrwt>
<pdfrwt beam="1">  1        2 0.16702968E+00 0.13553097E+04</pdfrwt>
<pdfrwt beam="2">  1       -2 0.56108337E-01 0.13553097E+04</pdfrwt>
<totfact> 0.64874520E+01</totfact>
</mgrwt>
</event>
<event>
 8    2  0.4306980E-052  0.1508308E+04  0.7818608E-02  0.8878947E-01
          2   -1    0    0  501    0  0.00000000000E+00  0.00000000000E+00  0.92235063909E+03  0.92235063909E+03  0.25500000000E-02 0.  1.
         -2   -1    0    0    0  501 -0.00000000000E+00 -0.00000000000E+00 -0.61662872638E+03  0.61662872639E+03  0.25500000000E-02 0. -1.
    -200001    2    1    2    0    0  0.27476680318E+03 -0.99076087339E+02 -0.18164992014E+03  0.70314853890E+03  0.61327669698E+03 0.  0.
   -5000001    2    3    3    0    0  0.19658282898E+03  0.18719795469E+03 -0.25527835535E+03  0.38114278207E+03  0.80093062886E+02 0.  0.
     200001    1    1    2    0    0 -0.27476680318E+03  0.99076087339E+02  0.48737183285E+03  0.83583082658E+03  0.61300000000E+03 0. -1.
         13    1    4    4    0    0  0.21380253688E+02  0.42380461538E+02 -0.16871917902E+02  0.50377490466E+02  0.10566000000E+00 0.  1.
    -200003    1    4    4    0    0  0.17520257530E+03  0.14481749315E+03 -0.23840643745E+03  0.33076529160E+03  0.30000000000E+02 0.  1.
    -200000    1    3    3    0    0  0.78183974193E+02 -0.28627404203E+03  0.73628435210E+02  0.32200575683E+03  0.10100000000E+03 0. -1.
<mgrwt>
<rscale>  0 0.15083075E+04</rscale>
<asrwt>0</asrwt>
<pdfrwt beam="1">  1        2 0.13176438E+00 0.15083075E+04</pdfrwt>
<pdfrwt beam="2">  1       -2 0.88089818E-01 0.15083075E+04</pdfrwt>
<totfact> 0.33790178E+01</totfact>
</mgrwt>
</event>
<event>
 8    2  0.4306980E-052  0.1984905E+04  0.7818608E-02  0.8613711E-01
         -2   -1    0    0    0  501 -0.00000000000E+00  0.00000000000E+00  0.37859171477E+03  0.37859171478E+03  0.25500000000E-02 0. -1.
          2   -1    0    0  501    0  0.00000000000E+00 -0.00000000000E+00 -0.26016471398E+04  0.26016471398E+04  0.25500000000E-02 0.  1.
    -200001    2    1    2    0    0 -0.12492943539E+03  0.27262249831E+03 -0.21929356966E+04  0.22971527777E+04  0.61482804431E+03 0.  0.
   -5000001    2    3    3    0    0 -0.11942709109E+03  0.62651119783E+02 -0.17583060886E+04  0.18039771986E+04  0.38013871035E+03 0.  0.
     200001    1    1    2    0    0  0.12492943539E+03 -0.27262249831E+03 -0.30119728410E+02  0.68308607690E+03  0.61300000000E+03 0. -1.
         13    1    4    4    0    0 -0.21957026805E+03 -0.71747908417E+02 -0.11014342441E+04  0.11253960504E+04  0.10566000000E+00 0.  1.
    -200003    1    4    4    0    0  0.10014317696E+03  0.13439902820E+03 -0.65687184443E+03  0.67858114819E+03  0.30000000000E+02 0.  1.
    -200000    1    3    3    0    0 -0.55023443065E+01  0.20997137853E+03 -0.43462960802E+03  0.49317557904E+03  0.10100000000E+03 0. -1.
<mgrwt>
<rscale>  0 0.19849051E+04</rscale>
<asrwt>0</asrwt>
<pdfrwt beam="1">  1        2 0.37166387E+00 0.19849051E+04</pdfrwt>
<pdfrwt beam="2">  1       -2 0.54084532E-01 0.19849051E+04</pdfrwt>
<totfact> 0.11702488E+01</totfact>
</mgrwt>
</event>
<event>
 8    2  0.4306980E-052  0.1545574E+04  0.7818608E-02  0.8854700E-01
          2   -1    0    0  501    0  0.00000000000E+00  0.00000000000E+00  0.91524334550E+03  0.91524334550E+03  0.25500000000E-02 0.  1.
         -2   -1    0    0    0  501 -0.00000000000E+00 -0.00000000000E+00 -0.65250388080E+03  0.65250388081E+03  0.25500000000E-02 0. -1.
    -200001    2    1    2    0    0 -0.29309133129E+03  0.14398375533E+03 -0.21235288051E+03  0.72625118547E+03  0.61295447486E+03 0.  0.
   -5000001    2    3    3    0    0 -0.23730017480E+03  0.20604779948E+03  0.13973960095E+03  0.35057218123E+03  0.67872155938E+02 0.  0.
     200001    1    1    2    0    0  0.29309133129E+03 -0.14398375533E+03  0.47509234520E+03  0.84149604084E+03  0.61300000000E+03 0.  1.
         13    1    4    4    0    0 -0.83762288976E+02  0.91279655271E+02  0.80345907054E+02  0.14766032800E+03  0.10566000000E+00 0.  1.
    -200003    1    4    4    0    0 -0.15353788582E+03  0.11476814421E+03  0.59393693896E+02  0.20291185323E+03  0.30000000000E+02 0.  1.
    -200000    1    3    3    0    0 -0.55791156492E+02 -0.62064044154E+02 -0.35209248146E+03  0.37567900423E+03  0.10100000000E+03 0. -1.
<mgrwt>
<rscale>  0 0.15455741E+04</rscale>
<asrwt>0</asrwt>
<pdfrwt beam="1">  1        2 0.13074905E+00 0.15455741E+04</pdfrwt>
<pdfrwt beam="2">  1       -2 0.93214841E-01 0.15455741E+04</pdfrwt>
<totfact> 0.29883177E+01</totfact>
</mgrwt>
</event>
<event>
 8    2  0.4306980E-052  0.1885582E+04  0.7818608E-02  0.8662067E-01
         -2   -1    0    0    0  501 -0.00000000000E+00  0.00000000000E+00  0.51324555446E+03  0.51324555446E+03  0.25500000000E-02 0. -1.
          2   -1    0    0  501    0  0.00000000000E+00 -0.00000000000E+00 -0.17318312990E+04  0.17318312990E+04  0.25500000000E-02 0.  1.
    -200001    2    1    2    0    0 -0.12552328668E+01 -0.22627377051E+03 -0.14185702420E+04  0.15617290693E+04  0.61274363299E+03 0.  0.
   -5000001    2    3    3    0    0  0.48362463075E+02  0.14394276713E+03 -0.18693198715E+03  0.27073875519E+03  0.12368289169E+03 0.  0.
     200001    1    1    2    0    0  0.12552328668E+01  0.22627377051E+03  0.19998449744E+03  0.68334778411E+03  0.61300000000E+03 0. -1.
         13    1    4    4    0    0  0.50380679225E+02  0.24310085525E+02 -0.11515332675E+03  0.12802145493E+03  0.10566000000E+00 0.  1.
    -200003    1    4    4    0    0 -0.20182161495E+01  0.11963268160E+03 -0.71778660405E+02  0.14271730026E+03  0.30000000000E+02 0.  1.
    -200000    1    3    3    0    0 -0.49617695942E+02 -0.37021653764E+03 -0.12316382548E+04  0.12909903141E+04  0.10100000000E+03 0.  1.
<mgrwt>
<rscale>  0 0.18855818E+04</rscale>
<asrwt>0</asrwt>
<pdfrwt beam="1">  1        2 0.24740447E+00 0.18855818E+04</pdfrwt>
<pdfrwt beam="2">  1       -2 0.73320795E-01 0.18855818E+04</pdfrwt>
<totfact> 0.17438731E+01</totfact>
</mgrwt>
</event>
<event>
 8    2  0.4306980E-052  0.1517255E+04  0.7818608E-02  0.8873059E-01
         -2   -1    0    0    0  501 -0.00000000000E+00  0.00000000000E+00  0.10515630125E+03  0.10515630128E+03  0.25500000000E-02 0. -1.
          2   -1    0    0  501    0  0.00000000000E+00 -0.00000000000E+00 -0.54729546173E+04  0.54729546173E+04  0.25500000000E-02 0.  1.
    -200001    2    1    2    0    0  0.20515552761E+02  0.29652256587E+03 -0.39162757603E+04  0.39746667350E+04  0.61025675230E+03 0.  0.
   -5000001    2    3    3    0    0  0.25123201325E+03 -0.19190943979E+01 -0.20820946654E+04  0.20993750781E+04  0.95584074563E+02 0.  0.
     200001    1    1    2    0    0 -0.20515552761E+02 -0.29652256587E+03 -0.14515225558E+04  0.16034441836E+04  0.61300000000E+03 0. -1.
         13    1    4    4    0    0  0.21170049282E+03  0.22464802094E+02 -0.17079472474E+04  0.17211640181E+04  0.10566000000E+00 0.  1.
    -200003    1    4    4    0    0  0.39531520433E+02 -0.24383896492E+02 -0.37414741797E+03  0.37821105998E+03  0.30000000000E+02 0.  1.
    -200000    1    3    3    0    0 -0.23071646049E+03  0.29844166027E+03 -0.18341810949E+04  0.18752916569E+04  0.10100000000E+03 0. -1.
<mgrwt>
<rscale>  0 0.15172550E+04</rscale>
<asrwt>0</asrwt>
<pdfrwt beam="1">  1        2 0.78185048E+00 0.15172550E+04</pdfrwt>
<pdfrwt beam="2">  1       -2 0.15022332E-01 0.15172550E+04</pdfrwt>
<totfact> 0.96035337E-01</totfact>
</mgrwt>
</event>
<event>
 8    2  0.4306980E-052  0.1257642E+04  0.7818608E-02  0.9063847E-01
         -2   -1    0    0    0  501 -0.00000000000E+00  0.00000000000E+00  0.36721912639E+03  0.36721912640E+03  0.25500000000E-02 0. -1.
          2   -1    0    0  501    0  0.00000000000E+00 -0.00000000000E+00 -0.10767841137E+04  0.10767841137E+04  0.25500000000E-02 0.  1.
    -200001    2    1    2    0    0  0.12210382015E+03  0.46859185982E+02 -0.30385446314E+03  0.69736065117E+03  0.61390489233E+03 0.  0.
   -5000001    2    3    3    0    0  0.37626751413E+02  0.60669745531E+02  0.17157447544E+03  0.20384187510E+03  0.83768245645E+02 0.  0.
     200001    1    1    2    0    0 -0.12210382015E+03 -0.46859185982E+02 -0.40571052422E+03  0.74664258897E+03  0.61300000000E+03 0. -1.
         13    1    4    4    0    0  0.27834918856E+02  0.67506911394E+02  0.88641439160E+02  0.11484459802E+03  0.10566000000E+00 0.  1.
    -200003    1    4    4    0    0  0.97918325576E+01 -0.68371658632E+01  0.82933036279E+02  0.88997277084E+02  0.30000000000E+02 0.  1.
    -200000    1    3    3    0    0  0.84477068740E+02 -0.13810559548E+02 -0.47542893858E+03  0.49351877607E+03  0.10100000000E+03 0.  1.
<mgrwt>
<rscale>  0 0.12576418E+04</rscale>
<asrwt>0</asrwt>
<pdfrwt beam="1">  1        2 0.15382630E+00 0.12576418E+04</pdfrwt>
<pdfrwt beam="2">  1       -2 0.52459876E-01 0.12576418E+04</pdfrwt>
<totfact> 0.85046973E+01</totfact>
</mgrwt>
</event>
<event>
 8    2  0.4306980E-052  0.1284438E+04  0.7818608E-02  0.9041998E-01
          2   -1    0    0  501    0  0.00000000000E+00  0.00000000000E+00  0.90690200530E+03  0.90690200530E+03  0.25500000000E-02 0.  1.
         -2   -1    0    0    0  501 -0.00000000000E+00 -0.00000000000E+00 -0.45478465579E+03  0.45478465579E+03  0.25500000000E-02 0. -1.
    -200001    2    1    2    0    0 -0.25298106613E+02  0.11122815306E+03  0.61399829578E+02  0.62585999902E+03  0.61230638007E+03 0.  0.
   -5000001    2    3    3    0    0 -0.97951083229E+01  0.35241710707E+03  0.26380378419E+02  0.36158775975E+03  0.75868452790E+02 0.  0.
     200001    1    1    2    0    0  0.25298106613E+02 -0.11122815306E+03  0.39071751993E+03  0.73582666207E+03  0.61300000000E+03 0. -1.
         13    1    4    4    0    0  0.23131297639E+02  0.19875439260E+03  0.48301153681E+01  0.20015420727E+03  0.10566000000E+00 0.  1.
    -200003    1    4    4    0    0 -0.32926405962E+02  0.15366271447E+03  0.21550263051E+02  0.16143355248E+03  0.30000000000E+02 0. -1.
    -200000    1    3    3    0    0 -0.15502998290E+02 -0.24118895401E+03  0.35019451158E+02  0.26427223928E+03  0.10100000000E+03 0. -1.
<mgrwt>
<rscale>  0 0.12844378E+04</rscale>
<asrwt>0</asrwt>
<pdfrwt beam="1">  1        2 0.12955743E+00 0.12844378E+04</pdfrwt>
<pdfrwt beam="2">  1       -2 0.64969236E-01 0.12844378E+04</pdfrwt>
<totfact> 0.69087328E+01</totfact>
</mgrwt>
</event>
<event>
 8    2  0.4306980E-052  0.1516007E+04  0.7818608E-02  0.8873878E-01
          2   -1    0    0  501    0  0.00000000000E+00  0.00000000000E+00  0.32334041499E+03  0.32334041500E+03  0.25500000000E-02 0. -1.
         -2   -1    0    0    0  501 -0.00000000000E+00 -0.00000000000E+00 -0.17769786015E+04  0.17769786015E+04  0.25500000000E-02 0.  1.
    -200001    2    1    2    0    0 -0.46275738236E+02  0.23667459281E+03 -0.20904420695E+03  0.69215017692E+03  0.61417919219E+03 0.  0.
   -5000001    2    3    3    0    0  0.16812017111E+03  0.34877268955E+03 -0.12224039400E+03  0.41598448177E+03  0.90518474570E+02 0.  0.
     200001    1    1    2    0    0  0.46275738236E+02 -0.23667459281E+03 -0.12445939796E+04  0.14081688396E+04  0.61300000000E+03 0.  1.
         13    1    4    4    0    0  0.91939812728E+02  0.26476391672E+03 -0.83525567367E+02  0.29245408585E+03  0.10566000000E+00 0.  1.
    -200003    1    4    4    0    0  0.76180358380E+02  0.84008772832E+02 -0.38714826628E+02  0.12353039592E+03  0.30000000000E+02 0.  1.
    -200000    1    3    3    0    0 -0.21439590934E+03 -0.11209809674E+03 -0.86803812952E+02  0.27616569515E+03  0.10100000000E+03 0.  1.
<mgrwt>
<rscale>  0 0.15160066E+04</rscale>
<asrwt>0</asrwt>
<pdfrwt beam="1">  1        2 0.46191489E-01 0.15160066E+04</pdfrwt>
<pdfrwt beam="2">  1       -2 0.25385408E+00 0.15160066E+04</pdfrwt>
<totfact> 0.64603045E+00</totfact>
</mgrwt>
</event>
<event>
 8    2  0.4306980E-052  0.1539209E+04  0.7818608E-02  0.8858790E-01
          2   -1    0    0  501    0  0.00000000000E+00  0.00000000000E+00  0.22716459634E+04  0.22716459634E+04  0.25500000000E-02 0.  1.
         -2   -1    0    0    0  501 -0.00000000000E+00 -0.00000000000E+00 -0.26073218495E+03  0.26073218497E+03  0.25500000000E-02 0. -1.
    -200001    2    1    2    0    0 -0.24090629852E+03 -0.35201870450E+03  0.71480791805E+03  0.10365130427E+04  0.61762117435E+03 0.  0.
   -5000001    2    3    3    0    0 -0.39952529372E+03 -0.37934893421E+03  0.47877563257E+03  0.73349626613E+03  0.72557507412E+02 0.  0.
     200001    1    1    2    0    0  0.24090629852E+03  0.35201870450E+03  0.12961058604E+04  0.14958651057E+04  0.61300000000E+03 0. -1.
         13    1    4    4    0    0 -0.16901709105E+03 -0.17898664831E+03  0.17795579804E+03  0.30376187147E+03  0.10566000000E+00 0.  1.
    -200003    1    4    4    0    0 -0.23050820267E+03 -0.20036228590E+03  0.30081983453E+03  0.42973439466E+03  0.30000000000E+02 0.  1.
    -200000    1    3    3    0    0  0.15861899520E+03  0.27330229716E+02  0.23603228548E+03  0.30301677657E+03  0.10100000000E+03 0. -1.
<mgrwt>
<rscale>  0 0.15392092E+04</rscale>
<asrwt>0</asrwt>
<pdfrwt beam="1">  1        2 0.32452084E+00 0.15392092E+04</pdfrwt>
<pdfrwt beam="2">  1       -2 0.37247456E-01 0.15392092E+04</pdfrwt>
<totfact> 0.38087431E+01</totfact>
</mgrwt>
</event>
<event>
 8    2  0.4306980E-052  0.1382572E+04  0.7818608E-02  0.8966531E-01
         -2   -1    0    0    0  501 -0.00000000000E+00  0.00000000000E+00  0.11197014939E+04  0.11197014939E+04  0.25500000000E-02 0. -1.
          2   -1    0    0  501    0  0.00000000000E+00 -0.00000000000E+00 -0.42678899768E+03  0.42678899769E+03  0.25500000000E-02 0.  1.
    -200001    2    1    2    0    0 -0.11433167241E+03  0.28893109950E+03  0.43659325179E+03  0.81299102560E+03  0.61138190080E+03 0.  0.
   -5000001    2    3    3    0    0  0.22268931981E+03  0.86873995840E+02  0.48311056826E+02  0.25140907676E+03  0.61114166584E+02 0.  0.
     200001    1    1    2    0    0  0.11433167241E+03 -0.28893109950E+03  0.25631924445E+03  0.73349946602E+03  0.61300000000E+03 0.  1.
         13    1    4    4    0    0  0.49438417438E+02 -0.17174039060E+01  0.42350469100E+01  0.49649303936E+02  0.10566000000E+00 0.  1.
    -200003    1    4    4    0    0  0.17325090237E+03  0.88591399746E+02  0.44076009916E+02  0.20175977283E+03  0.30000000000E+02 0.  1.
    -200000    1    3    3    0    0 -0.33702099221E+03  0.20205710366E+03  0.38828219497E+03  0.56158194884E+03  0.10100000000E+03 0.  1.
<mgrwt>
<rscale>  0 0.13825719E+04</rscale>
<asrwt>0</asrwt>
<pdfrwt beam="1">  1        2 0.60969856E-01 0.13825719E+04</pdfrwt>
<pdfrwt beam="2">  1       -2 0.15995736E+00 0.13825719E+04</pdfrwt>
<totfact> 0.19761881E+01</totfact>
</mgrwt>
</event>
<event>
 8    2  0.4306980E-052  0.2384355E+04  0.7818608E-02  0.8445384E-01
          2   -1    0    0  501    0  0.00000000000E+00  0.00000000000E+00  0.21596078441E+04  0.21596078441E+04  0.25500000000E-02 0.  1.
         -2   -1    0    0    0  501 -0.00000000000E+00 -0.00000000000E+00 -0.65812279642E+03  0.65812279643E+03  0.25500000000E-02 0. -1.
    -200001    2    1    2    0    0 -0.88358720376E+03  0.18540118979E+02  0.14324176475E+03  0.10851995735E+04  0.61324532487E+03 0.  0.
   -5000001    2    3    3    0    0 -0.83481620315E+03  0.15779863929E+03 -0.28107806377E+01  0.85432321698E+03  0.89675832751E+02 0.  0.
     200001    1    1    2    0    0  0.88358720376E+03 -0.18540118979E+02  0.13582432829E+04  0.17325310670E+04  0.61300000000E+03 0.  1.
         13    1    4    4    0    0 -0.61003066478E+03  0.13687071196E+03  0.19421846985E+02  0.62549837975E+03  0.10566000000E+00 0.  1.
    -200003    1    4    4    0    0 -0.22478553837E+03  0.20927927328E+02 -0.22232627623E+02  0.22882483723E+03  0.30000000000E+02 0.  1.
    -200000    1    3    3    0    0 -0.48771000607E+02 -0.13925852031E+03  0.14605254539E+03  0.23087635651E+03  0.10100000000E+03 0.  1.
<mgrwt>
<rscale>  0 0.23843550E+04</rscale>
<asrwt>0</asrwt>
<pdfrwt beam="1">  1        2 0.30851541E+00 0.23843550E+04</pdfrwt>
<pdfrwt beam="2">  1       -2 0.94017542E-01 0.23843550E+04</pdfrwt>
<totfact> 0.57364617E+00</totfact>
</mgrwt>
</event>
<event>
 8    2  0.4306980E-052  0.1777903E+04  0.7818608E-02  0.8718139E-01
         -2   -1    0    0    0  501 -0.00000000000E+00  0.00000000000E+00  0.22425443659E+03  0.22425443660E+03  0.25500000000E-02 0. -1.
          2   -1    0    0  501    0  0.00000000000E+00 -0.00000000000E+00 -0.35238320099E+04  0.35238320099E+04  0.25500000000E-02 0.  1.
    -200001    2    1    2    0    0 -0.32976858341E+03  0.15034963930E+03 -0.27714120248E+04  0.28614748183E+04  0.61315674341E+03 0.  0.
   -5000001    2    3    3    0    0  0.84052686197E+01 -0.16356940146E+03 -0.13862663134E+04  0.13980075791E+04  0.76585259685E+02 0.  0.
     200001    1    1    2    0    0  0.32976858341E+03 -0.15034963930E+03 -0.52816554856E+03  0.88661162824E+03  0.61300000000E+03 0. -1.
         13    1    4    4    0    0  0.22369851395E+02 -0.12398395675E+03 -0.85342381520E+03  0.86267296892E+03  0.10566000000E+00 0.  1.
    -200003    1    4    4    0    0 -0.13964582776E+02 -0.39585444711E+02 -0.53284249816E+03  0.53533461018E+03  0.30000000000E+02 0. -1.
    -200000    1    3    3    0    0 -0.33817385203E+03  0.31391904077E+03 -0.13851457114E+04  0.14634672392E+04  0.10100000000E+03 0.  1.
<mgrwt>
<rscale>  0 0.17779032E+04</rscale>
<asrwt>0</asrwt>
<pdfrwt beam="1">  1        2 0.50340454E+00 0.17779032E+04</pdfrwt>
<pdfrwt beam="2">  1       -2 0.32036350E-01 0.17779032E+04</pdfrwt>
<totfact> 0.10048188E+01</totfact>
</mgrwt>
</event>
<event>
 8    2  0.4306980E-052  0.1427662E+04  0.7818608E-02  0.8934035E-01
          2   -1    0    0  501    0  0.00000000000E+00  0.00000000000E+00  0.76841563286E+03  0.76841563287E+03  0.25500000000E-02 0.  1.
         -2   -1    0    0    0  501 -0.00000000000E+00 -0.00000000000E+00 -0.66312354255E+03  0.66312354256E+03  0.25500000000E-02 0. -1.
    -200001    2    1    2    0    0  0.12753943236E+03 -0.20454703499E+03  0.32838371116E+03  0.73609351427E+03  0.61310032105E+03 0.  0.
   -5000001    2    3    3    0    0  0.88179161184E+02 -0.11023104174E+03 -0.15822463763E+03  0.22871454088E+03  0.85725481770E+02 0.  0.
     200001    1    1    2    0    0 -0.12753943236E+03  0.20454703499E+03 -0.22309162084E+03  0.69544566115E+03  0.61300000000E+03 0. -1.
         13    1    4    4    0    0  0.28151350141E+01 -0.91915957948E+01  0.91583295889E+01  0.13277672360E+02  0.10566000000E+00 0.  1.
    -200003    1    4    4    0    0  0.85364026169E+02 -0.10103944594E+03 -0.16738296722E+03  0.21543686852E+03  0.30000000000E+02 0.  1.
    -200000    1    3    3    0    0  0.39360271172E+02 -0.94315993250E+02  0.48660834879E+03  0.50737897339E+03  0.10100000000E+03 0.  1.
<mgrwt>
<rscale>  0 0.14276617E+04</rscale>
<asrwt>0</asrwt>
<pdfrwt beam="1">  1        2 0.10977366E+00 0.14276617E+04</pdfrwt>
<pdfrwt beam="2">  1       -2 0.94731934E-01 0.14276617E+04</pdfrwt>
<totfact> 0.36552576E+01</totfact>
</mgrwt>
</event>
<event>
 8    2  0.4306980E-052  0.1876147E+04  0.7818608E-02  0.8666821E-01
          2   -1    0    0  501    0  0.00000000000E+00  0.00000000000E+00  0.11942777197E+04  0.11942777197E+04  0.25500000000E-02 0.  1.
         -2   -1    0    0    0  501 -0.00000000000E+00 -0.00000000000E+00 -0.73683208291E+03  0.73683208292E+03  0.25500000000E-02 0. -1.
    -200001    2    1    2    0    0  0.48448791319E+03 -0.50247546124E+03  0.95175229413E+02  0.93400450466E+03  0.61326663309E+03 0.  0.
   -5000001    2    3    3    0    0  0.25653892130E+03 -0.10136267258E+03  0.30607465450E+03  0.41676976141E+03  0.62679584854E+02 0.  0.
     200001    1    1    2    0    0 -0.48448791319E+03  0.50247546124E+03  0.36227040739E+03  0.99710529797E+03  0.61300000000E+03 0.  1.
         13    1    4    4    0    0  0.10009890018E+03 -0.13965462603E+02  0.10386621648E+03  0.14492420797E+03  0.10566000000E+00 0.  1.
    -200003    1    4    4    0    0  0.15644002112E+03 -0.87397209972E+02  0.20220843802E+03  0.27184555344E+03  0.30000000000E+02 0.  1.
    -200000    1    3    3    0    0  0.22794899188E+03 -0.40111278866E+03 -0.21089942509E+03  0.51723474326E+03  0.10100000000E+03 0. -1.
<mgrwt>
<rscale>  0 0.18761473E+04</rscale>
<asrwt>0</asrwt>
<pdfrwt beam="1">  1        2 0.17061110E+00 0.18761473E+04</pdfrwt>
<pdfrwt beam="2">  1       -2 0.10526173E+00 0.18761473E+04</pdfrwt>
<totfact> 0.14817742E+01</totfact>
</mgrwt>
</event>
<event>
 8    2  0.4306980E-052  0.2564549E+04  0.7818608E-02  0.8380344E-01
          2   -1    0    0  501    0  0.00000000000E+00  0.00000000000E+00  0.38480990071E+04  0.38480990071E+04  0.25500000000E-02 0.  1.
         -2   -1    0    0    0  501 -0.00000000000E+00 -0.00000000000E+00 -0.42728330191E+03  0.42728330191E+03  0.25500000000E-02 0. -1.
    -200001    2    1    2    0    0 -0.10878404211E+02  0.79940531912E+03  0.38812082707E+03  0.10797330123E+04  0.61320338998E+03 0.  0.
   -5000001    2    3    3    0    0  0.12553117244E+03  0.82389861134E+03  0.31288469378E+03  0.89246590433E+03  0.63494580641E+02 0.  0.
     200001    1    1    2    0    0  0.10878404211E+02 -0.79940531912E+03  0.30326948781E+04  0.31956492968E+04  0.61300000000E+03 0.  1.
         13    1    4    4    0    0  0.97436617626E+02  0.55277489723E+03  0.19885337008E+03  0.59548018893E+03  0.10566000000E+00 0.  1.
    -200003    1    4    4    0    0  0.28094554816E+02  0.27112371412E+03  0.11403132370E+03  0.29698571540E+03  0.30000000000E+02 0. -1.
    -200000    1    3    3    0    0 -0.13640957665E+03 -0.24493292218E+02  0.75236133290E+02  0.18726710795E+03  0.10100000000E+03 0. -1.
<mgrwt>
<rscale>  0 0.25645494E+04</rscale>
<asrwt>0</asrwt>
<pdfrwt beam="1">  1        2 0.54972840E+00 0.25645494E+04</pdfrwt>
<pdfrwt beam="2">  1       -2 0.61040475E-01 0.25645494E+04</pdfrwt>
<totfact> 0.16078691E+00</totfact>
</mgrwt>
</event>
<event>
 8    2  0.4306980E-052  0.1933239E+04  0.7818608E-02  0.8638486E-01
         -2   -1    0    0    0  501 -0.00000000000E+00  0.00000000000E+00  0.45197915742E+03  0.45197915742E+03  0.25500000000E-02 0. -1.
          2   -1    0    0  501    0  0.00000000000E+00 -0.00000000000E+00 -0.20672495936E+04  0.20672495936E+04  0.25500000000E-02 0.  1.
    -200001    2    1    2    0    0 -0.64937241834E+03  0.28781308571E+03 -0.50456983465E+03  0.10652873023E+04  0.61296444305E+03 0.  0.
   -5000001    2    3    3    0    0 -0.88096455053E+02 -0.15284010934E+03 -0.15045541235E+02  0.19405772344E+03  0.79441470911E+02 0.  0.
     200001    1    1    2    0    0  0.64937241834E+03 -0.28781308571E+03 -0.11107006015E+04  0.14539414487E+04  0.61300000000E+03 0.  1.
         13    1    4    4    0    0 -0.36233944658E+02 -0.23521313653E+02 -0.27147261614E+02  0.51020936081E+02  0.10566000000E+00 0.  1.
    -200003    1    4    4    0    0 -0.51862510395E+02 -0.12931879569E+03  0.12101720379E+02  0.14303678736E+03  0.30000000000E+02 0.  1.
    -200000    1    3    3    0    0 -0.56127596329E+03  0.44065319505E+03 -0.48952429342E+03  0.87122957888E+03  0.10100000000E+03 0. -1.
<mgrwt>
<rscale>  0 0.19332395E+04</rscale>
<asrwt>0</asrwt>
<pdfrwt beam="1">  1        2 0.29532137E+00 0.19332395E+04</pdfrwt>
<pdfrwt beam="2">  1       -2 0.64568452E-01 0.19332395E+04</pdfrwt>
<totfact> 0.15374079E+01</totfact>
</mgrwt>
</event>
<event>
 8    2  0.4306980E-052  0.1673800E+04  0.7818608E-02  0.8776450E-01
          2   -1    0    0  501    0  0.00000000000E+00  0.00000000000E+00  0.21494138519E+04  0.21494138519E+04  0.25500000000E-02 0.  1.
         -2   -1    0    0    0  501 -0.00000000000E+00 -0.00000000000E+00 -0.32585704923E+03  0.32585704924E+03  0.25500000000E-02 0. -1.
    -200001    2    1    2    0    0 -0.29594996421E+03 -0.39575035786E+03  0.13297852040E+04  0.15458710310E+04  0.61415293580E+03 0.  0.
   -5000001    2    3    3    0    0  0.27965040120E+02  0.97694323372E+02  0.52266688944E+03  0.54085881355E+03  0.94980811695E+02 0.  0.
     200001    1    1    2    0    0  0.29594996421E+03  0.39575035786E+03  0.49377159870E+03  0.92939987021E+03  0.61300000000E+03 0.  1.
         13    1    4    4    0    0  0.43948125751E+02  0.95066895480E+02  0.37933271025E+03  0.39352568989E+03  0.10566000000E+00 0.  1.
    -200003    1    4    4    0    0 -0.15983085631E+02  0.26274278918E+01  0.14333417919E+03  0.14733312367E+03  0.30000000000E+02 0.  1.
    -200000    1    3    3    0    0 -0.32391500433E+03 -0.49344468123E+03  0.80711831455E+03  0.10050122174E+04  0.10100000000E+03 0.  1.
<mgrwt>
<rscale>  0 0.16738001E+04</rscale>
<asrwt>0</asrwt>
<pdfrwt beam="1">  1        2 0.30705911E+00 0.16738001E+04</pdfrwt>
<pdfrwt beam="2">  1       -2 0.46551009E-01 0.16738001E+04</pdfrwt>
<totfact> 0.28086689E+01</totfact>
</mgrwt>
</event>
<event>
 8    2  0.4306980E-052  0.1560901E+04  0.7818608E-02  0.8844935E-01
         -2   -1    0    0    0  501 -0.00000000000E+00  0.00000000000E+00  0.25323071304E+03  0.25323071305E+03  0.25500000000E-02 0. -1.
          2   -1    0    0  501    0  0.00000000000E+00 -0.00000000000E+00 -0.24053285656E+04  0.24053285656E+04  0.25500000000E-02 0.  1.
    -200001    2    1    2    0    0 -0.34282535070E+03  0.29490200106E+03 -0.79445502355E+03  0.11018128438E+04  0.61509051931E+03 0.  0.
   -5000001    2    3    3    0    0 -0.13138139236E+03 -0.71251994013E+02 -0.39838986654E+02  0.23093761806E+03  0.17148504794E+03 0.  0.
     200001    1    1    2    0    0  0.34282535070E+03 -0.29490200106E+03 -0.13576428290E+04  0.15567464348E+04  0.61300000000E+03 0.  1.
         13    1    4    4    0    0  0.13702931922E+02 -0.28772077416E+01 -0.64421719775E+02  0.65925850851E+02  0.10566000000E+00 0.  1.
    -200003    1    4    4    0    0 -0.14508432428E+03 -0.68374786271E+02  0.24582733121E+02  0.16501176721E+03  0.30000000000E+02 0.  1.
    -200000    1    3    3    0    0 -0.21144395834E+03  0.36615399507E+03 -0.75461603689E+03  0.87087522571E+03  0.10100000000E+03 0. -1.
<mgrwt>
<rscale>  0 0.15609011E+04</rscale>
<asrwt>0</asrwt>
<pdfrwt beam="1">  1        2 0.34361835E+00 0.15609011E+04</pdfrwt>
<pdfrwt beam="2">  1       -2 0.36175818E-01 0.15609011E+04</pdfrwt>
<totfact> 0.34275896E+01</totfact>
</mgrwt>
</event>
<event>
 8    2  0.4306980E-052  0.1469569E+04  0.7818608E-02  0.8904945E-01
          2   -1    0    0  501    0  0.00000000000E+00  0.00000000000E+00  0.20350014428E+04  0.20350014428E+04  0.25500000000E-02 0.  1.
         -2   -1    0    0    0  501 -0.00000000000E+00 -0.00000000000E+00 -0.26531086432E+03  0.26531086433E+03  0.25500000000E-02 0. -1.
    -200001    2    1    2    0    0 -0.26712151606E+03 -0.20156596724E+03  0.52664975280E+03  0.87451350021E+03  0.61272437232E+03 0.  0.
   -5000001    2    3    3    0    0 -0.33292650037E+03 -0.35035700942E+03  0.30078558311E+03  0.57839748689E+03  0.10237967153E+03 0.  0.
     200001    1    1    2    0    0  0.26712151606E+03  0.20156596724E+03  0.12430408257E+04  0.14257988069E+04  0.61300000000E+03 0.  1.
         13    1    4    4    0    0 -0.24107257711E+03 -0.20744744442E+03  0.16162385677E+03  0.35675301242E+03  0.10566000000E+00 0.  1.
    -200003    1    4    4    0    0 -0.91853923255E+02 -0.14290956500E+03  0.13916172634E+03  0.22164447447E+03  0.30000000000E+02 0. -1.
    -200000    1    3    3    0    0  0.65804984311E+02  0.14879104218E+03  0.22586416969E+03  0.29611601332E+03  0.10100000000E+03 0.  1.
<mgrwt>
<rscale>  0 0.14695686E+04</rscale>
<asrwt>0</asrwt>
<pdfrwt beam="1">  1        2 0.29071449E+00 0.14695686E+04</pdfrwt>
<pdfrwt beam="2">  1       -2 0.37901552E-01 0.14695686E+04</pdfrwt>
<totfact> 0.49031882E+01</totfact>
</mgrwt>
</event>
<event>
 8    2  0.4306980E-052  0.1515998E+04  0.7818608E-02  0.8873884E-01
         -2   -1    0    0    0  501 -0.00000000000E+00  0.00000000000E+00  0.37161132783E+03  0.37161132783E+03  0.25500000000E-02 0. -1.
          2   -1    0    0  501    0  0.00000000000E+00 -0.00000000000E+00 -0.15461383203E+04  0.15461383203E+04  0.25500000000E-02 0.  1.
    -200001    2    1    2    0    0  0.33082905652E+03 -0.90160449603E+02 -0.22536747603E+03  0.73696619678E+03  0.61216983317E+03 0.  0.
   -5000001    2    3    3    0    0 -0.14264151349E+03 -0.14082221988E+03 -0.10678504064E+03  0.23596341275E+03  0.64017093566E+02 0.  0.
     200001    1    1    2    0    0 -0.33082905652E+03  0.90160449603E+02 -0.94915951640E+03  0.11807834513E+04  0.61300000000E+03 0. -1.
         13    1    4    4    0    0 -0.56715555608E+02 -0.72263629823E+02 -0.72337564468E+02  0.11692485125E+03  0.10566000000E+00 0.  1.
    -200003    1    4    4    0    0 -0.85925957878E+02 -0.68558590057E+02 -0.34447476172E+02  0.11903856149E+03  0.30000000000E+02 0. -1.
    -200000    1    3    3    0    0  0.47347057001E+03  0.50661770277E+02 -0.11858243539E+03  0.50100278404E+03  0.10100000000E+03 0. -1.
<mgrwt>
<rscale>  0 0.15159980E+04</rscale>
<asrwt>0</asrwt>
<pdfrwt beam="1">  1        2 0.22087690E+00 0.15159980E+04</pdfrwt>
<pdfrwt beam="2">  1       -2 0.53087333E-01 0.15159980E+04</pdfrwt>
<totfact> 0.44672389E+01</totfact>
</mgrwt>
</event>
<event>
 8    2  0.4306980E-052  0.1356827E+04  0.7818608E-02  0.8985676E-01
         -2   -1    0    0    0  501 -0.00000000000E+00  0.00000000000E+00  0.60495519368E+03  0.60495519369E+03  0.25500000000E-02 0. -1.
          2   -1    0    0  501    0  0.00000000000E+00 -0.00000000000E+00 -0.76079163519E+03  0.76079163520E+03  0.25500000000E-02 0.  1.
    -200001    2    1    2    0    0 -0.28415679586E+02  0.22927227990E+03 -0.25550252041E+03  0.70311906274E+03  0.61296137666E+03 0.  0.
   -5000001    2    3    3    0    0  0.19484537233E+02  0.16296773418E+03  0.17530469177E+03  0.25313397674E+03  0.80043398547E+02 0.  0.
     200001    1    1    2    0    0  0.28415679586E+02 -0.22927227990E+03  0.99666078899E+02  0.66262776614E+03  0.61300000000E+03 0. -1.
         13    1    4    4    0    0  0.29826229112E+02  0.13857944829E+03  0.12624127482E+03  0.18981764423E+03  0.10566000000E+00 0.  1.
    -200003    1    4    4    0    0 -0.10341691879E+02  0.24388285894E+02  0.49063416951E+02  0.63316332511E+02  0.30000000000E+02 0. -1.
    -200000    1    3    3    0    0 -0.47900216819E+02  0.66304545720E+02 -0.43080721218E+03  0.44998508600E+03  0.10100000000E+03 0.  1.
<mgrwt>
<rscale>  0 0.13568270E+04</rscale>
<asrwt>0</asrwt>
<pdfrwt beam="1">  1        2 0.10868452E+00 0.13568270E+04</pdfrwt>
<pdfrwt beam="2">  1       -2 0.86422170E-01 0.13568270E+04</pdfrwt>
<totfact> 0.46000020E+01</totfact>
</mgrwt>
</event>
<event>
 8    2  0.4306980E-052  0.1927263E+04  0.7818608E-02  0.8641404E-01
          2   -1    0    0  501    0  0.00000000000E+00  0.00000000000E+00  0.94297731481E+03  0.94297731481E+03  0.25500000000E-02 0.  1.
         -2   -1    0    0    0  501 -0.00000000000E+00 -0.00000000000E+00 -0.98473777346E+03  0.98473777347E+03  0.25500000000E-02 0. -1.
    -200001    2    1    2    0    0  0.52288946468E+03  0.34937298722E+03  0.37603879660E+03  0.95519254655E+03  0.61279094964E+03 0.  0.
   -5000001    2    3    3    0    0  0.26962193548E+03 -0.10675388592E+03  0.28932415098E+03  0.41675351052E+03  0.76698395967E+02 0.  0.
     200001    1    1    2    0    0 -0.52288946468E+03 -0.34937298722E+03 -0.41779925526E+03  0.97252254173E+03  0.61300000000E+03 0.  1.
         13    1    4    4    0    0  0.77385721534E+02 -0.54483735494E+02  0.12492350297E+03  0.15672562040E+03  0.10566000000E+00 0.  1.
    -200003    1    4    4    0    0  0.19223621394E+03 -0.52270150426E+02  0.16440064801E+03  0.26002789012E+03  0.30000000000E+02 0.  1.
    -200000    1    3    3    0    0  0.25326752920E+03  0.45612687314E+03  0.86714645625E+02  0.53843903602E+03  0.10100000000E+03 0. -1.
<mgrwt>
<rscale>  0 0.19272627E+04</rscale>
<asrwt>0</asrwt>
<pdfrwt beam="1">  1        2 0.13471105E+00 0.19272627E+04</pdfrwt>
<pdfrwt beam="2">  1       -2 0.14067682E+00 0.19272627E+04</pdfrwt>
<totfact> 0.10145375E+01</totfact>
</mgrwt>
</event>
<event>
 8    2  0.4306980E-052  0.1646069E+04  0.7818608E-02  0.8792736E-01
         -2   -1    0    0    0  501 -0.00000000000E+00  0.00000000000E+00  0.11440293435E+04  0.11440293435E+04  0.25500000000E-02 0. -1.
          2   -1    0    0  501    0  0.00000000000E+00 -0.00000000000E+00 -0.59210505160E+03  0.59210505161E+03  0.25500000000E-02 0.  1.
    -200001    2    1    2    0    0 -0.28271780101E+03  0.64241637538E+02 -0.21742317139E+03  0.71059996749E+03  0.61124719659E+03 0.  0.
   -5000001    2    3    3    0    0  0.25200723705E+02  0.27000076945E+03 -0.26355021048E+02  0.28181251862E+03  0.72029275570E+02 0.  0.
     200001    1    1    2    0    0  0.28271780101E+03 -0.64241637538E+02  0.76934746331E+03  0.10255344277E+04  0.61300000000E+03 0. -1.
         13    1    4    4    0    0  0.25255712467E+02  0.63031869639E+02 -0.25913972605E+02  0.72680208741E+02  0.10566000000E+00 0.  1.
    -200003    1    4    4    0    0 -0.54988762404E-01  0.20696889981E+03 -0.44104844340E+00  0.20913230988E+03  0.30000000000E+02 0.  1.
    -200000    1    3    3    0    0 -0.30791852472E+03 -0.20575913191E+03 -0.19106815034E+03  0.42878744886E+03  0.10100000000E+03 0. -1.
<mgrwt>
<rscale>  0 0.16460687E+04</rscale>
<asrwt>0</asrwt>
<pdfrwt beam="1">  1        2 0.84586436E-01 0.16460687E+04</pdfrwt>
<pdfrwt beam="2">  1       -2 0.16343276E+00 0.16460687E+04</pdfrwt>
<totfact> 0.12540295E+01</totfact>
</mgrwt>
</event>
<event>
 8    2  0.4306980E-052  0.2869481E+04  0.7818608E-02  0.8282016E-01
          2   -1    0    0  501    0  0.00000000000E+00  0.00000000000E+00  0.12433156193E+04  0.12433156193E+04  0.25500000000E-02 0.  1.
         -2   -1    0    0    0  501 -0.00000000000E+00 -0.00000000000E+00 -0.16556373023E+04  0.16556373023E+04  0.25500000000E-02 0. -1.
    -200001    2    1    2    0    0  0.40379651850E+03  0.12319690555E+04 -0.25599643980E+03  0.14563836984E+04  0.61214370675E+03 0.  0.
   -5000001    2    3    3    0    0 -0.88508286840E+02  0.65173842682E+03 -0.16342452680E+03  0.68320702848E+03  0.86415125880E+02 0.  0.
     200001    1    1    2    0    0 -0.40379651850E+03 -0.12319690555E+04 -0.15632524319E+03  0.14425692232E+04  0.61300000000E+03 0. -1.
         13    1    4    4    0    0 -0.24459879878E+02  0.20296600706E+03 -0.13836634392E+02  0.20490229223E+03  0.10566000000E+00 0.  1.
    -200003    1    4    4    0    0 -0.64048406962E+02  0.44877241976E+03 -0.14958789240E+03  0.47830473625E+03  0.30000000000E+02 0.  1.
    -200000    1    3    3    0    0  0.49230480534E+03  0.58023062865E+03 -0.92571913003E+02  0.77317666989E+03  0.10100000000E+03 0.  1.
<mgrwt>
<rscale>  0 0.28694806E+04</rscale>
<asrwt>0</asrwt>
<pdfrwt beam="1">  1        2 0.17761652E+00 0.28694806E+04</pdfrwt>
<pdfrwt beam="2">  1       -2 0.23651961E+00 0.28694806E+04</pdfrwt>
<totfact> 0.13695124E+00</totfact>
</mgrwt>
</event>
<event>
 8    2  0.4306980E-052  0.1372241E+04  0.7818608E-02  0.8974161E-01
         -2   -1    0    0    0  501 -0.00000000000E+00  0.00000000000E+00  0.30132744638E+03  0.30132744639E+03  0.25500000000E-02 0. -1.
          2   -1    0    0  501    0  0.00000000000E+00 -0.00000000000E+00 -0.15622916054E+04  0.15622916054E+04  0.25500000000E-02 0.  1.
    -200001    2    1    2    0    0  0.26083564066E+03 -0.98366231102E+02 -0.45177511308E+03  0.81087641519E+03  0.61295078191E+03 0.  0.
   -5000001    2    3    3    0    0  0.29216402870E+03 -0.10856962816E+02 -0.55838692639E+03  0.63707647655E+03  0.92697271270E+02 0.  0.
     200001    1    1    2    0    0 -0.26083564066E+03  0.98366231102E+02 -0.80918904592E+03  0.10527426366E+04  0.61300000000E+03 0. -1.
         13    1    4    4    0    0  0.11980009209E+03 -0.32875435626E+01 -0.31668134826E+03  0.33859999632E+03  0.10566000000E+00 0.  1.
    -200003    1    4    4    0    0  0.17236393661E+03 -0.75694192535E+01 -0.24170557813E+03  0.29847648023E+03  0.30000000000E+02 0.  1.
    -200000    1    3    3    0    0 -0.31328388034E+02 -0.87509268286E+02  0.10661181331E+03  0.17379993864E+03  0.10100000000E+03 0. -1.
<mgrwt>
<rscale>  0 0.13722410E+04</rscale>
<asrwt>0</asrwt>
<pdfrwt beam="1">  1        2 0.22318451E+00 0.13722410E+04</pdfrwt>
<pdfrwt beam="2">  1       -2 0.43046779E-01 0.13722410E+04</pdfrwt>
<totfact> 0.67626376E+01</totfact>
</mgrwt>
</event>
<event>
 8    2  0.4306980E-052  0.1458505E+04  0.7818608E-02  0.8912526E-01
          2   -1    0    0  501    0  0.00000000000E+00  0.00000000000E+00  0.74831766984E+03  0.74831766984E+03  0.25500000000E-02 0.  1.
         -2   -1    0    0    0  501 -0.00000000000E+00 -0.00000000000E+00 -0.71067277404E+03  0.71067277405E+03  0.25500000000E-02 0. -1.
    -200001    2    1    2    0    0 -0.10157212557E+03  0.37399394174E+03 -0.61398240205E+02  0.72702944224E+03  0.61205694247E+03 0.  0.
   -5000001    2    3    3    0    0 -0.26475331070E+03  0.35790935280E+03 -0.19685628164E+03  0.49157945992E+03  0.68589718261E+02 0.  0.
     200001    1    1    2    0    0  0.10157212557E+03 -0.37399394174E+03  0.99043135996E+02  0.73196100165E+03  0.61300000000E+03 0. -1.
         13    1    4    4    0    0 -0.21194164615E+03  0.28249944108E+03 -0.16340811524E+03  0.38913676114E+03  0.10566000000E+00 0.  1.
    -200003    1    4    4    0    0 -0.52811664546E+02  0.75409911724E+02 -0.33448166403E+02  0.10244269878E+03  0.30000000000E+02 0. -1.
    -200000    1    3    3    0    0  0.16318118513E+03  0.16084588942E+02  0.13545804144E+03  0.23544998231E+03  0.10100000000E+03 0.  1.
<mgrwt>
<rscale>  0 0.14585047E+04</rscale>
<asrwt>0</asrwt>
<pdfrwt beam="1">  1        2 0.10690252E+00 0.14585047E+04</pdfrwt>
<pdfrwt beam="2">  1       -2 0.10152468E+00 0.14585047E+04</pdfrwt>
<totfact> 0.32035834E+01</totfact>
</mgrwt>
</event>
<event>
 8    2  0.4306980E-052  0.2311898E+04  0.7818608E-02  0.8473245E-01
         -2   -1    0    0    0  501 -0.00000000000E+00  0.00000000000E+00  0.61803908792E+03  0.61803908792E+03  0.25500000000E-02 0. -1.
          2   -1    0    0  501    0  0.00000000000E+00 -0.00000000000E+00 -0.21620290595E+04  0.21620290595E+04  0.25500000000E-02 0.  1.
    -200001    2    1    2    0    0  0.36216598143E+01 -0.66279109181E+03 -0.16403453656E+04  0.18721262386E+04  0.61222429472E+03 0.  0.
   -5000001    2    3    3    0    0  0.16660475816E+03 -0.44936160010E+03 -0.14475307252E+04  0.15264470176E+04  0.70797627896E+02 0.  0.
     200001    1    1    2    0    0 -0.36216598143E+01  0.66279109181E+03  0.96355394032E+02  0.90794190880E+03  0.61300000000E+03 0. -1.
         13    1    4    4    0    0  0.85648863275E+02 -0.29945471510E+03 -0.93081877884E+03  0.98154595632E+03  0.10566000000E+00 0.  1.
    -200003    1    4    4    0    0  0.80955894885E+02 -0.14990688500E+03 -0.51671194636E+03  0.54490106130E+03  0.30000000000E+02 0. -1.
    -200000    1    3    3    0    0 -0.16298309835E+03 -0.21342949171E+03 -0.19281464042E+03  0.34567922101E+03  0.10100000000E+03 0. -1.
<mgrwt>
<rscale>  0 0.23118983E+04</rscale>
<asrwt>0</asrwt>
<pdfrwt beam="1">  1        2 0.30886129E+00 0.23118983E+04</pdfrwt>
<pdfrwt beam="2">  1       -2 0.88291299E-01 0.23118983E+04</pdfrwt>
<totfact> 0.66532275E+00</totfact>
</mgrwt>
</event>
<event>
 8    2  0.4306980E-052  0.1773622E+04  0.7818608E-02  0.8720454E-01
          2   -1    0    0  501    0  0.00000000000E+00  0.00000000000E+00  0.75418910848E+03  0.75418910849E+03  0.25500000000E-02 0.  1.
         -2   -1    0    0    0  501 -0.00000000000E+00 -0.00000000000E+00 -0.10427538536E+04  0.10427538536E+04  0.25500000000E-02 0. -1.
    -200001    2    1    2    0    0 -0.13316534590E+02  0.45729509907E+03  0.31029891163E+03  0.82549928535E+03  0.61308035185E+03 0.  0.
   -5000001    2    3    3    0    0  0.25194743580E+03  0.35088731512E+03  0.88224893223E+02  0.44972613553E+03  0.88716102680E+02 0.  0.
     200001    1    1    2    0    0  0.13316534590E+02 -0.45729509907E+03 -0.59886365676E+03  0.97144367676E+03  0.61300000000E+03 0. -1.
         13    1    4    4    0    0  0.17112653077E+03  0.24083687312E+03  0.25621753986E+02  0.29655214454E+03  0.10566000000E+00 0.  1.
    -200003    1    4    4    0    0  0.80820905033E+02  0.11005044200E+03  0.62603139237E+02  0.15317399100E+03  0.30000000000E+02 0.  1.
    -200000    1    3    3    0    0 -0.26526397039E+03  0.10640778394E+03  0.22207401841E+03  0.37577314981E+03  0.10100000000E+03 0. -1.
<mgrwt>
<rscale>  0 0.17736218E+04</rscale>
<asrwt>0</asrwt>
<pdfrwt beam="1">  1        2 0.10774130E+00 0.17736218E+04</pdfrwt>
<pdfrwt beam="2">  1       -2 0.14896484E+00 0.17736218E+04</pdfrwt>
<totfact> 0.11865567E+01</totfact>
</mgrwt>
</event>
<event>
 8    2  0.4306980E-052  0.2195103E+04  0.7818608E-02  0.8520469E-01
         -2   -1    0    0    0  501 -0.00000000000E+00  0.00000000000E+00  0.47625837571E+03  0.47625837572E+03  0.25500000000E-02 0. -1.
          2   -1    0    0  501    0  0.00000000000E+00 -0.00000000000E+00 -0.25293409724E+04  0.25293409724E+04  0.25500000000E-02 0.  1.
    -200001    2    1    2    0    0  0.39932090749E+02  0.90612982680E+03 -0.11371949337E+04  0.15782644028E+04  0.61240539924E+03 0.  0.
   -5000001    2    3    3    0    0  0.17415630263E+03  0.64970523107E+03 -0.41743291167E+03  0.79594216694E+03  0.82621984617E+02 0.  0.
     200001    1    1    2    0    0 -0.39932090749E+02 -0.90612982680E+03 -0.91588766293E+03  0.14273349453E+04  0.61300000000E+03 0. -1.
         13    1    4    4    0    0  0.79352282924E+02  0.25637176011E+03 -0.20686003291E+03  0.33884266049E+03  0.10566000000E+00 0.  1.
    -200003    1    4    4    0    0  0.94804019709E+02  0.39333347096E+03 -0.21057287876E+03  0.45709950645E+03  0.30000000000E+02 0. -1.
    -200000    1    3    3    0    0 -0.13422421188E+03  0.25642459573E+03 -0.71976202206E+03  0.78232223588E+03  0.10100000000E+03 0.  1.
<mgrwt>
<rscale>  0 0.21951035E+04</rscale>
<asrwt>0</asrwt>
<pdfrwt beam="1">  1        2 0.36133442E+00 0.21951035E+04</pdfrwt>
<pdfrwt beam="2">  1       -2 0.68036912E-01 0.21951035E+04</pdfrwt>
<totfact> 0.77254419E+00</totfact>
</mgrwt>
</event>
<event>
 8    2  0.4306980E-052  0.1542163E+04  0.7818608E-02  0.8856889E-01
         -2   -1    0    0    0  501 -0.00000000000E+00  0.00000000000E+00  0.14669997108E+04  0.14669997108E+04  0.25500000000E-02 0. -1.
          2   -1    0    0  501    0  0.00000000000E+00 -0.00000000000E+00 -0.40529426955E+03  0.40529426956E+03  0.25500000000E-02 0.  1.
    -200001    2    1    2    0    0  0.11354410897E+03 -0.43081556298E+03  0.35877993631E+03  0.83867529850E+03  0.61331794335E+03 0.  0.
   -5000001    2    3    3    0    0  0.26014392869E+03  0.84339467613E+01  0.19784750584E+03  0.33814369498E+03  0.86322232351E+02 0.  0.
     200001    1    1    2    0    0 -0.11354410897E+03  0.43081556298E+03  0.70292550492E+03  0.10336186818E+04  0.61300000000E+03 0. -1.
         13    1    4    4    0    0  0.13589341442E+03  0.36409474546E+02  0.78836262488E+02  0.16126945577E+03  0.10566000000E+00 0.  1.
    -200003    1    4    4    0    0  0.12425051427E+03 -0.27975527784E+02  0.11901124335E+03  0.17687423921E+03  0.30000000000E+02 0.  1.
    -200000    1    3    3    0    0 -0.14659981971E+03 -0.43924950974E+03  0.16093243047E+03  0.50053160352E+03  0.10100000000E+03 0.  1.
<mgrwt>
<rscale>  0 0.15421629E+04</rscale>
<asrwt>0</asrwt>
<pdfrwt beam="1">  1        2 0.57899182E-01 0.15421629E+04</pdfrwt>
<pdfrwt beam="2">  1       -2 0.20957139E+00 0.15421629E+04</pdfrwt>
<totfact> 0.94698352E+00</totfact>
</mgrwt>
</event>
<event>
 8    2  0.4306980E-052  0.2230044E+04  0.7818608E-02  0.8506026E-01
          2   -1    0    0  501    0  0.00000000000E+00  0.00000000000E+00  0.33881525765E+04  0.33881525765E+04  0.25500000000E-02 0.  1.
         -2   -1    0    0    0  501 -0.00000000000E+00 -0.00000000000E+00 -0.36694746903E+03  0.36694746904E+03  0.25500000000E-02 0. -1.
    -200001    2    1    2    0    0  0.42417575630E+03 -0.66541787144E+03  0.23434799320E+04  0.25477117777E+04  0.61337679672E+03 0.  0.
   -5000001    2    3    3    0    0  0.28919286619E+03 -0.66031875801E+03  0.13252352732E+04  0.15155928084E+04  0.14532603201E+03 0.  0.
     200001    1    1    2    0    0 -0.42417575630E+03  0.66541787144E+03  0.67772517552E+03  0.12073882679E+04  0.61300000000E+03 0. -1.
         13    1    4    4    0    0  0.19808872207E+03 -0.50979551287E+03  0.88254779542E+03  0.10382780115E+04  0.10566000000E+00 0.  1.
    -200003    1    4    4    0    0  0.91104144119E+02 -0.15052324514E+03  0.44268747773E+03  0.47731479691E+03  0.30000000000E+02 0.  1.
    -200000    1    3    3    0    0  0.13498289011E+03 -0.50991134254E+01  0.10182446589E+04  0.10321189693E+04  0.10100000000E+03 0.  1.
<mgrwt>
<rscale>  0 0.22300440E+04</rscale>
<asrwt>0</asrwt>
<pdfrwt beam="1">  1        2 0.48402178E+00 0.22300440E+04</pdfrwt>
<pdfrwt beam="2">  1       -2 0.52421069E-01 0.22300440E+04</pdfrwt>
<totfact> 0.44246842E+00</totfact>
</mgrwt>
</event>
<event>
 8    2  0.4306980E-052  0.2322481E+04  0.7818608E-02  0.8469109E-01
          2   -1    0    0  501    0  0.00000000000E+00  0.00000000000E+00  0.18075973541E+04  0.18075973541E+04  0.25500000000E-02 0.  1.
         -2   -1    0    0    0  501 -0.00000000000E+00 -0.00000000000E+00 -0.74600670218E+03  0.74600670218E+03  0.25500000000E-02 0. -1.
    -200001    2    1    2    0    0 -0.31925531126E+03 -0.67797362922E+03 -0.17819979501E+03  0.98057463890E+03  0.60679424835E+03 0.  0.
   -5000001    2    3    3    0    0 -0.51096637454E+02 -0.61183351410E+03 -0.25970549400E+03  0.67540621306E+03  0.10851494687E+03 0.  0.
     200001    1    1    2    0    0  0.31925531126E+03  0.67797362922E+03  0.12397904470E+04  0.15730294174E+04  0.61300000000E+03 0.  1.
         13    1    4    4    0    0 -0.11354304913E+02 -0.50995586305E+03 -0.21184297542E+03  0.55232360070E+03  0.10566000000E+00 0.  1.
    -200003    1    4    4    0    0 -0.39742332541E+02 -0.10187765105E+03 -0.47862518579E+02  0.12308261235E+03  0.30000000000E+02 0. -1.
    -200000    1    3    3    0    0 -0.26815867380E+03 -0.66140115127E+02  0.81505698992E+02  0.30516842584E+03  0.10100000000E+03 0.  1.
<mgrwt>
<rscale>  0 0.23224812E+04</rscale>
<asrwt>0</asrwt>
<pdfrwt beam="1">  1        2 0.25822820E+00 0.23224812E+04</pdfrwt>
<pdfrwt beam="2">  1       -2 0.10657239E+00 0.23224812E+04</pdfrwt>
<totfact> 0.65084000E+00</totfact>
</mgrwt>
</event>
<event>
 8    2  0.4306980E-052  0.1283864E+04  0.7818608E-02  0.9042460E-01
          2   -1    0    0  501    0  0.00000000000E+00  0.00000000000E+00  0.17297052614E+04  0.17297052614E+04  0.25500000000E-02 0.  1.
         -2   -1    0    0    0  501 -0.00000000000E+00 -0.00000000000E+00 -0.23823511355E+03  0.23823511356E+03  0.25500000000E-02 0. -1.
    -200001    2    1    2    0    0  0.13565516845E+03 -0.32228198681E+02  0.94783032439E+03  0.11368241140E+04  0.61200143865E+03 0.  0.
   -5000001    2    3    3    0    0 -0.18635287071E+03  0.13679142925E+03  0.35405346334E+03  0.43324130255E+03  0.94365691814E+02 0.  0.
     200001    1    1    2    0    0 -0.13565516845E+03  0.32228198681E+02  0.54363982348E+03  0.83111626094E+03  0.61300000000E+03 0. -1.
         13    1    4    4    0    0 -0.17202715475E+03  0.98203273428E+02  0.29388889320E+03  0.35441207315E+03  0.10566000000E+00 0.  1.
    -200003    1    4    4    0    0 -0.14325715962E+02  0.38588155819E+02  0.60164570139E+02  0.78829229397E+02  0.30000000000E+02 0. -1.
    -200000    1    3    3    0    0  0.32200803916E+03 -0.16901962793E+03  0.59377686105E+03  0.70358281149E+03  0.10100000000E+03 0. -1.
<mgrwt>
<rscale>  0 0.12838637E+04</rscale>
<asrwt>0</asrwt>
<pdfrwt beam="1">  1        2 0.24710075E+00 0.12838637E+04</pdfrwt>
<pdfrwt beam="2">  1       -2 0.34033588E-01 0.12838637E+04</pdfrwt>
<totfact> 0.87773693E+01</totfact>
</mgrwt>
</event>
<event>
 8    2  0.4306980E-052  0.1691213E+04  0.7818608E-02  0.8766392E-01
         -2   -1    0    0    0  501 -0.00000000000E+00  0.00000000000E+00  0.34544247530E+03  0.34544247531E+03  0.25500000000E-02 0. -1.
          2   -1    0    0  501    0  0.00000000000E+00 -0.00000000000E+00 -0.20699549161E+04  0.20699549161E+04  0.25500000000E-02 0.  1.
    -200001    2    1    2    0    0 -0.57717225763E+03  0.47648912652E+02 -0.95378535739E+03  0.12729493747E+04  0.61261355573E+03 0.  0.
   -5000001    2    3    3    0    0 -0.20141387672E+03  0.18058458827E+03 -0.77573426084E+03  0.82487633636E+03  0.74020156700E+02 0.  0.
     200001    1    1    2    0    0  0.57717225763E+03 -0.47648912652E+02 -0.77072708342E+03  0.11424480168E+04  0.61300000000E+03 0.  1.
         13    1    4    4    0    0 -0.79988340824E+02  0.31796399744E+02 -0.23549880286E+03  0.25073660088E+03  0.10566000000E+00 0.  1.
    -200003    1    4    4    0    0 -0.12142553589E+03  0.14878818853E+03 -0.54023545797E+03  0.57413973548E+03  0.30000000000E+02 0.  1.
    -200000    1    3    3    0    0 -0.37575838091E+03 -0.13293567562E+03 -0.17805109655E+03  0.44807303831E+03  0.10100000000E+03 0. -1.
<mgrwt>
<rscale>  0 0.16912130E+04</rscale>
<asrwt>0</asrwt>
<pdfrwt beam="1">  1        2 0.29570784E+00 0.16912130E+04</pdfrwt>
<pdfrwt beam="2">  1       -2 0.49348926E-01 0.16912130E+04</pdfrwt>
<totfact> 0.27389022E+01</totfact>
</mgrwt>
</event>
<event>
 8    2  0.4306980E-052  0.1448298E+04  0.7818608E-02  0.8919581E-01
          2   -1    0    0  501    0  0.00000000000E+00  0.00000000000E+00  0.19678082734E+04  0.19678082734E+04  0.25500000000E-02 0.  1.
         -2   -1    0    0    0  501 -0.00000000000E+00 -0.00000000000E+00 -0.26648524172E+03  0.26648524173E+03  0.25500000000E-02 0. -1.
    -200001    2    1    2    0    0  0.10050022327E+03  0.12048380264E+03  0.13938597829E+04  0.15307885109E+04  0.61306747518E+03 0.  0.
   -5000001    2    3    3    0    0  0.32112689457E+02  0.25870706218E+02  0.13725556478E+04  0.13749573235E+04  0.69986548838E+02 0.  0.
     200001    1    1    2    0    0 -0.10050022327E+03 -0.12048380264E+03  0.30746324870E+03  0.70350500416E+03  0.61300000000E+03 0. -1.
         13    1    4    4    0    0  0.34054015363E+02  0.35936404857E+02  0.82172316086E+03  0.82321325634E+03  0.10566000000E+00 0.  1.
    -200003    1    4    4    0    0 -0.19413259061E+01 -0.10065698639E+02  0.55083248689E+03  0.55174406717E+03  0.30000000000E+02 0. -1.
    -200000    1    3    3    0    0  0.68387533816E+02  0.94613096421E+02  0.21304135179E+02  0.15583118742E+03  0.10100000000E+03 0. -1.
<mgrwt>
<rscale>  0 0.14482981E+04</rscale>
<asrwt>0</asrwt>
<pdfrwt beam="1">  1        2 0.28111546E+00 0.14482981E+04</pdfrwt>
<pdfrwt beam="2">  1       -2 0.38069321E-01 0.14482981E+04</pdfrwt>
<totfact> 0.52722666E+01</totfact>
</mgrwt>
</event>
<event>
 8    2  0.4306980E-052  0.1813033E+04  0.7818608E-02  0.8699399E-01
         -2   -1    0    0    0  501 -0.00000000000E+00  0.00000000000E+00  0.14382798300E+04  0.14382798300E+04  0.25500000000E-02 0.  1.
          2   -1    0    0  501    0  0.00000000000E+00 -0.00000000000E+00 -0.57135756198E+03  0.57135756199E+03  0.25500000000E-02 0. -1.
    -200001    2    1    2    0    0 -0.40948226376E+03 -0.23327654457E+03 -0.91209309641E+02  0.77842709692E+03  0.61280986976E+03 0.  0.
   -5000001    2    3    3    0    0 -0.52433938442E+03 -0.11279599548E+03 -0.17264863866E+03  0.56737950706E+03  0.66762459074E+02 0.  0.
     200001    1    1    2    0    0  0.40948226376E+03  0.23327654457E+03  0.95813157766E+03  0.12312102951E+04  0.61300000000E+03 0.  1.
         13    1    4    4    0    0 -0.16516374510E+03 -0.40540832426E+02 -0.28047903620E+02  0.17236391110E+03  0.10566000000E+00 0.  1.
    -200003    1    4    4    0    0 -0.35917563932E+03 -0.72255163058E+02 -0.14460073504E+03  0.39501559595E+03  0.30000000000E+02 0.  1.
    -200000    1    3    3    0    0  0.11485712066E+03 -0.12048054908E+03  0.81439329023E+02  0.21104758986E+03  0.10100000000E+03 0. -1.
<mgrwt>
<rscale>  0 0.18130329E+04</rscale>
<asrwt>0</asrwt>
<pdfrwt beam="1">  1        2 0.81622509E-01 0.18130329E+04</pdfrwt>
<pdfrwt beam="2">  1       -2 0.20546855E+00 0.18130329E+04</pdfrwt>
<totfact> 0.66566206E+00</totfact>
</mgrwt>
</event>
<event>
 8    2  0.4306980E-052  0.1530449E+04  0.7818608E-02  0.8864453E-01
         -2   -1    0    0    0  501 -0.00000000000E+00  0.00000000000E+00  0.10952769443E+04  0.10952769443E+04  0.25500000000E-02 0. -1.
          2   -1    0    0  501    0  0.00000000000E+00 -0.00000000000E+00 -0.53463050045E+03  0.53463050046E+03  0.25500000000E-02 0.  1.
    -200001    2    1    2    0    0 -0.29311286570E+03 -0.34124994997E+03  0.37245347923E+03  0.84661166901E+03  0.61291356938E+03 0.  0.
   -5000001    2    3    3    0    0 -0.26587105557E+02 -0.38167225716E+03  0.16108646781E+02  0.38851497251E+03  0.65603424406E+02 0.  0.
     200001    1    1    2    0    0  0.29311286570E+03  0.34124994997E+03  0.18819296464E+03  0.78329577577E+03  0.61300000000E+03 0. -1.
         13    1    4    4    0    0  0.92185112182E+01 -0.10469851328E+02  0.22320558865E+01  0.14127702341E+02  0.10566000000E+00 0.  1.
    -200003    1    4    4    0    0 -0.35805616775E+02 -0.37120240583E+03  0.13876590894E+02  0.37438727017E+03  0.30000000000E+02 0.  1.
    -200000    1    3    3    0    0 -0.26652576014E+03  0.40422307190E+02  0.35634483245E+03  0.45809669651E+03  0.10100000000E+03 0. -1.
<mgrwt>
<rscale>  0 0.15304489E+04</rscale>
<asrwt>0</asrwt>
<pdfrwt beam="1">  1        2 0.76375787E-01 0.15304489E+04</pdfrwt>
<pdfrwt beam="2">  1       -2 0.15646813E+00 0.15304489E+04</pdfrwt>
<totfact> 0.16052588E+01</totfact>
</mgrwt>
</event>
<event>
 8    2  0.4306980E-052  0.1571664E+04  0.7818608E-02  0.8838147E-01
          2   -1    0    0  501    0  0.00000000000E+00  0.00000000000E+00  0.19684419237E+04  0.19684419237E+04  0.25500000000E-02 0.  1.
         -2   -1    0    0    0  501 -0.00000000000E+00 -0.00000000000E+00 -0.31371621098E+03  0.31371621099E+03  0.25500000000E-02 0. -1.
    -200001    2    1    2    0    0  0.46067854561E+03  0.14050690863E+03  0.97024884481E+03  0.12447360911E+04  0.61320323051E+03 0.  0.
   -5000001    2    3    3    0    0  0.41779620539E+03 -0.13724301553E+03  0.74758440004E+03  0.87222519136E+03  0.92222745035E+02 0.  0.
     200001    1    1    2    0    0 -0.46067854561E+03 -0.14050690863E+03  0.68447686789E+03  0.10374220435E+04  0.61300000000E+03 0.  1.
         13    1    4    4    0    0  0.57594081432E+02 -0.35362487425E+02  0.68536845492E+02  0.96254319835E+02  0.10566000000E+00 0.  1.
    -200003    1    4    4    0    0  0.36020212396E+03 -0.10188052811E+03  0.67904755455E+03  0.77597087152E+03  0.30000000000E+02 0.  1.
    -200000    1    3    3    0    0  0.42882340220E+02  0.27774992416E+03  0.22266444477E+03  0.37251089976E+03  0.10100000000E+03 0. -1.
<mgrwt>
<rscale>  0 0.15716643E+04</rscale>
<asrwt>0</asrwt>
<pdfrwt beam="1">  1        2 0.28120599E+00 0.15716643E+04</pdfrwt>
<pdfrwt beam="2">  1       -2 0.44816601E-01 0.15716643E+04</pdfrwt>
<totfact> 0.37858509E+01</totfact>
</mgrwt>
</event>
<event>
 8    2  0.4306980E-052  0.1411989E+04  0.7818608E-02  0.8945186E-01
          2   -1    0    0  501    0  0.00000000000E+00  0.00000000000E+00  0.22262785192E+04  0.22262785192E+04  0.25500000000E-02 0.  1.
         -2   -1    0    0    0  501 -0.00000000000E+00 -0.00000000000E+00 -0.22388398276E+03  0.22388398277E+03  0.25500000000E-02 0. -1.
    -200001    2    1    2    0    0  0.61930322780E+02 -0.27995930614E+03  0.65724726697E+03  0.94437275751E+03  0.61453507402E+03 0.  0.
   -5000001    2    3    3    0    0 -0.14411358731E+03  0.11420017869E+03  0.31027487219E+03  0.37130501709E+03  0.88241217935E+02 0.  0.
     200001    1    1    2    0    0 -0.61930322780E+02  0.27995930614E+03  0.13451472695E+04  0.15057897445E+04  0.61300000000E+03 0.  1.
         13    1    4    4    0    0 -0.11030147216E+03  0.10938398189E+03  0.26482199549E+03  0.30702112422E+03  0.10566000000E+00 0.  1.
    -200003    1    4    4    0    0 -0.33812115148E+02  0.48161967972E+01  0.45452876692E+02  0.64283892866E+02  0.30000000000E+02 0. -1.
    -200000    1    3    3    0    0  0.20604391009E+03 -0.39415948483E+03  0.34697239478E+03  0.57306774042E+03  0.10100000000E+03 0.  1.
<mgrwt>
<rscale>  0 0.14119888E+04</rscale>
<asrwt>0</asrwt>
<pdfrwt beam="1">  1        2 0.31803980E+00 0.14119888E+04</pdfrwt>
<pdfrwt beam="2">  1       -2 0.31983424E-01 0.14119888E+04</pdfrwt>
<totfact> 0.54294508E+01</totfact>
</mgrwt>
</event>
<event>
 8    2  0.4306980E-052  0.1311927E+04  0.7818608E-02  0.9020160E-01
         -2   -1    0    0    0  501 -0.00000000000E+00  0.00000000000E+00  0.22778262348E+03  0.22778262349E+03  0.25500000000E-02 0. -1.
          2   -1    0    0  501    0  0.00000000000E+00 -0.00000000000E+00 -0.18890283300E+04  0.18890283301E+04  0.25500000000E-02 0.  1.
    -200001    2    1    2    0    0 -0.76763244071E+02  0.10395435751E+03 -0.11448783958E+04  0.13049591790E+04  0.61275836495E+03 0.  0.
   -5000001    2    3    3    0    0 -0.25741344286E+03  0.15180159132E+02 -0.10038286807E+04  0.10392311701E+04  0.76402139613E+02 0.  0.
     200001    1    1    2    0    0  0.76763244071E+02 -0.10395435751E+03 -0.51636731081E+03  0.81185177450E+03  0.61300000000E+03 0. -1.
         13    1    4    4    0    0 -0.19114536293E+03  0.22891788118E+02 -0.79445676002E+03  0.81744855400E+03  0.10566000000E+00 0.  1.
    -200003    1    4    4    0    0 -0.66268079924E+02 -0.77116289857E+01 -0.20937192067E+03  0.22178261609E+03  0.30000000000E+02 0. -1.
    -200000    1    3    3    0    0  0.18065019879E+03  0.88774198374E+02 -0.14104971507E+03  0.26572800895E+03  0.10100000000E+03 0. -1.
<mgrwt>
<rscale>  0 0.13119266E+04</rscale>
<asrwt>0</asrwt>
<pdfrwt beam="1">  1        2 0.26986118E+00 0.13119266E+04</pdfrwt>
<pdfrwt beam="2">  1       -2 0.32540376E-01 0.13119266E+04</pdfrwt>
<totfact> 0.78927927E+01</totfact>
</mgrwt>
</event>
<event>
 8    2  0.4306980E-052  0.1873069E+04  0.7818608E-02  0.8668379E-01
          2   -1    0    0  501    0  0.00000000000E+00  0.00000000000E+00  0.18130827585E+04  0.18130827585E+04  0.25500000000E-02 0.  1.
         -2   -1    0    0    0  501 -0.00000000000E+00 -0.00000000000E+00 -0.48376005231E+03  0.48376005232E+03  0.25500000000E-02 0. -1.
    -200001    2    1    2    0    0  0.63891679368E+03  0.20765406601E+03  0.93936239337E+03  0.13073111408E+04  0.61263841896E+03 0.  0.
   -5000001    2    3    3    0    0  0.68391661175E+03  0.62149558727E+02  0.57318514901E+03  0.89806388111E+03  0.79831197154E+02 0.  0.
     200001    1    1    2    0    0 -0.63891679368E+03 -0.20765406601E+03  0.38996031279E+03  0.98953166999E+03  0.61300000000E+03 0. -1.
         13    1    4    4    0    0  0.30744693886E+02  0.18660569271E+02  0.33093987103E+02  0.48874085096E+02  0.10566000000E+00 0.  1.
    -200003    1    4    4    0    0  0.65317191786E+03  0.43488989456E+02  0.54009116191E+03  0.84918979602E+03  0.30000000000E+02 0.  1.
    -200000    1    3    3    0    0 -0.44999818072E+02  0.14550450728E+03  0.36617724435E+03  0.40924725967E+03  0.10100000000E+03 0.  1.
<mgrwt>
<rscale>  0 0.18730691E+04</rscale>
<asrwt>0</asrwt>
<pdfrwt beam="1">  1        2 0.25901182E+00 0.18730691E+04</pdfrwt>
<pdfrwt beam="2">  1       -2 0.69108579E-01 0.18730691E+04</pdfrwt>
<totfact> 0.18035445E+01</totfact>
</mgrwt>
</event>
<event>
 8    2  0.4306980E-052  0.2260143E+04  0.7818608E-02  0.8493804E-01
          2   -1    0    0  501    0  0.00000000000E+00  0.00000000000E+00  0.47086862561E+03  0.47086862561E+03  0.25500000000E-02 0.  1.
         -2   -1    0    0    0  501 -0.00000000000E+00 -0.00000000000E+00 -0.27121407505E+04  0.27121407505E+04  0.25500000000E-02 0. -1.
    -200001    2    1    2    0    0  0.49360300535E+03 -0.47602407023E+03 -0.19633143539E+03  0.94073502495E+03  0.61334616026E+03 0.  0.
   -5000001    2    3    3    0    0  0.37647290630E+01 -0.35504289066E+03  0.52465563990E+02  0.36917669054E+03  0.86424337113E+02 0.  0.
     200001    1    1    2    0    0 -0.49360300535E+03  0.47602407023E+03 -0.20449406895E+04  0.22422743512E+04  0.61300000000E+03 0. -1.
         13    1    4    4    0    0  0.98013501322E+01 -0.77425310265E+02 -0.20129355748E+02  0.80597439543E+02  0.10566000000E+00 0.  1.
    -200003    1    4    4    0    0 -0.60366210692E+01 -0.27761758039E+03  0.72594919738E+02  0.28857925100E+03  0.30000000000E+02 0.  1.
    -200000    1    3    3    0    0  0.48983827629E+03 -0.12098117957E+03 -0.24879699938E+03  0.57155833440E+03  0.10100000000E+03 0. -1.
<mgrwt>
<rscale>  0 0.22601433E+04</rscale>
<asrwt>0</asrwt>
<pdfrwt beam="1">  1        2 0.67266948E-01 0.22601433E+04</pdfrwt>
<pdfrwt beam="2">  1       -2 0.38744867E+00 0.22601433E+04</pdfrwt>
<totfact> 0.58916813E-01</totfact>
</mgrwt>
</event>
<event>
 8    2  0.4306980E-052  0.1493789E+04  0.7818608E-02  0.8888594E-01
         -2   -1    0    0    0  501 -0.00000000000E+00  0.00000000000E+00  0.20563163267E+03  0.20563163269E+03  0.25500000000E-02 0. -1.
          2   -1    0    0  501    0  0.00000000000E+00 -0.00000000000E+00 -0.27128681538E+04  0.27128681538E+04  0.25500000000E-02 0.  1.
    -200001    2    1    2    0    0  0.22054640255E+03  0.34523172650E+03 -0.10156108959E+04  0.12546062603E+04  0.61216477835E+03 0.  0.
   -5000001    2    3    3    0    0 -0.43008796996E+02  0.37978719067E+03 -0.32687599245E+03  0.50948063966E+03  0.81452691378E+02 0.  0.
     200001    1    1    2    0    0 -0.22054640255E+03 -0.34523172650E+03 -0.14916256252E+04  0.16638935262E+04  0.61300000000E+03 0.  1.
         13    1    4    4    0    0  0.17309118672E+02  0.13706241160E+03 -0.13101256838E+03  0.19039436572E+03  0.10566000000E+00 0.  1.
    -200003    1    4    4    0    0 -0.60317915667E+02  0.24272477907E+03 -0.19586342408E+03  0.31908627394E+03  0.30000000000E+02 0.  1.
    -200000    1    3    3    0    0  0.26355519955E+03 -0.34555464164E+02 -0.68873490344E+03  0.74512562064E+03  0.10100000000E+03 0.  1.
<mgrwt>
<rscale>  0 0.14937892E+04</rscale>
<asrwt>0</asrwt>
<pdfrwt beam="1">  1        2 0.38755257E+00 0.14937892E+04</pdfrwt>
<pdfrwt beam="2">  1       -2 0.29375949E-01 0.14937892E+04</pdfrwt>
<totfact> 0.35127614E+01</totfact>
</mgrwt>
</event>
<event>
 8    2  0.4306980E-052  0.2056466E+04  0.7818608E-02  0.8580667E-01
         -2   -1    0    0    0  501 -0.00000000000E+00  0.00000000000E+00  0.45893428166E+03  0.45893428167E+03  0.25500000000E-02 0. -1.
          2   -1    0    0  501    0  0.00000000000E+00 -0.00000000000E+00 -0.23037344953E+04  0.23037344953E+04  0.25500000000E-02 0.  1.
    -200001    2    1    2    0    0  0.69325448791E+03 -0.13053127302E+03 -0.34665725829E+03  0.99692771076E+03  0.61323193615E+03 0.  0.
   -5000001    2    3    3    0    0  0.46460712069E+03  0.18572728447E+03 -0.28056302522E+03  0.58843225011E+03  0.13108203943E+03 0.  0.
     200001    1    1    2    0    0 -0.69325448791E+03  0.13053127302E+03 -0.14981429554E+04  0.17657410662E+04  0.61300000000E+03 0.  1.
         13    1    4    4    0    0  0.10346460564E+03  0.92362320568E+02 -0.43129475733E+02  0.14524422785E+03  0.10566000000E+00 0.  1.
    -200003    1    4    4    0    0  0.36114251505E+03  0.93364963901E+02 -0.23743354949E+03  0.44318802227E+03  0.30000000000E+02 0.  1.
    -200000    1    3    3    0    0  0.22864736722E+03 -0.31625855749E+03 -0.66094233068E+02  0.40849546065E+03  0.10100000000E+03 0. -1.
<mgrwt>
<rscale>  0 0.20564656E+04</rscale>
<asrwt>0</asrwt>
<pdfrwt beam="1">  1        2 0.32910492E+00 0.20564656E+04</pdfrwt>
<pdfrwt beam="2">  1       -2 0.65562042E-01 0.20564656E+04</pdfrwt>
<totfact> 0.11114816E+01</totfact>
</mgrwt>
</event>
<event>
 8    2  0.4306980E-052  0.1997905E+04  0.7818608E-02  0.8607601E-01
          2   -1    0    0  501    0  0.00000000000E+00  0.00000000000E+00  0.10157325444E+04  0.10157325444E+04  0.25500000000E-02 0.  1.
         -2   -1    0    0    0  501 -0.00000000000E+00 -0.00000000000E+00 -0.98244990353E+03  0.98244990353E+03  0.25500000000E-02 0. -1.
    -200001    2    1    2    0    0 -0.24151757156E+03  0.60975184473E+03  0.45384525025E+03  0.10068349015E+04  0.61450220348E+03 0.  0.
   -5000001    2    3    3    0    0 -0.27682565962E+03  0.36261082820E+02  0.58992190118E+02  0.30238600041E+03  0.10004950175E+03 0.  0.
     200001    1    1    2    0    0  0.24151757156E+03 -0.60975184473E+03 -0.42056260937E+03  0.99134754649E+03  0.61300000000E+03 0.  1.
         13    1    4    4    0    0 -0.12138128433E+03  0.52689557570E+02  0.54646448797E+02  0.14316372163E+03  0.10566000000E+00 0.  1.
    -200003    1    4    4    0    0 -0.15544437529E+03 -0.16428474750E+02  0.43457413206E+01  0.15922227878E+03  0.30000000000E+02 0. -1.
    -200000    1    3    3    0    0  0.35308088061E+02  0.57349076191E+03  0.39485306013E+03  0.70444890104E+03  0.10100000000E+03 0.  1.
<mgrwt>
<rscale>  0 0.19979052E+04</rscale>
<asrwt>0</asrwt>
<pdfrwt beam="1">  1        2 0.14510465E+00 0.19979052E+04</pdfrwt>
<pdfrwt beam="2">  1       -2 0.14034999E+00 0.19979052E+04</pdfrwt>
<totfact> 0.91416028E+00</totfact>
</mgrwt>
</event>
<event>
 8    2  0.4306980E-052  0.1442554E+04  0.7818608E-02  0.8923579E-01
         -2   -1    0    0    0  501 -0.00000000000E+00  0.00000000000E+00  0.34612330523E+03  0.34612330524E+03  0.25500000000E-02 0. -1.
          2   -1    0    0  501    0  0.00000000000E+00 -0.00000000000E+00 -0.15030499284E+04  0.15030499284E+04  0.25500000000E-02 0.  1.
    -200001    2    1    2    0    0  0.78059026505E+01 -0.35505881113E+03 -0.75412038993E+03  0.10342195214E+04  0.61219667147E+03 0.  0.
   -5000001    2    3    3    0    0  0.22450943744E+02  0.55875255400E+02  0.51632637742E+02  0.12398865740E+03  0.95295166945E+02 0.  0.
     200001    1    1    2    0    0 -0.78059026505E+01  0.35505881113E+03 -0.40280623324E+03  0.81495371219E+03  0.61300000000E+03 0. -1.
         13    1    4    4    0    0 -0.29951277176E+02 -0.28680795866E+00  0.17892455148E+02  0.34890003991E+02  0.10566000000E+00 0.  1.
    -200003    1    4    4    0    0  0.52402220920E+02  0.56162063359E+02  0.33740182594E+02  0.89098653410E+02  0.30000000000E+02 0.  1.
    -200000    1    3    3    0    0 -0.14645041094E+02 -0.41093406653E+03 -0.80575302767E+03  0.91023086404E+03  0.10100000000E+03 0.  1.
<mgrwt>
<rscale>  0 0.14425541E+04</rscale>
<asrwt>0</asrwt>
<pdfrwt beam="1">  1        2 0.21472142E+00 0.14425541E+04</pdfrwt>
<pdfrwt beam="2">  1       -2 0.49446187E-01 0.14425541E+04</pdfrwt>
<totfact> 0.54759342E+01</totfact>
</mgrwt>
</event>
<event>
 8    2  0.4306980E-052  0.1462753E+04  0.7818608E-02  0.8909607E-01
         -2   -1    0    0    0  501 -0.00000000000E+00  0.00000000000E+00  0.18520778296E+03  0.18520778298E+03  0.25500000000E-02 0. -1.
          2   -1    0    0  501    0  0.00000000000E+00 -0.00000000000E+00 -0.28881697463E+04  0.28881697463E+04  0.25500000000E-02 0.  1.
    -200001    2    1    2    0    0 -0.16709183309E+03 -0.81512425858E+02 -0.20912661329E+04  0.21876548045E+04  0.61471582765E+03 0.  0.
   -5000001    2    3    3    0    0 -0.10709054995E+03  0.24914214633E+03 -0.82798997153E+03  0.87654830235E+03  0.96069445854E+02 0.  0.
     200001    1    1    2    0    0  0.16709183309E+03  0.81512425858E+02 -0.61169583050E+03  0.88572272484E+03  0.61300000000E+03 0. -1.
         13    1    4    4    0    0 -0.85940946598E+02  0.23030947586E+03 -0.68750654525E+03  0.73013256460E+03  0.10566000000E+00 0.  1.
    -200003    1    4    4    0    0 -0.21149603349E+02  0.18832670474E+02 -0.14048342629E+03  0.14641573775E+03  0.30000000000E+02 0.  1.
    -200000    1    3    3    0    0 -0.60001283140E+02 -0.33065457219E+03 -0.12632761614E+04  0.13111065021E+04  0.10100000000E+03 0.  1.
<mgrwt>
<rscale>  0 0.14627529E+04</rscale>
<asrwt>0</asrwt>
<pdfrwt beam="1">  1        2 0.41259565E+00 0.14627529E+04</pdfrwt>
<pdfrwt beam="2">  1       -2 0.26458256E-01 0.14627529E+04</pdfrwt>
<totfact> 0.34317455E+01</totfact>
</mgrwt>
</event>
<event>
 8    2  0.4306980E-052  0.1573844E+04  0.7818608E-02  0.8836780E-01
         -2   -1    0    0    0  501 -0.00000000000E+00  0.00000000000E+00  0.75329876548E+03  0.75329876548E+03  0.25500000000E-02 0. -1.
          2   -1    0    0  501    0  0.00000000000E+00 -0.00000000000E+00 -0.82204618329E+03  0.82204618329E+03  0.25500000000E-02 0.  1.
    -200001    2    1    2    0    0 -0.10252682589E+02  0.18117428177E+03  0.42512688559E+03  0.76750210179E+03  0.61269680065E+03 0.  0.
   -5000001    2    3    3    0    0 -0.14195042109E+03  0.35647054103E+03  0.26358527046E+03  0.47703735994E+03  0.10424144714E+03 0.  0.
     200001    1    1    2    0    0  0.10252682589E+02 -0.18117428177E+03 -0.49387430340E+03  0.80784284699E+03  0.61300000000E+03 0.  1.
         13    1    4    4    0    0 -0.98200653535E+02  0.28827767938E+03  0.16654119746E+03  0.34710714542E+03  0.10566000000E+00 0.  1.
    -200003    1    4    4    0    0 -0.43749767557E+02  0.68192861654E+02  0.97044072996E+02  0.12993021452E+03  0.30000000000E+02 0.  1.
    -200000    1    3    3    0    0  0.13169773850E+03 -0.17529625926E+03  0.16154161513E+03  0.29046474185E+03  0.10100000000E+03 0. -1.
<mgrwt>
<rscale>  0 0.15738442E+04</rscale>
<asrwt>0</asrwt>
<pdfrwt beam="1">  1        2 0.11743517E+00 0.15738442E+04</pdfrwt>
<pdfrwt beam="2">  1       -2 0.10761411E+00 0.15738442E+04</pdfrwt>
<totfact> 0.24482022E+01</totfact>
</mgrwt>
</event>
<event>
 8    2  0.4306980E-052  0.2555289E+04  0.7818608E-02  0.8383549E-01
         -2   -1    0    0    0  501 -0.00000000000E+00  0.00000000000E+00  0.60227611723E+03  0.60227611724E+03  0.25500000000E-02 0. -1.
          2   -1    0    0  501    0  0.00000000000E+00 -0.00000000000E+00 -0.27103435598E+04  0.27103435598E+04  0.25500000000E-02 0.  1.
    -200001    2    1    2    0    0  0.12916132290E+03  0.53403174663E+03  0.21177520182E+03  0.85105280846E+03  0.61446691769E+03 0.  0.
   -5000001    2    3    3    0    0 -0.62132922523E+02 -0.25055780681E+02  0.22756157712E+03  0.25136742330E+03  0.83144560318E+02 0.  0.
     200001    1    1    2    0    0 -0.12916132290E+03 -0.53403174663E+03 -0.23198426444E+04  0.24615668686E+04  0.61300000000E+03 0.  1.
         13    1    4    4    0    0 -0.77868617921E+01  0.23135247166E+02  0.29534500481E+02  0.38316742563E+02  0.10566000000E+00 0.  1.
    -200003    1    4    4    0    0 -0.54346060731E+02 -0.48191027847E+02  0.19802707664E+03  0.21305068074E+03  0.30000000000E+02 0.  1.
    -200000    1    3    3    0    0  0.19129424542E+03  0.55908752731E+03 -0.15786375297E+02  0.59968538516E+03  0.10100000000E+03 0. -1.
<mgrwt>
<rscale>  0 0.25552888E+04</rscale>
<asrwt>0</asrwt>
<pdfrwt beam="1">  1        2 0.38719193E+00 0.25552888E+04</pdfrwt>
<pdfrwt beam="2">  1       -2 0.86039447E-01 0.25552888E+04</pdfrwt>
<totfact> 0.35609046E+00</totfact>
</mgrwt>
</event>
<event>
 8    2  0.4306980E-052  0.1637683E+04  0.7818608E-02  0.8797727E-01
          2   -1    0    0  501    0  0.00000000000E+00  0.00000000000E+00  0.12415628216E+04  0.12415628216E+04  0.25500000000E-02 0.  1.
         -2   -1    0    0    0  501 -0.00000000000E+00 -0.00000000000E+00 -0.54004633348E+03  0.54004633349E+03  0.25500000000E-02 0. -1.
    -200001    2    1    2    0    0  0.23503939740E+02 -0.79566263883E+02 -0.24360211850E+03  0.65205109722E+03  0.59912053521E+03 0.  0.
   -5000001    2    3    3    0    0  0.14456916863E+03 -0.77551780433E+02  0.82890126671E+02  0.28947829909E+03  0.22363449952E+03 0.  0.
     200001    1    1    2    0    0 -0.23503939740E+02  0.79566263883E+02  0.94511860657E+03  0.11295580578E+04  0.61300000000E+03 0.  1.
         13    1    4    4    0    0 -0.18772164251E+02 -0.20720799660E+01 -0.56708732074E+02  0.59771055901E+02  0.10566000000E+00 0.  1.
    -200003    1    4    4    0    0  0.16334133288E+03 -0.75479700467E+02  0.13959885875E+03  0.22970724318E+03  0.30000000000E+02 0.  1.
    -200000    1    3    3    0    0 -0.12106522889E+03 -0.20144834501E+01 -0.32649224517E+03  0.36257279813E+03  0.10100000000E+03 0. -1.
<mgrwt>
<rscale>  0 0.16376831E+04</rscale>
<asrwt>0</asrwt>
<pdfrwt beam="1">  1        2 0.17736611E+00 0.16376831E+04</pdfrwt>
<pdfrwt beam="2">  1       -2 0.77149478E-01 0.16376831E+04</pdfrwt>
<totfact> 0.29091899E+01</totfact>
</mgrwt>
</event>
<event>
 8    2  0.4306980E-052  0.1436621E+04  0.7818608E-02  0.8927729E-01
          2   -1    0    0  501    0  0.00000000000E+00  0.00000000000E+00  0.23868551283E+04  0.23868551283E+04  0.25500000000E-02 0.  1.
         -2   -1    0    0    0  501 -0.00000000000E+00 -0.00000000000E+00 -0.21617155712E+03  0.21617155714E+03  0.25500000000E-02 0. -1.
    -200001    2    1    2    0    0  0.17959713952E+03 -0.26810616815E+03  0.14288344218E+04  0.15880167297E+04  0.61326444443E+03 0.  0.
   -5000001    2    3    3    0    0  0.22997952886E+03 -0.38386192685E+03  0.72437224071E+03  0.86524031511E+03  0.15389963352E+03 0.  0.
     200001    1    1    2    0    0 -0.17959713952E+03  0.26810616815E+03  0.74184914938E+03  0.10150099558E+04  0.61300000000E+03 0. -1.
         13    1    4    4    0    0  0.14236562602E+03 -0.18695740091E+03  0.24868715492E+03  0.34214960677E+03  0.10566000000E+00 0.  1.
    -200003    1    4    4    0    0  0.87613902846E+02 -0.19690452594E+03  0.47568508579E+03  0.52309070834E+03  0.30000000000E+02 0.  1.
    -200000    1    3    3    0    0 -0.50382389340E+02  0.11575575870E+03  0.70446218114E+03  0.72277641458E+03  0.10100000000E+03 0.  1.
<mgrwt>
<rscale>  0 0.14366213E+04</rscale>
<asrwt>0</asrwt>
<pdfrwt beam="1">  1        2 0.34097928E+00 0.14366213E+04</pdfrwt>
<pdfrwt beam="2">  1       -2 0.30881653E-01 0.14366213E+04</pdfrwt>
<totfact> 0.47786068E+01</totfact>
</mgrwt>
</event>
<event>
 8    2  0.4306980E-052  0.1420995E+04  0.7818608E-02  0.8938760E-01
         -2   -1    0    0    0  501 -0.00000000000E+00  0.00000000000E+00  0.36654986316E+03  0.36654986317E+03  0.25500000000E-02 0. -1.
          2   -1    0    0  501    0  0.00000000000E+00 -0.00000000000E+00 -0.13771845514E+04  0.13771845514E+04  0.25500000000E-02 0.  1.
    -200001    2    1    2    0    0  0.35843225435E+03 -0.12145798779E+02 -0.48753372629E+03  0.86167726351E+03  0.61333300155E+03 0.  0.
   -5000001    2    3    3    0    0  0.24561888204E+03 -0.26601455450E+03 -0.14448082403E+03  0.40883899674E+03  0.12321622587E+03 0.  0.
     200001    1    1    2    0    0 -0.35843225435E+03  0.12145798779E+02 -0.52310096199E+03  0.88205715111E+03  0.61300000000E+03 0.  1.
         13    1    4    4    0    0  0.75060959756E+02 -0.61524287195E+02 -0.96019527753E+02  0.13652525945E+03  0.10566000000E+00 0.  1.
    -200003    1    4    4    0    0  0.17055792228E+03 -0.20449026731E+03 -0.48461296280E+02  0.27231373729E+03  0.30000000000E+02 0.  1.
    -200000    1    3    3    0    0  0.11281337231E+03  0.25386875572E+03 -0.34305290226E+03  0.45283826677E+03  0.10100000000E+03 0. -1.
<mgrwt>
<rscale>  0 0.14209952E+04</rscale>
<asrwt>0</asrwt>
<pdfrwt beam="1">  1        2 0.19674065E+00 0.14209952E+04</pdfrwt>
<pdfrwt beam="2">  1       -2 0.52364267E-01 0.14209952E+04</pdfrwt>
<totfact> 0.57003409E+01</totfact>
</mgrwt>
</event>
<event>
 8    2  0.4306980E-052  0.1510796E+04  0.7818608E-02  0.8877305E-01
          2   -1    0    0  501    0  0.00000000000E+00  0.00000000000E+00  0.68861539816E+03  0.68861539817E+03  0.25500000000E-02 0.  1.
         -2   -1    0    0    0  501 -0.00000000000E+00 -0.00000000000E+00 -0.82865764273E+03  0.82865764273E+03  0.25500000000E-02 0. -1.
    -200001    2    1    2    0    0 -0.23095944165E+03  0.11251850157E+03 -0.43026969891E+03  0.79201194850E+03  0.61330924980E+03 0.  0.
   -5000001    2    3    3    0    0 -0.51186538756E+02 -0.12329009087E+03  0.39265099352E+02  0.22757602153E+03  0.18007939719E+03 0.  0.
     200001    1    1    2    0    0  0.23095944165E+03 -0.11251850157E+03  0.29022745434E+03  0.72526109239E+03  0.61300000000E+03 0.  1.
         13    1    4    4    0    0  0.58836762678E+02 -0.34118610942E+02  0.46890701044E+02  0.82611096491E+02  0.10566000000E+00 0.  1.
    -200003    1    4    4    0    0 -0.11002330143E+03 -0.89171479925E+02 -0.76256016921E+01  0.14496492504E+03  0.30000000000E+02 0.  1.
    -200000    1    3    3    0    0 -0.17977290289E+03  0.23580859244E+03 -0.46953479826E+03  0.56443592697E+03  0.10100000000E+03 0. -1.
<mgrwt>
<rscale>  0 0.15107964E+04</rscale>
<asrwt>0</asrwt>
<pdfrwt beam="1">  1        2 0.98373629E-01 0.15107964E+04</pdfrwt>
<pdfrwt beam="2">  1       -2 0.11837966E+00 0.15107964E+04</pdfrwt>
<totfact> 0.24402088E+01</totfact>
</mgrwt>
</event>
<event>
 8    2  0.4306980E-052  0.1800994E+04  0.7818608E-02  0.8705771E-01
         -2   -1    0    0    0  501 -0.00000000000E+00  0.00000000000E+00  0.13441539972E+04  0.13441539972E+04  0.25500000000E-02 0. -1.
          2   -1    0    0  501    0  0.00000000000E+00 -0.00000000000E+00 -0.60327508510E+03  0.60327508510E+03  0.25500000000E-02 0.  1.
    -200001    2    1    2    0    0  0.88247416897E+02  0.65145209979E+03  0.42535286604E+03  0.99479949500E+03  0.61361513157E+03 0.  0.
   -5000001    2    3    3    0    0  0.12148401877E+03  0.72733786475E+03  0.42292311536E+03  0.86414642494E+03  0.15526218442E+03 0.  0.
     200001    1    1    2    0    0 -0.88247416897E+02 -0.65145209979E+03  0.31552604610E+03  0.95262958735E+03  0.61300000000E+03 0.  1.
         13    1    4    4    0    0  0.12017612940E+03  0.59286978029E+03  0.39804398405E+03  0.72413804130E+03  0.10566000000E+00 0.  1.
    -200003    1    4    4    0    0  0.13078893676E+01  0.13446808446E+03  0.24879131306E+02  0.14000838364E+03  0.30000000000E+02 0.  1.
    -200000    1    3    3    0    0 -0.33236601870E+02 -0.75885764960E+02  0.24297506786E+01  0.13065307006E+03  0.10100000000E+03 0.  1.
<mgrwt>
<rscale>  0 0.18009937E+04</rscale>
<asrwt>0</asrwt>
<pdfrwt beam="1">  1        2 0.86182155E-01 0.18009937E+04</pdfrwt>
<pdfrwt beam="2">  1       -2 0.19202200E+00 0.18009937E+04</pdfrwt>
<totfact> 0.76623374E+00</totfact>
</mgrwt>
</event>
<event>
 8    2  0.4306980E-052  0.1254202E+04  0.7818608E-02  0.9066694E-01
          2   -1    0    0  501    0  0.00000000000E+00  0.00000000000E+00  0.25661147246E+03  0.25661147248E+03  0.25500000000E-02 0.  1.
         -2   -1    0    0    0  501 -0.00000000000E+00 -0.00000000000E+00 -0.15324934804E+04  0.15324934804E+04  0.25500000000E-02 0. -1.
    -200001    2    1    2    0    0 -0.49521094389E+02 -0.10961501211E+03 -0.70867073146E+03  0.94532451826E+03  0.61396779193E+03 0.  0.
   -5000001    2    3    3    0    0  0.15871082436E+03  0.16228426865E+03 -0.21085756720E+03  0.33270008406E+03  0.12125643351E+03 0.  0.
     200001    1    1    2    0    0  0.49521094389E+02  0.10961501211E+03 -0.56721127645E+03  0.84378043459E+03  0.61300000000E+03 0.  1.
         13    1    4    4    0    0  0.11609176774E+02  0.11097805586E+02  0.15161381387E+02  0.22086487358E+02  0.10566000000E+00 0.  1.
    -200003    1    4    4    0    0  0.14710164759E+03  0.15118646306E+03 -0.22601894859E+03  0.31061359671E+03  0.30000000000E+02 0.  1.
    -200000    1    3    3    0    0 -0.20823191875E+03 -0.27189928076E+03 -0.49781316426E+03  0.61262443420E+03  0.10100000000E+03 0. -1.
<mgrwt>
<rscale>  0 0.12542016E+04</rscale>
<asrwt>0</asrwt>
<pdfrwt beam="1">  1        2 0.36658783E-01 0.12542016E+04</pdfrwt>
<pdfrwt beam="2">  1       -2 0.21892763E+00 0.12542016E+04</pdfrwt>
<totfact> 0.14040343E+01</totfact>
</mgrwt>
</event>
<event>
 8    2  0.4306980E-052  0.1558747E+04  0.7818608E-02  0.8846300E-01
          2   -1    0    0  501    0  0.00000000000E+00  0.00000000000E+00  0.76091812816E+03  0.76091812817E+03  0.25500000000E-02 0.  1.
         -2   -1    0    0    0  501 -0.00000000000E+00 -0.00000000000E+00 -0.79827627029E+03  0.79827627029E+03  0.25500000000E-02 0. -1.
    -200001    2    1    2    0    0 -0.24810916119E+03  0.36420507767E+03 -0.21388050459E+03  0.78386695865E+03  0.61196327026E+03 0.  0.
   -5000001    2    3    3    0    0 -0.41101194938E+03  0.12037299831E+03 -0.18791426615E+03  0.47263288778E+03  0.68187931029E+02 0.  0.
     200001    1    1    2    0    0  0.24810916119E+03 -0.36420507767E+03  0.17652236247E+03  0.77532743981E+03  0.61300000000E+03 0.  1.
         13    1    4    4    0    0 -0.72524630806E+02  0.35987274823E+02 -0.56138533866E+02  0.98521328510E+02  0.10566000000E+00 0.  1.
    -200003    1    4    4    0    0 -0.33848731857E+03  0.84385723484E+02 -0.13177573228E+03  0.37411155927E+03  0.30000000000E+02 0.  1.
    -200000    1    3    3    0    0  0.16290278819E+03  0.24383207937E+03 -0.25966238448E+02  0.31123407087E+03  0.10100000000E+03 0.  1.
<mgrwt>
<rscale>  0 0.15587468E+04</rscale>
<asrwt>0</asrwt>
<pdfrwt beam="1">  1        2 0.10870259E+00 0.15587468E+04</pdfrwt>
<pdfrwt beam="2">  1       -2 0.11403947E+00 0.15587468E+04</pdfrwt>
<totfact> 0.23519502E+01</totfact>
</mgrwt>
</event>
<event>
 8    2  0.4306980E-052  0.2819205E+04  0.7818608E-02  0.8297331E-01
          2   -1    0    0  501    0  0.00000000000E+00  0.00000000000E+00  0.13286609022E+04  0.13286609022E+04  0.25500000000E-02 0.  1.
         -2   -1    0    0    0  501 -0.00000000000E+00 -0.00000000000E+00 -0.14954750160E+04  0.14954750160E+04  0.25500000000E-02 0. -1.
    -200001    2    1    2    0    0  0.70755909090E+03 -0.98052001769E+03  0.30165228187E+03  0.13898105939E+04  0.61523980323E+03 0.  0.
   -5000001    2    3    3    0    0  0.76071739237E+03 -0.95911125065E+03  0.32790555135E+03  0.12707544118E+04  0.93324072158E+02 0.  0.
     200001    1    1    2    0    0 -0.70755909090E+03  0.98052001769E+03 -0.46846639564E+03  0.14343253243E+04  0.61300000000E+03 0. -1.
         13    1    4    4    0    0  0.20413674158E+02 -0.49140194088E+02  0.25243304987E+02  0.58895775556E+02  0.10566000000E+00 0.  1.
    -200003    1    4    4    0    0  0.74030371821E+03 -0.90997105656E+03  0.30266224637E+03  0.12118586363E+04  0.30000000000E+02 0.  1.
    -200000    1    3    3    0    0 -0.53158301469E+02 -0.21408767043E+02 -0.26253269479E+02  0.11905618203E+03  0.10100000000E+03 0. -1.
<mgrwt>
<rscale>  0 0.28192050E+04</rscale>
<asrwt>0</asrwt>
<pdfrwt beam="1">  1        2 0.18980870E+00 0.28192050E+04</pdfrwt>
<pdfrwt beam="2">  1       -2 0.21363929E+00 0.28192050E+04</pdfrwt>
<totfact> 0.17179325E+00</totfact>
</mgrwt>
</event>
<event>
 8    2  0.4306980E-052  0.2508179E+04  0.7818608E-02  0.8400077E-01
          2   -1    0    0  501    0  0.00000000000E+00  0.00000000000E+00  0.20025222882E+04  0.20025222882E+04  0.25500000000E-02 0.  1.
         -2   -1    0    0    0  501 -0.00000000000E+00 -0.00000000000E+00 -0.78537986272E+03  0.78537986273E+03  0.25500000000E-02 0. -1.
    -200001    2    1    2    0    0  0.93717443012E+03  0.39246910595E+03  0.10595834911E+04  0.15908550635E+04  0.61300468749E+03 0.  0.
   -5000001    2    3    3    0    0  0.46001841801E+03  0.41867255503E+03  0.84337743343E+03  0.10567103827E+04  0.13582225340E+03 0.  0.
     200001    1    1    2    0    0 -0.93717443012E+03 -0.39246910595E+03  0.15755893431E+03  0.11970470874E+04  0.61300000000E+03 0. -1.
         13    1    4    4    0    0  0.20843169725E+03  0.10977428340E+03  0.34934993168E+03  0.42135442521E+03  0.10566000000E+00 0.  1.
    -200003    1    4    4    0    0  0.25158672076E+03  0.30889827163E+03  0.49402750175E+03  0.63535595752E+03  0.30000000000E+02 0.  1.
    -200000    1    3    3    0    0  0.47715601211E+03 -0.26203449079E+02  0.21620605770E+03  0.53414468080E+03  0.10100000000E+03 0. -1.
<mgrwt>
<rscale>  0 0.25081792E+04</rscale>
<asrwt>0</asrwt>
<pdfrwt beam="1">  1        2 0.28607461E+00 0.25081792E+04</pdfrwt>
<pdfrwt beam="2">  1       -2 0.11219712E+00 0.25081792E+04</pdfrwt>
<totfact> 0.44916688E+00</totfact>
</mgrwt>
</event>
<event>
 8    2  0.4306980E-052  0.1338834E+04  0.7818608E-02  0.8999324E-01
         -2   -1    0    0    0  501 -0.00000000000E+00  0.00000000000E+00  0.47807492352E+03  0.47807492352E+03  0.25500000000E-02 0. -1.
          2   -1    0    0  501    0  0.00000000000E+00 -0.00000000000E+00 -0.93734049983E+03  0.93734049984E+03  0.25500000000E-02 0.  1.
    -200001    2    1    2    0    0  0.68584722889E+02  0.80199471870E+02  0.30601503863E+02  0.62366131018E+03  0.61390647355E+03 0.  0.
   -5000001    2    3    3    0    0  0.18112315299E+03  0.23567741955E+03  0.18222141958E+03  0.35903347848E+03  0.85737682950E+02 0.  0.
     200001    1    1    2    0    0 -0.68584722889E+02 -0.80199471870E+02 -0.48986708018E+03  0.79175411318E+03  0.61300000000E+03 0.  1.
         13    1    4    4    0    0  0.14203609218E+03  0.19280626674E+03  0.16704625514E+03  0.29198111325E+03  0.10566000000E+00 0.  1.
    -200003    1    4    4    0    0  0.39087060819E+02  0.42871152812E+02  0.15175164440E+02  0.67052365228E+02  0.30000000000E+02 0. -1.
    -200000    1    3    3    0    0 -0.11253843011E+03 -0.15547794768E+03 -0.15161991572E+03  0.26462783170E+03  0.10100000000E+03 0.  1.
<mgrwt>
<rscale>  0 0.13388338E+04</rscale>
<asrwt>0</asrwt>
<pdfrwt beam="1">  1        2 0.13390579E+00 0.13388338E+04</pdfrwt>
<pdfrwt beam="2">  1       -2 0.68296418E-01 0.13388338E+04</pdfrwt>
<totfact> 0.59056172E+01</totfact>
</mgrwt>
</event>
<event>
 8    2  0.4306980E-052  0.1340899E+04  0.7818608E-02  0.8997746E-01
          2   -1    0    0  501    0  0.00000000000E+00  0.00000000000E+00  0.51709661449E+03  0.51709661449E+03  0.25500000000E-02 0.  1.
         -2   -1    0    0    0  501 -0.00000000000E+00 -0.00000000000E+00 -0.86928178358E+03  0.86928178358E+03  0.25500000000E-02 0. -1.
    -200001    2    1    2    0    0  0.19974872685E+03  0.15073432009E+03 -0.26000763854E+03  0.71788300821E+03  0.62058976163E+03 0.  0.
   -5000001    2    3    3    0    0  0.18468321006E+03  0.29353145154E+03  0.50117550290E+02  0.36151715225E+03  0.88962247086E+02 0.  0.
     200001    1    1    2    0    0 -0.19974872685E+03 -0.15073432009E+03 -0.92177530554E+02  0.66849538987E+03  0.61300000000E+03 0.  1.
         13    1    4    4    0    0  0.76991559118E+01  0.64687815693E+02 -0.55827643313E+01  0.65383246497E+02  0.10566000000E+00 0.  1.
    -200003    1    4    4    0    0  0.17698405415E+03  0.22884363584E+03  0.55700314622E+02  0.29613390576E+03  0.30000000000E+02 0.  1.
    -200000    1    3    3    0    0  0.15065516787E+02 -0.14279713144E+03 -0.31012518883E+03  0.35636585595E+03  0.10100000000E+03 0. -1.
<mgrwt>
<rscale>  0 0.13408992E+04</rscale>
<asrwt>0</asrwt>
<pdfrwt beam="1">  1        2 0.73870945E-01 0.13408992E+04</pdfrwt>
<pdfrwt beam="2">  1       -2 0.12418311E+00 0.13408992E+04</pdfrwt>
<totfact> 0.30808386E+01</totfact>
</mgrwt>
</event>
<event>
 8    2  0.4306980E-052  0.1313489E+04  0.7818608E-02  0.9018936E-01
          2   -1    0    0  501    0  0.00000000000E+00  0.00000000000E+00  0.22431773525E+04  0.22431773525E+04  0.25500000000E-02 0.  1.
         -2   -1    0    0    0  501 -0.00000000000E+00 -0.00000000000E+00 -0.19227781305E+03  0.19227781307E+03  0.25500000000E-02 0. -1.
    -200001    2    1    2    0    0 -0.76073375928E+02  0.19813962787E+03  0.12115725763E+04  0.13746605475E+04  0.61378908637E+03 0.  0.
   -5000001    2    3    3    0    0  0.63592255448E+02  0.48112888961E+02  0.11220566558E+04  0.11292453666E+04  0.99121815346E+02 0.  0.
     200001    1    1    2    0    0  0.76073375928E+02 -0.19813962787E+03  0.83932696313E+03  0.10607946181E+04  0.61300000000E+03 0. -1.
         13    1    4    4    0    0 -0.11436860102E+02  0.33616018087E+02  0.57146322516E+03  0.57256533890E+03  0.10566000000E+00 0.  1.
    -200003    1    4    4    0    0  0.75029115550E+02  0.14496870874E+02  0.55059343060E+03  0.55668002772E+03  0.30000000000E+02 0.  1.
    -200000    1    3    3    0    0 -0.13966563138E+03  0.15002673891E+03  0.89515920549E+02  0.24541518088E+03  0.10100000000E+03 0. -1.
<mgrwt>
<rscale>  0 0.13134888E+04</rscale>
<asrwt>0</asrwt>
<pdfrwt beam="1">  1        2 0.32045389E+00 0.13134888E+04</pdfrwt>
<pdfrwt beam="2">  1       -2 0.27468260E-01 0.13134888E+04</pdfrwt>
<totfact> 0.71169160E+01</totfact>
</mgrwt>
</event>
<event>
 8    2  0.4306980E-052  0.2243659E+04  0.7818608E-02  0.8500473E-01
          2   -1    0    0  501    0  0.00000000000E+00  0.00000000000E+00  0.85525512692E+03  0.85525512692E+03  0.25500000000E-02 0. -1.
         -2   -1    0    0    0  501 -0.00000000000E+00 -0.00000000000E+00 -0.14714927619E+04  0.14714927619E+04  0.25500000000E-02 0.  1.
    -200001    2    1    2    0    0 -0.19376504091E+03 -0.16025937379E+03  0.63059706315E+03  0.91480110426E+03  0.61317244421E+03 0.  0.
   -5000001    2    3    3    0    0  0.26202022969E+02 -0.23364574675E+02 -0.79555326085E+02  0.15214580129E+03  0.12484728905E+03 0.  0.
     200001    1    1    2    0    0  0.19376504091E+03  0.16025937379E+03 -0.12468346981E+04  0.14119467845E+04  0.61300000000E+03 0.  1.
         13    1    4    4    0    0  0.71161363593E+02 -0.24259964335E+02 -0.39992808296E+02  0.85158214034E+02  0.10566000000E+00 0.  1.
    -200003    1    4    4    0    0 -0.44959340624E+02  0.89538965994E+00 -0.39562517789E+02  0.66987587252E+02  0.30000000000E+02 0.  1.
    -200000    1    3    3    0    0 -0.21996706388E+03 -0.13689479911E+03  0.71015238923E+03  0.76265530297E+03  0.10100000000E+03 0. -1.
<mgrwt>
<rscale>  0 0.22436593E+04</rscale>
<asrwt>0</asrwt>
<pdfrwt beam="1">  1        2 0.12217931E+00 0.22436593E+04</pdfrwt>
<pdfrwt beam="2">  1       -2 0.21021325E+00 0.22436593E+04</pdfrwt>
<totfact> 0.36351282E+00</totfact>
</mgrwt>
</event>
<event>
 8    2  0.4306980E-052  0.1667614E+04  0.7818608E-02  0.8780054E-01
          2   -1    0    0  501    0  0.00000000000E+00  0.00000000000E+00  0.27350538536E+04  0.27350538536E+04  0.25500000000E-02 0.  1.
         -2   -1    0    0    0  501 -0.00000000000E+00 -0.00000000000E+00 -0.25419387306E+03  0.25419387307E+03  0.25500000000E-02 0. -1.
    -200001    2    1    2    0    0  0.55262302387E+03 -0.10287817327E+03  0.13498103100E+04  0.15853180695E+04  0.61259234692E+03 0.  0.
   -5000001    2    3    3    0    0  0.31191442715E+02 -0.79422812649E+02  0.59128605910E+02  0.18943078573E+03  0.15845170014E+03 0.  0.
     200001    1    1    2    0    0 -0.55262302387E+03  0.10287817327E+03  0.11310496706E+04  0.14039296572E+04  0.61300000000E+03 0. -1.
         13    1    4    4    0    0 -0.27283836062E+02 -0.97999005891E+02  0.65259451943E+02  0.12085950562E+03  0.10566000000E+00 0.  1.
    -200003    1    4    4    0    0  0.58475278777E+02  0.18576193242E+02 -0.61308460333E+01  0.68571280114E+02  0.30000000000E+02 0.  1.
    -200000    1    3    3    0    0  0.52143158115E+03 -0.23455360622E+02  0.12906817041E+04  0.13958872838E+04  0.10100000000E+03 0. -1.
<mgrwt>
<rscale>  0 0.16676138E+04</rscale>
<asrwt>0</asrwt>
<pdfrwt beam="1">  1        2 0.39072197E+00 0.16676138E+04</pdfrwt>
<pdfrwt beam="2">  1       -2 0.36313412E-01 0.16676138E+04</pdfrwt>
<totfact> 0.22561508E+01</totfact>
</mgrwt>
</event>
<event>
 8    2  0.4306980E-052  0.1514145E+04  0.7818608E-02  0.8875101E-01
         -2   -1    0    0    0  501 -0.00000000000E+00  0.00000000000E+00  0.16496408022E+03  0.16496408024E+03  0.25500000000E-02 0. -1.
          2   -1    0    0  501    0  0.00000000000E+00 -0.00000000000E+00 -0.34744451285E+04  0.34744451285E+04  0.25500000000E-02 0.  1.
    -200001    2    1    2    0    0 -0.41130048009E+03  0.15953566810E+03 -0.15426393737E+04  0.17179206667E+04  0.61391812590E+03 0.  0.
   -5000001    2    3    3    0    0 -0.28375430216E+03  0.23635219005E+03 -0.36770580219E+03  0.52929174936E+03  0.92538301498E+02 0.  0.
     200001    1    1    2    0    0  0.41130048009E+03 -0.15953566810E+03 -0.17668416745E+04  0.19214885420E+04  0.61300000000E+03 0.  1.
         13    1    4    4    0    0 -0.91252008735E+02  0.11993983316E+03 -0.11457036835E+03  0.18931157689E+03  0.10566000000E+00 0.  1.
    -200003    1    4    4    0    0 -0.19250229342E+03  0.11641235689E+03 -0.25313543384E+03  0.33998017247E+03  0.30000000000E+02 0.  1.
    -200000    1    3    3    0    0 -0.12754617793E+03 -0.76816521954E+02 -0.11749335715E+04  0.11886289173E+04  0.10100000000E+03 0.  1.
<mgrwt>
<rscale>  0 0.15141448E+04</rscale>
<asrwt>0</asrwt>
<pdfrwt beam="1">  1        2 0.49634926E+00 0.15141448E+04</pdfrwt>
<pdfrwt beam="2">  1       -2 0.23566299E-01 0.15141448E+04</pdfrwt>
<totfact> 0.19417564E+01</totfact>
</mgrwt>
</event>
<event>
 8    2  0.4306980E-052  0.1653966E+04  0.7818608E-02  0.8788063E-01
          2   -1    0    0  501    0  0.00000000000E+00  0.00000000000E+00  0.47388972219E+03  0.47388972220E+03  0.25500000000E-02 0.  1.
         -2   -1    0    0    0  501 -0.00000000000E+00 -0.00000000000E+00 -0.14431652232E+04  0.14431652232E+04  0.25500000000E-02 0. -1.
    -200001    2    1    2    0    0 -0.30435700072E+03  0.10094016300E+02 -0.10221919751E+04  0.12305389395E+04  0.61368931435E+03 0.  0.
   -5000001    2    3    3    0    0 -0.69733009686E+02  0.29081924934E+03 -0.45058969814E+03  0.54440102574E+03  0.62472972808E+02 0.  0.
     200001    1    1    2    0    0  0.30435700072E+03 -0.10094016300E+02  0.52916474169E+02  0.68651600585E+03  0.61300000000E+03 0.  1.
         13    1    4    4    0    0 -0.17024642433E+02  0.80186321684E+02 -0.16646409695E+03  0.18555320362E+03  0.10566000000E+00 0.  1.
    -200003    1    4    4    0    0 -0.52708367253E+02  0.21063292766E+03 -0.28412560119E+03  0.35884782212E+03  0.30000000000E+02 0. -1.
    -200000    1    3    3    0    0 -0.23462399103E+03 -0.28072523304E+03 -0.57160227699E+03  0.68613791376E+03  0.10100000000E+03 0. -1.
<mgrwt>
<rscale>  0 0.16539663E+04</rscale>
<asrwt>0</asrwt>
<pdfrwt beam="1">  1        2 0.67698533E-01 0.16539663E+04</pdfrwt>
<pdfrwt beam="2">  1       -2 0.20616646E+00 0.16539663E+04</pdfrwt>
<totfact> 0.82782746E+00</totfact>
</mgrwt>
</event>
<event>
 8    2  0.4306980E-052  0.1481138E+04  0.7818608E-02  0.8897094E-01
         -2   -1    0    0    0  501 -0.00000000000E+00  0.00000000000E+00  0.24184096269E+03  0.24184096270E+03  0.25500000000E-02 0. -1.
          2   -1    0    0  501    0  0.00000000000E+00 -0.00000000000E+00 -0.22677808527E+04  0.22677808527E+04  0.25500000000E-02 0.  1.
    -200001    2    1    2    0    0 -0.28554055952E+03 -0.29873930717E+03 -0.10900331880E+04  0.13169487925E+04  0.61270154744E+03 0.  0.
   -5000001    2    3    3    0    0 -0.42544333434E+03 -0.31138942038E+03 -0.96664769972E+03  0.11044451678E+04  0.86173960603E+02 0.  0.
     200001    1    1    2    0    0  0.28554055952E+03  0.29873930717E+03 -0.93590670199E+03  0.11926730229E+04  0.61300000000E+03 0. -1.
         13    1    4    4    0    0 -0.33846021605E+02 -0.56948610115E+02 -0.11757013115E+03  0.13494978427E+03  0.10566000000E+00 0.  1.
    -200003    1    4    4    0    0 -0.39159731274E+03 -0.25444081027E+03 -0.84907756857E+03  0.96949538355E+03  0.30000000000E+02 0.  1.
    -200000    1    3    3    0    0  0.13990277482E+03  0.12650113209E+02 -0.12338548829E+03  0.21250362464E+03  0.10100000000E+03 0. -1.
<mgrwt>
<rscale>  0 0.14811378E+04</rscale>
<asrwt>0</asrwt>
<pdfrwt beam="1">  1        2 0.32396868E+00 0.14811378E+04</pdfrwt>
<pdfrwt beam="2">  1       -2 0.34548710E-01 0.14811378E+04</pdfrwt>
<totfact> 0.44408798E+01</totfact>
</mgrwt>
</event>
<event>
 8    2  0.4306980E-052  0.1536082E+04  0.7818608E-02  0.8860807E-01
          2   -1    0    0  501    0  0.00000000000E+00  0.00000000000E+00  0.67046222992E+03  0.67046222993E+03  0.25500000000E-02 0.  1.
         -2   -1    0    0    0  501 -0.00000000000E+00 -0.00000000000E+00 -0.87982078073E+03  0.87982078074E+03  0.25500000000E-02 0. -1.
    -200001    2    1    2    0    0  0.23518827999E+01 -0.41954785287E+03 -0.30135213530E+03  0.80177933547E+03  0.61319740796E+03 0.  0.
   -5000001    2    3    3    0    0  0.21736734529E+03 -0.65883662485E+02 -0.28951712872E+03  0.37557389668E+03  0.75142293489E+02 0.  0.
     200001    1    1    2    0    0 -0.23518827999E+01  0.41954785287E+03  0.91993584492E+02  0.74850367520E+03  0.61300000000E+03 0.  1.
         13    1    4    4    0    0  0.18939545678E+02 -0.29824385847E+02 -0.41386402754E+02  0.54415493002E+02  0.10566000000E+00 0.  1.
    -200003    1    4    4    0    0  0.19842779961E+03 -0.36059276638E+02 -0.24813072596E+03  0.32115840368E+03  0.30000000000E+02 0.  1.
    -200000    1    3    3    0    0 -0.21501546249E+03 -0.35366419038E+03 -0.11835006588E+02  0.42620543878E+03  0.10100000000E+03 0.  1.
<mgrwt>
<rscale>  0 0.15360815E+04</rscale>
<asrwt>0</asrwt>
<pdfrwt beam="1">  1        2 0.95780319E-01 0.15360815E+04</pdfrwt>
<pdfrwt beam="2">  1       -2 0.12568868E+00 0.15360815E+04</pdfrwt>
<totfact> 0.21669491E+01</totfact>
</mgrwt>
</event>
<event>
 8    2  0.4306980E-052  0.1455268E+04  0.7818608E-02  0.8914757E-01
          2   -1    0    0  501    0  0.00000000000E+00  0.00000000000E+00  0.31284747151E+04  0.31284747151E+04  0.25500000000E-02 0.  1.
         -2   -1    0    0    0  501 -0.00000000000E+00 -0.00000000000E+00 -0.16923616008E+03  0.16923616010E+03  0.25500000000E-02 0. -1.
    -200001    2    1    2    0    0  0.18343808660E+03 -0.26154794642E+03  0.97550093229E+03  0.11969869962E+04  0.61572635180E+03 0.  0.
   -5000001    2    3    3    0    0  0.21031386273E+03  0.97015161095E+02  0.13872109047E+03  0.28064027520E+03  0.76626110355E+02 0.  0.
     200001    1    1    2    0    0 -0.18343808660E+03  0.26154794642E+03  0.19837376227E+04  0.21007238789E+04  0.61300000000E+03 0. -1.
         13    1    4    4    0    0  0.13519021548E+03  0.85318367527E+02  0.10981492486E+03  0.19394573232E+03  0.10566000000E+00 0.  1.
    -200003    1    4    4    0    0  0.75123647252E+02  0.11696793568E+02  0.28906165607E+02  0.86694542886E+02  0.30000000000E+02 0.  1.
    -200000    1    3    3    0    0 -0.26875776131E+02 -0.35856310752E+03  0.83677984183E+03  0.91634672101E+03  0.10100000000E+03 0.  1.
<mgrwt>
<rscale>  0 0.14552677E+04</rscale>
<asrwt>0</asrwt>
<pdfrwt beam="1">  1        2 0.44692494E+00 0.14552677E+04</pdfrwt>
<pdfrwt beam="2">  1       -2 0.24176595E-01 0.14552677E+04</pdfrwt>
<totfact> 0.29716489E+01</totfact>
</mgrwt>
</event>
<event>
 8    2  0.4306980E-052  0.2197068E+04  0.7818608E-02  0.8519650E-01
         -2   -1    0    0    0  501 -0.00000000000E+00  0.00000000000E+00  0.22639517683E+04  0.22639517683E+04  0.25500000000E-02 0. -1.
          2   -1    0    0  501    0  0.00000000000E+00 -0.00000000000E+00 -0.53303983450E+03  0.53303983451E+03  0.25500000000E-02 0.  1.
    -200001    2    1    2    0    0  0.31123647778E+03  0.29279180412E+03  0.18908089623E+04  0.20328376619E+04  0.61210721468E+03 0.  0.
   -5000001    2    3    3    0    0  0.92855138465E+02  0.57874178521E+01  0.14477689617E+04  0.14527106334E+04  0.75350162693E+02 0.  0.
     200001    1    1    2    0    0 -0.31123647778E+03 -0.29279180412E+03 -0.15989702848E+03  0.76415394089E+03  0.61300000000E+03 0.  1.
         13    1    4    4    0    0  0.56434013719E+02  0.31573277693E+02  0.89468957135E+03  0.89702347239E+03  0.10566000000E+00 0.  1.
    -200003    1    4    4    0    0  0.36421124745E+02 -0.25785859841E+02  0.55307939038E+03  0.55568716105E+03  0.30000000000E+02 0.  1.
    -200000    1    3    3    0    0  0.21838133931E+03  0.28700438627E+03  0.44304000056E+03  0.58012702850E+03  0.10100000000E+03 0.  1.
<mgrwt>
<rscale>  0 0.21970676E+04</rscale>
<asrwt>0</asrwt>
<pdfrwt beam="1">  1        2 0.76148549E-01 0.21970676E+04</pdfrwt>
<pdfrwt beam="2">  1       -2 0.32342168E+00 0.21970676E+04</pdfrwt>
<totfact> 0.13063571E+00</totfact>
</mgrwt>
</event>
<event>
 8    2  0.4306980E-052  0.1438727E+04  0.7818608E-02  0.8926253E-01
         -2   -1    0    0    0  501 -0.00000000000E+00  0.00000000000E+00  0.55007138321E+03  0.55007138322E+03  0.25500000000E-02 0. -1.
          2   -1    0    0  501    0  0.00000000000E+00 -0.00000000000E+00 -0.94075786587E+03  0.94075786587E+03  0.25500000000E-02 0.  1.
    -200001    2    1    2    0    0  0.36742614352E+03 -0.12497684934E+02 -0.11622261746E+03  0.72515466000E+03  0.61415260403E+03 0.  0.
   -5000001    2    3    3    0    0 -0.83731172213E+02 -0.34897365311E+02 -0.21501007044E+03  0.25186338595E+03  0.94747556605E+02 0.  0.
     200001    1    1    2    0    0 -0.36742614352E+03  0.12497684934E+02 -0.27446386520E+03  0.76567458909E+03  0.61300000000E+03 0.  1.
         13    1    4    4    0    0 -0.26678047891E+02 -0.49580806606E+02 -0.54887196771E+02  0.78629448405E+02  0.10566000000E+00 0.  1.
    -200003    1    4    4    0    0 -0.57053124323E+02  0.14683441295E+02 -0.16012287367E+03  0.17323393754E+03  0.30000000000E+02 0. -1.
    -200000    1    3    3    0    0  0.45115731574E+03  0.22399680377E+02  0.98787452989E+02  0.47329127405E+03  0.10100000000E+03 0. -1.
<mgrwt>
<rscale>  0 0.14387272E+04</rscale>
<asrwt>0</asrwt>
<pdfrwt beam="1">  1        2 0.13439398E+00 0.14387272E+04</pdfrwt>
<pdfrwt beam="2">  1       -2 0.78581627E-01 0.14387272E+04</pdfrwt>
<totfact> 0.42820389E+01</totfact>
</mgrwt>
</event>
<event>
 8    2  0.4306980E-052  0.2192304E+04  0.7818608E-02  0.8521638E-01
         -2   -1    0    0    0  501 -0.00000000000E+00  0.00000000000E+00  0.15410592730E+04  0.15410592730E+04  0.25500000000E-02 0. -1.
          2   -1    0    0  501    0  0.00000000000E+00 -0.00000000000E+00 -0.77969055375E+03  0.77969055375E+03  0.25500000000E-02 0.  1.
    -200001    2    1    2    0    0  0.77666481465E+03 -0.35929258471E+03  0.70423419521E+03  0.12665521462E+04  0.61311429741E+03 0.  0.
   -5000001    2    3    3    0    0  0.78676068554E+03 -0.32805455428E+03  0.75642186245E+03  0.11482208580E+04  0.14008903580E+03 0.  0.
     200001    1    1    2    0    0 -0.77666481465E+03  0.35929258471E+03  0.57134524024E+02  0.10541976805E+04  0.61300000000E+03 0.  1.
         13    1    4    4    0    0  0.21960203559E+03 -0.94220957960E+02  0.29703276848E+03  0.38122318879E+03  0.10566000000E+00 0.  1.
    -200003    1    4    4    0    0  0.56715864995E+03 -0.23383359632E+03  0.45938909397E+03  0.76699766926E+03  0.30000000000E+02 0.  1.
    -200000    1    3    3    0    0 -0.10095870890E+02 -0.31238030430E+02 -0.52187667239E+02  0.11833128820E+03  0.10100000000E+03 0.  1.
<mgrwt>
<rscale>  0 0.21923041E+04</rscale>
<asrwt>0</asrwt>
<pdfrwt beam="1">  1        2 0.11138436E+00 0.21923041E+04</pdfrwt>
<pdfrwt beam="2">  1       -2 0.22015133E+00 0.21923041E+04</pdfrwt>
<totfact> 0.35573694E+00</totfact>
</mgrwt>
</event>
<event>
 8    2  0.4306980E-052  0.1592365E+04  0.7818608E-02  0.8825252E-01
          2   -1    0    0  501    0  0.00000000000E+00  0.00000000000E+00  0.24525704550E+04  0.24525704550E+04  0.25500000000E-02 0.  1.
         -2   -1    0    0    0  501 -0.00000000000E+00 -0.00000000000E+00 -0.25846631382E+03  0.25846631383E+03  0.25500000000E-02 0. -1.
    -200001    2    1    2    0    0 -0.83530749904E+01 -0.49598849995E+03  0.92117208713E+03  0.12136392330E+04  0.61505106125E+03 0.  0.
   -5000001    2    3    3    0    0  0.51004005023E+02 -0.42451008883E+03  0.96708808655E+03  0.10689267415E+04  0.15663584371E+03 0.  0.
     200001    1    1    2    0    0  0.83530749904E+01  0.49598849995E+03  0.12729320541E+04  0.14973975358E+04  0.61300000000E+03 0. -1.
         13    1    4    4    0    0 -0.10365150504E+00  0.56639145564E+01 -0.27612718728E+01  0.63028928381E+01  0.10566000000E+00 0.  1.
    -200003    1    4    4    0    0  0.51107656528E+02 -0.43017400339E+03  0.96984935842E+03  0.10626238487E+04  0.30000000000E+02 0.  1.
    -200000    1    3    3    0    0 -0.59357080014E+02 -0.71478411117E+02 -0.45915999419E+02  0.14471249153E+03  0.10100000000E+03 0. -1.
<mgrwt>
<rscale>  0 0.15923653E+04</rscale>
<asrwt>0</asrwt>
<pdfrwt beam="1">  1        2 0.35036722E+00 0.15923653E+04</pdfrwt>
<pdfrwt beam="2">  1       -2 0.36923758E-01 0.15923653E+04</pdfrwt>
<totfact> 0.31050978E+01</totfact>
</mgrwt>
</event>
<event>
 8    2  0.4306980E-052  0.1315877E+04  0.7818608E-02  0.9017068E-01
          2   -1    0    0  501    0  0.00000000000E+00  0.00000000000E+00  0.97144596116E+03  0.97144596116E+03  0.25500000000E-02 0.  1.
         -2   -1    0    0    0  501 -0.00000000000E+00 -0.00000000000E+00 -0.44560714510E+03  0.44560714511E+03  0.25500000000E-02 0. -1.
    -200001    2    1    2    0    0 -0.18812253829E+03  0.14329851949E+03  0.27098033481E+03  0.71232166766E+03  0.61485547999E+03 0.  0.
   -5000001    2    3    3    0    0 -0.17639886585E+03  0.30660133099E+03  0.34902206187E+03  0.50472406675E+03  0.88368817203E+02 0.  0.
     200001    1    1    2    0    0  0.18812253829E+03 -0.14329851949E+03  0.25485848125E+03  0.70473143861E+03  0.61300000000E+03 0. -1.
         13    1    4    4    0    0 -0.13874242901E+02  0.75626453064E+02  0.46889537499E+02  0.90058286182E+02  0.10566000000E+00 0.  1.
    -200003    1    4    4    0    0 -0.16252462294E+03  0.23097487793E+03  0.30213252437E+03  0.41466578057E+03  0.30000000000E+02 0.  1.
    -200000    1    3    3    0    0 -0.11723672447E+02 -0.16330281151E+03 -0.78041727055E+02  0.20759760091E+03  0.10100000000E+03 0.  1.
<mgrwt>
<rscale>  0 0.13158773E+04</rscale>
<asrwt>0</asrwt>
<pdfrwt beam="1">  1        2 0.13877800E+00 0.13158773E+04</pdfrwt>
<pdfrwt beam="2">  1       -2 0.63658163E-01 0.13158773E+04</pdfrwt>
<totfact> 0.65488330E+01</totfact>
</mgrwt>
</event>
<event>
 8    2  0.4306980E-052  0.1694240E+04  0.7818608E-02  0.8764656E-01
         -2   -1    0    0    0  501 -0.00000000000E+00  0.00000000000E+00  0.80687590408E+03  0.80687590408E+03  0.25500000000E-02 0. -1.
          2   -1    0    0  501    0  0.00000000000E+00 -0.00000000000E+00 -0.88937161417E+03  0.88937161418E+03  0.25500000000E-02 0.  1.
    -200001    2    1    2    0    0 -0.52691940952E+03 -0.39173914947E+02  0.20951853374E+03  0.83588714124E+03  0.61288713249E+03 0.  0.
   -5000001    2    3    3    0    0 -0.44213831576E+03  0.20525858910E+03  0.20562617541E+03  0.55812603283E+03  0.17777841781E+03 0.  0.
     200001    1    1    2    0    0  0.52691940952E+03  0.39173914947E+02 -0.29201424384E+03  0.86036037702E+03  0.61300000000E+03 0.  1.
         13    1    4    4    0    0 -0.36677994739E+03  0.16386106242E+03  0.23125215994E+03  0.46352513440E+03  0.10566000000E+00 0.  1.
    -200003    1    4    4    0    0 -0.75358368372E+02  0.41397526687E+02 -0.25625984525E+02  0.94600898423E+02  0.30000000000E+02 0.  1.
    -200000    1    3    3    0    0 -0.84781093752E+02 -0.24443250405E+03  0.38923583309E+01  0.27776110841E+03  0.10100000000E+03 0. -1.
<mgrwt>
<rscale>  0 0.16942403E+04</rscale>
<asrwt>0</asrwt>
<pdfrwt beam="1">  1        2 0.12705309E+00 0.16942403E+04</pdfrwt>
<pdfrwt beam="2">  1       -2 0.11526799E+00 0.16942403E+04</pdfrwt>
<totfact> 0.18495348E+01</totfact>
</mgrwt>
</event>
<event>
 8    2  0.4306980E-052  0.1365522E+04  0.7818608E-02  0.8979160E-01
          2   -1    0    0  501    0  0.00000000000E+00  0.00000000000E+00  0.14405076907E+04  0.14405076907E+04  0.25500000000E-02 0. -1.
         -2   -1    0    0    0  501 -0.00000000000E+00 -0.00000000000E+00 -0.32361014972E+03  0.32361014973E+03  0.25500000000E-02 0.  1.
    -200001    2    1    2    0    0  0.11066553537E+03 -0.26548027163E+03  0.45217518723E+03  0.81524933377E+03  0.61436344367E+03 0.  0.
   -5000001    2    3    3    0    0  0.23481041543E+02  0.17336488125E+03  0.65303217473E+02  0.21520173136E+03  0.10696043011E+03 0.  0.
     200001    1    1    2    0    0 -0.11066553537E+03  0.26548027163E+03  0.66472235371E+03  0.94886850662E+03  0.61300000000E+03 0. -1.
         13    1    4    4    0    0 -0.33754298661E+02  0.10499764140E+03  0.44018048247E+02  0.11874955626E+03  0.10566000000E+00 0.  1.
    -200003    1    4    4    0    0  0.57235340205E+02  0.68367239849E+02  0.21285169226E+02  0.96452175102E+02  0.30000000000E+02 0.  1.
    -200000    1    3    3    0    0  0.87184493828E+02 -0.43884515287E+03  0.38687196976E+03  0.60004760240E+03  0.10100000000E+03 0.  1.
<mgrwt>
<rscale>  0 0.13655225E+04</rscale>
<asrwt>0</asrwt>
<pdfrwt beam="1">  1        2 0.20578681E+00 0.13655225E+04</pdfrwt>
<pdfrwt beam="2">  1       -2 0.46230022E-01 0.13655225E+04</pdfrwt>
<totfact> 0.68129019E+01</totfact>
</mgrwt>
</event>
<event>
 8    2  0.4306980E-052  0.1555092E+04  0.7818608E-02  0.8848622E-01
          2   -1    0    0  501    0  0.00000000000E+00  0.00000000000E+00  0.12936252958E+04  0.12936252958E+04  0.25500000000E-02 0.  1.
         -2   -1    0    0    0  501 -0.00000000000E+00 -0.00000000000E+00 -0.46735143865E+03  0.46735143866E+03  0.25500000000E-02 0. -1.
    -200001    2    1    2    0    0  0.21852543134E+03  0.15755944798E+03  0.86014183795E+03  0.10905333111E+04  0.61387342130E+03 0.  0.
   -5000001    2    3    3    0    0  0.22873179679E+03  0.30013532752E+03  0.82547951034E+03  0.91211097985E+03  0.90169661693E+02 0.  0.
     200001    1    1    2    0    0 -0.21852543134E+03 -0.15755944798E+03 -0.33867980827E+02  0.67044342335E+03  0.61300000000E+03 0. -1.
         13    1    4    4    0    0  0.51590434425E+02  0.77389117961E+02  0.29567132172E+03  0.30995514216E+03  0.10566000000E+00 0.  1.
    -200003    1    4    4    0    0  0.17714136236E+03  0.22274620956E+03  0.52980818862E+03  0.60215583769E+03  0.30000000000E+02 0.  1.
    -200000    1    3    3    0    0 -0.10206365442E+02 -0.14257587954E+03  0.34662327608E+02  0.17842233122E+03  0.10100000000E+03 0.  1.
<mgrwt>
<rscale>  0 0.15550918E+04</rscale>
<asrwt>0</asrwt>
<pdfrwt beam="1">  1        2 0.18480362E+00 0.15550918E+04</pdfrwt>
<pdfrwt beam="2">  1       -2 0.66764491E-01 0.15550918E+04</pdfrwt>
<totfact> 0.37598594E+01</totfact>
</mgrwt>
</event>
<event>
 8    2  0.4306980E-052  0.1560371E+04  0.7818608E-02  0.8845270E-01
          2   -1    0    0  501    0  0.00000000000E+00  0.00000000000E+00  0.10837375258E+04  0.10837375258E+04  0.25500000000E-02 0.  1.
         -2   -1    0    0    0  501 -0.00000000000E+00 -0.00000000000E+00 -0.56165788497E+03  0.56165788498E+03  0.25500000000E-02 0. -1.
    -200001    2    1    2    0    0 -0.10769825488E+02  0.43000363767E+03  0.27211735402E+02  0.74779730395E+03  0.61109836500E+03 0.  0.
   -5000001    2    3    3    0    0 -0.15075735331E+03  0.44035274613E+03 -0.15429638628E+03  0.49709865971E+03  0.81617290197E+02 0.  0.
     200001    1    1    2    0    0  0.10769825488E+02 -0.43000363767E+03  0.49486790543E+03  0.89759810682E+03  0.61300000000E+03 0. -1.
         13    1    4    4    0    0 -0.11969335265E+03  0.37674140932E+03 -0.13628376353E+03  0.41813139505E+03  0.10566000000E+00 0.  1.
    -200003    1    4    4    0    0 -0.31064000661E+02  0.63611336814E+02 -0.18012622749E+02  0.78967264652E+02  0.30000000000E+02 0. -1.
    -200000    1    3    3    0    0  0.13998752782E+03 -0.10349108460E+02  0.18150812168E+03  0.25069864425E+03  0.10100000000E+03 0. -1.
<mgrwt>
<rscale>  0 0.15603714E+04</rscale>
<asrwt>0</asrwt>
<pdfrwt beam="1">  1        2 0.15481965E+00 0.15603714E+04</pdfrwt>
<pdfrwt beam="2">  1       -2 0.80236841E-01 0.15603714E+04</pdfrwt>
<totfact> 0.33067951E+01</totfact>
</mgrwt>
</event>
<event>
 8    2  0.4306980E-052  0.2357293E+04  0.7818608E-02  0.8455668E-01
          2   -1    0    0  501    0  0.00000000000E+00  0.00000000000E+00  0.32007411800E+04  0.32007411800E+04  0.25500000000E-02 0.  1.
         -2   -1    0    0    0  501 -0.00000000000E+00 -0.00000000000E+00 -0.43402686821E+03  0.43402686822E+03  0.25500000000E-02 0. -1.
    -200001    2    1    2    0    0 -0.89880441333E+03 -0.28485831878E+02  0.20808376229E+04  0.23483557316E+04  0.61337477367E+03 0.  0.
   -5000001    2    3    3    0    0 -0.77274145338E+03  0.85626778377E+02  0.19717312711E+04  0.21224824182E+04  0.11289867611E+03 0.  0.
     200001    1    1    2    0    0  0.89880441333E+03  0.28485831878E+02  0.68587668880E+03  0.12864123166E+04  0.61300000000E+03 0. -1.
         13    1    4    4    0    0 -0.20971928185E+03  0.32851291254E+02  0.41886642546E+03  0.46958543212E+03  0.10566000000E+00 0.  1.
    -200003    1    4    4    0    0 -0.56302217153E+03  0.52775487123E+02  0.15528648457E+04  0.16528969861E+04  0.30000000000E+02 0.  1.
    -200000    1    3    3    0    0 -0.12606295995E+03 -0.11411261025E+03  0.10910635180E+03  0.22587331337E+03  0.10100000000E+03 0. -1.
<mgrwt>
<rscale>  0 0.23572931E+04</rscale>
<asrwt>0</asrwt>
<pdfrwt beam="1">  1        2 0.45724873E+00 0.23572931E+04</pdfrwt>
<pdfrwt beam="2">  1       -2 0.62003839E-01 0.23572931E+04</pdfrwt>
<totfact> 0.39699812E+00</totfact>
</mgrwt>
</event>
<event>
 8    2  0.4306980E-052  0.2115053E+04  0.7818608E-02  0.8554641E-01
         -2   -1    0    0    0  501 -0.00000000000E+00  0.00000000000E+00  0.60989677513E+03  0.60989677514E+03  0.25500000000E-02 0. -1.
          2   -1    0    0  501    0  0.00000000000E+00 -0.00000000000E+00 -0.18336914681E+04  0.18336914681E+04  0.25500000000E-02 0.  1.
    -200001    2    1    2    0    0 -0.22161006478E+03 -0.72209416713E+03 -0.10912685484E+04  0.14618229016E+04  0.61280351173E+03 0.  0.
   -5000001    2    3    3    0    0  0.21440372216E+02 -0.32849619716E+03 -0.88197959542E+03  0.94413984925E+03  0.71711973114E+02 0.  0.
     200001    1    1    2    0    0  0.22161006478E+03  0.72209416713E+03 -0.13252614459E+03  0.98176534162E+03  0.61300000000E+03 0. -1.
         13    1    4    4    0    0  0.15462093843E+02 -0.17333007052E+03 -0.38260774955E+03  0.42032260334E+03  0.10566000000E+00 0.  1.
    -200003    1    4    4    0    0  0.59782783731E+01 -0.15516612664E+03 -0.49937184587E+03  0.52381724591E+03  0.30000000000E+02 0.  1.
    -200000    1    3    3    0    0 -0.24305043700E+03 -0.39359796997E+03 -0.20928895298E+03  0.51768305239E+03  0.10100000000E+03 0. -1.
<mgrwt>
<rscale>  0 0.21150532E+04</rscale>
<asrwt>0</asrwt>
<pdfrwt beam="1">  1        2 0.26195592E+00 0.21150532E+04</pdfrwt>
<pdfrwt beam="2">  1       -2 0.87128111E-01 0.21150532E+04</pdfrwt>
<totfact> 0.10291739E+01</totfact>
</mgrwt>
</event>
<event>
 8    2  0.4306980E-052  0.2110320E+04  0.7818608E-02  0.8556711E-01
          2   -1    0    0  501    0  0.00000000000E+00  0.00000000000E+00  0.24762104474E+04  0.24762104475E+04  0.25500000000E-02 0. -1.
         -2   -1    0    0    0  501 -0.00000000000E+00 -0.00000000000E+00 -0.44962374158E+03  0.44962374159E+03  0.25500000000E-02 0.  1.
    -200001    2    1    2    0    0 -0.49562800099E+03  0.47861020917E+03  0.17283408832E+04  0.19565899379E+04  0.60528268496E+03 0.  0.
   -5000001    2    3    3    0    0 -0.24086880062E+03  0.40926376604E+03  0.15294032513E+04  0.16109190529E+04  0.17456024896E+03 0.  0.
     200001    1    1    2    0    0  0.49562800099E+03 -0.47861020917E+03  0.29824582265E+03  0.96924425117E+03  0.61300000000E+03 0.  1.
         13    1    4    4    0    0 -0.22105618499E+03  0.23108965465E+03  0.10733835398E+04  0.11200091518E+04  0.10566000000E+00 0.  1.
    -200003    1    4    4    0    0 -0.19812615626E+02  0.17817411139E+03  0.45601971150E+03  0.49090990108E+03  0.30000000000E+02 0. -1.
    -200000    1    3    3    0    0 -0.25475920037E+03  0.69346443132E+02  0.19893763192E+03  0.34567088500E+03  0.10100000000E+03 0.  1.
<mgrwt>
<rscale>  0 0.21103204E+04</rscale>
<asrwt>0</asrwt>
<pdfrwt beam="1">  1        2 0.35374434E+00 0.21103204E+04</pdfrwt>
<pdfrwt beam="2">  1       -2 0.64231964E-01 0.21103204E+04</pdfrwt>
<totfact> 0.93949038E+00</totfact>
</mgrwt>
</event>
<event>
 8    2  0.4306980E-052  0.1568220E+04  0.7818608E-02  0.8840313E-01
          2   -1    0    0  501    0  0.00000000000E+00  0.00000000000E+00  0.17022391745E+04  0.17022391745E+04  0.25500000000E-02 0.  1.
         -2   -1    0    0    0  501 -0.00000000000E+00 -0.00000000000E+00 -0.36118802952E+03  0.36118802953E+03  0.25500000000E-02 0. -1.
    -200001    2    1    2    0    0 -0.48087544018E+03 -0.78173382794E+02  0.63788856130E+03  0.10110209679E+04  0.61474329128E+03 0.  0.
   -5000001    2    3    3    0    0 -0.46074652719E+03 -0.36476555967E+02  0.12146637223E+03  0.48278174571E+03  0.68601989476E+02 0.  0.
     200001    1    1    2    0    0  0.48087544018E+03  0.78173382794E+02  0.70316258371E+03  0.10524062361E+04  0.61300000000E+03 0.  1.
         13    1    4    4    0    0 -0.81091861847E+02  0.88668256590E+01  0.40205630112E+01  0.81674272241E+02  0.10566000000E+00 0.  1.
    -200003    1    4    4    0    0 -0.37965466534E+03 -0.45343381626E+02  0.11744580922E+03  0.40110747347E+03  0.30000000000E+02 0.  1.
    -200000    1    3    3    0    0 -0.20128912994E+02 -0.41696826827E+02  0.51642218908E+03  0.52823922220E+03  0.10100000000E+03 0.  1.
<mgrwt>
<rscale>  0 0.15682199E+04</rscale>
<asrwt>0</asrwt>
<pdfrwt beam="1">  1        2 0.24317702E+00 0.15682199E+04</pdfrwt>
<pdfrwt beam="2">  1       -2 0.51598292E-01 0.15682199E+04</pdfrwt>
<totfact> 0.39077907E+01</totfact>
</mgrwt>
</event>
<event>
 8    2  0.4306980E-052  0.1531726E+04  0.7818608E-02  0.8863625E-01
          2   -1    0    0  501    0  0.00000000000E+00  0.00000000000E+00  0.24725733675E+04  0.24725733675E+04  0.25500000000E-02 0.  1.
         -2   -1    0    0    0  501 -0.00000000000E+00 -0.00000000000E+00 -0.23722088562E+03  0.23722088563E+03  0.25500000000E-02 0. -1.
    -200001    2    1    2    0    0  0.25213830644E+03  0.13268260282E+01  0.17960286643E+04  0.19145899380E+04  0.61348201422E+03 0.  0.
   -5000001    2    3    3    0    0  0.24790194930E+03 -0.82726750993E+02  0.26390681156E+03  0.37683790269E+03  0.63725253401E+02 0.  0.
     200001    1    1    2    0    0 -0.25213830644E+03 -0.13268260282E+01  0.43932381756E+03  0.79520431508E+03  0.61300000000E+03 0. -1.
         13    1    4    4    0    0  0.14261023971E+03 -0.68894021066E+02  0.14724589463E+03  0.21625316474E+03  0.10566000000E+00 0.  1.
    -200003    1    4    4    0    0  0.10529170959E+03 -0.13832729927E+02  0.11666091693E+03  0.16058473795E+03  0.30000000000E+02 0.  1.
    -200000    1    3    3    0    0  0.42363571413E+01  0.84053577021E+02  0.15321218527E+04  0.15377520353E+04  0.10100000000E+03 0.  1.
<mgrwt>
<rscale>  0 0.15317259E+04</rscale>
<asrwt>0</asrwt>
<pdfrwt beam="1">  1        2 0.35322477E+00 0.15317259E+04</pdfrwt>
<pdfrwt beam="2">  1       -2 0.33888697E-01 0.15317259E+04</pdfrwt>
<totfact> 0.35895341E+01</totfact>
</mgrwt>
</event>
<event>
 8    2  0.4306980E-052  0.1448591E+04  0.7818608E-02  0.8919378E-01
          2   -1    0    0  501    0  0.00000000000E+00  0.00000000000E+00  0.70189466611E+03  0.70189466612E+03  0.25500000000E-02 0.  1.
         -2   -1    0    0    0  501 -0.00000000000E+00 -0.00000000000E+00 -0.74741106252E+03  0.74741106252E+03  0.25500000000E-02 0. -1.
    -200001    2    1    2    0    0  0.28925813462E+03  0.13589542864E+03  0.19418812040E+03  0.71761925798E+03  0.61247900972E+03 0.  0.
   -5000001    2    3    3    0    0  0.33681093220E+03  0.23470615830E+03  0.31468659509E+03  0.52592754909E+03  0.95097576037E+02 0.  0.
     200001    1    1    2    0    0 -0.28925813462E+03 -0.13589542864E+03 -0.23970451681E+03  0.73168647066E+03  0.61300000000E+03 0. -1.
         13    1    4    4    0    0  0.33447456914E+02  0.26397475288E+02  0.73362628180E+02  0.84838938307E+02  0.10566000000E+00 0.  1.
    -200003    1    4    4    0    0  0.30336347529E+03  0.20830868302E+03  0.24132396691E+03  0.44108861078E+03  0.30000000000E+02 0.  1.
    -200000    1    3    3    0    0 -0.47552797587E+02 -0.98810729663E+02 -0.12049847469E+03  0.19169170889E+03  0.10100000000E+03 0. -1.
<mgrwt>
<rscale>  0 0.14485908E+04</rscale>
<asrwt>0</asrwt>
<pdfrwt beam="1">  1        2 0.10027067E+00 0.14485908E+04</pdfrwt>
<pdfrwt beam="2">  1       -2 0.10677301E+00 0.14485908E+04</pdfrwt>
<totfact> 0.30777831E+01</totfact>
</mgrwt>
</event>
<event>
 8    2  0.4306980E-052  0.1458257E+04  0.7818608E-02  0.8912696E-01
         -2   -1    0    0    0  501 -0.00000000000E+00  0.00000000000E+00  0.70595676046E+03  0.70595676047E+03  0.25500000000E-02 0. -1.
          2   -1    0    0  501    0  0.00000000000E+00 -0.00000000000E+00 -0.75306087921E+03  0.75306087921E+03  0.25500000000E-02 0.  1.
    -200001    2    1    2    0    0  0.93552516440E+02  0.20532874597E+03  0.30059566314E+03  0.71903378473E+03  0.61297623415E+03 0.  0.
   -5000001    2    3    3    0    0 -0.24670448177E+03  0.42119875649E+02  0.98892440466E+02  0.27937806690E+03  0.75067997382E+02 0.  0.
     200001    1    1    2    0    0 -0.93552516440E+02 -0.20532874597E+03 -0.34769978189E+03  0.73998385495E+03  0.61300000000E+03 0.  1.
         13    1    4    4    0    0 -0.12368089683E+03  0.52149516040E+02  0.53219438568E+02  0.14439132962E+03  0.10566000000E+00 0.  1.
    -200003    1    4    4    0    0 -0.12302358495E+03 -0.10029640391E+02  0.45673001897E+02  0.13498673728E+03  0.30000000000E+02 0.  1.
    -200000    1    3    3    0    0  0.34025699821E+03  0.16320887033E+03  0.20170322267E+03  0.43965571783E+03  0.10100000000E+03 0. -1.
<mgrwt>
<rscale>  0 0.14582571E+04</rscale>
<asrwt>0</asrwt>
<pdfrwt beam="1">  1        2 0.10758013E+00 0.14582571E+04</pdfrwt>
<pdfrwt beam="2">  1       -2 0.10085097E+00 0.14582571E+04</pdfrwt>
<totfact> 0.32289760E+01</totfact>
</mgrwt>
</event>
<event>
 8    2  0.4306980E-052  0.1846205E+04  0.7818608E-02  0.8682107E-01
          2   -1    0    0  501    0  0.00000000000E+00  0.00000000000E+00  0.28812683053E+04  0.28812683053E+04  0.25500000000E-02 0.  1.
         -2   -1    0    0    0  501 -0.00000000000E+00 -0.00000000000E+00 -0.29574408339E+03  0.29574408340E+03  0.25500000000E-02 0. -1.
    -200001    2    1    2    0    0  0.38199600547E+03 -0.15029480414E+03  0.22472661152E+04  0.23654108713E+04  0.61355857170E+03 0.  0.
   -5000001    2    3    3    0    0  0.33751175488E+03 -0.20680448896E+03  0.21922535529E+04  0.22297658380E+04  0.95905009950E+02 0.  0.
     200001    1    1    2    0    0 -0.38199600547E+03  0.15029480414E+03  0.33825810665E+03  0.81160151741E+03  0.61300000000E+03 0. -1.
         13    1    4    4    0    0  0.26578650140E+03 -0.18222389597E+03  0.16209436413E+04  0.16526664249E+04  0.10566000000E+00 0.  1.
    -200003    1    4    4    0    0  0.71725253476E+02 -0.24580592993E+02  0.57130991158E+03  0.57709941310E+03  0.30000000000E+02 0. -1.
    -200000    1    3    3    0    0  0.44484250591E+02  0.56509684818E+02  0.55012562347E+02  0.13564503325E+03  0.10100000000E+03 0. -1.
<mgrwt>
<rscale>  0 0.18462048E+04</rscale>
<asrwt>0</asrwt>
<pdfrwt beam="1">  1        2 0.41160973E+00 0.18462048E+04</pdfrwt>
<pdfrwt beam="2">  1       -2 0.42249158E-01 0.18462048E+04</pdfrwt>
<totfact> 0.13774456E+01</totfact>
</mgrwt>
</event>
<event>
 8    2  0.4306980E-052  0.2177377E+04  0.7818608E-02  0.8527904E-01
          2   -1    0    0  501    0  0.00000000000E+00  0.00000000000E+00  0.11476561208E+04  0.11476561208E+04  0.25500000000E-02 0.  1.
         -2   -1    0    0    0  501 -0.00000000000E+00 -0.00000000000E+00 -0.10327507039E+04  0.10327507039E+04  0.25500000000E-02 0. -1.
    -200001    2    1    2    0    0  0.37344647057E+03 -0.16205925910E+03 -0.74688991606E+03  0.10471876642E+04  0.61076344651E+03 0.  0.
   -5000001    2    3    3    0    0  0.43223557540E+03  0.86147989502E+02 -0.46979257291E+03  0.65725570264E+03  0.13050259899E+03 0.  0.
     200001    1    1    2    0    0 -0.37344647057E+03  0.16205925910E+03  0.86179533288E+03  0.11332191604E+04  0.61300000000E+03 0.  1.
         13    1    4    4    0    0  0.36517752157E+02 -0.26972034423E+02 -0.64301150600E+02  0.78712680021E+02  0.10566000000E+00 0.  1.
    -200003    1    4    4    0    0  0.39571782324E+03  0.11312002392E+03 -0.40549142231E+03  0.57854302262E+03  0.30000000000E+02 0.  1.
    -200000    1    3    3    0    0 -0.58789104830E+02 -0.24820724860E+03 -0.27709734314E+03  0.38993196161E+03  0.10100000000E+03 0. -1.
<mgrwt>
<rscale>  0 0.21773770E+04</rscale>
<asrwt>0</asrwt>
<pdfrwt beam="1">  1        2 0.16395088E+00 0.21773770E+04</pdfrwt>
<pdfrwt beam="2">  1       -2 0.14753581E+00 0.21773770E+04</pdfrwt>
<totfact> 0.65976642E+00</totfact>
</mgrwt>
</event>
<event>
 8    2  0.4306980E-052  0.1448936E+04  0.7818608E-02  0.8919139E-01
          2   -1    0    0  501    0  0.00000000000E+00  0.00000000000E+00  0.29632585266E+04  0.29632585266E+04  0.25500000000E-02 0.  1.
         -2   -1    0    0    0  501 -0.00000000000E+00 -0.00000000000E+00 -0.17712047255E+03  0.17712047257E+03  0.25500000000E-02 0. -1.
    -200001    2    1    2    0    0  0.37433744785E+03  0.76536391425E+02  0.15286679439E+04  0.16902112771E+04  0.61155713931E+03 0.  0.
   -5000001    2    3    3    0    0 -0.12759407937E+03 -0.30342757996E+02  0.13247055807E+03  0.19926307189E+03  0.70401640677E+02 0.  0.
     200001    1    1    2    0    0 -0.37433744785E+03 -0.76536391425E+02  0.12574701102E+04  0.14501677221E+04  0.61300000000E+03 0. -1.
         13    1    4    4    0    0 -0.42019410473E+02 -0.27781540084E+02  0.18653163690E+02  0.53715886902E+02  0.10566000000E+00 0.  1.
    -200003    1    4    4    0    0 -0.85574668894E+02 -0.25612179115E+01  0.11381739438E+03  0.14554718499E+03  0.30000000000E+02 0.  1.
    -200000    1    3    3    0    0  0.50193152722E+03  0.10687914942E+03  0.13961973858E+04  0.14909482052E+04  0.10100000000E+03 0.  1.
<mgrwt>
<rscale>  0 0.14489358E+04</rscale>
<asrwt>0</asrwt>
<pdfrwt beam="1">  1        2 0.42332267E+00 0.14489358E+04</pdfrwt>
<pdfrwt beam="2">  1       -2 0.25302923E-01 0.14489358E+04</pdfrwt>
<totfact> 0.33885983E+01</totfact>
</mgrwt>
</event>
<event>
 8    2  0.4306980E-052  0.1241151E+04  0.7818608E-02  0.9077580E-01
          2   -1    0    0  501    0  0.00000000000E+00  0.00000000000E+00  0.64863025189E+03  0.64863025190E+03  0.25500000000E-02 0.  1.
         -2   -1    0    0    0  501 -0.00000000000E+00 -0.00000000000E+00 -0.59373426562E+03  0.59373426563E+03  0.25500000000E-02 0. -1.
    -200001    2    1    2    0    0 -0.78287302780E+02 -0.39309788095E+02 -0.11124843230E+02  0.61962708397E+03  0.61330237228E+03 0.  0.
   -5000001    2    3    3    0    0  0.12252675732E+02  0.26198883871E+03 -0.72362918086E+02  0.28357730784E+03  0.79946344110E+02 0.  0.
     200001    1    1    2    0    0  0.78287302780E+02  0.39309788095E+02  0.66020829503E+02  0.62273743355E+03  0.61300000000E+03 0.  1.
         13    1    4    4    0    0 -0.59237505539E+01  0.20662680596E+03 -0.40250069974E+02  0.21059393880E+03  0.10566000000E+00 0.  1.
    -200003    1    4    4    0    0  0.18176426286E+02  0.55362032751E+02 -0.32112848112E+02  0.72983369042E+02  0.30000000000E+02 0.  1.
    -200000    1    3    3    0    0 -0.90539978512E+02 -0.30129862681E+03  0.61238074857E+02  0.33604977613E+03  0.10100000000E+03 0. -1.
<mgrwt>
<rscale>  0 0.12411511E+04</rscale>
<asrwt>0</asrwt>
<pdfrwt beam="1">  1        2 0.92661465E-01 0.12411511E+04</pdfrwt>
<pdfrwt beam="2">  1       -2 0.84819180E-01 0.12411511E+04</pdfrwt>
<totfact> 0.58964313E+01</totfact>
</mgrwt>
</event>
<event>
 8    2  0.4306980E-052  0.1472218E+04  0.7818608E-02  0.8903141E-01
         -2   -1    0    0    0  501 -0.00000000000E+00  0.00000000000E+00  0.17180142256E+03  0.17180142258E+03  0.25500000000E-02 0. -1.
          2   -1    0    0  501    0  0.00000000000E+00 -0.00000000000E+00 -0.31539702853E+04  0.31539702853E+04  0.25500000000E-02 0.  1.
    -200001    2    1    2    0    0  0.40336532451E+03 -0.11435767405E+02 -0.13307238747E+04  0.15185988024E+04  0.61031297720E+03 0.  0.
   -5000001    2    3    3    0    0 -0.97957384908E+02 -0.20100971620E+02 -0.60923474026E+02  0.14965994244E+03  0.93202630673E+02 0.  0.
     200001    1    1    2    0    0 -0.40336532451E+03  0.11435767405E+02 -0.16514449880E+04  0.18071729054E+04  0.61300000000E+03 0.  1.
         13    1    4    4    0    0  0.16419351964E+02 -0.28886962167E+01 -0.11995856364E+02  0.20539021853E+02  0.10566000000E+00 0.  1.
    -200003    1    4    4    0    0 -0.11437673687E+03 -0.17212275403E+02 -0.48927617662E+02  0.12912092058E+03  0.30000000000E+02 0.  1.
    -200000    1    3    3    0    0  0.50132270942E+03  0.86652042147E+01 -0.12698004007E+04  0.13689388600E+04  0.10100000000E+03 0. -1.
<mgrwt>
<rscale>  0 0.14722182E+04</rscale>
<asrwt>0</asrwt>
<pdfrwt beam="1">  1        2 0.45056715E+00 0.14722182E+04</pdfrwt>
<pdfrwt beam="2">  1       -2 0.24543062E-01 0.14722182E+04</pdfrwt>
<totfact> 0.27927028E+01</totfact>
</mgrwt>
</event>
<event>
 8    2  0.4306980E-052  0.1496553E+04  0.7818608E-02  0.8886748E-01
          2   -1    0    0  501    0  0.00000000000E+00  0.00000000000E+00  0.12116267955E+04  0.12116267955E+04  0.25500000000E-02 0.  1.
         -2   -1    0    0    0  501 -0.00000000000E+00 -0.00000000000E+00 -0.46212050698E+03  0.46212050699E+03  0.25500000000E-02 0. -1.
    -200001    2    1    2    0    0 -0.19228549356E+01  0.12522705989E+03  0.83347214914E+03  0.10424749526E+04  0.61350850817E+03 0.  0.
   -5000001    2    3    3    0    0 -0.27585203885E+03  0.15322721902E+02  0.24932782230E+03  0.38025009967E+03  0.78080997581E+02 0.  0.
     200001    1    1    2    0    0  0.19228549356E+01 -0.12522705989E+03 -0.83965860638E+02  0.63127234982E+03  0.61300000000E+03 0. -1.
         13    1    4    4    0    0 -0.19160716351E+03  0.28859417167E+02  0.19416068093E+03  0.27430740466E+03  0.10566000000E+00 0.  1.
    -200003    1    4    4    0    0 -0.84244875340E+02 -0.13536695264E+02  0.55167141372E+02  0.10594269501E+03  0.30000000000E+02 0. -1.
    -200000    1    3    3    0    0  0.27392918392E+03  0.10990433799E+03  0.58414432684E+03  0.66222485297E+03  0.10100000000E+03 0.  1.
<mgrwt>
<rscale>  0 0.14965528E+04</rscale>
<asrwt>0</asrwt>
<pdfrwt beam="1">  1        2 0.17308954E+00 0.14965528E+04</pdfrwt>
<pdfrwt beam="2">  1       -2 0.66017217E-01 0.14965528E+04</pdfrwt>
<totfact> 0.43019735E+01</totfact>
</mgrwt>
</event>
<event>
 8    2  0.4306980E-052  0.1378571E+04  0.7818608E-02  0.8969478E-01
         -2   -1    0    0    0  501 -0.00000000000E+00  0.00000000000E+00  0.72067803744E+03  0.72067803744E+03  0.25500000000E-02 0. -1.
          2   -1    0    0  501    0  0.00000000000E+00 -0.00000000000E+00 -0.65926025580E+03  0.65926025580E+03  0.25500000000E-02 0.  1.
    -200001    2    1    2    0    0 -0.16541356783E+03  0.20142459332E+03 -0.15207691864E+03  0.68045097937E+03  0.60987919372E+03 0.  0.
   -5000001    2    3    3    0    0 -0.32197422286E+03  0.27270352156E+03 -0.20447221199E+03  0.47420309191E+03  0.70887770763E+02 0.  0.
     200001    1    1    2    0    0  0.16541356783E+03 -0.20142459332E+03  0.21349470028E+03  0.69948731387E+03  0.61300000000E+03 0.  1.
         13    1    4    4    0    0 -0.21174032706E+03  0.14625588465E+03 -0.12802817940E+03  0.28742994935E+03  0.10566000000E+00 0.  1.
    -200003    1    4    4    0    0 -0.11023389580E+03  0.12644763692E+03 -0.76444032586E+02  0.18677314257E+03  0.30000000000E+02 0.  1.
    -200000    1    3    3    0    0  0.15656065503E+03 -0.71278928241E+02  0.52395293349E+02  0.20624788746E+03  0.10100000000E+03 0. -1.
<mgrwt>
<rscale>  0 0.13785708E+04</rscale>
<asrwt>0</asrwt>
<pdfrwt beam="1">  1        2 0.94180036E-01 0.13785708E+04</pdfrwt>
<pdfrwt beam="2">  1       -2 0.10295401E+00 0.13785708E+04</pdfrwt>
<totfact> 0.36457118E+01</totfact>
</mgrwt>
</event>
<event>
 8    2  0.4306980E-052  0.1429252E+04  0.7818608E-02  0.8932913E-01
         -2   -1    0    0    0  501 -0.00000000000E+00  0.00000000000E+00  0.82177802745E+03  0.82177802746E+03  0.25500000000E-02 0. -1.
          2   -1    0    0  501    0  0.00000000000E+00 -0.00000000000E+00 -0.62144535588E+03  0.62144535589E+03  0.25500000000E-02 0.  1.
    -200001    2    1    2    0    0  0.24695940641E+03 -0.70882440032E+02 -0.16538778204E+03  0.68458399674E+03  0.61260824466E+03 0.  0.
   -5000001    2    3    3    0    0 -0.56174588706E+02  0.11404548295E+03 -0.26251583527E+03  0.30284663360E+03  0.81483514416E+02 0.  0.
     200001    1    1    2    0    0 -0.24695940641E+03  0.70882440032E+02  0.36572045361E+03  0.75863938661E+03  0.61300000000E+03 0. -1.
         13    1    4    4    0    0 -0.47379036751E+02  0.85628774488E+02 -0.22861042177E+03  0.24867608701E+03  0.10566000000E+00 0.  1.
    -200003    1    4    4    0    0 -0.87955519557E+01  0.28416708461E+02 -0.33905413494E+02  0.54170546593E+02  0.30000000000E+02 0. -1.
    -200000    1    3    3    0    0  0.30313399511E+03 -0.18492792298E+03  0.97128053222E+02  0.38173736314E+03  0.10100000000E+03 0. -1.
<mgrwt>
<rscale>  0 0.14292517E+04</rscale>
<asrwt>0</asrwt>
<pdfrwt beam="1">  1        2 0.88777908E-01 0.14292517E+04</pdfrwt>
<pdfrwt beam="2">  1       -2 0.11739686E+00 0.14292517E+04</pdfrwt>
<totfact> 0.28378339E+01</totfact>
</mgrwt>
</event>
<event>
 8    2  0.4306980E-052  0.3002385E+04  0.7818608E-02  0.8243050E-01
         -2   -1    0    0    0  501 -0.00000000000E+00  0.00000000000E+00  0.11522666026E+04  0.11522666026E+04  0.25500000000E-02 0. -1.
          2   -1    0    0  501    0  0.00000000000E+00 -0.00000000000E+00 -0.19557787936E+04  0.19557787936E+04  0.25500000000E-02 0.  1.
    -200001    2    1    2    0    0 -0.39233235247E+03  0.14330491908E+03 -0.17528450811E+04  0.19032786508E+04  0.61281544505E+03 0.  0.
   -5000001    2    3    3    0    0 -0.49556702738E+03  0.24091024954E+03 -0.14153449115E+04  0.15234213577E+04  0.11826659585E+03 0.  0.
     200001    1    1    2    0    0  0.39233235247E+03 -0.14330491908E+03  0.94933289009E+03  0.12047667454E+04  0.61300000000E+03 0. -1.
         13    1    4    4    0    0 -0.26076525929E+02  0.48939747231E+02 -0.13680160520E+03  0.14761359833E+03  0.10566000000E+00 0.  1.
    -200003    1    4    4    0    0 -0.46949050146E+03  0.19197050231E+03 -0.12785433063E+04  0.13758077594E+04  0.30000000000E+02 0.  1.
    -200000    1    3    3    0    0  0.10323467491E+03 -0.97605330452E+02 -0.33750016955E+03  0.37985729305E+03  0.10100000000E+03 0. -1.
<mgrwt>
<rscale>  0 0.30023848E+04</rscale>
<asrwt>0</asrwt>
<pdfrwt beam="1">  1        2 0.27939697E+00 0.30023848E+04</pdfrwt>
<pdfrwt beam="2">  1       -2 0.16460951E+00 0.30023848E+04</pdfrwt>
<totfact> 0.17001151E+00</totfact>
</mgrwt>
</event>
<event>
 8    2  0.4306980E-052  0.1402497E+04  0.7818608E-02  0.8952013E-01
          2   -1    0    0  501    0  0.00000000000E+00  0.00000000000E+00  0.16635530825E+04  0.16635530825E+04  0.25500000000E-02 0.  1.
         -2   -1    0    0    0  501 -0.00000000000E+00 -0.00000000000E+00 -0.29560175466E+03  0.29560175467E+03  0.25500000000E-02 0. -1.
    -200001    2    1    2    0    0  0.20591753846E+03 -0.24631186983E+03  0.84295153667E+03  0.10905551880E+04  0.61292067593E+03 0.  0.
   -5000001    2    3    3    0    0 -0.12508542807E+03 -0.16587656527E+03  0.64553986926E+03  0.68410080123E+03  0.90059892435E+02 0.  0.
     200001    1    1    2    0    0 -0.20591753846E+03  0.24631186983E+03  0.52499979120E+03  0.86859964922E+03  0.61300000000E+03 0. -1.
         13    1    4    4    0    0 -0.10697413894E+03 -0.11061500598E+03  0.52320656328E+03  0.54536617513E+03  0.10566000000E+00 0.  1.
    -200003    1    4    4    0    0 -0.18111289133E+02 -0.55261559291E+02  0.12233330597E+03  0.13873462610E+03  0.30000000000E+02 0.  1.
    -200000    1    3    3    0    0  0.33100296653E+03 -0.80435304559E+02  0.19741166741E+03  0.40645438675E+03  0.10100000000E+03 0.  1.
<mgrwt>
<rscale>  0 0.14024966E+04</rscale>
<asrwt>0</asrwt>
<pdfrwt beam="1">  1        2 0.23765044E+00 0.14024966E+04</pdfrwt>
<pdfrwt beam="2">  1       -2 0.42228822E-01 0.14024966E+04</pdfrwt>
<totfact> 0.62023817E+01</totfact>
</mgrwt>
</event>
<event>
 8    2  0.4306980E-052  0.1394076E+04  0.7818608E-02  0.8958117E-01
         -2   -1    0    0    0  501 -0.00000000000E+00  0.00000000000E+00  0.55934558302E+03  0.55934558303E+03  0.25500000000E-02 0. -1.
          2   -1    0    0  501    0  0.00000000000E+00 -0.00000000000E+00 -0.86862631659E+03  0.86862631660E+03  0.25500000000E-02 0.  1.
    -200001    2    1    2    0    0  0.32109437690E+03  0.75729577285E+02 -0.12536719865E+03  0.70795123598E+03  0.61371121081E+03 0.  0.
   -5000001    2    3    3    0    0  0.21531686567E+03 -0.24625602079E+03 -0.96141505633E+02  0.35310091770E+03  0.91835116147E+02 0.  0.
     200001    1    1    2    0    0 -0.32109437690E+03 -0.75729577285E+02 -0.18391353492E+03  0.72002066365E+03  0.61300000000E+03 0. -1.
         13    1    4    4    0    0  0.91376714571E+02 -0.12232726282E+03 -0.85423293314E+02  0.17495946216E+03  0.10566000000E+00 0.  1.
    -200003    1    4    4    0    0  0.12394015110E+03 -0.12392875797E+03 -0.10718212320E+02  0.17814145554E+03  0.30000000000E+02 0.  1.
    -200000    1    3    3    0    0  0.10577751123E+03  0.32198559807E+03 -0.29225693020E+02  0.35485031828E+03  0.10100000000E+03 0. -1.
<mgrwt>
<rscale>  0 0.13940765E+04</rscale>
<asrwt>0</asrwt>
<pdfrwt beam="1">  1        2 0.12408947E+00 0.13940765E+04</pdfrwt>
<pdfrwt beam="2">  1       -2 0.79906512E-01 0.13940765E+04</pdfrwt>
<totfact> 0.46114978E+01</totfact>
</mgrwt>
</event>
<event>
 8    2  0.4306980E-052  0.1530810E+04  0.7818608E-02  0.8864219E-01
          2   -1    0    0  501    0  0.00000000000E+00  0.00000000000E+00  0.12483393315E+04  0.12483393315E+04  0.25500000000E-02 0.  1.
         -2   -1    0    0    0  501 -0.00000000000E+00 -0.00000000000E+00 -0.46929930437E+03  0.46929930438E+03  0.25500000000E-02 0. -1.
    -200001    2    1    2    0    0  0.15953218196E+03  0.42048779404E+03  0.29141619081E+03  0.81441855875E+03  0.61326478013E+03 0.  0.
   -5000001    2    3    3    0    0 -0.53330902882E+02 -0.12831330816E+03  0.14816873243E+02  0.15623809326E+03  0.69873541492E+02 0.  0.
     200001    1    1    2    0    0 -0.15953218196E+03 -0.42048779404E+03  0.48762383635E+03  0.90322007717E+03  0.61300000000E+03 0.  1.
         13    1    4    4    0    0 -0.22992210888E+01 -0.73998965413E+02 -0.24074402185E+01  0.74073883604E+02  0.10566000000E+00 0.  1.
    -200003    1    4    4    0    0 -0.51031681793E+02 -0.54314342748E+02  0.17224313461E+02  0.82164209660E+02  0.30000000000E+02 0. -1.
    -200000    1    3    3    0    0  0.21286308484E+03  0.54880110220E+03  0.27659931757E+03  0.65818046548E+03  0.10100000000E+03 0.  1.
<mgrwt>
<rscale>  0 0.15308100E+04</rscale>
<asrwt>0</asrwt>
<pdfrwt beam="1">  1        2 0.17833419E+00 0.15308100E+04</pdfrwt>
<pdfrwt beam="2">  1       -2 0.67042759E-01 0.15308100E+04</pdfrwt>
<totfact> 0.39568901E+01</totfact>
</mgrwt>
</event>
<event>
 8    2  0.4306980E-052  0.1585303E+04  0.7818608E-02  0.8829628E-01
          2   -1    0    0  501    0  0.00000000000E+00  0.00000000000E+00  0.54117770195E+03  0.54117770196E+03  0.25500000000E-02 0.  1.
         -2   -1    0    0    0  501 -0.00000000000E+00 -0.00000000000E+00 -0.11609798332E+04  0.11609798332E+04  0.25500000000E-02 0. -1.
    -200001    2    1    2    0    0 -0.21251551231E+03  0.66250747542E+02 -0.79395863274E+03  0.10271379121E+04  0.61244589590E+03 0.  0.
   -5000001    2    3    3    0    0 -0.10768629632E+03  0.15279208220E+03  0.90985037702E+01  0.20641851324E+03  0.87086514679E+02 0.  0.
     200001    1    1    2    0    0  0.21251551231E+03 -0.66250747542E+02  0.17415650150E+03  0.67501962307E+03  0.61300000000E+03 0.  1.
         13    1    4    4    0    0 -0.92017558607E+02  0.14198046518E+03 -0.19743350633E+01  0.16920281542E+03  0.10566000000E+00 0.  1.
    -200003    1    4    4    0    0 -0.15668737711E+02  0.10811617024E+02  0.11072838834E+02  0.37215697816E+02  0.30000000000E+02 0.  1.
    -200000    1    3    3    0    0 -0.10482921599E+03 -0.86541334661E+02 -0.80305713651E+03  0.82071939884E+03  0.10100000000E+03 0. -1.
<mgrwt>
<rscale>  0 0.15853030E+04</rscale>
<asrwt>0</asrwt>
<pdfrwt beam="1">  1        2 0.77311101E-01 0.15853030E+04</pdfrwt>
<pdfrwt beam="2">  1       -2 0.16585426E+00 0.15853030E+04</pdfrwt>
<totfact> 0.13443314E+01</totfact>
</mgrwt>
</event>
<event>
 8    2  0.4306980E-052  0.1604863E+04  0.7818608E-02  0.8817566E-01
         -2   -1    0    0    0  501 -0.00000000000E+00  0.00000000000E+00  0.34982923141E+03  0.34982923142E+03  0.25500000000E-02 0.  1.
          2   -1    0    0  501    0  0.00000000000E+00 -0.00000000000E+00 -0.18406012533E+04  0.18406012533E+04  0.25500000000E-02 0. -1.
    -200001    2    1    2    0    0  0.17505611862E+03 -0.24080168312E+02 -0.14098508588E+04  0.15473583785E+04  0.61271037870E+03 0.  0.
   -5000001    2    3    3    0    0  0.20307103423E+03  0.20327854570E+03 -0.34860162642E+03  0.45697874110E+03  0.68894584658E+02 0.  0.
     200001    1    1    2    0    0 -0.17505611862E+03  0.24080168312E+02 -0.80921163043E+02  0.64307210622E+03  0.61300000000E+03 0.  1.
         13    1    4    4    0    0  0.13420373557E+03  0.12674322439E+03 -0.25389538062E+03  0.31390661515E+03  0.10566000000E+00 0.  1.
    -200003    1    4    4    0    0  0.68867298659E+02  0.76535321306E+02 -0.94706245803E+02  0.14307212596E+03  0.30000000000E+02 0.  1.
    -200000    1    3    3    0    0 -0.28014915610E+02 -0.22735871401E+03 -0.10612492324E+04  0.10903796374E+04  0.10100000000E+03 0. -1.
<mgrwt>
<rscale>  0 0.16048628E+04</rscale>
<asrwt>0</asrwt>
<pdfrwt beam="1">  1        2 0.26294303E+00 0.16048628E+04</pdfrwt>
<pdfrwt beam="2">  1       -2 0.49975605E-01 0.16048628E+04</pdfrwt>
<totfact> 0.35272697E+01</totfact>
</mgrwt>
</event>
<event>
 8    2  0.4306980E-052  0.1300626E+04  0.7818608E-02  0.9029069E-01
          2   -1    0    0  501    0  0.00000000000E+00  0.00000000000E+00  0.14278413190E+04  0.14278413190E+04  0.25500000000E-02 0.  1.
         -2   -1    0    0    0  501 -0.00000000000E+00 -0.00000000000E+00 -0.29618641623E+03  0.29618641625E+03  0.25500000000E-02 0. -1.
    -200001    2    1    2    0    0  0.20341414939E+03  0.51122783134E+02  0.49843234861E+03  0.81808587277E+03  0.61387200127E+03 0.  0.
   -5000001    2    3    3    0    0  0.31268480760E+03  0.12323001109E+03  0.53286410661E+03  0.64918923269E+03  0.15666869243E+03 0.  0.
     200001    1    1    2    0    0 -0.20341414939E+03 -0.51122783134E+02  0.63322255419E+03  0.90594186252E+03  0.61300000000E+03 0.  1.
         13    1    4    4    0    0 -0.10988116696E+02 -0.10597819670E+02  0.73591749104E+01  0.16947598936E+02  0.10566000000E+00 0.  1.
    -200003    1    4    4    0    0  0.32367292430E+03  0.13382783076E+03  0.52550493170E+03  0.63224163376E+03  0.30000000000E+02 0.  1.
    -200000    1    3    3    0    0 -0.10927065821E+03 -0.72107227960E+02 -0.34431757999E+02  0.16889664007E+03  0.10100000000E+03 0. -1.
<mgrwt>
<rscale>  0 0.13006263E+04</rscale>
<asrwt>0</asrwt>
<pdfrwt beam="1">  1        2 0.20397734E+00 0.13006263E+04</pdfrwt>
<pdfrwt beam="2">  1       -2 0.42312344E-01 0.13006263E+04</pdfrwt>
<totfact> 0.82926138E+01</totfact>
</mgrwt>
</event>
<event>
 8    2  0.4306980E-052  0.1681923E+04  0.7818608E-02  0.8771742E-01
         -2   -1    0    0    0  501 -0.00000000000E+00  0.00000000000E+00  0.11124298756E+04  0.11124298756E+04  0.25500000000E-02 0. -1.
          2   -1    0    0  501    0  0.00000000000E+00 -0.00000000000E+00 -0.63574016927E+03  0.63574016928E+03  0.25500000000E-02 0.  1.
    -200001    2    1    2    0    0  0.55108555245E+03 -0.17858363932E+02  0.90624061832E+02  0.83776909524E+03  0.62420359585E+03 0.  0.
   -5000001    2    3    3    0    0  0.40209251324E+03 -0.26138370909E+03 -0.74773658717E+02  0.49271703333E+03  0.84729819457E+02 0.  0.
     200001    1    1    2    0    0 -0.55108555245E+03  0.17858363932E+02  0.38606564453E+03  0.91040094968E+03  0.61300000000E+03 0.  1.
         13    1    4    4    0    0  0.14779503675E+03 -0.53581150524E+02 -0.21539270933E+02  0.15867660173E+03  0.10566000000E+00 0.  1.
    -200003    1    4    4    0    0  0.25429747649E+03 -0.20780255857E+03 -0.53234387784E+02  0.33404043159E+03  0.30000000000E+02 0.  1.
    -200000    1    3    3    0    0  0.14899303921E+03  0.24352534516E+03  0.16539772055E+03  0.34505206192E+03  0.10100000000E+03 0. -1.
<mgrwt>
<rscale>  0 0.16819231E+04</rscale>
<asrwt>0</asrwt>
<pdfrwt beam="1">  1        2 0.90820024E-01 0.16819231E+04</pdfrwt>
<pdfrwt beam="2">  1       -2 0.15891855E+00 0.16819231E+04</pdfrwt>
<totfact> 0.12402697E+01</totfact>
</mgrwt>
</event>
<event>
 8    2  0.4306980E-052  0.1801157E+04  0.7818608E-02  0.8705684E-01
         -2   -1    0    0    0  501 -0.00000000000E+00  0.00000000000E+00  0.64581315840E+03  0.64581315840E+03  0.25500000000E-02 0. -1.
          2   -1    0    0  501    0  0.00000000000E+00 -0.00000000000E+00 -0.12558457669E+04  0.12558457669E+04  0.25500000000E-02 0.  1.
    -200001    2    1    2    0    0 -0.43526619037E+03  0.47979252643E+03 -0.16687265900E+03  0.90575869649E+03  0.61065113367E+03 0.  0.
   -5000001    2    3    3    0    0 -0.43080441248E+03  0.36200051855E+03  0.98648671324E+02  0.59819172584E+03  0.17738366121E+03 0.  0.
     200001    1    1    2    0    0  0.43526619037E+03 -0.47979252643E+03 -0.44315994950E+03  0.99590022881E+03  0.61300000000E+03 0. -1.
         13    1    4    4    0    0 -0.31975374472E+03  0.16919520926E+03  0.28070010506E+02  0.36284626601E+03  0.10566000000E+00 0.  1.
    -200003    1    4    4    0    0 -0.11105066775E+03  0.19280530929E+03  0.70578660818E+02  0.23534545983E+03  0.30000000000E+02 0.  1.
    -200000    1    3    3    0    0 -0.44617778946E+01  0.11779200787E+03 -0.26552133033E+03  0.30756697066E+03  0.10100000000E+03 0. -1.
<mgrwt>
<rscale>  0 0.18011571E+04</rscale>
<asrwt>0</asrwt>
<pdfrwt beam="1">  1        2 0.17940654E+00 0.18011571E+04</pdfrwt>
<pdfrwt beam="2">  1       -2 0.92259023E-01 0.18011571E+04</pdfrwt>
<totfact> 0.18777803E+01</totfact>
</mgrwt>
</event>
<event>
 8    2  0.4306980E-052  0.1472211E+04  0.7818608E-02  0.8903146E-01
         -2   -1    0    0    0  501 -0.00000000000E+00  0.00000000000E+00  0.38056576344E+03  0.38056576345E+03  0.25500000000E-02 0.  1.
          2   -1    0    0  501    0  0.00000000000E+00 -0.00000000000E+00 -0.14238044866E+04  0.14238044866E+04  0.25500000000E-02 0. -1.
    -200001    2    1    2    0    0 -0.21068899950E+03 -0.34302453252E+03 -0.44546917396E+03  0.85824493151E+03  0.61325842276E+03 0.  0.
   -5000001    2    3    3    0    0 -0.21962616514E+03 -0.37801583578E+02 -0.22763989356E+03  0.46979735861E+03  0.34528976945E+03 0.  0.
     200001    1    1    2    0    0  0.21068899950E+03  0.34302453252E+03 -0.59776954918E+03  0.94612531852E+03  0.61300000000E+03 0. -1.
         13    1    4    4    0    0 -0.17319603638E+03 -0.95262100106E+02 -0.30189002642E+03  0.36084530473E+03  0.10566000000E+00 0.  1.
    -200003    1    4    4    0    0 -0.46430128756E+02  0.57460516528E+02  0.74250132853E+02  0.10895205388E+03  0.30000000000E+02 0.  1.
    -200000    1    3    3    0    0  0.89371656360E+01 -0.30522294894E+03 -0.21782928039E+03  0.38844757289E+03  0.10100000000E+03 0.  1.
<mgrwt>
<rscale>  0 0.14722109E+04</rscale>
<asrwt>0</asrwt>
<pdfrwt beam="1">  1        2 0.20340064E+00 0.14722109E+04</pdfrwt>
<pdfrwt beam="2">  1       -2 0.54366538E-01 0.14722109E+04</pdfrwt>
<totfact> 0.49587683E+01</totfact>
</mgrwt>
</event>
<event>
 8    2  0.4306980E-052  0.1374033E+04  0.7818608E-02  0.8972832E-01
         -2   -1    0    0    0  501 -0.00000000000E+00  0.00000000000E+00  0.27704497688E+03  0.27704497690E+03  0.25500000000E-02 0. -1.
          2   -1    0    0  501    0  0.00000000000E+00 -0.00000000000E+00 -0.17036647538E+04  0.17036647538E+04  0.25500000000E-02 0.  1.
    -200001    2    1    2    0    0  0.22243634832E+03 -0.15656016623E+03 -0.49842495807E+03  0.83558806186E+03  0.61301790806E+03 0.  0.
   -5000001    2    3    3    0    0 -0.64510379379E+02  0.16563155385E+03 -0.27285264329E+03  0.33836598048E+03  0.91910669227E+02 0.  0.
     200001    1    1    2    0    0 -0.22243634832E+03  0.15656016623E+03 -0.92819481886E+03  0.11451216688E+04  0.61300000000E+03 0.  1.
         13    1    4    4    0    0 -0.27169966867E+02  0.39170137211E+02 -0.20147692510E+02  0.51753718960E+02  0.10566000000E+00 0.  1.
    -200003    1    4    4    0    0 -0.37340412512E+02  0.12646141663E+03 -0.25270495078E+03  0.28661226152E+03  0.30000000000E+02 0. -1.
    -200000    1    3    3    0    0  0.28694672770E+03 -0.32219172008E+03 -0.22557231477E+03  0.49722208138E+03  0.10100000000E+03 0. -1.
<mgrwt>
<rscale>  0 0.13740331E+04</rscale>
<asrwt>0</asrwt>
<pdfrwt beam="1">  1        2 0.24338067E+00 0.13740331E+04</pdfrwt>
<pdfrwt beam="2">  1       -2 0.39577855E-01 0.13740331E+04</pdfrwt>
<totfact> 0.67274229E+01</totfact>
</mgrwt>
</event>
<event>
 8    2  0.4306980E-052  0.1504377E+04  0.7818608E-02  0.8881547E-01
         -2   -1    0    0    0  501 -0.00000000000E+00  0.00000000000E+00  0.99231434649E+03  0.99231434650E+03  0.25500000000E-02 0. -1.
          2   -1    0    0  501    0  0.00000000000E+00 -0.00000000000E+00 -0.57016983037E+03  0.57016983038E+03  0.25500000000E-02 0.  1.
    -200001    2    1    2    0    0 -0.11247609533E+03  0.20269433052E+03 -0.17259172567E+03  0.67748922721E+03  0.61275434357E+03 0.  0.
   -5000001    2    3    3    0    0 -0.48846582680E+02  0.10268188676E+03 -0.38848239067E+03  0.41129196384E+03  0.72890007221E+02 0.  0.
     200001    1    1    2    0    0  0.11247609533E+03 -0.20269433052E+03  0.59473624179E+03  0.88499494967E+03  0.61300000000E+03 0. -1.
         13    1    4    4    0    0 -0.12739398794E+02 -0.41486634019E+01 -0.86805166288E+02  0.87833090279E+02  0.10566000000E+00 0.  1.
    -200003    1    4    4    0    0 -0.36107183886E+02  0.10683055016E+03 -0.30167722438E+03  0.32345887356E+03  0.30000000000E+02 0.  1.
    -200000    1    3    3    0    0 -0.63629512652E+02  0.10001244376E+03  0.21589066500E+03  0.26619726336E+03  0.10100000000E+03 0. -1.
<mgrwt>
<rscale>  0 0.15043772E+04</rscale>
<asrwt>0</asrwt>
<pdfrwt beam="1">  1        2 0.81452833E-01 0.15043772E+04</pdfrwt>
<pdfrwt beam="2">  1       -2 0.14175919E+00 0.15043772E+04</pdfrwt>
<totfact> 0.19382343E+01</totfact>
</mgrwt>
</event>
<event>
 8    2  0.4306980E-052  0.2154926E+04  0.7818608E-02  0.8537427E-01
          2   -1    0    0  501    0  0.00000000000E+00  0.00000000000E+00  0.22418596533E+04  0.22418596533E+04  0.25500000000E-02 0.  1.
         -2   -1    0    0    0  501 -0.00000000000E+00 -0.00000000000E+00 -0.51784079010E+03  0.51784079011E+03  0.25500000000E-02 0. -1.
    -200001    2    1    2    0    0  0.72058729115E+03 -0.38933064315E+03  0.42850332619E+03  0.11089570047E+04  0.61265499574E+03 0.  0.
   -5000001    2    3    3    0    0  0.40491834886E+02 -0.17573854965E+03 -0.95490057214E+02  0.21849561984E+03  0.78091986388E+02 0.  0.
     200001    1    1    2    0    0 -0.72058729115E+03  0.38933064315E+03  0.12955155370E+04  0.16507434387E+04  0.61300000000E+03 0.  1.
         13    1    4    4    0    0  0.38058033111E+02 -0.14713240930E+03 -0.58369714865E+02  0.16279863183E+03  0.10566000000E+00 0.  1.
    -200003    1    4    4    0    0  0.24338017753E+01 -0.28606140353E+02 -0.37120342350E+02  0.55696988008E+02  0.30000000000E+02 0. -1.
    -200000    1    3    3    0    0  0.68009545626E+03 -0.21359209350E+03  0.52399338340E+03  0.89046138484E+03  0.10100000000E+03 0.  1.
<mgrwt>
<rscale>  0 0.21549259E+04</rscale>
<asrwt>0</asrwt>
<pdfrwt beam="1">  1        2 0.32026566E+00 0.21549259E+04</pdfrwt>
<pdfrwt beam="2">  1       -2 0.73977257E-01 0.21549259E+04</pdfrwt>
<totfact> 0.91242543E+00</totfact>
</mgrwt>
</event>
<event>
 8    2  0.4306980E-052  0.1448543E+04  0.7818608E-02  0.8919411E-01
          2   -1    0    0  501    0  0.00000000000E+00  0.00000000000E+00  0.19610810111E+04  0.19610810111E+04  0.25500000000E-02 0.  1.
         -2   -1    0    0    0  501 -0.00000000000E+00 -0.00000000000E+00 -0.26748972773E+03  0.26748972774E+03  0.25500000000E-02 0. -1.
    -200001    2    1    2    0    0 -0.38485235105E+03  0.21260146290E+02  0.82160894744E+03  0.10951310536E+04  0.61294978269E+03 0.  0.
   -5000001    2    3    3    0    0 -0.44561626525E+03 -0.10164963494E+03  0.58273921603E+03  0.80177322401E+03  0.30716250537E+03 0.  0.
     200001    1    1    2    0    0  0.38485235105E+03 -0.21260146290E+02  0.87198233595E+03  0.11334396853E+04  0.61300000000E+03 0.  1.
         13    1    4    4    0    0 -0.16784686378E+03 -0.19370803659E+03  0.26019497593E+03  0.36523528004E+03  0.10566000000E+00 0.  1.
    -200003    1    4    4    0    0 -0.27776940147E+03  0.92058401652E+02  0.32254424010E+03  0.43653794397E+03  0.30000000000E+02 0.  1.
    -200000    1    3    3    0    0  0.60763914198E+02  0.12290978123E+03  0.23886973141E+03  0.29335782958E+03  0.10100000000E+03 0.  1.
<mgrwt>
<rscale>  0 0.14485428E+04</rscale>
<asrwt>0</asrwt>
<pdfrwt beam="1">  1        2 0.28015444E+00 0.14485428E+04</pdfrwt>
<pdfrwt beam="2">  1       -2 0.38212817E-01 0.14485428E+04</pdfrwt>
<totfact> 0.52756817E+01</totfact>
</mgrwt>
</event>
<event>
 8    2  0.4306980E-052  0.2045680E+04  0.7818608E-02  0.8585557E-01
         -2   -1    0    0    0  501 -0.00000000000E+00  0.00000000000E+00  0.96230666247E+03  0.96230666247E+03  0.25500000000E-02 0. -1.
          2   -1    0    0  501    0  0.00000000000E+00 -0.00000000000E+00 -0.10871812268E+04  0.10871812268E+04  0.25500000000E-02 0.  1.
    -200001    2    1    2    0    0 -0.66225034291E+02  0.78531193098E+03  0.15776647332E+03  0.10118195702E+04  0.61464461156E+03 0.  0.
   -5000001    2    3    3    0    0 -0.14636135854E+03 -0.34009659387E+02 -0.36459351127E+02  0.15997781863E+03  0.41052575614E+02 0.  0.
     200001    1    1    2    0    0  0.66225034291E+02 -0.78531193098E+03 -0.28264103760E+03  0.10376683190E+04  0.61300000000E+03 0.  1.
         13    1    4    4    0    0 -0.20640439572E+02 -0.14010717200E+02 -0.46499790586E+01  0.25376394769E+02  0.10566000000E+00 0.  1.
    -200003    1    4    4    0    0 -0.12572091897E+03 -0.19998942187E+02 -0.31809372068E+02  0.13460142386E+03  0.30000000000E+02 0.  1.
    -200000    1    3    3    0    0  0.80136324247E+02  0.81932159037E+03  0.19422582444E+03  0.85184175161E+03  0.10100000000E+03 0. -1.
<mgrwt>
<rscale>  0 0.20456801E+04</rscale>
<asrwt>0</asrwt>
<pdfrwt beam="1">  1        2 0.15531160E+00 0.20456801E+04</pdfrwt>
<pdfrwt beam="2">  1       -2 0.13747238E+00 0.20456801E+04</pdfrwt>
<totfact> 0.87018191E+00</totfact>
</mgrwt>
</event>
<event>
 8    2  0.4306980E-052  0.1676969E+04  0.7818608E-02  0.8774610E-01
          2   -1    0    0  501    0  0.00000000000E+00  0.00000000000E+00  0.13329725446E+04  0.13329725446E+04  0.25500000000E-02 0.  1.
         -2   -1    0    0    0  501 -0.00000000000E+00 -0.00000000000E+00 -0.52743522570E+03  0.52743522570E+03  0.25500000000E-02 0. -1.
    -200001    2    1    2    0    0  0.20312950964E+03  0.49856806921E+03  0.18666203132E+03  0.83639246822E+03  0.61227275755E+03 0.  0.
   -5000001    2    3    3    0    0  0.16306082907E+03 -0.87690827141E+02  0.13706922766E+02  0.21557086559E+03  0.10956460750E+03 0.  0.
     200001    1    1    2    0    0 -0.20312950964E+03 -0.49856806921E+03  0.61887528759E+03  0.10240153021E+04  0.61300000000E+03 0. -1.
         13    1    4    4    0    0  0.10160200936E+03 -0.53459042551E+02  0.56474642096E+02  0.12794621487E+03  0.10566000000E+00 0.  1.
    -200003    1    4    4    0    0  0.61458819714E+02 -0.34231784590E+02 -0.42767719331E+02  0.87624650719E+02  0.30000000000E+02 0.  1.
    -200000    1    3    3    0    0  0.40068680570E+02  0.58625889635E+03  0.17295510856E+03  0.62082160263E+03  0.10100000000E+03 0.  1.
<mgrwt>
<rscale>  0 0.16769695E+04</rscale>
<asrwt>0</asrwt>
<pdfrwt beam="1">  1        2 0.19042465E+00 0.16769695E+04</pdfrwt>
<pdfrwt beam="2">  1       -2 0.75347889E-01 0.16769695E+04</pdfrwt>
<totfact> 0.27191464E+01</totfact>
</mgrwt>
</event>
<event>
 8    2  0.4306980E-052  0.1577353E+04  0.7818608E-02  0.8834583E-01
         -2   -1    0    0    0  501 -0.00000000000E+00  0.00000000000E+00  0.96249969354E+03  0.96249969355E+03  0.25500000000E-02 0. -1.
          2   -1    0    0  501    0  0.00000000000E+00 -0.00000000000E+00 -0.64624513975E+03  0.64624513975E+03  0.25500000000E-02 0.  1.
    -200001    2    1    2    0    0  0.16866507251E+02  0.30765880179E+03 -0.23905394974E+03  0.72609260763E+03  0.61247470689E+03 0.  0.
   -5000001    2    3    3    0    0 -0.21822835655E+03  0.90370725411E+02 -0.19453840274E+03  0.38746842503E+03  0.23768909659E+03 0.  0.
     200001    1    1    2    0    0 -0.16866507251E+02 -0.30765880179E+03  0.55530850353E+03  0.88265222567E+03  0.61300000000E+03 0. -1.
         13    1    4    4    0    0 -0.20674227512E+03  0.39677664342E+01 -0.44717721547E+02  0.21156038683E+03  0.10566000000E+00 0.  1.
    -200003    1    4    4    0    0 -0.11486081427E+02  0.86402958977E+02 -0.14982068120E+03  0.17590803819E+03  0.30000000000E+02 0.  1.
    -200000    1    3    3    0    0  0.23509486380E+03  0.21728807638E+03 -0.44515546999E+02  0.33862418260E+03  0.10100000000E+03 0.  1.
<mgrwt>
<rscale>  0 0.15773532E+04</rscale>
<asrwt>0</asrwt>
<pdfrwt beam="1">  1        2 0.92320734E-01 0.15773532E+04</pdfrwt>
<pdfrwt beam="2">  1       -2 0.13749996E+00 0.15773532E+04</pdfrwt>
<totfact> 0.17977444E+01</totfact>
</mgrwt>
</event>
<event>
 8    2  0.4306980E-052  0.1696856E+04  0.7818608E-02  0.8763159E-01
         -2   -1    0    0    0  501 -0.00000000000E+00  0.00000000000E+00  0.98914966166E+03  0.98914966166E+03  0.25500000000E-02 0. -1.
          2   -1    0    0  501    0  0.00000000000E+00 -0.00000000000E+00 -0.72772657099E+03  0.72772657099E+03  0.25500000000E-02 0.  1.
    -200001    2    1    2    0    0  0.20693123576E+03  0.25786904158E+03  0.62058282038E+03  0.93324258714E+03  0.61359735214E+03 0.  0.
   -5000001    2    3    3    0    0  0.35785601954E+03  0.20151788569E+03  0.18391425871E+03  0.45697147120E+03  0.79549242331E+02 0.  0.
     200001    1    1    2    0    0 -0.20693123576E+03 -0.25786904158E+03 -0.35915972971E+03  0.78363364551E+03  0.61300000000E+03 0.  1.
         13    1    4    4    0    0  0.17263398420E+03  0.68700248613E+02  0.10781511404E+03  0.21481696078E+03  0.10566000000E+00 0.  1.
    -200003    1    4    4    0    0  0.18522203534E+03  0.13281763708E+03  0.76099144674E+02  0.24215451042E+03  0.30000000000E+02 0.  1.
    -200000    1    3    3    0    0 -0.15092478378E+03  0.56351155893E+02  0.43666856167E+03  0.47627111594E+03  0.10100000000E+03 0. -1.
<mgrwt>
<rscale>  0 0.16968565E+04</rscale>
<asrwt>0</asrwt>
<pdfrwt beam="1">  1        2 0.10396094E+00 0.16968565E+04</pdfrwt>
<pdfrwt beam="2">  1       -2 0.14130710E+00 0.16968565E+04</pdfrwt>
<totfact> 0.14341862E+01</totfact>
</mgrwt>
</event>
<event>
 8    2  0.4306980E-052  0.1340807E+04  0.7818608E-02  0.8997816E-01
         -2   -1    0    0    0  501 -0.00000000000E+00  0.00000000000E+00  0.27482858671E+03  0.27482858672E+03  0.25500000000E-02 0. -1.
          2   -1    0    0  501    0  0.00000000000E+00 -0.00000000000E+00 -0.16353508170E+04  0.16353508170E+04  0.25500000000E-02 0.  1.
    -200001    2    1    2    0    0 -0.64141516173E+02 -0.26068332782E+03 -0.72973023190E+03  0.99053954121E+03  0.61367127996E+03 0.  0.
   -5000001    2    3    3    0    0  0.14935689125E+03 -0.34352172574E+03 -0.36200873656E+03  0.54572062493E+03  0.16262231738E+03 0.  0.
     200001    1    1    2    0    0  0.64141516173E+02  0.26068332782E+03 -0.63079199841E+03  0.91963986253E+03  0.61300000000E+03 0.  1.
         13    1    4    4    0    0 -0.18134932738E+02 -0.14795771664E+03 -0.12728085668E+03  0.19601221732E+03  0.10566000000E+00 0.  1.
    -200003    1    4    4    0    0  0.16749182399E+03 -0.19556400910E+03 -0.23472787989E+03  0.34970840761E+03  0.30000000000E+02 0.  1.
    -200000    1    3    3    0    0 -0.21349840743E+03  0.82838397920E+02 -0.36772149534E+03  0.44481891628E+03  0.10100000000E+03 0.  1.
<mgrwt>
<rscale>  0 0.13408074E+04</rscale>
<asrwt>0</asrwt>
<pdfrwt beam="1">  1        2 0.23362154E+00 0.13408074E+04</pdfrwt>
<pdfrwt beam="2">  1       -2 0.39261228E-01 0.13408074E+04</pdfrwt>
<totfact> 0.74350683E+01</totfact>
</mgrwt>
</event>
<event>
 8    2  0.4306980E-052  0.2492381E+04  0.7818608E-02  0.8405705E-01
          2   -1    0    0  501    0  0.00000000000E+00  0.00000000000E+00  0.18965840666E+04  0.18965840666E+04  0.25500000000E-02 0.  1.
         -2   -1    0    0    0  501 -0.00000000000E+00 -0.00000000000E+00 -0.81883581229E+03  0.81883581230E+03  0.25500000000E-02 0. -1.
    -200001    2    1    2    0    0 -0.40632184095E+03 -0.60650683276E+03  0.14133462686E+04  0.17048047178E+04  0.61307705424E+03 0.  0.
   -5000001    2    3    3    0    0  0.10029818375E+03 -0.17237910077E+03  0.20897695152E+03  0.32428409540E+03  0.14735850236E+03 0.  0.
     200001    1    1    2    0    0  0.40632184095E+03  0.60650683276E+03 -0.33559801426E+03  0.10106151611E+04  0.61300000000E+03 0. -1.
         13    1    4    4    0    0  0.11163580351E+03 -0.99252916420E+02  0.19092874775E+03  0.24242007327E+03  0.10566000000E+00 0.  1.
    -200003    1    4    4    0    0 -0.11337619766E+02 -0.73126184351E+02  0.18048203775E+02  0.81864022130E+02  0.30000000000E+02 0.  1.
    -200000    1    3    3    0    0 -0.50662002470E+03 -0.43412773198E+03  0.12043693171E+04  0.13805206224E+04  0.10100000000E+03 0. -1.
<mgrwt>
<rscale>  0 0.24923812E+04</rscale>
<asrwt>0</asrwt>
<pdfrwt beam="1">  1        2 0.27094058E+00 0.24923812E+04</pdfrwt>
<pdfrwt beam="2">  1       -2 0.11697655E+00 0.24923812E+04</pdfrwt>
<totfact> 0.46067698E+00</totfact>
</mgrwt>
</event>
<event>
 8    2  0.4306980E-052  0.1304753E+04  0.7818608E-02  0.9025805E-01
          2   -1    0    0  501    0  0.00000000000E+00  0.00000000000E+00  0.24769829369E+04  0.24769829369E+04  0.25500000000E-02 0.  1.
         -2   -1    0    0    0  501 -0.00000000000E+00 -0.00000000000E+00 -0.17181989978E+03  0.17181989980E+03  0.25500000000E-02 0. -1.
    -200001    2    1    2    0    0 -0.18979237563E+03  0.40435408176E+02  0.13882897386E+04  0.15289448932E+04  0.61046533076E+03 0.  0.
   -5000001    2    3    3    0    0  0.16211245458E+03  0.62690110274E+02  0.25879265907E+03  0.34138565933E+03  0.13914032539E+03 0.  0.
     200001    1    1    2    0    0  0.18979237563E+03 -0.40435408176E+02  0.91687329853E+03  0.11198579435E+04  0.61300000000E+03 0. -1.
         13    1    4    4    0    0  0.76694476313E+02 -0.18371723783E+02  0.34066558594E+02  0.85907534653E+02  0.10566000000E+00 0.  1.
    -200003    1    4    4    0    0  0.85417978268E+02  0.81061834057E+02  0.22472610047E+03  0.25547812467E+03  0.30000000000E+02 0.  1.
    -200000    1    3    3    0    0 -0.35190483021E+03 -0.22254702098E+02  0.11294970795E+04  0.11875592339E+04  0.10100000000E+03 0.  1.
<mgrwt>
<rscale>  0 0.13047528E+04</rscale>
<asrwt>0</asrwt>
<pdfrwt beam="1">  1        2 0.35385470E+00 0.13047528E+04</pdfrwt>
<pdfrwt beam="2">  1       -2 0.24545700E-01 0.13047528E+04</pdfrwt>
<totfact> 0.66109300E+01</totfact>
</mgrwt>
</event>
<event>
 8    2  0.4306980E-052  0.1292065E+04  0.7818608E-02  0.9035882E-01
         -2   -1    0    0    0  501 -0.00000000000E+00  0.00000000000E+00  0.24077206521E+03  0.24077206522E+03  0.25500000000E-02 0. -1.
          2   -1    0    0  501    0  0.00000000000E+00 -0.00000000000E+00 -0.17334144888E+04  0.17334144888E+04  0.25500000000E-02 0.  1.
    -200001    2    1    2    0    0 -0.58483037911E+02 -0.10435441531E+03 -0.49826345452E+03  0.79993417746E+03  0.61426224729E+03 0.  0.
   -5000001    2    3    3    0    0  0.14655136338E+02 -0.13978861461E+03  0.94685513915E+02  0.19297927454E+03  0.92303976420E+02 0.  0.
     200001    1    1    2    0    0  0.58483037911E+02  0.10435441531E+03 -0.99437896905E+03  0.11742523765E+04  0.61300000000E+03 0.  1.
         13    1    4    4    0    0  0.46278689738E+02 -0.65009599456E+02  0.59522087259E+02  0.99553278103E+02  0.10566000000E+00 0.  1.
    -200003    1    4    4    0    0 -0.31623553400E+02 -0.74779015150E+02  0.35163426656E+02  0.93425996439E+02  0.30000000000E+02 0.  1.
    -200000    1    3    3    0    0 -0.73138174249E+02  0.35434199301E+02 -0.59294896843E+03  0.60695490292E+03  0.10100000000E+03 0.  1.
<mgrwt>
<rscale>  0 0.12920647E+04</rscale>
<asrwt>0</asrwt>
<pdfrwt beam="1">  1        2 0.24763063E+00 0.12920647E+04</pdfrwt>
<pdfrwt beam="2">  1       -2 0.34396010E-01 0.12920647E+04</pdfrwt>
<totfact> 0.85592963E+01</totfact>
</mgrwt>
</event>
<event>
 8    2  0.4306980E-052  0.1337024E+04  0.7818608E-02  0.9000709E-01
          2   -1    0    0  501    0  0.00000000000E+00  0.00000000000E+00  0.44872371292E+03  0.44872371293E+03  0.25500000000E-02 0.  1.
         -2   -1    0    0    0  501 -0.00000000000E+00 -0.00000000000E+00 -0.99595386254E+03  0.99595386254E+03  0.25500000000E-02 0. -1.
    -200001    2    1    2    0    0 -0.14017051803E+02  0.15787435204E+03 -0.50546122001E+03  0.81014275983E+03  0.61295958888E+03 0.  0.
   -5000001    2    3    3    0    0 -0.50258185511E+02 -0.21157563852E+03 -0.86554371715E+02  0.24138036406E+03  0.59014276780E+02 0.  0.
     200001    1    1    2    0    0  0.14017051803E+02 -0.15787435204E+03 -0.41768929608E+02  0.63453481564E+03  0.61300000000E+03 0.  1.
         13    1    4    4    0    0 -0.20979850373E+02 -0.54603206448E+02 -0.44654157619E+02  0.73591230678E+02  0.10566000000E+00 0.  1.
    -200003    1    4    4    0    0 -0.29278335137E+02 -0.15697243207E+03 -0.41900214096E+02  0.16778913338E+03  0.30000000000E+02 0.  1.
    -200000    1    3    3    0    0  0.36241133707E+02  0.36944999056E+03 -0.41890684830E+03  0.56876239577E+03  0.10100000000E+03 0. -1.
<mgrwt>
<rscale>  0 0.13370237E+04</rscale>
<asrwt>0</asrwt>
<pdfrwt beam="1">  1        2 0.64103388E-01 0.13370237E+04</pdfrwt>
<pdfrwt beam="2">  1       -2 0.14227912E+00 0.13370237E+04</pdfrwt>
<totfact> 0.25594028E+01</totfact>
</mgrwt>
</event>
<event>
 8    2  0.4306980E-052  0.1434275E+04  0.7818608E-02  0.8929375E-01
          2   -1    0    0  501    0  0.00000000000E+00  0.00000000000E+00  0.15104812195E+04  0.15104812195E+04  0.25500000000E-02 0.  1.
         -2   -1    0    0    0  501 -0.00000000000E+00 -0.00000000000E+00 -0.34047847071E+03  0.34047847072E+03  0.25500000000E-02 0. -1.
    -200001    2    1    2    0    0 -0.34724020944E+03  0.64869941868E+00  0.41219416880E+03  0.81625247183E+03  0.61301540039E+03 0.  0.
   -5000001    2    3    3    0    0  0.34446885876E+02  0.10213045218E+03  0.31111433940E+03  0.39625042804E+03  0.22046553548E+03 0.  0.
     200001    1    1    2    0    0  0.34724020944E+03 -0.64869941868E+00  0.75780857994E+03  0.10347072183E+04  0.61300000000E+03 0. -1.
         13    1    4    4    0    0  0.63672157167E+02 -0.43420940218E+02  0.18045227117E+03  0.19622067930E+03  0.10566000000E+00 0.  1.
    -200003    1    4    4    0    0 -0.29225271292E+02  0.14555139240E+03  0.13066206822E+03  0.20002974874E+03  0.30000000000E+02 0.  1.
    -200000    1    3    3    0    0 -0.38168709532E+03 -0.10148175276E+03  0.10107982941E+03  0.42000204379E+03  0.10100000000E+03 0. -1.
<mgrwt>
<rscale>  0 0.14342752E+04</rscale>
<asrwt>0</asrwt>
<pdfrwt beam="1">  1        2 0.21578303E+00 0.14342752E+04</pdfrwt>
<pdfrwt beam="2">  1       -2 0.48639781E-01 0.14342752E+04</pdfrwt>
<totfact> 0.56139880E+01</totfact>
</mgrwt>
</event>
<event>
 8    2  0.4306980E-052  0.2039737E+04  0.7818608E-02  0.8588265E-01
         -2   -1    0    0    0  501 -0.00000000000E+00  0.00000000000E+00  0.79535631993E+03  0.79535631994E+03  0.25500000000E-02 0. -1.
          2   -1    0    0  501    0  0.00000000000E+00 -0.00000000000E+00 -0.13077553928E+04  0.13077553928E+04  0.25500000000E-02 0.  1.
    -200001    2    1    2    0    0  0.23400602728E+03  0.23589903860E+03 -0.10235542175E+04  0.12385564750E+04  0.61314902630E+03 0.  0.
   -5000001    2    3    3    0    0 -0.97355301342E+02 -0.12326257741E+02  0.60031616518E+01  0.12428293374E+03  0.76027747174E+02 0.  0.
     200001    1    1    2    0    0 -0.23400602728E+03 -0.23589903860E+03  0.51115514461E+03  0.86455523773E+03  0.61300000000E+03 0. -1.
         13    1    4    4    0    0 -0.35772618106E+02 -0.31804964731E+02 -0.14777498987E+02  0.50096123883E+02  0.10566000000E+00 0.  1.
    -200003    1    4    4    0    0 -0.61582683236E+02  0.19478706990E+02  0.20780660638E+02  0.74186809859E+02  0.30000000000E+02 0.  1.
    -200000    1    3    3    0    0  0.33136132862E+03  0.24822529634E+03 -0.10295573791E+04  0.11142735413E+04  0.10100000000E+03 0.  1.
<mgrwt>
<rscale>  0 0.20397368E+04</rscale>
<asrwt>0</asrwt>
<pdfrwt beam="1">  1        2 0.18682220E+00 0.20397368E+04</pdfrwt>
<pdfrwt beam="2">  1       -2 0.11362233E+00 0.20397368E+04</pdfrwt>
<totfact> 0.10498809E+01</totfact>
</mgrwt>
</event>
<event>
 8    2  0.4306980E-052  0.1246694E+04  0.7818608E-02  0.9072939E-01
         -2   -1    0    0    0  501 -0.00000000000E+00  0.00000000000E+00  0.14190308686E+04  0.14190308686E+04  0.25500000000E-02 0. -1.
          2   -1    0    0  501    0  0.00000000000E+00 -0.00000000000E+00 -0.27382171963E+03  0.27382171964E+03  0.25500000000E-02 0.  1.
    -200001    2    1    2    0    0  0.40574599959E+02 -0.41423816205E+02  0.47854032586E+03  0.78534030160E+03  0.61999702832E+03 0.  0.
   -5000001    2    3    3    0    0  0.12460424239E+03  0.66183801691E+02 -0.91748561060E+02  0.19030181983E+03  0.88828325132E+02 0.  0.
     200001    1    1    2    0    0 -0.40574599959E+02  0.41423816205E+02  0.66666882309E+03  0.90751228664E+03  0.61300000000E+03 0. -1.
         13    1    4    4    0    0 -0.23929157527E+01  0.23023305093E+02 -0.34195941037E+02  0.41293730403E+02  0.10566000000E+00 0.  1.
    -200003    1    4    4    0    0  0.12699715814E+03  0.43160496598E+02 -0.57552620023E+02  0.14900808942E+03  0.30000000000E+02 0.  1.
    -200000    1    3    3    0    0 -0.84029642429E+02 -0.10760761790E+03  0.57028888692E+03  0.59503848177E+03  0.10100000000E+03 0. -1.
<mgrwt>
<rscale>  0 0.12466940E+04</rscale>
<asrwt>0</asrwt>
<pdfrwt beam="1">  1        2 0.39117388E-01 0.12466940E+04</pdfrwt>
<pdfrwt beam="2">  1       -2 0.20271870E+00 0.12466940E+04</pdfrwt>
<totfact> 0.16596321E+01</totfact>
</mgrwt>
</event>
<event>
 8    2  0.4306980E-052  0.1854121E+04  0.7818608E-02  0.8678036E-01
          2   -1    0    0  501    0  0.00000000000E+00  0.00000000000E+00  0.34276510323E+04  0.34276510323E+04  0.25500000000E-02 0.  1.
         -2   -1    0    0    0  501 -0.00000000000E+00 -0.00000000000E+00 -0.25073777679E+03  0.25073777680E+03  0.25500000000E-02 0. -1.
    -200001    2    1    2    0    0  0.67485066889E+03 -0.64766660334E+01  0.12582090578E+04  0.15540865305E+04  0.61370150617E+03 0.  0.
   -5000001    2    3    3    0    0  0.58891156362E+03  0.10595718841E+02  0.47847859488E+03  0.76297491326E+03  0.79119235895E+02 0.  0.
     200001    1    1    2    0    0 -0.67485066889E+03  0.64766660334E+01  0.19187041977E+04  0.21243022786E+04  0.61300000000E+03 0.  1.
         13    1    4    4    0    0  0.21924055748E+03 -0.19339936142E+02  0.14719875495E+03  0.26477903957E+03  0.10566000000E+00 0.  1.
    -200003    1    4    4    0    0  0.36967100615E+03  0.29935654983E+02  0.33127983992E+03  0.49819587369E+03  0.30000000000E+02 0.  1.
    -200000    1    3    3    0    0  0.85939105269E+02 -0.17072384874E+02  0.77973046289E+03  0.79111161722E+03  0.10100000000E+03 0.  1.
<mgrwt>
<rscale>  0 0.18541215E+04</rscale>
<asrwt>0</asrwt>
<pdfrwt beam="1">  1        2 0.48966442E+00 0.18541215E+04</pdfrwt>
<pdfrwt beam="2">  1       -2 0.35819683E-01 0.18541215E+04</pdfrwt>
<totfact> 0.92295461E+00</totfact>
</mgrwt>
</event>
<event>
 8    2  0.4306980E-052  0.1417702E+04  0.7818608E-02  0.8941103E-01
          2   -1    0    0  501    0  0.00000000000E+00  0.00000000000E+00  0.20058257122E+04  0.20058257122E+04  0.25500000000E-02 0.  1.
         -2   -1    0    0    0  501 -0.00000000000E+00 -0.00000000000E+00 -0.25050529241E+03  0.25050529242E+03  0.25500000000E-02 0. -1.
    -200001    2    1    2    0    0 -0.35369507342E+02  0.11679333900E+03  0.14101541356E+04  0.15423278885E+04  0.61265728055E+03 0.  0.
   -5000001    2    3    3    0    0 -0.44700597065E+02  0.12505778033E+02  0.30236139884E+01  0.12769709941E+03  0.11892379532E+03 0.  0.
     200001    1    1    2    0    0  0.35369507342E+02 -0.11679333900E+03  0.34516628420E+03  0.71400311612E+03  0.61300000000E+03 0. -1.
         13    1    4    4    0    0  0.18926233461E+02 -0.29340938749E+02  0.25005389614E+02  0.42946171814E+02  0.10566000000E+00 0.  1.
    -200003    1    4    4    0    0 -0.63626830526E+02  0.41846716782E+02 -0.21981775625E+02  0.84750927593E+02  0.30000000000E+02 0.  1.
    -200000    1    3    3    0    0  0.93310897237E+01  0.10428756096E+03  0.14071305216E+04  0.14146307891E+04  0.10100000000E+03 0.  1.
<mgrwt>
<rscale>  0 0.14177023E+04</rscale>
<asrwt>0</asrwt>
<pdfrwt beam="1">  1        2 0.28654652E+00 0.14177023E+04</pdfrwt>
<pdfrwt beam="2">  1       -2 0.35786472E-01 0.14177023E+04</pdfrwt>
<totfact> 0.56918515E+01</totfact>
</mgrwt>
</event>
<event>
 8    2  0.4306980E-052  0.1558364E+04  0.7818608E-02  0.8846543E-01
         -2   -1    0    0    0  501 -0.00000000000E+00  0.00000000000E+00  0.49187390957E+03  0.49187390957E+03  0.25500000000E-02 0.  1.
          2   -1    0    0  501    0  0.00000000000E+00 -0.00000000000E+00 -0.12343099421E+04  0.12343099421E+04  0.25500000000E-02 0. -1.
    -200001    2    1    2    0    0  0.15401854877E+03 -0.45551936350E+03 -0.36803807697E+03  0.86179827044E+03  0.61320847103E+03 0.  0.
   -5000001    2    3    3    0    0  0.94804355165E+01 -0.40393406594E+03 -0.48735983938E+03  0.64272980605E+03  0.11103775153E+03 0.  0.
     200001    1    1    2    0    0 -0.15401854877E+03  0.45551936350E+03 -0.37439795552E+03  0.86438558120E+03  0.61300000000E+03 0.  1.
         13    1    4    4    0    0 -0.18100370301E+02 -0.18060694708E+03 -0.28894431455E+03  0.34122620183E+03  0.10566000000E+00 0.  1.
    -200003    1    4    4    0    0  0.27580805817E+02 -0.22332711886E+03 -0.19841552483E+03  0.30150360423E+03  0.30000000000E+02 0.  1.
    -200000    1    3    3    0    0  0.14453811325E+03 -0.51585297553E+02  0.11932176240E+03  0.21906846439E+03  0.10100000000E+03 0.  1.
<mgrwt>
<rscale>  0 0.15583643E+04</rscale>
<asrwt>0</asrwt>
<pdfrwt beam="1">  1        2 0.17632999E+00 0.15583643E+04</pdfrwt>
<pdfrwt beam="2">  1       -2 0.70267702E-01 0.15583643E+04</pdfrwt>
<totfact> 0.36309188E+01</totfact>
</mgrwt>
</event>
<event>
 8    2  0.4306980E-052  0.1289149E+04  0.7818608E-02  0.9038215E-01
          2   -1    0    0  501    0  0.00000000000E+00  0.00000000000E+00  0.79638287730E+03  0.79638287731E+03  0.25500000000E-02 0.  1.
         -2   -1    0    0    0  501 -0.00000000000E+00 -0.00000000000E+00 -0.52170392010E+03  0.52170392011E+03  0.25500000000E-02 0. -1.
    -200001    2    1    2    0    0 -0.15607785035E+03 -0.22338000607E+02  0.21407642436E+02  0.63634297418E+03  0.61612889235E+03 0.  0.
   -5000001    2    3    3    0    0  0.17304312037E+03  0.43128510945E+01  0.16884412621E+03  0.26088405764E+03  0.97926658181E+02 0.  0.
     200001    1    1    2    0    0  0.15607785035E+03  0.22338000607E+02  0.25327131477E+03  0.68174382324E+03  0.61300000000E+03 0.  1.
         13    1    4    4    0    0  0.47360423132E+02 -0.12578465752E+02  0.10478576301E+03  0.11567754654E+03  0.10566000000E+00 0.  1.
    -200003    1    4    4    0    0  0.12568269724E+03  0.16891316847E+02  0.64058363203E+02  0.14520651110E+03  0.30000000000E+02 0.  1.
    -200000    1    3    3    0    0 -0.32912097071E+03 -0.26650851701E+02 -0.14743648378E+03  0.37545891654E+03  0.10100000000E+03 0.  1.
<mgrwt>
<rscale>  0 0.12891487E+04</rscale>
<asrwt>0</asrwt>
<pdfrwt beam="1">  1        2 0.11376898E+00 0.12891487E+04</pdfrwt>
<pdfrwt beam="2">  1       -2 0.74529132E-01 0.12891487E+04</pdfrwt>
<totfact> 0.60817971E+01</totfact>
</mgrwt>
</event>
<event>
 8    2  0.4306980E-052  0.1468511E+04  0.7818608E-02  0.8905667E-01
          2   -1    0    0  501    0  0.00000000000E+00  0.00000000000E+00  0.12019416701E+04  0.12019416701E+04  0.25500000000E-02 0.  1.
         -2   -1    0    0    0  501 -0.00000000000E+00 -0.00000000000E+00 -0.44855028940E+03  0.44855028941E+03  0.25500000000E-02 0. -1.
    -200001    2    1    2    0    0 -0.52837747084E+02 -0.28093698562E+02  0.82614520693E+03  0.10302958593E+04  0.61270920625E+03 0.  0.
   -5000001    2    3    3    0    0 -0.26753947680E+03 -0.75362339872E+02  0.66973972476E+03  0.74220762278E+03  0.15831614722E+03 0.  0.
     200001    1    1    2    0    0  0.52837747084E+02  0.28093698562E+02 -0.72753826247E+02  0.62019610016E+03  0.61300000000E+03 0. -1.
         13    1    4    4    0    0 -0.17848669800E+03 -0.86859321304E+02  0.57489730802E+03  0.60820142140E+03  0.10566000000E+00 0.  1.
    -200003    1    4    4    0    0 -0.89052778803E+02  0.11496981432E+02  0.94842416739E+02  0.13400620138E+03  0.30000000000E+02 0.  1.
    -200000    1    3    3    0    0  0.21470172972E+03  0.47268641310E+02  0.15640548217E+03  0.28808823656E+03  0.10100000000E+03 0. -1.
<mgrwt>
<rscale>  0 0.14685112E+04</rscale>
<asrwt>0</asrwt>
<pdfrwt beam="1">  1        2 0.17170595E+00 0.14685112E+04</pdfrwt>
<pdfrwt beam="2">  1       -2 0.64078612E-01 0.14685112E+04</pdfrwt>
<totfact> 0.46547154E+01</totfact>
</mgrwt>
</event>
<event>
 8    2  0.4306980E-052  0.1859666E+04  0.7818608E-02  0.8675198E-01
         -2   -1    0    0    0  501 -0.00000000000E+00  0.00000000000E+00  0.70480253468E+03  0.70480253469E+03  0.25500000000E-02 0. -1.
          2   -1    0    0  501    0  0.00000000000E+00 -0.00000000000E+00 -0.12267118736E+04  0.12267118736E+04  0.25500000000E-02 0.  1.
    -200001    2    1    2    0    0 -0.27967763977E+03  0.55445623020E+03  0.72846696796E+02  0.87551013016E+03  0.61283770558E+03 0.  0.
   -5000001    2    3    3    0    0 -0.60880355148E+02 -0.10047083587E+03  0.11210155238E+03  0.17655114901E+03  0.69301830180E+02 0.  0.
     200001    1    1    2    0    0  0.27967763977E+03 -0.55445623020E+03 -0.59475603569E+03  0.10560042781E+04  0.61300000000E+03 0.  1.
         13    1    4    4    0    0 -0.48586342801E+02 -0.72861446936E+02  0.48785865758E+02  0.10024716963E+03  0.10566000000E+00 0.  1.
    -200003    1    4    4    0    0 -0.12294012347E+02 -0.27609388939E+02  0.63315686626E+02  0.76303979386E+02  0.30000000000E+02 0.  1.
    -200000    1    3    3    0    0 -0.21879728463E+03  0.65492706607E+03 -0.39254855588E+02  0.69895898115E+03  0.10100000000E+03 0.  1.
<mgrwt>
<rscale>  0 0.18596662E+04</rscale>
<asrwt>0</asrwt>
<pdfrwt beam="1">  1        2 0.17524455E+00 0.18596662E+04</pdfrwt>
<pdfrwt beam="2">  1       -2 0.10068608E+00 0.18596662E+04</pdfrwt>
<totfact> 0.15813911E+01</totfact>
</mgrwt>
</event>
<event>
 8    2  0.4306980E-052  0.1784451E+04  0.7818608E-02  0.8714612E-01
          2   -1    0    0  501    0  0.00000000000E+00  0.00000000000E+00  0.23937696322E+04  0.23937696322E+04  0.25500000000E-02 0.  1.
         -2   -1    0    0    0  501 -0.00000000000E+00 -0.00000000000E+00 -0.33255775290E+03  0.33255775291E+03  0.25500000000E-02 0. -1.
    -200001    2    1    2    0    0  0.46403343825E+03 -0.28765500126E+03  0.49686286933E+03  0.95968388498E+03  0.61322754064E+03 0.  0.
   -5000001    2    3    3    0    0  0.47979155994E+02 -0.23013576578E+03  0.46847586180E+03  0.52676766857E+03  0.52441142798E+02 0.  0.
     200001    1    1    2    0    0 -0.46403343825E+03  0.28765500126E+03  0.15643490100E+04  0.17666435002E+04  0.61300000000E+03 0. -1.
         13    1    4    4    0    0  0.27534495244E+02 -0.10271485111E+03  0.24293311052E+03  0.26518860537E+03  0.10566000000E+00 0.  1.
    -200003    1    4    4    0    0  0.20444660750E+02 -0.12742091467E+03  0.22554275128E+03  0.26157906320E+03  0.30000000000E+02 0. -1.
    -200000    1    3    3    0    0  0.41605428225E+03 -0.57519235485E+02  0.28387007526E+02  0.43291621641E+03  0.10100000000E+03 0. -1.
<mgrwt>
<rscale>  0 0.17844513E+04</rscale>
<asrwt>0</asrwt>
<pdfrwt beam="1">  1        2 0.34196709E+00 0.17844513E+04</pdfrwt>
<pdfrwt beam="2">  1       -2 0.47508250E-01 0.17844513E+04</pdfrwt>
<totfact> 0.19957082E+01</totfact>
</mgrwt>
</event>
<event>
 8    2  0.4306980E-052  0.2189508E+04  0.7818608E-02  0.8522808E-01
          2   -1    0    0  501    0  0.00000000000E+00  0.00000000000E+00  0.22453903553E+04  0.22453903553E+04  0.25500000000E-02 0.  1.
         -2   -1    0    0    0  501 -0.00000000000E+00 -0.00000000000E+00 -0.53375393528E+03  0.53375393528E+03  0.25500000000E-02 0. -1.
    -200001    2    1    2    0    0 -0.85301461300E+03  0.27628323914E+03  0.68454119540E+03  0.12842663830E+04  0.61382174611E+03 0.  0.
   -5000001    2    3    3    0    0 -0.36027224620E+03  0.41510807613E+03  0.31164212387E+03  0.64292240899E+03  0.11881752552E+03 0.  0.
     200001    1    1    2    0    0  0.85301461300E+03 -0.27628323914E+03  0.10270952246E+04  0.14948779076E+04  0.61300000000E+03 0. -1.
         13    1    4    4    0    0 -0.22218458855E+03  0.17469076770E+03  0.17438401836E+03  0.33210337658E+03  0.10566000000E+00 0.  1.
    -200003    1    4    4    0    0 -0.13808765764E+03  0.24041730843E+03  0.13725810551E+03  0.31081903242E+03  0.30000000000E+02 0.  1.
    -200000    1    3    3    0    0 -0.49274236681E+03 -0.13882483698E+03  0.37289907153E+03  0.64134397398E+03  0.10100000000E+03 0.  1.
<mgrwt>
<rscale>  0 0.21895077E+04</rscale>
<asrwt>0</asrwt>
<pdfrwt beam="1">  1        2 0.32077005E+00 0.21895077E+04</pdfrwt>
<pdfrwt beam="2">  1       -2 0.76250562E-01 0.21895077E+04</pdfrwt>
<totfact> 0.84724962E+00</totfact>
</mgrwt>
</event>
<event>
 8    2  0.4306980E-052  0.1870721E+04  0.7818608E-02  0.8669569E-01
          2   -1    0    0  501    0  0.00000000000E+00  0.00000000000E+00  0.10186955706E+04  0.10186955706E+04  0.25500000000E-02 0.  1.
         -2   -1    0    0    0  501 -0.00000000000E+00 -0.00000000000E+00 -0.85884236870E+03  0.85884236871E+03  0.25500000000E-02 0. -1.
    -200001    2    1    2    0    0 -0.58060562860E+03 -0.27197196845E+03 -0.21785425368E+03  0.91343028476E+03  0.61304384972E+03 0.  0.
   -5000001    2    3    3    0    0 -0.58416829151E+03 -0.28647413337E+03 -0.32608033193E+03  0.76464557664E+03  0.23459423077E+03 0.  0.
     200001    1    1    2    0    0  0.58060562860E+03  0.27197196845E+03  0.37770745560E+03  0.96410765457E+03  0.61300000000E+03 0. -1.
         13    1    4    4    0    0 -0.21690568655E+03 -0.54269538334E+02 -0.22566011327E+03  0.31767240600E+03  0.10566000000E+00 0.  1.
    -200003    1    4    4    0    0 -0.36726260497E+03 -0.23220459503E+03 -0.10042021866E+03  0.44697317065E+03  0.30000000000E+02 0.  1.
    -200000    1    3    3    0    0  0.35626629098E+01  0.14502164916E+02  0.10822607825E+03  0.14878470811E+03  0.10100000000E+03 0.  1.
<mgrwt>
<rscale>  0 0.18707206E+04</rscale>
<asrwt>0</asrwt>
<pdfrwt beam="1">  1        2 0.14552794E+00 0.18707206E+04</pdfrwt>
<pdfrwt beam="2">  1       -2 0.12269177E+00 0.18707206E+04</pdfrwt>
<totfact> 0.12944263E+01</totfact>
</mgrwt>
</event>
<event>
 8    2  0.4306980E-052  0.1278270E+04  0.7818608E-02  0.9046977E-01
          2   -1    0    0  501    0  0.00000000000E+00  0.00000000000E+00  0.97701392022E+03  0.97701392022E+03  0.25500000000E-02 0.  1.
         -2   -1    0    0    0  501 -0.00000000000E+00 -0.00000000000E+00 -0.41810438173E+03  0.41810438174E+03  0.25500000000E-02 0. -1.
    -200001    2    1    2    0    0 -0.83499310229E+02 -0.15474219007E+03  0.32609080381E+03  0.71622888283E+03  0.61296926520E+03 0.  0.
   -5000001    2    3    3    0    0  0.69291367233E+01 -0.25139118111E+03  0.43541292912E+03  0.51705393820E+03  0.12047745551E+03 0.  0.
     200001    1    1    2    0    0  0.83499310229E+02  0.15474219007E+03  0.23281873468E+03  0.67888941913E+03  0.61300000000E+03 0.  1.
         13    1    4    4    0    0 -0.41633710955E+02 -0.76071768543E+02  0.20030560890E+03  0.21827191294E+03  0.10566000000E+00 0.  1.
    -200003    1    4    4    0    0  0.48562847678E+02 -0.17531941257E+03  0.23510732021E+03  0.29878202526E+03  0.30000000000E+02 0.  1.
    -200000    1    3    3    0    0 -0.90428446952E+02  0.96648991044E+02 -0.10932212531E+03  0.19917494463E+03  0.10100000000E+03 0. -1.
<mgrwt>
<rscale>  0 0.12782704E+04</rscale>
<asrwt>0</asrwt>
<pdfrwt beam="1">  1        2 0.13957342E+00 0.12782704E+04</pdfrwt>
<pdfrwt beam="2">  1       -2 0.59729196E-01 0.12782704E+04</pdfrwt>
<totfact> 0.74572227E+01</totfact>
</mgrwt>
</event>
<event>
 8    2  0.4306980E-052  0.1437116E+04  0.7818608E-02  0.8927382E-01
         -2   -1    0    0    0  501 -0.00000000000E+00  0.00000000000E+00  0.49481310358E+03  0.49481310359E+03  0.25500000000E-02 0. -1.
          2   -1    0    0  501    0  0.00000000000E+00 -0.00000000000E+00 -0.10434761886E+04  0.10434761886E+04  0.25500000000E-02 0.  1.
    -200001    2    1    2    0    0 -0.21067382661E+03  0.22614355082E+03 -0.50179863786E+03  0.85018345495E+03  0.61276885308E+03 0.  0.
   -5000001    2    3    3    0    0 -0.19401717336E+03  0.32122278327E+03 -0.57388124190E+03  0.69297529248E+03  0.10024138933E+03 0.  0.
     200001    1    1    2    0    0  0.21067382661E+03 -0.22614355082E+03 -0.46864447111E+02  0.68810583721E+03  0.61300000000E+03 0.  1.
         13    1    4    4    0    0 -0.27836314584E+02  0.21780322877E+02 -0.11037819244E+03  0.11589909148E+03  0.10566000000E+00 0.  1.
    -200003    1    4    4    0    0 -0.16618085877E+03  0.29944246039E+03 -0.46350304946E+03  0.57707620100E+03  0.30000000000E+02 0.  1.
    -200000    1    3    3    0    0 -0.16656653251E+02 -0.95079232446E+02  0.72082604040E+02  0.15720816246E+03  0.10100000000E+03 0. -1.
<mgrwt>
<rscale>  0 0.14371161E+04</rscale>
<asrwt>0</asrwt>
<pdfrwt beam="1">  1        2 0.14906803E+00 0.14371161E+04</pdfrwt>
<pdfrwt beam="2">  1       -2 0.70687587E-01 0.14371161E+04</pdfrwt>
<totfact> 0.46732022E+01</totfact>
</mgrwt>
</event>
<event>
 8    2  0.4306980E-052  0.1302019E+04  0.7818608E-02  0.9027965E-01
         -2   -1    0    0    0  501 -0.00000000000E+00  0.00000000000E+00  0.30229744990E+03  0.30229744992E+03  0.25500000000E-02 0. -1.
          2   -1    0    0  501    0  0.00000000000E+00 -0.00000000000E+00 -0.14019752007E+04  0.14019752007E+04  0.25500000000E-02 0.  1.
    -200001    2    1    2    0    0 -0.89153087478E+02  0.19964023074E+03 -0.57565188648E+03  0.86870302383E+03  0.61275227822E+03 0.  0.
   -5000001    2    3    3    0    0 -0.19429046955E+03  0.30104820993E+03 -0.13394354323E+03  0.39263085719E+03  0.88539855346E+02 0.  0.
     200001    1    1    2    0    0  0.89153087478E+02 -0.19964023074E+03 -0.52402586431E+03  0.83556962679E+03  0.61300000000E+03 0.  1.
         13    1    4    4    0    0 -0.11540905559E+03  0.13561130453E+03 -0.32504667123E+02  0.18101447616E+03  0.10566000000E+00 0.  1.
    -200003    1    4    4    0    0 -0.78881413956E+02  0.16543690540E+03 -0.10143887611E+03  0.21161638104E+03  0.30000000000E+02 0. -1.
    -200000    1    3    3    0    0  0.10513738207E+03 -0.10140797919E+03 -0.44170834325E+03  0.47607216664E+03  0.10100000000E+03 0. -1.
<mgrwt>
<rscale>  0 0.13020192E+04</rscale>
<asrwt>0</asrwt>
<pdfrwt beam="1">  1        2 0.20028217E+00 0.13020192E+04</pdfrwt>
<pdfrwt beam="2">  1       -2 0.43185351E-01 0.13020192E+04</pdfrwt>
<totfact> 0.82237048E+01</totfact>
</mgrwt>
</event>
<event>
 8    2  0.4306980E-052  0.1412574E+04  0.7818608E-02  0.8944767E-01
          2   -1    0    0  501    0  0.00000000000E+00  0.00000000000E+00  0.99417056308E+03  0.99417056309E+03  0.25500000000E-02 0.  1.
         -2   -1    0    0    0  501 -0.00000000000E+00 -0.00000000000E+00 -0.50176618670E+03  0.50176618671E+03  0.25500000000E-02 0. -1.
    -200001    2    1    2    0    0  0.86201190977E+02 -0.19177683416E+03  0.54217636900E+03  0.84597117325E+03  0.61441273702E+03 0.  0.
   -5000001    2    3    3    0    0  0.33232824381E+03 -0.52843601096E+02  0.28271935296E+03  0.44923459494E+03  0.92989144229E+02 0.  0.
     200001    1    1    2    0    0 -0.86201190977E+02  0.19177683416E+03 -0.49771992624E+02  0.64996557655E+03  0.61300000000E+03 0. -1.
         13    1    4    4    0    0  0.16989895129E+03  0.14442294632E+02  0.12972095887E+03  0.21424698798E+03  0.10566000000E+00 0.  1.
    -200003    1    4    4    0    0  0.16242929252E+03 -0.67285895729E+02  0.15299839409E+03  0.23498760696E+03  0.30000000000E+02 0.  1.
    -200000    1    3    3    0    0 -0.24612705284E+03 -0.13893323307E+03  0.25945701605E+03  0.39673657830E+03  0.10100000000E+03 0.  1.
<mgrwt>
<rscale>  0 0.14125738E+04</rscale>
<asrwt>0</asrwt>
<pdfrwt beam="1">  1        2 0.14202436E+00 0.14125738E+04</pdfrwt>
<pdfrwt beam="2">  1       -2 0.71680884E-01 0.14125738E+04</pdfrwt>
<totfact> 0.48678615E+01</totfact>
</mgrwt>
</event>
<event>
 8    2  0.4306980E-052  0.1454110E+04  0.7818608E-02  0.8915556E-01
         -2   -1    0    0    0  501 -0.00000000000E+00  0.00000000000E+00  0.36983900640E+03  0.36983900641E+03  0.25500000000E-02 0. -1.
          2   -1    0    0  501    0  0.00000000000E+00 -0.00000000000E+00 -0.14292942301E+04  0.14292942301E+04  0.25500000000E-02 0.  1.
    -200001    2    1    2    0    0  0.15646633911E+03 -0.91828972409E+02 -0.10307203941E+03  0.64876283066E+03  0.61429234871E+03 0.  0.
   -5000001    2    3    3    0    0  0.12950131228E+03 -0.19156619409E+03 -0.30722647542E+03  0.39865353494E+03  0.10520616486E+03 0.  0.
     200001    1    1    2    0    0 -0.15646633911E+03  0.91828972409E+02 -0.95638318426E+03  0.11503704058E+04  0.61300000000E+03 0.  1.
         13    1    4    4    0    0  0.10866933911E+02 -0.47153963408E+02 -0.13247187750E+03  0.14103331524E+03  0.10566000000E+00 0.  1.
    -200003    1    4    4    0    0  0.11863437837E+03 -0.14441223068E+03 -0.17475459792E+03  0.25762021970E+03  0.30000000000E+02 0.  1.
    -200000    1    3    3    0    0  0.26965026830E+02  0.99737221684E+02  0.20415443601E+03  0.25010929572E+03  0.10100000000E+03 0. -1.
<mgrwt>
<rscale>  0 0.14541097E+04</rscale>
<asrwt>0</asrwt>
<pdfrwt beam="1">  1        2 0.20418489E+00 0.14541097E+04</pdfrwt>
<pdfrwt beam="2">  1       -2 0.52834145E-01 0.14541097E+04</pdfrwt>
<totfact> 0.52317871E+01</totfact>
</mgrwt>
</event>
<event>
 8    2  0.4306980E-052  0.1289914E+04  0.7818608E-02  0.9037602E-01
         -2   -1    0    0    0  501 -0.00000000000E+00  0.00000000000E+00  0.18643154862E+04  0.18643154862E+04  0.25500000000E-02 0.  1.
          2   -1    0    0  501    0  0.00000000000E+00 -0.00000000000E+00 -0.22312169596E+03  0.22312169598E+03  0.25500000000E-02 0. -1.
    -200001    2    1    2    0    0  0.12214001507E+03 -0.93364773290E+02  0.10281426377E+04  0.12069623786E+04  0.61322568086E+03 0.  0.
   -5000001    2    3    3    0    0  0.24814618112E+03 -0.86878052633E+02  0.16892781927E+03  0.33267939485E+03  0.11408176192E+03 0.  0.
     200001    1    1    2    0    0 -0.12214001507E+03  0.93364773290E+02  0.61305115258E+03  0.88047480365E+03  0.61300000000E+03 0. -1.
         13    1    4    4    0    0 -0.12085618167E+01  0.11901182468E+02 -0.34449669544E+01  0.12449005067E+02  0.10566000000E+00 0.  1.
    -200003    1    4    4    0    0  0.24935474293E+03 -0.98779235101E+02  0.17237278623E+03  0.32023038979E+03  0.30000000000E+02 0.  1.
    -200000    1    3    3    0    0 -0.12600616605E+03 -0.64867206569E+01  0.85921481840E+03  0.87428298370E+03  0.10100000000E+03 0.  1.
<mgrwt>
<rscale>  0 0.12899135E+04</rscale>
<asrwt>0</asrwt>
<pdfrwt beam="1">  1        2 0.31874528E-01 0.12899135E+04</pdfrwt>
<pdfrwt beam="2">  1       -2 0.26633079E+00 0.12899135E+04</pdfrwt>
<totfact> 0.83618852E+00</totfact>
</mgrwt>
</event>
<event>
 8    2  0.4306980E-052  0.1430687E+04  0.7818608E-02  0.8931901E-01
         -2   -1    0    0    0  501 -0.00000000000E+00  0.00000000000E+00  0.47612227584E+03  0.47612227585E+03  0.25500000000E-02 0. -1.
          2   -1    0    0  501    0  0.00000000000E+00 -0.00000000000E+00 -0.10747579517E+04  0.10747579517E+04  0.25500000000E-02 0.  1.
    -200001    2    1    2    0    0 -0.33777856111E+03 -0.11369602962E+03 -0.20094616970E+03  0.73789370441E+03  0.61407378416E+03 0.  0.
   -5000001    2    3    3    0    0 -0.44989034837E+03 -0.11211468290E+03 -0.30030060889E+03  0.55721759064E+03  0.73075029527E+02 0.  0.
     200001    1    1    2    0    0  0.33777856111E+03  0.11369602962E+03 -0.39768950615E+03  0.81298652313E+03  0.61300000000E+03 0.  1.
         13    1    4    4    0    0 -0.35852603554E+03 -0.98265641278E+02 -0.24799785832E+03  0.44687806314E+03  0.10566000000E+00 0.  1.
    -200003    1    4    4    0    0 -0.91364312826E+02 -0.13849041623E+02 -0.52302750564E+02  0.11033952750E+03  0.30000000000E+02 0. -1.
    -200000    1    3    3    0    0  0.11211178726E+03 -0.15813467216E+01  0.99354439187E+02  0.18067611377E+03  0.10100000000E+03 0.  1.
<mgrwt>
<rscale>  0 0.14306868E+04</rscale>
<asrwt>0</asrwt>
<pdfrwt beam="1">  1        2 0.15353685E+00 0.14306868E+04</pdfrwt>
<pdfrwt beam="2">  1       -2 0.68017468E-01 0.14306868E+04</pdfrwt>
<totfact> 0.48687888E+01</totfact>
</mgrwt>
</event>
<event>
 8    2  0.4306980E-052  0.1373090E+04  0.7818608E-02  0.8973531E-01
          2   -1    0    0  501    0  0.00000000000E+00  0.00000000000E+00  0.29935093353E+04  0.29935093353E+04  0.25500000000E-02 0.  1.
         -2   -1    0    0    0  501 -0.00000000000E+00 -0.00000000000E+00 -0.15745533017E+03  0.15745533019E+03  0.25500000000E-02 0. -1.
    -200001    2    1    2    0    0  0.19346691743E+03  0.47656027159E+02  0.87480524060E+03  0.10865116480E+04  0.61279915729E+03 0.  0.
   -5000001    2    3    3    0    0  0.30370877721E+03  0.23972502842E+03  0.45901214568E+03  0.60471431853E+03  0.72664616918E+02 0.  0.
     200001    1    1    2    0    0 -0.19346691743E+03 -0.47656027159E+02  0.19612487645E+04  0.20644530175E+04  0.61300000000E+03 0.  1.
         13    1    4    4    0    0  0.11737331485E+03  0.91713474964E+02  0.22333969200E+03  0.26845574256E+03  0.10566000000E+00 0.  1.
    -200003    1    4    4    0    0  0.18633546236E+03  0.14801155345E+03  0.23567245368E+03  0.33625857597E+03  0.30000000000E+02 0. -1.
    -200000    1    3    3    0    0 -0.11024185978E+03 -0.19206900126E+03  0.41579309492E+03  0.48179732946E+03  0.10100000000E+03 0.  1.
<mgrwt>
<rscale>  0 0.13730899E+04</rscale>
<asrwt>0</asrwt>
<pdfrwt beam="1">  1        2 0.42764421E+00 0.13730899E+04</pdfrwt>
<pdfrwt beam="2">  1       -2 0.22493618E-01 0.13730899E+04</pdfrwt>
<totfact> 0.40570930E+01</totfact>
</mgrwt>
</event>
<event>
 8    2  0.4306980E-052  0.1733407E+04  0.7818608E-02  0.8742537E-01
         -2   -1    0    0    0  501 -0.00000000000E+00  0.00000000000E+00  0.80035632646E+03  0.80035632646E+03  0.25500000000E-02 0. -1.
          2   -1    0    0  501    0  0.00000000000E+00 -0.00000000000E+00 -0.93855087827E+03  0.93855087828E+03  0.25500000000E-02 0.  1.
    -200001    2    1    2    0    0  0.38826621159E+03 -0.32662906172E+03 -0.41386301123E+03  0.89676749273E+03  0.61275782242E+03 0.  0.
   -5000001    2    3    3    0    0  0.41682837213E+03 -0.24780583317E+03 -0.52782975473E+03  0.72293332751E+03  0.94205749729E+02 0.  0.
     200001    1    1    2    0    0 -0.38826621159E+03  0.32662906172E+03  0.27566845941E+03  0.84213971201E+03  0.61300000000E+03 0. -1.
         13    1    4    4    0    0  0.70790614449E+02 -0.34174262881E+02 -0.43641878297E+02  0.89910044171E+02  0.10566000000E+00 0.  1.
    -200003    1    4    4    0    0  0.34603775768E+03 -0.21363157029E+03 -0.48418787644E+03  0.63302328334E+03  0.30000000000E+02 0.  1.
    -200000    1    3    3    0    0 -0.28562160538E+02 -0.78823228548E+02  0.11396674350E+03  0.17383416522E+03  0.10100000000E+03 0. -1.
<mgrwt>
<rscale>  0 0.17334072E+04</rscale>
<asrwt>0</asrwt>
<pdfrwt beam="1">  1        2 0.13407870E+00 0.17334072E+04</pdfrwt>
<pdfrwt beam="2">  1       -2 0.11433662E+00 0.17334072E+04</pdfrwt>
<totfact> 0.17476956E+01</totfact>
</mgrwt>
</event>
<event>
 8    2  0.4306980E-052  0.1484363E+04  0.7818608E-02  0.8894918E-01
          2   -1    0    0  501    0  0.00000000000E+00  0.00000000000E+00  0.43915994496E+04  0.43915994496E+04  0.25500000000E-02 0.  1.
         -2   -1    0    0    0  501 -0.00000000000E+00 -0.00000000000E+00 -0.12542893864E+03  0.12542893866E+03  0.25500000000E-02 0. -1.
    -200001    2    1    2    0    0  0.15302635601E+02  0.14197948999E+03  0.33289418343E+04  0.33880647314E+04  0.61378867823E+03 0.  0.
   -5000001    2    3    3    0    0 -0.10475366971E+03  0.53870841741E+02  0.30519534815E+04  0.30577615404E+04  0.14700403455E+03 0.  0.
     200001    1    1    2    0    0 -0.15302635601E+02 -0.14197948999E+03  0.93722867663E+03  0.11289636569E+04  0.61300000000E+03 0. -1.
         13    1    4    4    0    0 -0.64768024960E+02 -0.43144155015E+02  0.14588107549E+04  0.14608850553E+04  0.10566000000E+00 0.  1.
    -200003    1    4    4    0    0 -0.39985644749E+02  0.97014996756E+02  0.15931427266E+04  0.15968764851E+04  0.30000000000E+02 0.  1.
    -200000    1    3    3    0    0  0.12005630531E+03  0.88108648244E+02  0.27698835287E+03  0.33030319097E+03  0.10100000000E+03 0. -1.
<mgrwt>
<rscale>  0 0.14843634E+04</rscale>
<asrwt>0</asrwt>
<pdfrwt beam="1">  1        2 0.62737137E+00 0.14843634E+04</pdfrwt>
<pdfrwt beam="2">  1       -2 0.17918419E-01 0.14843634E+04</pdfrwt>
<totfact> 0.76052211E+00</totfact>
</mgrwt>
</event>
<event>
 8    2  0.4306980E-052  0.1608600E+04  0.7818608E-02  0.8815282E-01
         -2   -1    0    0    0  501 -0.00000000000E+00  0.00000000000E+00  0.89125255617E+03  0.89125255618E+03  0.25500000000E-02 0. -1.
          2   -1    0    0  501    0  0.00000000000E+00 -0.00000000000E+00 -0.72583095433E+03  0.72583095433E+03  0.25500000000E-02 0.  1.
    -200001    2    1    2    0    0  0.23995355995E+03 -0.46112878440E+03  0.10872236911E+03  0.81135323943E+03  0.61339714611E+03 0.  0.
   -5000001    2    3    3    0    0 -0.10532738507E+03 -0.16743602551E+03 -0.15594746837E+03  0.27682027461E+03  0.11480928036E+03 0.  0.
     200001    1    1    2    0    0 -0.23995355995E+03  0.46112878440E+03  0.56699232739E+02  0.80573027108E+03  0.61300000000E+03 0. -1.
         13    1    4    4    0    0 -0.58307630502E+02 -0.31041361496E+02 -0.55881111254E+01  0.66291658965E+02  0.10566000000E+00 0.  1.
    -200003    1    4    4    0    0 -0.47019754566E+02 -0.13639466402E+03 -0.15035935725E+03  0.21052861564E+03  0.30000000000E+02 0.  1.
    -200000    1    3    3    0    0  0.34528094502E+03 -0.29369275889E+03  0.26466983748E+03  0.53453296483E+03  0.10100000000E+03 0. -1.
<mgrwt>
<rscale>  0 0.16086003E+04</rscale>
<asrwt>0</asrwt>
<pdfrwt beam="1">  1        2 0.10369014E+00 0.16086003E+04</pdfrwt>
<pdfrwt beam="2">  1       -2 0.12732179E+00 0.16086003E+04</pdfrwt>
<totfact> 0.18915097E+01</totfact>
</mgrwt>
</event>
<event>
 8    2  0.4306980E-052  0.1464610E+04  0.7818608E-02  0.8908334E-01
         -2   -1    0    0    0  501 -0.00000000000E+00  0.00000000000E+00  0.29274357930E+03  0.29274357931E+03  0.25500000000E-02 0. -1.
          2   -1    0    0  501    0  0.00000000000E+00 -0.00000000000E+00 -0.18318788198E+04  0.18318788198E+04  0.25500000000E-02 0.  1.
    -200001    2    1    2    0    0 -0.25326705616E+03  0.28244338760E+03 -0.58149031499E+03  0.92596845727E+03  0.61267293762E+03 0.  0.
   -5000001    2    3    3    0    0 -0.84396542009E+01  0.14896230303E+03 -0.60545230514E+03  0.62842378220E+03  0.77993337819E+02 0.  0.
     200001    1    1    2    0    0  0.25326705616E+03 -0.28244338760E+03 -0.95764492551E+03  0.11986539418E+04  0.61300000000E+03 0. -1.
         13    1    4    4    0    0 -0.59321754883E+01  0.95648593755E+02 -0.47152548933E+03  0.48116540030E+03  0.10566000000E+00 0.  1.
    -200003    1    4    4    0    0 -0.25074787125E+01  0.53313709271E+02 -0.13392681581E+03  0.14725838190E+03  0.30000000000E+02 0. -1.
    -200000    1    3    3    0    0 -0.24482740196E+03  0.13348108458E+03  0.23961990156E+02  0.29754467507E+03  0.10100000000E+03 0. -1.
<mgrwt>
<rscale>  0 0.14646102E+04</rscale>
<asrwt>0</asrwt>
<pdfrwt beam="1">  1        2 0.26169697E+00 0.14646102E+04</pdfrwt>
<pdfrwt beam="2">  1       -2 0.41820512E-01 0.14646102E+04</pdfrwt>
<totfact> 0.51480449E+01</totfact>
</mgrwt>
</event>
<event>
 8    2  0.4306980E-052  0.1302556E+04  0.7818608E-02  0.9027541E-01
          2   -1    0    0  501    0  0.00000000000E+00  0.00000000000E+00  0.64758642354E+03  0.64758642354E+03  0.25500000000E-02 0.  1.
         -2   -1    0    0    0  501 -0.00000000000E+00 -0.00000000000E+00 -0.65499012332E+03  0.65499012333E+03  0.25500000000E-02 0. -1.
    -200001    2    1    2    0    0 -0.18945703437E+03 -0.72595580154E+02 -0.80952313035E+02  0.65269772382E+03  0.61505849768E+03 0.  0.
   -5000001    2    3    3    0    0 -0.93606199520E+02 -0.97176989259E+02  0.25022719328E+03  0.29259705232E+03  0.69237987724E+02 0.  0.
     200001    1    1    2    0    0  0.18945703437E+03  0.72595580154E+02  0.73548613249E+02  0.64987882304E+03  0.61300000000E+03 0. -1.
         13    1    4    4    0    0 -0.48365991699E+02 -0.74494634271E+02  0.18194025825E+03  0.20246231359E+03  0.10566000000E+00 0.  1.
    -200003    1    4    4    0    0 -0.45240207822E+02 -0.22682354988E+02  0.68286935030E+02  0.90134738738E+02  0.30000000000E+02 0.  1.
    -200000    1    3    3    0    0 -0.95850834849E+02  0.24581409106E+02 -0.33117950631E+03  0.36010067150E+03  0.10100000000E+03 0. -1.
<mgrwt>
<rscale>  0 0.13025555E+04</rscale>
<asrwt>0</asrwt>
<pdfrwt beam="1">  1        2 0.92512346E-01 0.13025555E+04</pdfrwt>
<pdfrwt beam="2">  1       -2 0.93570017E-01 0.13025555E+04</pdfrwt>
<totfact> 0.46927955E+01</totfact>
</mgrwt>
</event>
<event>
 8    2  0.4306980E-052  0.1342265E+04  0.7818608E-02  0.8996704E-01
          2   -1    0    0  501    0  0.00000000000E+00  0.00000000000E+00  0.27273883107E+04  0.27273883107E+04  0.25500000000E-02 0.  1.
         -2   -1    0    0    0  501 -0.00000000000E+00 -0.00000000000E+00 -0.16514661195E+03  0.16514661197E+03  0.25500000000E-02 0. -1.
    -200001    2    1    2    0    0 -0.11758109634E+03  0.22934924333E+03  0.14767083813E+04  0.16195156876E+04  0.61297392217E+03 0.  0.
   -5000001    2    3    3    0    0 -0.30879681064E+03  0.16328404786E+03  0.12166493864E+04  0.12749003363E+04  0.15204600538E+03 0.  0.
     200001    1    1    2    0    0  0.11758109634E+03 -0.22934924333E+03  0.10855333174E+04  0.12730192351E+04  0.61300000000E+03 0.  1.
         13    1    4    4    0    0 -0.77475884687E+02 -0.20161573419E+02  0.34333082892E+03  0.35254087848E+03  0.10566000000E+00 0.  1.
    -200003    1    4    4    0    0 -0.23132092596E+03  0.18344562127E+03  0.87331855743E+03  0.92235945786E+03  0.30000000000E+02 0.  1.
    -200000    1    3    3    0    0  0.19121571430E+03  0.66065195477E+02  0.26005899495E+03  0.34461535123E+03  0.10100000000E+03 0.  1.
<mgrwt>
<rscale>  0 0.13422652E+04</rscale>
<asrwt>0</asrwt>
<pdfrwt beam="1">  1        2 0.38962684E+00 0.13422652E+04</pdfrwt>
<pdfrwt beam="2">  1       -2 0.23592377E-01 0.13422652E+04</pdfrwt>
<totfact> 0.52166059E+01</totfact>
</mgrwt>
</event>
<event>
 8    2  0.4306980E-052  0.1276967E+04  0.7818608E-02  0.9048033E-01
          2   -1    0    0  501    0  0.00000000000E+00  0.00000000000E+00  0.10163694459E+04  0.10163694459E+04  0.25500000000E-02 0.  1.
         -2   -1    0    0    0  501 -0.00000000000E+00 -0.00000000000E+00 -0.40109547879E+03  0.40109547880E+03  0.25500000000E-02 0. -1.
    -200001    2    1    2    0    0 -0.76832585094E+02  0.13367359973E+03  0.20258679841E+03  0.66257978336E+03  0.61171781160E+03 0.  0.
   -5000001    2    3    3    0    0  0.14535382003E+03  0.17092317772E+03 -0.11197293034E+03  0.26270086089E+03  0.78302870348E+02 0.  0.
     200001    1    1    2    0    0  0.76832585094E+02 -0.13367359973E+03  0.41268716869E+03  0.75488514133E+03  0.61300000000E+03 0.  1.
         13    1    4    4    0    0  0.51402503097E+02  0.16430875529E+02 -0.31869144656E+02  0.62672518223E+02  0.10566000000E+00 0.  1.
    -200003    1    4    4    0    0  0.93951316935E+02  0.15449230219E+03 -0.80103785685E+02  0.20002834267E+03  0.30000000000E+02 0. -1.
    -200000    1    3    3    0    0 -0.22218640513E+03 -0.37249577990E+02  0.31455972875E+03  0.39987892247E+03  0.10100000000E+03 0.  1.
<mgrwt>
<rscale>  0 0.12769670E+04</rscale>
<asrwt>0</asrwt>
<pdfrwt beam="1">  1        2 0.14519563E+00 0.12769670E+04</pdfrwt>
<pdfrwt beam="2">  1       -2 0.57299354E-01 0.12769670E+04</pdfrwt>
<totfact> 0.76935666E+01</totfact>
</mgrwt>
</event>
<event>
 8    2  0.4306980E-052  0.1726559E+04  0.7818608E-02  0.8746360E-01
          2   -1    0    0  501    0  0.00000000000E+00  0.00000000000E+00  0.32027891927E+04  0.32027891927E+04  0.25500000000E-02 0.  1.
         -2   -1    0    0    0  501 -0.00000000000E+00 -0.00000000000E+00 -0.23268841012E+03  0.23268841013E+03  0.25500000000E-02 0. -1.
    -200001    2    1    2    0    0  0.45413545444E+03 -0.38116158427E+03  0.12202588886E+04  0.14888808757E+04  0.61336069519E+03 0.  0.
   -5000001    2    3    3    0    0  0.26106810482E+03 -0.24339182257E+03  0.11453489755E+04  0.12204260307E+04  0.22409659993E+03 0.  0.
     200001    1    1    2    0    0 -0.45413545444E+03  0.38116158427E+03  0.17498418939E+04  0.19465967271E+04  0.61300000000E+03 0.  1.
         13    1    4    4    0    0  0.18014762031E+03 -0.47013208137E+02  0.34736193007E+03  0.39411131482E+03  0.10566000000E+00 0.  1.
    -200003    1    4    4    0    0  0.80920484513E+02 -0.19637861444E+03  0.79798704539E+03  0.82631471585E+03  0.30000000000E+02 0.  1.
    -200000    1    3    3    0    0  0.19306734962E+03 -0.13776976169E+03  0.74909913183E+02  0.26845484503E+03  0.10100000000E+03 0. -1.
<mgrwt>
<rscale>  0 0.17265595E+04</rscale>
<asrwt>0</asrwt>
<pdfrwt beam="1">  1        2 0.45754132E+00 0.17265595E+04</pdfrwt>
<pdfrwt beam="2">  1       -2 0.33241201E-01 0.17265595E+04</pdfrwt>
<totfact> 0.14599169E+01</totfact>
</mgrwt>
</event>
<event>
 8    2  0.4306980E-052  0.1243250E+04  0.7818608E-02  0.9075820E-01
         -2   -1    0    0    0  501 -0.00000000000E+00  0.00000000000E+00  0.35860957861E+03  0.35860957862E+03  0.25500000000E-02 0. -1.
          2   -1    0    0  501    0  0.00000000000E+00 -0.00000000000E+00 -0.10775432714E+04  0.10775432714E+04  0.25500000000E-02 0.  1.
    -200001    2    1    2    0    0  0.17723152803E+02 -0.19047862318E+02 -0.47348712367E+03  0.77532764659E+03  0.61340522665E+03 0.  0.
   -5000001    2    3    3    0    0 -0.16743810362E+03  0.10165404408E+03 -0.48738889768E+03  0.53191873055E+03  0.83788633464E+02 0.  0.
     200001    1    1    2    0    0 -0.17723152803E+02  0.19047862318E+02 -0.24544656914E+03  0.66082520344E+03  0.61300000000E+03 0. -1.
         13    1    4    4    0    0 -0.10438601900E+03  0.21197375957E+02 -0.24293408464E+03  0.26525977899E+03  0.10566000000E+00 0.  1.
    -200003    1    4    4    0    0 -0.63052084626E+02  0.80456668125E+02 -0.24445481305E+03  0.26665895155E+03  0.30000000000E+02 0.  1.
    -200000    1    3    3    0    0  0.18516125642E+03 -0.12070190640E+03  0.13901774016E+02  0.24340891604E+03  0.10100000000E+03 0.  1.
<mgrwt>
<rscale>  0 0.12432495E+04</rscale>
<asrwt>0</asrwt>
<pdfrwt beam="1">  1        2 0.15393475E+00 0.12432495E+04</pdfrwt>
<pdfrwt beam="2">  1       -2 0.51229940E-01 0.12432495E+04</pdfrwt>
<totfact> 0.89282961E+01</totfact>
</mgrwt>
</event>
<event>
 8    2  0.4306980E-052  0.1307219E+04  0.7818608E-02  0.9023860E-01
         -2   -1    0    0    0  501 -0.00000000000E+00  0.00000000000E+00  0.22350350848E+03  0.22350350849E+03  0.25500000000E-02 0. -1.
          2   -1    0    0  501    0  0.00000000000E+00 -0.00000000000E+00 -0.19114035711E+04  0.19114035711E+04  0.25500000000E-02 0.  1.
    -200001    2    1    2    0    0 -0.17426302456E+03 -0.98466508581E+02 -0.10185914449E+04  0.12054952867E+04  0.61288424644E+03 0.  0.
   -5000001    2    3    3    0    0 -0.28722603569E+02  0.23559577859E+03 -0.29412185805E+03  0.38828245753E+03  0.89023820405E+02 0.  0.
     200001    1    1    2    0    0  0.17426302456E+03  0.98466508581E+02 -0.66930861771E+03  0.92941179290E+03  0.61300000000E+03 0. -1.
         13    1    4    4    0    0 -0.14304498641E+02  0.15622547275E+02 -0.67343186312E+02  0.70596023765E+02  0.10566000000E+00 0.  1.
    -200003    1    4    4    0    0 -0.14418104927E+02  0.21997323131E+03 -0.22677867174E+03  0.31768643377E+03  0.30000000000E+02 0.  1.
    -200000    1    3    3    0    0 -0.14554042099E+03 -0.33406228717E+03 -0.72446958685E+03  0.81721282915E+03  0.10100000000E+03 0. -1.
<mgrwt>
<rscale>  0 0.13072190E+04</rscale>
<asrwt>0</asrwt>
<pdfrwt beam="1">  1        2 0.27305764E+00 0.13072190E+04</pdfrwt>
<pdfrwt beam="2">  1       -2 0.31929074E-01 0.13072190E+04</pdfrwt>
<totfact> 0.79689842E+01</totfact>
</mgrwt>
</event>
<event>
 8    2  0.4306980E-052  0.1501521E+04  0.7818608E-02  0.8883442E-01
          2   -1    0    0  501    0  0.00000000000E+00  0.00000000000E+00  0.25343940638E+04  0.25343940638E+04  0.25500000000E-02 0.  1.
         -2   -1    0    0    0  501 -0.00000000000E+00 -0.00000000000E+00 -0.22239691145E+03  0.22239691146E+03  0.25500000000E-02 0. -1.
    -200001    2    1    2    0    0  0.29638591603E+03 -0.23888587010E+02  0.57550514966E+03  0.89142539415E+03  0.61238695302E+03 0.  0.
   -5000001    2    3    3    0    0 -0.14153596359E+03 -0.59479348722E+02  0.34267714210E+03  0.38402796010E+03  0.80496139714E+02 0.  0.
     200001    1    1    2    0    0 -0.29638591603E+03  0.23888587010E+02  0.17364920027E+04  0.18653655811E+04  0.61300000000E+03 0.  1.
         13    1    4    4    0    0 -0.66975149018E+01 -0.43005752532E+01  0.93434054112E+02  0.93772518817E+02  0.10566000000E+00 0.  1.
    -200003    1    4    4    0    0 -0.13483844869E+03 -0.55178773468E+02  0.24924308798E+03  0.29025544128E+03  0.30000000000E+02 0.  1.
    -200000    1    3    3    0    0  0.43792187962E+03  0.35590761712E+02  0.23282800757E+03  0.50739743405E+03  0.10100000000E+03 0. -1.
<mgrwt>
<rscale>  0 0.15015211E+04</rscale>
<asrwt>0</asrwt>
<pdfrwt beam="1">  1        2 0.36205628E+00 0.15015211E+04</pdfrwt>
<pdfrwt beam="2">  1       -2 0.31770988E-01 0.15015211E+04</pdfrwt>
<totfact> 0.37722977E+01</totfact>
</mgrwt>
</event>
<event>
 8    2  0.4306980E-052  0.1356123E+04  0.7818608E-02  0.8986206E-01
          2   -1    0    0  501    0  0.00000000000E+00  0.00000000000E+00  0.26921951409E+04  0.26921951409E+04  0.25500000000E-02 0. -1.
         -2   -1    0    0    0  501 -0.00000000000E+00 -0.00000000000E+00 -0.17077794501E+03  0.17077794503E+03  0.25500000000E-02 0.  1.
    -200001    2    1    2    0    0 -0.18492306558E+03 -0.22302185542E+03  0.13043966247E+04  0.14698315429E+04  0.61238788510E+03 0.  0.
   -5000001    2    3    3    0    0 -0.11900015076E+03 -0.10756411539E+03  0.12877162730E+04  0.13020353732E+04  0.10654500705E+03 0.  0.
     200001    1    1    2    0    0  0.18492306558E+03  0.22302185542E+03  0.12170205712E+04  0.13931415430E+04  0.61300000000E+03 0. -1.
         13    1    4    4    0    0  0.18691605960E+02 -0.14218244283E+02  0.14759841832E+03  0.14945513995E+03  0.10566000000E+00 0.  1.
    -200003    1    4    4    0    0 -0.13769175672E+03 -0.93345871110E+02  0.11401178547E+04  0.11525802332E+04  0.30000000000E+02 0.  1.
    -200000    1    3    3    0    0 -0.65922914819E+02 -0.11545774003E+03  0.16680351690E+02  0.16779616969E+03  0.10100000000E+03 0.  1.
<mgrwt>
<rscale>  0 0.13561232E+04</rscale>
<asrwt>0</asrwt>
<pdfrwt beam="1">  1        2 0.38459929E+00 0.13561232E+04</pdfrwt>
<pdfrwt beam="2">  1       -2 0.24396850E-01 0.13561232E+04</pdfrwt>
<totfact> 0.51224868E+01</totfact>
</mgrwt>
</event>
<event>
 8    2  0.4306980E-052  0.1835785E+04  0.7818608E-02  0.8687498E-01
         -2   -1    0    0    0  501 -0.00000000000E+00  0.00000000000E+00  0.51256093944E+03  0.51256093945E+03  0.25500000000E-02 0. -1.
          2   -1    0    0  501    0  0.00000000000E+00 -0.00000000000E+00 -0.16437587438E+04  0.16437587438E+04  0.25500000000E-02 0.  1.
    -200001    2    1    2    0    0  0.26931289790E+03  0.60490205819E+03 -0.76298617375E+03  0.11817506801E+04  0.61314829500E+03 0.  0.
   -5000001    2    3    3    0    0  0.36375196329E+03  0.31532339800E+03 -0.70155700178E+03  0.85502590194E+03  0.84514673974E+02 0.  0.
     200001    1    1    2    0    0 -0.26931289790E+03 -0.60490205819E+03 -0.36821163065E+03  0.97456900316E+03  0.61300000000E+03 0.  1.
         13    1    4    4    0    0  0.30887413331E+03  0.25193181605E+03 -0.55002377035E+03  0.67926359337E+03  0.10566000000E+00 0.  1.
    -200003    1    4    4    0    0  0.54877829984E+02  0.63391581941E+02 -0.15153323143E+03  0.17576230857E+03  0.30000000000E+02 0. -1.
    -200000    1    3    3    0    0 -0.94439065394E+02  0.28957866020E+03 -0.61429171972E+02  0.32672477819E+03  0.10100000000E+03 0. -1.
<mgrwt>
<rscale>  0 0.18357849E+04</rscale>
<asrwt>0</asrwt>
<pdfrwt beam="1">  1        2 0.23482267E+00 0.18357849E+04</pdfrwt>
<pdfrwt beam="2">  1       -2 0.73222992E-01 0.18357849E+04</pdfrwt>
<totfact> 0.19516397E+01</totfact>
</mgrwt>
</event>
<event>
 8    2  0.4306980E-052  0.1298456E+04  0.7818608E-02  0.9030790E-01
         -2   -1    0    0    0  501 -0.00000000000E+00  0.00000000000E+00  0.41721651227E+03  0.41721651228E+03  0.25500000000E-02 0. -1.
          2   -1    0    0  501    0  0.00000000000E+00 -0.00000000000E+00 -0.10102595895E+04  0.10102595895E+04  0.25500000000E-02 0.  1.
    -200001    2    1    2    0    0 -0.14194963866E+03  0.52296823975E+02 -0.46434761858E+03  0.78310340000E+03  0.61216628991E+03 0.  0.
   -5000001    2    3    3    0    0 -0.31810753717E+03  0.11460922510E+03 -0.45115607663E+03  0.57029020181E+03  0.85798771031E+02 0.  0.
     200001    1    1    2    0    0  0.14194963866E+03 -0.52296823975E+02 -0.12869545863E+03  0.64437270177E+03  0.61300000000E+03 0. -1.
         13    1    4    4    0    0 -0.19126375338E+03  0.97894138428E+02 -0.24560837595E+03  0.32632586658E+03  0.10566000000E+00 0.  1.
    -200003    1    4    4    0    0 -0.12684378379E+03  0.16715086677E+02 -0.20554770068E+03  0.24396433523E+03  0.30000000000E+02 0. -1.
    -200000    1    3    3    0    0  0.17615789852E+03 -0.62312401130E+02 -0.13191541946E+02  0.21281319819E+03  0.10100000000E+03 0. -1.
<mgrwt>
<rscale>  0 0.12984560E+04</rscale>
<asrwt>0</asrwt>
<pdfrwt beam="1">  1        2 0.14432280E+00 0.12984560E+04</pdfrwt>
<pdfrwt beam="2">  1       -2 0.59602359E-01 0.12984560E+04</pdfrwt>
<totfact> 0.71332557E+01</totfact>
</mgrwt>
</event>
<event>
 8    2  0.4306980E-052  0.1389472E+04  0.7818608E-02  0.8961475E-01
         -2   -1    0    0    0  501 -0.00000000000E+00  0.00000000000E+00  0.53425044387E+03  0.53425044387E+03  0.25500000000E-02 0. -1.
          2   -1    0    0  501    0  0.00000000000E+00 -0.00000000000E+00 -0.90343015417E+03  0.90343015418E+03  0.25500000000E-02 0.  1.
    -200001    2    1    2    0    0  0.68453087267E+02  0.18465042917E+03  0.86564611507E+02  0.64885013907E+03  0.61215313840E+03 0.  0.
   -5000001    2    3    3    0    0  0.29084803512E+03 -0.30317012417E+02  0.11117360059E+03  0.32254182456E+03  0.78498142306E+02 0.  0.
     200001    1    1    2    0    0 -0.68453087267E+02 -0.18465042917E+03 -0.45574432182E+03  0.78883045898E+03  0.61300000000E+03 0.  1.
         13    1    4    4    0    0  0.69247584182E+02  0.10586511239E+02  0.53118010346E+02  0.87913800523E+02  0.10566000000E+00 0.  1.
    -200003    1    4    4    0    0  0.22160045094E+03 -0.40903523656E+02  0.58055590244E+02  0.23462802404E+03  0.30000000000E+02 0.  1.
    -200000    1    3    3    0    0 -0.22239494786E+03  0.21496744158E+03 -0.24608989083E+02  0.32630831451E+03  0.10100000000E+03 0. -1.
<mgrwt>
<rscale>  0 0.13894718E+04</rscale>
<asrwt>0</asrwt>
<pdfrwt beam="1">  1        2 0.12906145E+00 0.13894718E+04</pdfrwt>
<pdfrwt beam="2">  1       -2 0.76321492E-01 0.13894718E+04</pdfrwt>
<totfact> 0.48482330E+01</totfact>
</mgrwt>
</event>
<event>
 8    2  0.4306980E-052  0.1336737E+04  0.7818608E-02  0.9000930E-01
         -2   -1    0    0    0  501 -0.00000000000E+00  0.00000000000E+00  0.53496499906E+03  0.53496499907E+03  0.25500000000E-02 0. -1.
          2   -1    0    0  501    0  0.00000000000E+00 -0.00000000000E+00 -0.83503805919E+03  0.83503805920E+03  0.25500000000E-02 0.  1.
    -200001    2    1    2    0    0  0.14011612750E+03  0.17855700989E+03 -0.73865529224E+01  0.65379811101E+03  0.61309238605E+03 0.  0.
   -5000001    2    3    3    0    0 -0.19893571248E+03  0.73944316322E+02 -0.13091918661E+03  0.26474634397E+03  0.88924763744E+02 0.  0.
     200001    1    1    2    0    0 -0.14011612750E+03 -0.17855700989E+03 -0.29268650721E+03  0.71620494725E+03  0.61300000000E+03 0.  1.
         13    1    4    4    0    0 -0.18637684579E+02  0.52893459707E+01  0.11993413521E+02  0.22785820134E+02  0.10566000000E+00 0.  1.
    -200003    1    4    4    0    0 -0.18029802790E+03  0.68654970351E+02 -0.14291260013E+03  0.24196052384E+03  0.30000000000E+02 0.  1.
    -200000    1    3    3    0    0  0.33905183998E+03  0.10461269357E+03  0.12353263369E+03  0.38905176704E+03  0.10100000000E+03 0. -1.
<mgrwt>
<rscale>  0 0.13367365E+04</rscale>
<asrwt>0</asrwt>
<pdfrwt beam="1">  1        2 0.11929115E+00 0.13367365E+04</pdfrwt>
<pdfrwt beam="2">  1       -2 0.76423572E-01 0.13367365E+04</pdfrwt>
<totfact> 0.53900389E+01</totfact>
</mgrwt>
</event>
<event>
 8    2  0.4306980E-052  0.1532093E+04  0.7818608E-02  0.8863388E-01
         -2   -1    0    0    0  501 -0.00000000000E+00  0.00000000000E+00  0.63903428975E+03  0.63903428976E+03  0.25500000000E-02 0. -1.
          2   -1    0    0  501    0  0.00000000000E+00 -0.00000000000E+00 -0.91830275764E+03  0.91830275765E+03  0.25500000000E-02 0.  1.
    -200001    2    1    2    0    0 -0.15488442094E+03 -0.11061957393E+03 -0.56347830479E+03  0.85536118929E+03  0.61474310911E+03 0.  0.
   -5000001    2    3    3    0    0  0.19622633959E+03 -0.13486130300E+03 -0.17049750613E+03  0.31823798584E+03  0.12455387845E+03 0.  0.
     200001    1    1    2    0    0  0.15488442094E+03  0.11061957393E+03  0.28420983689E+03  0.70197585811E+03  0.61300000000E+03 0. -1.
         13    1    4    4    0    0  0.14242255447E+03 -0.29478071689E+02 -0.10761387842E+03  0.18092511910E+03  0.10566000000E+00 0.  1.
    -200003    1    4    4    0    0  0.53803785121E+02 -0.10538323131E+03 -0.62883627719E+02  0.13731286673E+03  0.30000000000E+02 0.  1.
    -200000    1    3    3    0    0 -0.35111076053E+03  0.24241729074E+02 -0.39298079865E+03  0.53712320346E+03  0.10100000000E+03 0.  1.
<mgrwt>
<rscale>  0 0.15320926E+04</rscale>
<asrwt>0</asrwt>
<pdfrwt beam="1">  1        2 0.13118611E+00 0.15320926E+04</pdfrwt>
<pdfrwt beam="2">  1       -2 0.91290613E-01 0.15320926E+04</pdfrwt>
<totfact> 0.31253941E+01</totfact>
</mgrwt>
</event>
<event>
 8    2  0.4306980E-052  0.2514792E+04  0.7818608E-02  0.8397735E-01
         -2   -1    0    0    0  501 -0.00000000000E+00  0.00000000000E+00  0.11943983044E+04  0.11943983044E+04  0.25500000000E-02 0. -1.
          2   -1    0    0  501    0  0.00000000000E+00 -0.00000000000E+00 -0.13237163156E+04  0.13237163156E+04  0.25500000000E-02 0.  1.
    -200001    2    1    2    0    0 -0.16412070892E+03  0.86124266717E+02  0.10189928506E+04  0.12032991076E+04  0.61255964320E+03 0.  0.
   -5000001    2    3    3    0    0 -0.13099512116E+03  0.87689708093E+02 -0.86838051837E+00  0.17791250451E+03  0.82479685385E+02 0.  0.
     200001    1    1    2    0    0  0.16412070892E+03 -0.86124266717E+02 -0.11483108617E+04  0.13148155124E+04  0.61300000000E+03 0.  1.
         13    1    4    4    0    0 -0.28389411362E+02 -0.48103698478E+01  0.19939056491E+02  0.35023927155E+02  0.10566000000E+00 0.  1.
    -200003    1    4    4    0    0 -0.10260570980E+03  0.92500077940E+02 -0.20807437010E+02  0.14288857735E+03  0.30000000000E+02 0.  1.
    -200000    1    3    3    0    0 -0.33125587755E+02 -0.15654413758E+01  0.10198612311E+04  0.10253866031E+04  0.10100000000E+03 0. -1.
<mgrwt>
<rscale>  0 0.25147919E+04</rscale>
<asrwt>0</asrwt>
<pdfrwt beam="1">  1        2 0.18910233E+00 0.25147919E+04</pdfrwt>
<pdfrwt beam="2">  1       -2 0.17062833E+00 0.25147919E+04</pdfrwt>
<totfact> 0.34432215E+00</totfact>
</mgrwt>
</event>
<event>
 8    2  0.4306980E-052  0.1617692E+04  0.7818608E-02  0.8809752E-01
          2   -1    0    0  501    0  0.00000000000E+00  0.00000000000E+00  0.11422506908E+04  0.11422506908E+04  0.25500000000E-02 0.  1.
         -2   -1    0    0    0  501 -0.00000000000E+00 -0.00000000000E+00 -0.57275704249E+03  0.57275704250E+03  0.25500000000E-02 0. -1.
    -200001    2    1    2    0    0  0.24633466472E+03 -0.45113545349E+03  0.41062612900E+03  0.89940252661E+03  0.61327573132E+03 0.  0.
   -5000001    2    3    3    0    0  0.90577427883E+02 -0.56526791695E+03  0.25846901448E+03  0.63362193375E+03  0.83297269518E+02 0.  0.
     200001    1    1    2    0    0 -0.24633466472E+03  0.45113545349E+03  0.15886751928E+03  0.81560520665E+03  0.61300000000E+03 0. -1.
         13    1    4    4    0    0 -0.18405951409E+01 -0.19678472505E+03  0.74043591197E+02  0.21026193275E+03  0.10566000000E+00 0.  1.
    -200003    1    4    4    0    0  0.92418023024E+02 -0.36848319190E+03  0.18442542328E+03  0.42336000100E+03  0.30000000000E+02 0.  1.
    -200000    1    3    3    0    0  0.15575723684E+03  0.11413246346E+03  0.15215711452E+03  0.26578059286E+03  0.10100000000E+03 0.  1.
<mgrwt>
<rscale>  0 0.16176923E+04</rscale>
<asrwt>0</asrwt>
<pdfrwt beam="1">  1        2 0.16317867E+00 0.16176923E+04</pdfrwt>
<pdfrwt beam="2">  1       -2 0.81822437E-01 0.16176923E+04</pdfrwt>
<totfact> 0.29103175E+01</totfact>
</mgrwt>
</event>
<event>
 8    2  0.4306980E-052  0.2135800E+04  0.7818608E-02  0.8545635E-01
          2   -1    0    0  501    0  0.00000000000E+00  0.00000000000E+00  0.39006007809E+04  0.39006007809E+04  0.25500000000E-02 0.  1.
         -2   -1    0    0    0  501 -0.00000000000E+00 -0.00000000000E+00 -0.29236798834E+03  0.29236798835E+03  0.25500000000E-02 0. -1.
    -200001    2    1    2    0    0  0.82932657143E+03 -0.50010252318E+02  0.23370818252E+04  0.25553249224E+04  0.61436993238E+03 0.  0.
   -5000001    2    3    3    0    0  0.17932877548E+03  0.20391472644E+03  0.10664739886E+04  0.11021833932E+04  0.60839447298E+02 0.  0.
     200001    1    1    2    0    0 -0.82932657143E+03  0.50010252318E+02  0.12711509674E+04  0.16376438469E+04  0.61300000000E+03 0. -1.
         13    1    4    4    0    0  0.13616922582E+03  0.15523134455E+03  0.77579094076E+03  0.80280160894E+03  0.10566000000E+00 0.  1.
    -200003    1    4    4    0    0  0.43159549658E+02  0.48683381890E+02  0.29068304789E+03  0.29938178423E+03  0.30000000000E+02 0. -1.
    -200000    1    3    3    0    0  0.64999779595E+03 -0.25392497876E+03  0.12706078365E+04  0.14531415292E+04  0.10100000000E+03 0. -1.
<mgrwt>
<rscale>  0 0.21358004E+04</rscale>
<asrwt>0</asrwt>
<pdfrwt beam="1">  1        2 0.55722870E+00 0.21358004E+04</pdfrwt>
<pdfrwt beam="2">  1       -2 0.41766854E-01 0.21358004E+04</pdfrwt>
<totfact> 0.33493523E+00</totfact>
</mgrwt>
</event>
<event>
 8    2  0.4306980E-052  0.1298697E+04  0.7818608E-02  0.9030599E-01
          2   -1    0    0  501    0  0.00000000000E+00  0.00000000000E+00  0.27438428400E+04  0.27438428400E+04  0.25500000000E-02 0.  1.
         -2   -1    0    0    0  501 -0.00000000000E+00 -0.00000000000E+00 -0.15367266863E+03  0.15367266865E+03  0.25500000000E-02 0. -1.
    -200001    2    1    2    0    0 -0.18942572380E+03 -0.74900753617E+02  0.11331814993E+04  0.13037535383E+04  0.61170315549E+03 0.  0.
   -5000001    2    3    3    0    0  0.13462406235E+03 -0.67357982607E+02  0.83280344116E+03  0.85044003183E+03  0.83820881354E+02 0.  0.
     200001    1    1    2    0    0  0.18942572380E+03  0.74900753617E+02  0.14569886721E+04  0.15937619704E+04  0.61300000000E+03 0.  1.
         13    1    4    4    0    0  0.69313072544E+01 -0.18947633160E+02  0.26146432993E+03  0.26224161152E+03  0.10566000000E+00 0.  1.
    -200003    1    4    4    0    0  0.12769275510E+03 -0.48410349448E+02  0.57133911123E+03  0.58819842031E+03  0.30000000000E+02 0.  1.
    -200000    1    3    3    0    0 -0.32404978615E+03 -0.75427710096E+01  0.30037805814E+03  0.45331350642E+03  0.10100000000E+03 0. -1.
<mgrwt>
<rscale>  0 0.12986973E+04</rscale>
<asrwt>0</asrwt>
<pdfrwt beam="1">  1        2 0.39197749E+00 0.12986973E+04</pdfrwt>
<pdfrwt beam="2">  1       -2 0.21953242E-01 0.12986973E+04</pdfrwt>
<totfact> 0.58357458E+01</totfact>
</mgrwt>
</event>
<event>
 8    2  0.4306980E-052  0.1634751E+04  0.7818608E-02  0.8799479E-01
          2   -1    0    0  501    0  0.00000000000E+00  0.00000000000E+00  0.22564898844E+04  0.22564898844E+04  0.25500000000E-02 0.  1.
         -2   -1    0    0    0  501 -0.00000000000E+00 -0.00000000000E+00 -0.29608053359E+03  0.29608053360E+03  0.25500000000E-02 0. -1.
    -200001    2    1    2    0    0 -0.19193102113E+03 -0.91232010236E+02  0.17560680371E+04  0.18723607672E+04  0.61383963292E+03 0.  0.
   -5000001    2    3    3    0    0  0.17790888103E+03 -0.16439927098E+03  0.62452813275E+03  0.67539854704E+03  0.86308275952E+02 0.  0.
     200001    1    1    2    0    0  0.19193102113E+03  0.91232010236E+02  0.20434131367E+03  0.68020965080E+03  0.61300000000E+03 0. -1.
         13    1    4    4    0    0  0.48111805736E+02 -0.42445609926E+02  0.85355172077E+02  0.10677964327E+03  0.10566000000E+00 0.  1.
    -200003    1    4    4    0    0  0.12979707530E+03 -0.12195366106E+03  0.53917296067E+03  0.56861890377E+03  0.30000000000E+02 0.  1.
    -200000    1    3    3    0    0 -0.36983990217E+03  0.73167260746E+02  0.11315399044E+04  0.11969622201E+04  0.10100000000E+03 0. -1.
<mgrwt>
<rscale>  0 0.16347510E+04</rscale>
<asrwt>0</asrwt>
<pdfrwt beam="1">  1        2 0.32235573E+00 0.16347510E+04</pdfrwt>
<pdfrwt beam="2">  1       -2 0.42297215E-01 0.16347510E+04</pdfrwt>
<totfact> 0.30025477E+01</totfact>
</mgrwt>
</event>
<event>
 8    2  0.4306980E-052  0.1313645E+04  0.7818608E-02  0.9018814E-01
          2   -1    0    0  501    0  0.00000000000E+00  0.00000000000E+00  0.18334340376E+04  0.18334340376E+04  0.25500000000E-02 0.  1.
         -2   -1    0    0    0  501 -0.00000000000E+00 -0.00000000000E+00 -0.23530460401E+03  0.23530460402E+03  0.25500000000E-02 0. -1.
    -200001    2    1    2    0    0 -0.17105975294E+03  0.77869518722E+02  0.57886241317E+03  0.86457944952E+03  0.61407721837E+03 0.  0.
   -5000001    2    3    3    0    0 -0.38155047701E+03  0.10792181789E+03  0.33710055913E+03  0.52714904237E+03  0.83794036896E+02 0.  0.
     200001    1    1    2    0    0  0.17105975294E+03 -0.77869518722E+02  0.10192670204E+04  0.12041591921E+04  0.61300000000E+03 0.  1.
         13    1    4    4    0    0 -0.91304863264E+02  0.52685990803E+02  0.61773181966E+02  0.12218154057E+03  0.10566000000E+00 0.  1.
    -200003    1    4    4    0    0 -0.29024561374E+03  0.55235827085E+02  0.27532737717E+03  0.40496750179E+03  0.30000000000E+02 0. -1.
    -200000    1    3    3    0    0  0.21049072406E+03 -0.30052299166E+02  0.24176185404E+03  0.33743040715E+03  0.10100000000E+03 0. -1.
<mgrwt>
<rscale>  0 0.13136445E+04</rscale>
<asrwt>0</asrwt>
<pdfrwt beam="1">  1        2 0.26191913E+00 0.13136445E+04</pdfrwt>
<pdfrwt beam="2">  1       -2 0.33614945E-01 0.13136445E+04</pdfrwt>
<totfact> 0.79264783E+01</totfact>
</mgrwt>
</event>
<event>
 8    2  0.4306980E-052  0.1485111E+04  0.7818608E-02  0.8894415E-01
         -2   -1    0    0    0  501 -0.00000000000E+00  0.00000000000E+00  0.31647256927E+03  0.31647256928E+03  0.25500000000E-02 0. -1.
          2   -1    0    0  501    0  0.00000000000E+00 -0.00000000000E+00 -0.17422945485E+04  0.17422945485E+04  0.25500000000E-02 0.  1.
    -200001    2    1    2    0    0  0.39418569770E+03 -0.14267611843E+03 -0.73060562312E+03  0.10414993945E+04  0.61253373225E+03 0.  0.
   -5000001    2    3    3    0    0  0.72101558054E+02 -0.55385090648E+02  0.78093442330E+02  0.16084447058E+03  0.10726702682E+03 0.  0.
     200001    1    1    2    0    0 -0.39418569770E+03  0.14267611843E+03 -0.69521635608E+03  0.10172677233E+04  0.61300000000E+03 0. -1.
         13    1    4    4    0    0  0.37127809592E+02  0.26826663394E+02  0.32408823335E+02  0.56111381269E+02  0.10566000000E+00 0.  1.
    -200003    1    4    4    0    0  0.34973748462E+02 -0.82211754043E+02  0.45684618995E+02  0.10473308931E+03  0.30000000000E+02 0.  1.
    -200000    1    3    3    0    0  0.32208413965E+03 -0.87291027778E+02 -0.80869906545E+03  0.88065492390E+03  0.10100000000E+03 0.  1.
<mgrwt>
<rscale>  0 0.14851107E+04</rscale>
<asrwt>0</asrwt>
<pdfrwt beam="1">  1        2 0.24889922E+00 0.14851107E+04</pdfrwt>
<pdfrwt beam="2">  1       -2 0.45210368E-01 0.14851107E+04</pdfrwt>
<totfact> 0.48987856E+01</totfact>
</mgrwt>
</event>
<event>
 8    2  0.4306980E-052  0.1284423E+04  0.7818608E-02  0.9042010E-01
          2   -1    0    0  501    0  0.00000000000E+00  0.00000000000E+00  0.33697429926E+03  0.33697429927E+03  0.25500000000E-02 0.  1.
         -2   -1    0    0    0  501 -0.00000000000E+00 -0.00000000000E+00 -0.12239386047E+04  0.12239386047E+04  0.25500000000E-02 0. -1.
    -200001    2    1    2    0    0 -0.11411543524E+03 -0.11686356218E+03 -0.57380663015E+03  0.85344124068E+03  0.61026918468E+03 0.  0.
   -5000001    2    3    3    0    0  0.41046411905E+02  0.10880965076E+03 -0.35707186279E+03  0.48987754993E+03  0.31457169405E+03 0.  0.
     200001    1    1    2    0    0  0.11411543524E+03  0.11686356218E+03 -0.31315767524E+03  0.70747166324E+03  0.61300000000E+03 0.  1.
         13    1    4    4    0    0  0.13088133746E+03 -0.31973023522E+02 -0.59401061546E+02  0.14724366202E+03  0.10566000000E+00 0.  1.
    -200003    1    4    4    0    0 -0.89834925556E+02  0.14078267429E+03 -0.29767080125E+03  0.34263388791E+03  0.30000000000E+02 0.  1.
    -200000    1    3    3    0    0 -0.15516184715E+03 -0.22567321294E+03 -0.21673476736E+03  0.36356369075E+03  0.10100000000E+03 0. -1.
<mgrwt>
<rscale>  0 0.12844234E+04</rscale>
<asrwt>0</asrwt>
<pdfrwt beam="1">  1        2 0.48139186E-01 0.12844234E+04</pdfrwt>
<pdfrwt beam="2">  1       -2 0.17484837E+00 0.12844234E+04</pdfrwt>
<totfact> 0.20252101E+01</totfact>
</mgrwt>
</event>
<event>
 8    2  0.4306980E-052  0.1746108E+04  0.7818608E-02  0.8735495E-01
         -2   -1    0    0    0  501 -0.00000000000E+00  0.00000000000E+00  0.40441963069E+03  0.40441963070E+03  0.25500000000E-02 0. -1.
          2   -1    0    0  501    0  0.00000000000E+00 -0.00000000000E+00 -0.18847339618E+04  0.18847339618E+04  0.25500000000E-02 0.  1.
    -200001    2    1    2    0    0  0.19040082864E+03 -0.58233794401E+03 -0.59978506089E+03  0.10536493423E+04  0.61242539190E+03 0.  0.
   -5000001    2    3    3    0    0 -0.43887231096E+02 -0.43295235697E+03 -0.69250254340E+02  0.44629843094E+03  0.70801548491E+02 0.  0.
     200001    1    1    2    0    0 -0.19040082864E+03  0.58233794401E+03 -0.88052927018E+03  0.12355042502E+04  0.61300000000E+03 0.  1.
         13    1    4    4    0    0 -0.35931462300E+01 -0.63524500831E+02 -0.33103281287E+02  0.71722460232E+02  0.10566000000E+00 0.  1.
    -200003    1    4    4    0    0 -0.40294084866E+02 -0.36942785614E+03 -0.36146973053E+02  0.37457597070E+03  0.30000000000E+02 0.  1.
    -200000    1    3    3    0    0  0.23428805973E+03 -0.14938558704E+03 -0.53053480655E+03  0.60735091135E+03  0.10100000000E+03 0.  1.
<mgrwt>
<rscale>  0 0.17461081E+04</rscale>
<asrwt>0</asrwt>
<pdfrwt beam="1">  1        2 0.26924771E+00 0.17461081E+04</pdfrwt>
<pdfrwt beam="2">  1       -2 0.57774234E-01 0.17461081E+04</pdfrwt>
<totfact> 0.24528864E+01</totfact>
</mgrwt>
</event>
<event>
 8    2  0.4306980E-052  0.1350953E+04  0.7818608E-02  0.8990107E-01
          2   -1    0    0  501    0  0.00000000000E+00  0.00000000000E+00  0.24931696245E+04  0.24931696245E+04  0.25500000000E-02 0.  1.
         -2   -1    0    0    0  501 -0.00000000000E+00 -0.00000000000E+00 -0.18300744482E+03  0.18300744484E+03  0.25500000000E-02 0. -1.
    -200001    2    1    2    0    0 -0.28120685286E+03 -0.90451594807E+00  0.12033130693E+04  0.13800435633E+04  0.61439383276E+03 0.  0.
   -5000001    2    3    3    0    0 -0.28881013593E+03 -0.24465332350E+03  0.87716961102E+03  0.96047015323E+03  0.99044663849E+02 0.  0.
     200001    1    1    2    0    0  0.28120685286E+03  0.90451594807E+00  0.11068491104E+04  0.12961335060E+04  0.61300000000E+03 0. -1.
         13    1    4    4    0    0 -0.24266973848E+03 -0.16425103949E+03  0.68373285675E+03  0.74388012241E+03  0.10566000000E+00 0.  1.
    -200003    1    4    4    0    0 -0.46140397450E+02 -0.80402284005E+02  0.19343675427E+03  0.21659003083E+03  0.30000000000E+02 0. -1.
    -200000    1    3    3    0    0  0.76032830669E+01  0.24374880755E+03  0.32614345828E+03  0.41957341011E+03  0.10100000000E+03 0. -1.
<mgrwt>
<rscale>  0 0.13509531E+04</rscale>
<asrwt>0</asrwt>
<pdfrwt beam="1">  1        2 0.35616709E+00 0.13509531E+04</pdfrwt>
<pdfrwt beam="2">  1       -2 0.26143921E-01 0.13509531E+04</pdfrwt>
<totfact> 0.57601041E+01</totfact>
</mgrwt>
</event>
<event>
 8    2  0.4306980E-052  0.2354681E+04  0.7818608E-02  0.8456668E-01
         -2   -1    0    0    0  501 -0.00000000000E+00  0.00000000000E+00  0.13958779786E+04  0.13958779786E+04  0.25500000000E-02 0. -1.
          2   -1    0    0  501    0  0.00000000000E+00 -0.00000000000E+00 -0.99301678760E+03  0.99301678760E+03  0.25500000000E-02 0.  1.
    -200001    2    1    2    0    0 -0.26220582107E+03  0.47922291720E+02 -0.78197109288E+03  0.10285106368E+04  0.61262296825E+03 0.  0.
   -5000001    2    3    3    0    0 -0.15399549967E+03  0.22642059943E+03 -0.96160952289E+02  0.30455782862E+03  0.92345224347E+02 0.  0.
     200001    1    1    2    0    0  0.26220582107E+03 -0.47922291720E+02  0.11848322839E+04  0.13603841295E+04  0.61300000000E+03 0. -1.
         13    1    4    4    0    0 -0.20099310697E+01 -0.67420921550E+01  0.29007154953E+01  0.76105810521E+01  0.10566000000E+00 0.  1.
    -200003    1    4    4    0    0 -0.15198556860E+03  0.23316269159E+03 -0.99061667784E+02  0.29694724756E+03  0.30000000000E+02 0.  1.
    -200000    1    3    3    0    0 -0.10821032140E+03 -0.17849830771E+03 -0.68581014060E+03  0.72395280817E+03  0.10100000000E+03 0.  1.
<mgrwt>
<rscale>  0 0.23546807E+04</rscale>
<asrwt>0</asrwt>
<pdfrwt beam="1">  1        2 0.14185954E+00 0.23546807E+04</pdfrwt>
<pdfrwt beam="2">  1       -2 0.19941114E+00 0.23546807E+04</pdfrwt>
<totfact> 0.34519443E+00</totfact>
</mgrwt>
</event>
<event>
 8    2  0.4306980E-052  0.1286688E+04  0.7818608E-02  0.9040189E-01
         -2   -1    0    0    0  501 -0.00000000000E+00  0.00000000000E+00  0.11115712177E+04  0.11115712177E+04  0.25500000000E-02 0. -1.
          2   -1    0    0  501    0  0.00000000000E+00 -0.00000000000E+00 -0.37234788556E+03  0.37234788557E+03  0.25500000000E-02 0.  1.
    -200001    2    1    2    0    0 -0.72140151130E+02 -0.17932639399E+03  0.40201378172E+03  0.75808066541E+03  0.61295110538E+03 0.  0.
   -5000001    2    3    3    0    0  0.11208241872E+03 -0.34029224146E+03  0.17121187142E+03  0.40691335330E+03  0.88902722102E+02 0.  0.
     200001    1    1    2    0    0  0.72140151130E+02  0.17932639399E+03  0.33720955042E+03  0.72583843786E+03  0.61300000000E+03 0. -1.
         13    1    4    4    0    0  0.20124882627E+02 -0.86193085809E+01  0.20462335082E+02  0.29967010231E+02  0.10566000000E+00 0.  1.
    -200003    1    4    4    0    0  0.91957536093E+02 -0.33167293288E+03  0.15074953634E+03  0.37694634307E+03  0.30000000000E+02 0.  1.
    -200000    1    3    3    0    0 -0.18422256985E+03  0.16096584747E+03  0.23080191030E+03  0.35116731211E+03  0.10100000000E+03 0.  1.
<mgrwt>
<rscale>  0 0.12866875E+04</rscale>
<asrwt>0</asrwt>
<pdfrwt beam="1">  1        2 0.53192555E-01 0.12866875E+04</pdfrwt>
<pdfrwt beam="2">  1       -2 0.15879589E+00 0.12866875E+04</pdfrwt>
<totfact> 0.23646160E+01</totfact>
</mgrwt>
</event>
<event>
 8    2  0.4306980E-052  0.1354197E+04  0.7818608E-02  0.8987657E-01
         -2   -1    0    0    0  501 -0.00000000000E+00  0.00000000000E+00  0.79925092657E+03  0.79925092658E+03  0.25500000000E-02 0. -1.
          2   -1    0    0  501    0  0.00000000000E+00 -0.00000000000E+00 -0.57361489818E+03  0.57361489819E+03  0.25500000000E-02 0.  1.
    -200001    2    1    2    0    0 -0.30371107168E+02 -0.19146353665E+03  0.32915944853E+03  0.72166171810E+03  0.61226546759E+03 0.  0.
   -5000001    2    3    3    0    0 -0.22685988743E+03  0.11157144472E+03  0.11882439331E+03  0.29168511856E+03  0.83948651826E+02 0.  0.
     200001    1    1    2    0    0  0.30371107168E+02  0.19146353665E+03 -0.10352342014E+03  0.65120410666E+03  0.61300000000E+03 0. -1.
         13    1    4    4    0    0 -0.14247979234E+02 -0.88122268214E+01 -0.30112651196E+01  0.17021725396E+02  0.10566000000E+00 0.  1.
    -200003    1    4    4    0    0 -0.21261190819E+03  0.12038367154E+03  0.12183565843E+03  0.27466339316E+03  0.30000000000E+02 0.  1.
    -200000    1    3    3    0    0  0.19648878026E+03 -0.30303498137E+03  0.21033505522E+03  0.42997659954E+03  0.10100000000E+03 0. -1.
<mgrwt>
<rscale>  0 0.13541968E+04</rscale>
<asrwt>0</asrwt>
<pdfrwt beam="1">  1        2 0.81944986E-01 0.13541968E+04</pdfrwt>
<pdfrwt beam="2">  1       -2 0.11417870E+00 0.13541968E+04</pdfrwt>
<totfact> 0.33582533E+01</totfact>
</mgrwt>
</event>
<event>
 8    2  0.4306980E-052  0.1997430E+04  0.7818608E-02  0.8607823E-01
         -2   -1    0    0    0  501 -0.00000000000E+00  0.00000000000E+00  0.15508201670E+04  0.15508201671E+04  0.25500000000E-02 0. -1.
          2   -1    0    0  501    0  0.00000000000E+00 -0.00000000000E+00 -0.64316365850E+03  0.64316365850E+03  0.25500000000E-02 0.  1.
    -200001    2    1    2    0    0  0.50507334971E+03 -0.58689931385E+03  0.28597699245E+03  0.10270201098E+04  0.61109538740E+03 0.  0.
   -5000001    2    3    3    0    0 -0.45640231551E+02  0.68594400095E+02  0.15186892183E+02  0.12342410713E+03  0.90634684675E+02 0.  0.
     200001    1    1    2    0    0 -0.50507334971E+03  0.58689931385E+03  0.62167951610E+03  0.11669637158E+04  0.61300000000E+03 0. -1.
         13    1    4    4    0    0 -0.72255243819E+01 -0.17327174571E+01 -0.27013703707E+02  0.28017170885E+02  0.10566000000E+00 0.  1.
    -200003    1    4    4    0    0 -0.38414707169E+02  0.70327117553E+02  0.42200595890E+02  0.95406936245E+02  0.30000000000E+02 0. -1.
    -200000    1    3    3    0    0  0.55071358126E+03 -0.65549371395E+03  0.27079010027E+03  0.90359600265E+03  0.10100000000E+03 0. -1.
<mgrwt>
<rscale>  0 0.19974295E+04</rscale>
<asrwt>0</asrwt>
<pdfrwt beam="1">  1        2 0.91880525E-01 0.19974295E+04</pdfrwt>
<pdfrwt beam="2">  1       -2 0.22154573E+00 0.19974295E+04</pdfrwt>
<totfact> 0.44962163E+00</totfact>
</mgrwt>
</event>
<event>
 8    2  0.4306980E-052  0.2105679E+04  0.7818608E-02  0.8558746E-01
         -2   -1    0    0    0  501 -0.00000000000E+00  0.00000000000E+00  0.64423316407E+03  0.64423316408E+03  0.25500000000E-02 0. -1.
          2   -1    0    0  501    0  0.00000000000E+00 -0.00000000000E+00 -0.17206059529E+04  0.17206059529E+04  0.25500000000E-02 0.  1.
    -200001    2    1    2    0    0  0.17985146950E+02  0.33461888702E+03  0.34684555186E+03  0.77940141390E+03  0.61226747593E+03 0.  0.
   -5000001    2    3    3    0    0 -0.57963649127E+02 -0.54779243080E+02  0.35124455891E+03  0.36998783985E+03  0.84603258699E+02 0.  0.
     200001    1    1    2    0    0 -0.17985146950E+02 -0.33461888702E+03 -0.14232183406E+04  0.15854377030E+04  0.61300000000E+03 0.  1.
         13    1    4    4    0    0  0.39710717819E+01 -0.59286475190E+00  0.15535989659E+03  0.15541180628E+03  0.10566000000E+00 0.  1.
    -200003    1    4    4    0    0 -0.61934720909E+02 -0.54186378328E+02  0.19588466232E+03  0.21457603357E+03  0.30000000000E+02 0.  1.
    -200000    1    3    3    0    0  0.75948796076E+02  0.38939813010E+03 -0.43990070473E+01  0.40941357405E+03  0.10100000000E+03 0. -1.
<mgrwt>
<rscale>  0 0.21056794E+04</rscale>
<asrwt>0</asrwt>
<pdfrwt beam="1">  1        2 0.24580085E+00 0.21056794E+04</pdfrwt>
<pdfrwt beam="2">  1       -2 0.92033310E-01 0.21056794E+04</pdfrwt>
<totfact> 0.10390407E+01</totfact>
</mgrwt>
</event>
<event>
 8    2  0.4306980E-052  0.2618036E+04  0.7818608E-02  0.8362100E-01
          2   -1    0    0  501    0  0.00000000000E+00  0.00000000000E+00  0.12236588956E+04  0.12236588957E+04  0.25500000000E-02 0.  1.
         -2   -1    0    0    0  501 -0.00000000000E+00 -0.00000000000E+00 -0.14003316206E+04  0.14003316206E+04  0.25500000000E-02 0. -1.
    -200001    2    1    2    0    0  0.83487568482E+03 -0.32374201374E+03  0.64602070163E+03  0.12622196931E+04  0.61157951754E+03 0.  0.
   -5000001    2    3    3    0    0  0.56000676561E+03  0.75252419072E+02  0.46335377914E+03  0.73466146439E+03  0.75896235149E+02 0.  0.
     200001    1    1    2    0    0 -0.83487568482E+03  0.32374201374E+03 -0.82269342662E+03  0.13617708231E+04  0.61300000000E+03 0. -1.
         13    1    4    4    0    0  0.32075403421E+03  0.21648987146E+02  0.28927444496E+03  0.43247143811E+03  0.10566000000E+00 0.  1.
    -200003    1    4    4    0    0  0.23925273140E+03  0.53603431926E+02  0.17407933418E+03  0.30219002628E+03  0.30000000000E+02 0. -1.
    -200000    1    3    3    0    0  0.27486891921E+03 -0.39899443281E+03  0.18266692249E+03  0.52755822876E+03  0.10100000000E+03 0. -1.
<mgrwt>
<rscale>  0 0.26180361E+04</rscale>
<asrwt>0</asrwt>
<pdfrwt beam="1">  1        2 0.17480841E+00 0.26180361E+04</pdfrwt>
<pdfrwt beam="2">  1       -2 0.20004737E+00 0.26180361E+04</pdfrwt>
<totfact> 0.24468012E+00</totfact>
</mgrwt>
</event>
<event>
 8    2  0.4306980E-052  0.1414622E+04  0.7818608E-02  0.8943302E-01
         -2   -1    0    0    0  501 -0.00000000000E+00  0.00000000000E+00  0.34902711976E+03  0.34902711977E+03  0.25500000000E-02 0. -1.
          2   -1    0    0  501    0  0.00000000000E+00 -0.00000000000E+00 -0.14333818242E+04  0.14333818242E+04  0.25500000000E-02 0.  1.
    -200001    2    1    2    0    0  0.17485903398E+03 -0.12105555881E+03 -0.89673912732E+03  0.11069840889E+04  0.61322310823E+03 0.  0.
   -5000001    2    3    3    0    0  0.97022040908E+02  0.21607689583E+02 -0.88096421657E+03  0.91499125634E+03  0.22634239469E+03 0.  0.
     200001    1    1    2    0    0 -0.17485903398E+03  0.12105555881E+03 -0.18761557708E+03  0.67542485507E+03  0.61300000000E+03 0. -1.
         13    1    4    4    0    0 -0.11008152880E+02 -0.38322329351E+02 -0.65104823438E+03  0.65226803923E+03  0.10566000000E+00 0.  1.
    -200003    1    4    4    0    0  0.10803019379E+03  0.59930018935E+02 -0.22991598220E+03  0.26272321711E+03  0.30000000000E+02 0.  1.
    -200000    1    3    3    0    0  0.77836993075E+02 -0.14266324839E+03 -0.15774910744E+02  0.19199283252E+03  0.10100000000E+03 0. -1.
<mgrwt>
<rscale>  0 0.14146224E+04</rscale>
<asrwt>0</asrwt>
<pdfrwt beam="1">  1        2 0.20476883E+00 0.14146224E+04</pdfrwt>
<pdfrwt beam="2">  1       -2 0.49861018E-01 0.14146224E+04</pdfrwt>
<totfact> 0.58780082E+01</totfact>
</mgrwt>
</event>
<event>
 8    2  0.4306980E-052  0.1536950E+04  0.7818608E-02  0.8860247E-01
          2   -1    0    0  501    0  0.00000000000E+00  0.00000000000E+00  0.88157621606E+03  0.88157621607E+03  0.25500000000E-02 0.  1.
         -2   -1    0    0    0  501 -0.00000000000E+00 -0.00000000000E+00 -0.66988399090E+03  0.66988399090E+03  0.25500000000E-02 0. -1.
    -200001    2    1    2    0    0  0.10735331649E+03 -0.14008692450E+03  0.53867110345E+03  0.83463856401E+03  0.61262214607E+03 0.  0.
   -5000001    2    3    3    0    0  0.64972433084E+02 -0.23722371659E+03 -0.81373876946E+01  0.26857123440E+03  0.10755362428E+03 0.  0.
     200001    1    1    2    0    0 -0.10735331649E+03  0.14008692450E+03 -0.32697887829E+03  0.71682164296E+03  0.61300000000E+03 0. -1.
         13    1    4    4    0    0 -0.66757318915E-01 -0.22667779531E+02  0.31622593204E+02  0.38907997254E+02  0.10566000000E+00 0.  1.
    -200003    1    4    4    0    0  0.65039190403E+02 -0.21455593706E+03 -0.39759980898E+02  0.22966323715E+03  0.30000000000E+02 0.  1.
    -200000    1    3    3    0    0  0.42380883403E+02  0.97136792092E+02  0.54680849114E+03  0.56606732960E+03  0.10100000000E+03 0.  1.
<mgrwt>
<rscale>  0 0.15369500E+04</rscale>
<asrwt>0</asrwt>
<pdfrwt beam="1">  1        2 0.12593946E+00 0.15369500E+04</pdfrwt>
<pdfrwt beam="2">  1       -2 0.95697712E-01 0.15369500E+04</pdfrwt>
<totfact> 0.29587681E+01</totfact>
</mgrwt>
</event>
<event>
 8    2  0.4306980E-052  0.1265079E+04  0.7818608E-02  0.9057726E-01
         -2   -1    0    0    0  501 -0.00000000000E+00  0.00000000000E+00  0.39275382432E+03  0.39275382433E+03  0.25500000000E-02 0. -1.
          2   -1    0    0  501    0  0.00000000000E+00 -0.00000000000E+00 -0.10187199562E+04  0.10187199562E+04  0.25500000000E-02 0.  1.
    -200001    2    1    2    0    0  0.90003082319E+02 -0.12210758260E+03 -0.34782074562E+03  0.72144140995E+03  0.61358587040E+03 0.  0.
   -5000001    2    3    3    0    0  0.17840435782E+03 -0.27401147442E+03 -0.38776245030E+03  0.51483570423E+03  0.88236508781E+02 0.  0.
     200001    1    1    2    0    0 -0.90003082319E+02  0.12210758260E+03 -0.27814538628E+03  0.69003237059E+03  0.61300000000E+03 0. -1.
         13    1    4    4    0    0 -0.31649631996E+01  0.36746094565E+01 -0.10348667620E+02  0.11429165860E+02  0.10566000000E+00 0.  1.
    -200003    1    4    4    0    0  0.18156932102E+03 -0.27768608388E+03 -0.37741378268E+03  0.50340653837E+03  0.30000000000E+02 0.  1.
    -200000    1    3    3    0    0 -0.88401275505E+02  0.15190389183E+03  0.39941704687E+02  0.20660570572E+03  0.10100000000E+03 0. -1.
<mgrwt>
<rscale>  0 0.12650789E+04</rscale>
<asrwt>0</asrwt>
<pdfrwt beam="1">  1        2 0.14553142E+00 0.12650789E+04</pdfrwt>
<pdfrwt beam="2">  1       -2 0.56107689E-01 0.12650789E+04</pdfrwt>
<totfact> 0.80187225E+01</totfact>
</mgrwt>
</event>
<event>
 8    2  0.4306980E-052  0.1336589E+04  0.7818608E-02  0.9001043E-01
         -2   -1    0    0    0  501 -0.00000000000E+00  0.00000000000E+00  0.18124839183E+03  0.18124839185E+03  0.25500000000E-02 0.  1.
          2   -1    0    0  501    0  0.00000000000E+00 -0.00000000000E+00 -0.24641188338E+04  0.24641188338E+04  0.25500000000E-02 0. -1.
    -200001    2    1    2    0    0  0.89097712341E+02  0.42116314392E+02 -0.65028995274E+03  0.89871321295E+03  0.61245100230E+03 0.  0.
   -5000001    2    3    3    0    0  0.17742123914E+03  0.18137748327E+02  0.37066075657E+02  0.19797408404E+03  0.77540763312E+02 0.  0.
     200001    1    1    2    0    0 -0.89097712341E+02 -0.42116314392E+02 -0.16325804892E+04  0.17466540127E+04  0.61300000000E+03 0. -1.
         13    1    4    4    0    0  0.84902825709E+02  0.29446228351E+02 -0.79315537094E+01  0.90213584818E+02  0.10566000000E+00 0.  1.
    -200003    1    4    4    0    0  0.92518413426E+02 -0.11308480024E+02  0.44997629366E+02  0.10776049922E+03  0.30000000000E+02 0. -1.
    -200000    1    3    3    0    0 -0.88323526794E+02  0.23978566065E+02 -0.68735602840E+03  0.70073912891E+03  0.10100000000E+03 0. -1.
<mgrwt>
<rscale>  0 0.13365891E+04</rscale>
<asrwt>0</asrwt>
<pdfrwt beam="1">  1        2 0.35201696E+00 0.13365891E+04</pdfrwt>
<pdfrwt beam="2">  1       -2 0.25892629E-01 0.13365891E+04</pdfrwt>
<totfact> 0.60783722E+01</totfact>
</mgrwt>
</event>
<event>
 8    2  0.4306980E-052  0.1232934E+04  0.7818608E-02  0.9084508E-01
         -2   -1    0    0    0  501 -0.00000000000E+00  0.00000000000E+00  0.53449608900E+03  0.53449608901E+03  0.25500000000E-02 0.  1.
          2   -1    0    0  501    0  0.00000000000E+00 -0.00000000000E+00 -0.71100918791E+03  0.71100918792E+03  0.25500000000E-02 0. -1.
    -200001    2    1    2    0    0  0.51348259707E+01 -0.67166785080E+02 -0.78288579284E+02  0.62104166733E+03  0.61239358868E+03 0.  0.
   -5000001    2    3    3    0    0 -0.19768705015E+02 -0.16728189371E+03  0.20202144896E+03  0.30573557357E+03  0.15584460672E+03 0.  0.
     200001    1    1    2    0    0 -0.51348259707E+01  0.67166785080E+02 -0.98224519631E+02  0.62446360960E+03  0.61300000000E+03 0.  1.
         13    1    4    4    0    0 -0.42815951783E+02 -0.94924304394E+01  0.11176490339E+03  0.12006130416E+03  0.10566000000E+00 0.  1.
    -200003    1    4    4    0    0  0.23047246769E+02 -0.15778946327E+03  0.90256545567E+02  0.18567426941E+03  0.30000000000E+02 0.  1.
    -200000    1    3    3    0    0  0.24903530986E+02  0.10011510863E+03 -0.28031002824E+03  0.31530609376E+03  0.10100000000E+03 0. -1.
<mgrwt>
<rscale>  0 0.12329341E+04</rscale>
<asrwt>0</asrwt>
<pdfrwt beam="1">  1        2 0.10157274E+00 0.12329341E+04</pdfrwt>
<pdfrwt beam="2">  1       -2 0.76356584E-01 0.12329341E+04</pdfrwt>
<totfact> 0.66786857E+01</totfact>
</mgrwt>
</event>
<event>
 8    2  0.4306980E-052  0.1624795E+04  0.7818608E-02  0.8805459E-01
         -2   -1    0    0    0  501 -0.00000000000E+00  0.00000000000E+00  0.35397388905E+03  0.35397388906E+03  0.25500000000E-02 0. -1.
          2   -1    0    0  501    0  0.00000000000E+00 -0.00000000000E+00 -0.18645147105E+04  0.18645147105E+04  0.25500000000E-02 0.  1.
    -200001    2    1    2    0    0  0.90079289766E+02  0.44981116623E+03 -0.38648799783E+03  0.85844885235E+03  0.61409860441E+03 0.  0.
   -5000001    2    3    3    0    0 -0.17962998942E+03  0.65311306705E+02 -0.68363817005E+02  0.28226552070E+03  0.19613187609E+03 0.  0.
     200001    1    1    2    0    0 -0.90079289766E+02 -0.44981116623E+03 -0.11240528236E+04  0.13600397472E+04  0.61300000000E+03 0.  1.
         13    1    4    4    0    0 -0.19884705141E+02  0.96464291103E+02 -0.62532186560E+02  0.11666638966E+03  0.10566000000E+00 0.  1.
    -200003    1    4    4    0    0 -0.15974528428E+03 -0.31152984399E+02 -0.58316304452E+01  0.16559913104E+03  0.30000000000E+02 0.  1.
    -200000    1    3    3    0    0  0.26970927919E+03  0.38449985952E+03 -0.31812418083E+03  0.57618333166E+03  0.10100000000E+03 0.  1.
<mgrwt>
<rscale>  0 0.16247948E+04</rscale>
<asrwt>0</asrwt>
<pdfrwt beam="1">  1        2 0.26635924E+00 0.16247948E+04</pdfrwt>
<pdfrwt beam="2">  1       -2 0.50567700E-01 0.16247948E+04</pdfrwt>
<totfact> 0.33419322E+01</totfact>
</mgrwt>
</event>
<event>
 8    2  0.4306980E-052  0.1618949E+04  0.7818608E-02  0.8808991E-01
          2   -1    0    0  501    0  0.00000000000E+00  0.00000000000E+00  0.10414884149E+04  0.10414884149E+04  0.25500000000E-02 0. -1.
         -2   -1    0    0    0  501 -0.00000000000E+00 -0.00000000000E+00 -0.62914646086E+03  0.62914646086E+03  0.25500000000E-02 0.  1.
    -200001    2    1    2    0    0 -0.34301028472E+02 -0.30631287235E+03 -0.23569839369E+03  0.72685024534E+03  0.61461647394E+03 0.  0.
   -5000001    2    3    3    0    0 -0.27471232205E+03 -0.20343055844E+02 -0.38771721098E+02  0.29261823315E+03  0.90782620619E+02 0.  0.
     200001    1    1    2    0    0  0.34301028472E+02  0.30631287235E+03  0.64804034770E+03  0.94378463040E+03  0.61300000000E+03 0. -1.
         13    1    4    4    0    0 -0.13087868070E+03 -0.10073671437E+02 -0.59059658182E+02  0.14394013445E+03  0.10566000000E+00 0.  1.
    -200003    1    4    4    0    0 -0.14383364135E+03 -0.10269384406E+02  0.20287937084E+02  0.14867809870E+03  0.30000000000E+02 0. -1.
    -200000    1    3    3    0    0  0.24041129358E+03 -0.28596981651E+03 -0.19692667259E+03  0.43423201219E+03  0.10100000000E+03 0. -1.
<mgrwt>
<rscale>  0 0.16189487E+04</rscale>
<asrwt>0</asrwt>
<pdfrwt beam="1">  1        2 0.14878406E+00 0.16189487E+04</pdfrwt>
<pdfrwt beam="2">  1       -2 0.89878066E-01 0.16189487E+04</pdfrwt>
<totfact> 0.26956659E+01</totfact>
</mgrwt>
</event>
<event>
 8    2  0.4306980E-052  0.1471140E+04  0.7818608E-02  0.8903875E-01
         -2   -1    0    0    0  501 -0.00000000000E+00  0.00000000000E+00  0.11918262860E+04  0.11918262860E+04  0.25500000000E-02 0.  1.
          2   -1    0    0  501    0  0.00000000000E+00 -0.00000000000E+00 -0.45397818165E+03  0.45397818166E+03  0.25500000000E-02 0. -1.
    -200001    2    1    2    0    0 -0.18756273813E+02  0.72585210326E+02 -0.77505745731E+02  0.62296952917E+03  0.61356620106E+03 0.  0.
   -5000001    2    3    3    0    0  0.16793831575E+03  0.21046848657E+02 -0.24325557653E+03  0.34877055232E+03  0.18390588605E+03 0.  0.
     200001    1    1    2    0    0  0.18756273813E+02 -0.72585210326E+02  0.81535385009E+03  0.10228349385E+04  0.61300000000E+03 0.  1.
         13    1    4    4    0    0  0.13646891083E+03 -0.66720950755E+02 -0.15225727671E+03  0.21507612227E+03  0.10566000000E+00 0.  1.
    -200003    1    4    4    0    0  0.31469404917E+02  0.87767799412E+02 -0.90998299814E+02  0.13369443006E+03  0.30000000000E+02 0.  1.
    -200000    1    3    3    0    0 -0.18669458956E+03  0.51538361668E+02  0.16574983080E+03  0.27419897685E+03  0.10100000000E+03 0.  1.
<mgrwt>
<rscale>  0 0.14711399E+04</rscale>
<asrwt>0</asrwt>
<pdfrwt beam="1">  1        2 0.64854027E-01 0.14711399E+04</pdfrwt>
<pdfrwt beam="2">  1       -2 0.17026090E+00 0.14711399E+04</pdfrwt>
<totfact> 0.15418952E+01</totfact>
</mgrwt>
</event>
<event>
 8    2  0.4306980E-052  0.1769193E+04  0.7818608E-02  0.8722856E-01
         -2   -1    0    0    0  501 -0.00000000000E+00  0.00000000000E+00  0.34791215459E+03  0.34791215460E+03  0.25500000000E-02 0. -1.
          2   -1    0    0  501    0  0.00000000000E+00 -0.00000000000E+00 -0.22491629629E+04  0.22491629629E+04  0.25500000000E-02 0.  1.
    -200001    2    1    2    0    0  0.49289029314E+03  0.14415488419E+02 -0.15451295470E+04  0.17335127282E+04  0.61195785360E+03 0.  0.
   -5000001    2    3    3    0    0  0.20053334248E+03  0.18936350998E+03 -0.54561054004E+03  0.67270235776E+03  0.28065181342E+03 0.  0.
     200001    1    1    2    0    0 -0.49289029314E+03 -0.14415488419E+02 -0.35612126129E+03  0.86356238924E+03  0.61300000000E+03 0. -1.
         13    1    4    4    0    0  0.16160306540E+03  0.23830420994E+02 -0.44225517563E+03  0.47145847245E+03  0.10566000000E+00 0.  1.
    -200003    1    4    4    0    0  0.38930277073E+02  0.16553308898E+03 -0.10335536441E+03  0.20124388531E+03  0.30000000000E+02 0.  1.
    -200000    1    3    3    0    0  0.29235695066E+03 -0.17494802156E+03 -0.99951900694E+03  0.10608103705E+04  0.10100000000E+03 0.  1.
<mgrwt>
<rscale>  0 0.17691932E+04</rscale>
<asrwt>0</asrwt>
<pdfrwt beam="1">  1        2 0.32130899E+00 0.17691932E+04</pdfrwt>
<pdfrwt beam="2">  1       -2 0.49701738E-01 0.17691932E+04</pdfrwt>
<totfact> 0.21681045E+01</totfact>
</mgrwt>
</event>
<event>
 8    2  0.4306980E-052  0.1253180E+04  0.7818608E-02  0.9067541E-01
          2   -1    0    0  501    0  0.00000000000E+00  0.00000000000E+00  0.12910148884E+04  0.12910148884E+04  0.25500000000E-02 0.  1.
         -2   -1    0    0    0  501 -0.00000000000E+00 -0.00000000000E+00 -0.30411336416E+03  0.30411336417E+03  0.25500000000E-02 0. -1.
    -200001    2    1    2    0    0 -0.64554487505E+02  0.42928360425E+02  0.37142921605E+03  0.72301284270E+03  0.61544925233E+03 0.  0.
   -5000001    2    3    3    0    0  0.21427170950E+03 -0.12375617403E+03  0.10090754617E+03  0.28837419275E+03  0.10839458504E+03 0.  0.
     200001    1    1    2    0    0  0.64554487505E+02 -0.42928360425E+02  0.61547230820E+03  0.87211540988E+03  0.61300000000E+03 0.  1.
         13    1    4    4    0    0  0.37286948145E+02  0.17993188865E+02  0.16516653518E+02  0.44574458550E+02  0.10566000000E+00 0.  1.
    -200003    1    4    4    0    0  0.17698476135E+03 -0.14174936289E+03  0.84390892651E+02  0.24379973420E+03  0.30000000000E+02 0.  1.
    -200000    1    3    3    0    0 -0.27882619700E+03  0.16668453445E+03  0.27052166988E+03  0.43463864996E+03  0.10100000000E+03 0. -1.
<mgrwt>
<rscale>  0 0.12531798E+04</rscale>
<asrwt>0</asrwt>
<pdfrwt beam="1">  1        2 0.18443070E+00 0.12531798E+04</pdfrwt>
<pdfrwt beam="2">  1       -2 0.43444766E-01 0.12531798E+04</pdfrwt>
<totfact> 0.93789497E+01</totfact>
</mgrwt>
</event>
<event>
 8    2  0.4306980E-052  0.1796274E+04  0.7818608E-02  0.8708283E-01
          2   -1    0    0  501    0  0.00000000000E+00  0.00000000000E+00  0.88195175336E+03  0.88195175336E+03  0.25500000000E-02 0.  1.
         -2   -1    0    0    0  501 -0.00000000000E+00 -0.00000000000E+00 -0.91461977813E+03  0.91461977813E+03  0.25500000000E-02 0. -1.
    -200001    2    1    2    0    0  0.59646083840E+03 -0.25600129892E+03  0.82914801559E+02  0.89633234853E+03  0.61256397046E+03 0.  0.
   -5000001    2    3    3    0    0  0.47697050951E+03  0.96029279147E+02  0.96488928274E+02  0.51086026976E+03  0.12225224967E+03 0.  0.
     200001    1    1    2    0    0 -0.59646083840E+03  0.25600129892E+03 -0.11558282632E+03  0.90023918296E+03  0.61300000000E+03 0.  1.
         13    1    4    4    0    0  0.28940277690E+03  0.56067033393E+02  0.15753630564E+01  0.29478801272E+03  0.10566000000E+00 0.  1.
    -200003    1    4    4    0    0  0.18756773260E+03  0.39962245754E+02  0.94913565218E+02  0.21607225704E+03  0.30000000000E+02 0.  1.
    -200000    1    3    3    0    0  0.11949032890E+03 -0.35203057807E+03 -0.13574126716E+02  0.38547207877E+03  0.10100000000E+03 0. -1.
<mgrwt>
<rscale>  0 0.17962745E+04</rscale>
<asrwt>0</asrwt>
<pdfrwt beam="1">  1        2 0.12599311E+00 0.17962745E+04</pdfrwt>
<pdfrwt beam="2">  1       -2 0.13065997E+00 0.17962745E+04</pdfrwt>
<totfact> 0.13572825E+01</totfact>
</mgrwt>
</event>
<event>
 8    2  0.4306980E-052  0.1525812E+04  0.7818608E-02  0.8867467E-01
         -2   -1    0    0    0  501 -0.00000000000E+00  0.00000000000E+00  0.86448378295E+03  0.86448378295E+03  0.25500000000E-02 0. -1.
          2   -1    0    0  501    0  0.00000000000E+00 -0.00000000000E+00 -0.67326392667E+03  0.67326392668E+03  0.25500000000E-02 0.  1.
    -200001    2    1    2    0    0 -0.85355062153E+02 -0.44194947137E+03  0.15974763553E+03  0.77658785614E+03  0.61234350602E+03 0.  0.
   -5000001    2    3    3    0    0 -0.12963281015E+03  0.45367258834E+02 -0.11844417765E+03  0.20472266274E+03  0.94971004949E+02 0.  0.
     200001    1    1    2    0    0  0.85355062153E+02  0.44194947137E+03  0.31472220743E+02  0.76115985349E+03  0.61300000000E+03 0.  1.
         13    1    4    4    0    0 -0.10942055826E+03  0.28429900969E+02 -0.11984672090E+03  0.16475547188E+03  0.10566000000E+00 0.  1.
    -200003    1    4    4    0    0 -0.20212251887E+02  0.16937357865E+02  0.14025432569E+01  0.39967190862E+02  0.30000000000E+02 0. -1.
    -200000    1    3    3    0    0  0.44277747994E+02 -0.48731673020E+03  0.27819181318E+03  0.57186519340E+03  0.10100000000E+03 0. -1.
<mgrwt>
<rscale>  0 0.15258122E+04</rscale>
<asrwt>0</asrwt>
<pdfrwt beam="1">  1        2 0.96180560E-01 0.15258122E+04</pdfrwt>
<pdfrwt beam="2">  1       -2 0.12349768E+00 0.15258122E+04</pdfrwt>
<totfact> 0.22549539E+01</totfact>
</mgrwt>
</event>
<event>
 8    2  0.4306980E-052  0.1534956E+04  0.7818608E-02  0.8861535E-01
         -2   -1    0    0    0  501 -0.00000000000E+00  0.00000000000E+00  0.14771167660E+04  0.14771167660E+04  0.25500000000E-02 0. -1.
          2   -1    0    0  501    0  0.00000000000E+00 -0.00000000000E+00 -0.39876509262E+03  0.39876509263E+03  0.25500000000E-02 0.  1.
    -200001    2    1    2    0    0 -0.64391744147E+02 -0.30107865256E+03  0.95990010795E+03  0.11797536914E+04  0.61287511249E+03 0.  0.
   -5000001    2    3    3    0    0 -0.11862216025E+02 -0.28317684340E+02  0.82489817129E+03  0.85481612820E+03  0.22206083991E+03 0.  0.
     200001    1    1    2    0    0  0.64391744147E+02  0.30107865256E+03  0.11845156538E+03  0.69612816714E+03  0.61300000000E+03 0. -1.
         13    1    4    4    0    0 -0.65283302942E+02  0.64924890923E+02  0.20184911831E+03  0.22185632475E+03  0.10566000000E+00 0.  1.
    -200003    1    4    4    0    0  0.53421086917E+02 -0.93242575263E+02  0.62304905298E+03  0.63295980346E+03  0.30000000000E+02 0.  1.
    -200000    1    3    3    0    0 -0.52529528122E+02 -0.27276096822E+03  0.13500193666E+03  0.32493756325E+03  0.10100000000E+03 0.  1.
<mgrwt>
<rscale>  0 0.15349562E+04</rscale>
<asrwt>0</asrwt>
<pdfrwt beam="1">  1        2 0.56966441E-01 0.15349562E+04</pdfrwt>
<pdfrwt beam="2">  1       -2 0.21101668E+00 0.15349562E+04</pdfrwt>
<totfact> 0.94448618E+00</totfact>
</mgrwt>
</event>
<event>
 8    2  0.4306980E-052  0.1283450E+04  0.7818608E-02  0.9042793E-01
          2   -1    0    0  501    0  0.00000000000E+00  0.00000000000E+00  0.11831158777E+04  0.11831158777E+04  0.25500000000E-02 0.  1.
         -2   -1    0    0    0  501 -0.00000000000E+00 -0.00000000000E+00 -0.34807330084E+03  0.34807330085E+03  0.25500000000E-02 0. -1.
    -200001    2    1    2    0    0 -0.82882731805E+02 -0.14477402252E+03  0.30742105178E+03  0.70536683774E+03  0.61254029082E+03 0.  0.
   -5000001    2    3    3    0    0 -0.29915379996E+03 -0.17816593404E+03  0.69235807564E+02  0.36651376451E+03  0.91118858850E+02 0.  0.
     200001    1    1    2    0    0  0.82882731805E+02  0.14477402252E+03  0.52762152505E+03  0.82582234078E+03  0.61300000000E+03 0.  1.
         13    1    4    4    0    0 -0.18404141938E+03 -0.14692173188E+03  0.29898327040E+02  0.23738399371E+03  0.10566000000E+00 0.  1.
    -200003    1    4    4    0    0 -0.11511238058E+03 -0.31244202166E+02  0.39337480525E+02  0.12912977080E+03  0.30000000000E+02 0.  1.
    -200000    1    3    3    0    0  0.21627106816E+03  0.33391911522E+02  0.23818524421E+03  0.33885307323E+03  0.10100000000E+03 0. -1.
<mgrwt>
<rscale>  0 0.12834501E+04</rscale>
<asrwt>0</asrwt>
<pdfrwt beam="1">  1        2 0.16901655E+00 0.12834501E+04</pdfrwt>
<pdfrwt beam="2">  1       -2 0.49724757E-01 0.12834501E+04</pdfrwt>
<totfact> 0.82091513E+01</totfact>
</mgrwt>
</event>
<event>
 8    2  0.4306980E-052  0.1706716E+04  0.7818608E-02  0.8757543E-01
         -2   -1    0    0    0  501 -0.00000000000E+00  0.00000000000E+00  0.15026142770E+04  0.15026142770E+04  0.25500000000E-02 0. -1.
          2   -1    0    0  501    0  0.00000000000E+00 -0.00000000000E+00 -0.48463542164E+03  0.48463542164E+03  0.25500000000E-02 0.  1.
    -200001    2    1    2    0    0 -0.75903772112E+02  0.37425740763E+03  0.10387506621E+04  0.12647329461E+04  0.61214091275E+03 0.  0.
   -5000001    2    3    3    0    0 -0.61991794450E+02  0.38790717681E+03  0.29239298270E+03  0.51132028030E+03  0.14710476644E+03 0.  0.
     200001    1    1    2    0    0  0.75903772112E+02 -0.37425740763E+03 -0.20771806759E+02  0.72251675257E+03  0.61300000000E+03 0.  1.
         13    1    4    4    0    0 -0.95436781643E+02  0.31241128637E+03  0.26064938015E+03  0.41790800623E+03  0.10566000000E+00 0.  1.
    -200003    1    4    4    0    0  0.33444987192E+02  0.75495890447E+02  0.31743602551E+02  0.93412274062E+02  0.30000000000E+02 0.  1.
    -200000    1    3    3    0    0 -0.13911977662E+02 -0.13649769183E+02  0.74635767945E+03  0.75341266580E+03  0.10100000000E+03 0. -1.
<mgrwt>
<rscale>  0 0.17067163E+04</rscale>
<asrwt>0</asrwt>
<pdfrwt beam="1">  1        2 0.69233631E-01 0.17067163E+04</pdfrwt>
<pdfrwt beam="2">  1       -2 0.21465919E+00 0.17067163E+04</pdfrwt>
<totfact> 0.70869918E+00</totfact>
</mgrwt>
</event>
<event>
 8    2  0.4306980E-052  0.1280827E+04  0.7818608E-02  0.9044909E-01
          2   -1    0    0  501    0  0.00000000000E+00  0.00000000000E+00  0.14636198651E+04  0.14636198652E+04  0.25500000000E-02 0. -1.
         -2   -1    0    0    0  501 -0.00000000000E+00 -0.00000000000E+00 -0.28021601306E+03  0.28021601307E+03  0.25500000000E-02 0.  1.
    -200001    2    1    2    0    0 -0.72098974942E+02  0.94420340333E+02  0.79067412438E+03  0.10061915860E+04  0.61085388913E+03 0.  0.
   -5000001    2    3    3    0    0 -0.69102369071E+02  0.11987714953E+03 -0.40606656348E+02  0.16840535716E+03  0.86981580763E+02 0.  0.
     200001    1    1    2    0    0  0.72098974942E+02 -0.94420340333E+02  0.39272972771E+03  0.73764429225E+03  0.61300000000E+03 0.  1.
         13    1    4    4    0    0 -0.59844907917E+02  0.80035222548E+02 -0.57060396183E+02  0.11507801627E+03  0.10566000000E+00 0.  1.
    -200003    1    4    4    0    0 -0.92574611537E+01  0.39841926977E+02  0.16453739835E+02  0.53327340894E+02  0.30000000000E+02 0. -1.
    -200000    1    3    3    0    0 -0.29966058708E+01 -0.25456809192E+02  0.83128078073E+03  0.83778622881E+03  0.10100000000E+03 0. -1.
<mgrwt>
<rscale>  0 0.12808274E+04</rscale>
<asrwt>0</asrwt>
<pdfrwt beam="1">  1        2 0.20908855E+00 0.12808274E+04</pdfrwt>
<pdfrwt beam="2">  1       -2 0.40030860E-01 0.12808274E+04</pdfrwt>
<totfact> 0.88588269E+01</totfact>
</mgrwt>
</event>
<event>
 8    2  0.4306980E-052  0.1305348E+04  0.7818608E-02  0.9025335E-01
         -2   -1    0    0    0  501 -0.00000000000E+00  0.00000000000E+00  0.42418220246E+03  0.42418220247E+03  0.25500000000E-02 0. -1.
          2   -1    0    0  501    0  0.00000000000E+00 -0.00000000000E+00 -0.10042458783E+04  0.10042458783E+04  0.25500000000E-02 0.  1.
    -200001    2    1    2    0    0  0.14750063478E+03 -0.11051612893E+03 -0.43435320712E+03  0.77194442317E+03  0.61095436156E+03 0.  0.
   -5000001    2    3    3    0    0 -0.78031571601E+02 -0.30431201169E+03 -0.23140479349E+03  0.39803176106E+03  0.78653529690E+02 0.  0.
     200001    1    1    2    0    0 -0.14750063478E+03  0.11051612893E+03 -0.14571046872E+03  0.65648365761E+03  0.61300000000E+03 0. -1.
         13    1    4    4    0    0 -0.68190103886E+02 -0.25437355892E+03 -0.20279112938E+03  0.33238539539E+03  0.10566000000E+00 0.  1.
    -200003    1    4    4    0    0 -0.98414677154E+01 -0.49938452774E+02 -0.28613664108E+02  0.65646365672E+02  0.30000000000E+02 0. -1.
    -200000    1    3    3    0    0  0.22553220638E+03  0.19379588277E+03 -0.20294841363E+03  0.37391266211E+03  0.10100000000E+03 0.  1.
<mgrwt>
<rscale>  0 0.13053478E+04</rscale>
<asrwt>0</asrwt>
<pdfrwt beam="1">  1        2 0.14346370E+00 0.13053478E+04</pdfrwt>
<pdfrwt beam="2">  1       -2 0.60597458E-01 0.13053478E+04</pdfrwt>
<totfact> 0.69437325E+01</totfact>
</mgrwt>
</event>
<event>
 8    2  0.4306980E-052  0.1294528E+04  0.7818608E-02  0.9033916E-01
          2   -1    0    0  501    0  0.00000000000E+00  0.00000000000E+00  0.21531573647E+04  0.21531573647E+04  0.25500000000E-02 0.  1.
         -2   -1    0    0    0  501 -0.00000000000E+00 -0.00000000000E+00 -0.19457499820E+03  0.19457499822E+03  0.25500000000E-02 0. -1.
    -200001    2    1    2    0    0 -0.18657854060E+03  0.91025660040E+02  0.96825121530E+03  0.11646761463E+04  0.61307657537E+03 0.  0.
   -5000001    2    3    3    0    0  0.17560155361E+03 -0.91878864307E+02  0.23944115192E+03  0.32444189674E+03  0.93020684759E+02 0.  0.
     200001    1    1    2    0    0  0.18657854060E+03 -0.91025660040E+02  0.99033115115E+03  0.11830562166E+04  0.61300000000E+03 0.  1.
         13    1    4    4    0    0  0.60622268005E+01 -0.11606769422E+02  0.65745158642E+02  0.67036592538E+02  0.10566000000E+00 0.  1.
    -200003    1    4    4    0    0  0.16953932681E+03 -0.80272094885E+02  0.17369599328E+03  0.25740530421E+03  0.30000000000E+02 0.  1.
    -200000    1    3    3    0    0 -0.36218009421E+03  0.18290452435E+03  0.72881006338E+03  0.84023424957E+03  0.10100000000E+03 0.  1.
<mgrwt>
<rscale>  0 0.12945279E+04</rscale>
<asrwt>0</asrwt>
<pdfrwt beam="1">  1        2 0.30759388E+00 0.12945279E+04</pdfrwt>
<pdfrwt beam="2">  1       -2 0.27796431E-01 0.12945279E+04</pdfrwt>
<totfact> 0.77582770E+01</totfact>
</mgrwt>
</event>
<event>
 8    2  0.4306980E-052  0.1425583E+04  0.7818608E-02  0.8935505E-01
          2   -1    0    0  501    0  0.00000000000E+00  0.00000000000E+00  0.46652631248E+04  0.46652631248E+04  0.25500000000E-02 0.  1.
         -2   -1    0    0    0  501 -0.00000000000E+00 -0.00000000000E+00 -0.10890532355E+03  0.10890532358E+03  0.25500000000E-02 0. -1.
    -200001    2    1    2    0    0 -0.34118650756E+03  0.11882444959E+03  0.21115496054E+04  0.22279195216E+04  0.61192824398E+03 0.  0.
   -5000001    2    3    3    0    0 -0.38092783689E+03  0.30299635555E+03  0.15687238853E+04  0.16445162077E+04  0.81400987695E+02 0.  0.
     200001    1    1    2    0    0  0.34118650756E+03 -0.11882444959E+03  0.24448081959E+04  0.25462489268E+04  0.61300000000E+03 0.  1.
         13    1    4    4    0    0 -0.11661942633E+03  0.13647388398E+03  0.59069650450E+03  0.61737151149E+03  0.10566000000E+00 0.  1.
    -200003    1    4    4    0    0 -0.26430841055E+03  0.16652247156E+03  0.97802738076E+03  0.10271446962E+04  0.30000000000E+02 0.  1.
    -200000    1    3    3    0    0  0.39741329327E+02 -0.18417190596E+03  0.54282572014E+03  0.58340331388E+03  0.10100000000E+03 0. -1.
<mgrwt>
<rscale>  0 0.14255834E+04</rscale>
<asrwt>0</asrwt>
<pdfrwt beam="1">  1        2 0.66646611E+00 0.14255834E+04</pdfrwt>
<pdfrwt beam="2">  1       -2 0.15557905E-01 0.14255834E+04</pdfrwt>
<totfact> 0.59045903E+00</totfact>
</mgrwt>
</event>
<event>
 8    2  0.4306980E-052  0.1973291E+04  0.7818608E-02  0.8619211E-01
          2   -1    0    0  501    0  0.00000000000E+00  0.00000000000E+00  0.95622868241E+03  0.95622868241E+03  0.25500000000E-02 0.  1.
         -2   -1    0    0    0  501 -0.00000000000E+00 -0.00000000000E+00 -0.10180299963E+04  0.10180299964E+04  0.25500000000E-02 0. -1.
    -200001    2    1    2    0    0  0.47190598474E+02  0.23811036180E+03  0.70360327079E+03  0.96404252600E+03  0.61269644383E+03 0.  0.
   -5000001    2    3    3    0    0 -0.14067775168E+03 -0.75263697628E+02  0.27837385309E+02  0.18921457730E+03  0.97838551926E+02 0.  0.
     200001    1    1    2    0    0 -0.47190598474E+02 -0.23811036180E+03 -0.76540458473E+03  0.10102161528E+04  0.61300000000E+03 0. -1.
         13    1    4    4    0    0 -0.12828372103E+03 -0.31829619168E+02  0.27431236835E+02  0.13499007984E+03  0.10566000000E+00 0.  1.
    -200003    1    4    4    0    0 -0.12394030646E+02 -0.43434078460E+02  0.40614847440E+00  0.54224497452E+02  0.30000000000E+02 0.  1.
    -200000    1    3    3    0    0  0.18786835015E+03  0.31337405943E+03  0.67576588548E+03  0.77482794870E+03  0.10100000000E+03 0.  1.
<mgrwt>
<rscale>  0 0.19732911E+04</rscale>
<asrwt>0</asrwt>
<pdfrwt beam="1">  1        2 0.13660410E+00 0.19732911E+04</pdfrwt>
<pdfrwt beam="2">  1       -2 0.14543286E+00 0.19732911E+04</pdfrwt>
<totfact> 0.90886951E+00</totfact>
</mgrwt>
</event>
<event>
 8    2  0.4306980E-052  0.1841033E+04  0.7818608E-02  0.8684778E-01
          2   -1    0    0  501    0  0.00000000000E+00  0.00000000000E+00  0.29071890202E+04  0.29071890203E+04  0.25500000000E-02 0.  1.
         -2   -1    0    0    0  501 -0.00000000000E+00 -0.00000000000E+00 -0.29146730910E+03  0.29146730911E+03  0.25500000000E-02 0. -1.
    -200001    2    1    2    0    0 -0.17396103885E+03  0.41420170290E+03  0.41692320745E+03  0.87221927807E+03  0.62057716233E+03 0.  0.
   -5000001    2    3    3    0    0 -0.18613283833E+03  0.24553077589E+03  0.55045226078E+03  0.63425070367E+03  0.65920165982E+02 0.  0.
     200001    1    1    2    0    0  0.17396103885E+03 -0.41420170290E+03  0.21987985037E+04  0.23264370513E+04  0.61300000000E+03 0.  1.
         13    1    4    4    0    0 -0.15140313511E+03  0.18835142834E+03  0.42909336794E+03  0.49246350063E+03  0.10566000000E+00 0.  1.
    -200003    1    4    4    0    0 -0.34729703220E+02  0.57179347556E+02  0.12135889284E+03  0.14178720303E+03  0.30000000000E+02 0. -1.
    -200000    1    3    3    0    0  0.12171799481E+02  0.16867092701E+03 -0.13352905333E+03  0.23796857440E+03  0.10100000000E+03 0. -1.
<mgrwt>
<rscale>  0 0.18410329E+04</rscale>
<asrwt>0</asrwt>
<pdfrwt beam="1">  1        2 0.41531273E+00 0.18410329E+04</pdfrwt>
<pdfrwt beam="2">  1       -2 0.41638186E-01 0.18410329E+04</pdfrwt>
<totfact> 0.13723994E+01</totfact>
</mgrwt>
</event>
<event>
 8    2  0.4306980E-052  0.1567680E+04  0.7818608E-02  0.8840653E-01
         -2   -1    0    0    0  501 -0.00000000000E+00  0.00000000000E+00  0.56461651879E+03  0.56461651879E+03  0.25500000000E-02 0. -1.
          2   -1    0    0  501    0  0.00000000000E+00 -0.00000000000E+00 -0.10881808169E+04  0.10881808169E+04  0.25500000000E-02 0.  1.
    -200001    2    1    2    0    0  0.10021275341E+03  0.29881173463E+03 -0.65594623383E+03  0.95092482196E+03  0.61209599463E+03 0.  0.
   -5000001    2    3    3    0    0  0.64501181614E+02  0.43298341859E+02 -0.65933581459E+03  0.67384198325E+03  0.11534363076E+03 0.  0.
     200001    1    1    2    0    0 -0.10021275341E+03 -0.29881173463E+03  0.13238193568E+03  0.70187251378E+03  0.61300000000E+03 0.  1.
         13    1    4    4    0    0  0.35662024458E+02  0.74594875610E+02 -0.48122631101E+03  0.48827753279E+03  0.10566000000E+00 0.  1.
    -200003    1    4    4    0    0  0.28839157156E+02 -0.31296533751E+02 -0.17810950358E+03  0.18556445046E+03  0.30000000000E+02 0.  1.
    -200000    1    3    3    0    0  0.35711571801E+02  0.25551339277E+03  0.33895807617E+01  0.27708283870E+03  0.10100000000E+03 0. -1.
<mgrwt>
<rscale>  0 0.15676796E+04</rscale>
<asrwt>0</asrwt>
<pdfrwt beam="1">  1        2 0.15545440E+00 0.15676796E+04</pdfrwt>
<pdfrwt beam="2">  1       -2 0.80659503E-01 0.15676796E+04</pdfrwt>
<totfact> 0.32463178E+01</totfact>
</mgrwt>
</event>
<event>
 8    2  0.4306980E-052  0.1581639E+04  0.7818608E-02  0.8831908E-01
         -2   -1    0    0    0  501 -0.00000000000E+00  0.00000000000E+00  0.19548515470E+03  0.19548515472E+03  0.25500000000E-02 0. -1.
          2   -1    0    0  501    0  0.00000000000E+00 -0.00000000000E+00 -0.31991962470E+04  0.31991962470E+04  0.25500000000E-02 0.  1.
    -200001    2    1    2    0    0 -0.11785632042E+03  0.45358062167E+03 -0.18725718978E+04  0.20254223430E+04  0.61333894578E+03 0.  0.
   -5000001    2    3    3    0    0  0.57855336616E+02 -0.14295346867E+02 -0.22573590769E+03  0.30145822310E+03  0.19070596040E+03 0.  0.
     200001    1    1    2    0    0  0.11785632042E+03 -0.45358062167E+03 -0.11311391945E+04  0.13692590588E+04  0.61300000000E+03 0.  1.
         13    1    4    4    0    0  0.12270506793E+03 -0.30095721491E+02 -0.13516845775E+03  0.18502110496E+03  0.10566000000E+00 0.  1.
    -200003    1    4    4    0    0 -0.64849731313E+02  0.15800374624E+02 -0.90567449946E+02  0.11643711813E+03  0.30000000000E+02 0.  1.
    -200000    1    3    3    0    0 -0.17571165704E+03  0.46787596853E+03 -0.16468359901E+04  0.17239641199E+04  0.10100000000E+03 0.  1.
<mgrwt>
<rscale>  0 0.15816389E+04</rscale>
<asrwt>0</asrwt>
<pdfrwt beam="1">  1        2 0.45702800E+00 0.15816389E+04</pdfrwt>
<pdfrwt beam="2">  1       -2 0.27926453E-01 0.15816389E+04</pdfrwt>
<totfact> 0.20580182E+01</totfact>
</mgrwt>
</event>
<event>
 8    2  0.4306980E-052  0.1293219E+04  0.7818608E-02  0.9034960E-01
         -2   -1    0    0    0  501 -0.00000000000E+00  0.00000000000E+00  0.49664937629E+03  0.49664937629E+03  0.25500000000E-02 0. -1.
          2   -1    0    0  501    0  0.00000000000E+00 -0.00000000000E+00 -0.84184914092E+03  0.84184914093E+03  0.25500000000E-02 0.  1.
    -200001    2    1    2    0    0  0.14148715830E+03 -0.12217639329E+03 -0.27921988252E+03  0.69424078006E+03  0.60750377025E+03 0.  0.
   -5000001    2    3    3    0    0 -0.12983320988E+03  0.16532376769E+03 -0.90286896115E+02  0.24461008927E+03  0.86566515525E+02 0.  0.
     200001    1    1    2    0    0 -0.14148715830E+03  0.12217639329E+03 -0.65979882112E+02  0.64425773716E+03  0.61300000000E+03 0. -1.
         13    1    4    4    0    0 -0.12065494463E+03  0.14342220713E+03 -0.85657652033E+02  0.20606986601E+03  0.10566000000E+00 0.  1.
    -200003    1    4    4    0    0 -0.91782652510E+01  0.21901560564E+02 -0.46292440822E+01  0.38540223260E+02  0.30000000000E+02 0. -1.
    -200000    1    3    3    0    0  0.27132036818E+03 -0.28750016098E+03 -0.18893298641E+03  0.44963069080E+03  0.10100000000E+03 0.  1.
<mgrwt>
<rscale>  0 0.12932190E+04</rscale>
<asrwt>0</asrwt>
<pdfrwt beam="1">  1        2 0.12026416E+00 0.12932190E+04</pdfrwt>
<pdfrwt beam="2">  1       -2 0.70949911E-01 0.12932190E+04</pdfrwt>
<totfact> 0.63023450E+01</totfact>
</mgrwt>
</event>
<event>
 8    2  0.4306980E-052  0.3264051E+04  0.7818608E-02  0.8172103E-01
         -2   -1    0    0    0  501 -0.00000000000E+00  0.00000000000E+00  0.12137611130E+04  0.12137611130E+04  0.25500000000E-02 0. -1.
          2   -1    0    0  501    0  0.00000000000E+00 -0.00000000000E+00 -0.21944251399E+04  0.21944251399E+04  0.25500000000E-02 0.  1.
    -200001    2    1    2    0    0 -0.12777859870E+04  0.80623992301E+03 -0.41637933660E+03  0.16828033813E+04  0.61294014893E+03 0.  0.
   -5000001    2    3    3    0    0 -0.70171869223E+03  0.60596162410E+03 -0.49876239962E+03  0.10591425006E+04  0.11584598523E+03 0.  0.
     200001    1    1    2    0    0  0.12777859870E+04 -0.80623992301E+03 -0.56428469031E+03  0.17253828716E+04  0.61300000000E+03 0.  1.
         13    1    4    4    0    0 -0.53814066695E+01  0.10571931701E+02  0.53400676525E+01  0.13009718068E+02  0.10566000000E+00 0.  1.
    -200003    1    4    4    0    0 -0.69633728556E+03  0.59538969240E+03 -0.50410246727E+03  0.10461327825E+04  0.30000000000E+02 0.  1.
    -200000    1    3    3    0    0 -0.57606729475E+03  0.20027829890E+03  0.82383063016E+02  0.62366088074E+03  0.10100000000E+03 0.  1.
<mgrwt>
<rscale>  0 0.32640514E+04</rscale>
<asrwt>0</asrwt>
<pdfrwt beam="1">  1        2 0.31348930E+00 0.32640514E+04</pdfrwt>
<pdfrwt beam="2">  1       -2 0.17339445E+00 0.32640514E+04</pdfrwt>
<totfact> 0.10851748E+00</totfact>
</mgrwt>
</event>
<event>
 8    2  0.4306980E-052  0.1760330E+04  0.7818608E-02  0.8727685E-01
         -2   -1    0    0    0  501 -0.00000000000E+00  0.00000000000E+00  0.11670555117E+04  0.11670555117E+04  0.25500000000E-02 0. -1.
          2   -1    0    0  501    0  0.00000000000E+00 -0.00000000000E+00 -0.66379914878E+03  0.66379914879E+03  0.25500000000E-02 0.  1.
    -200001    2    1    2    0    0 -0.57021821610E+03 -0.19623228425E+03  0.53687961068E+02  0.86052653492E+03  0.61152890103E+03 0.  0.
   -5000001    2    3    3    0    0 -0.54107639651E+03 -0.34312712574E+03  0.12873889608E+03  0.66492238633E+03  0.12267104464E+03 0.  0.
     200001    1    1    2    0    0  0.57021821610E+03  0.19623228425E+03  0.44956840187E+03  0.97032812559E+03  0.61300000000E+03 0. -1.
         13    1    4    4    0    0 -0.49250382138E+03 -0.29091474122E+03  0.13360998242E+03  0.58740364257E+03  0.10566000000E+00 0.  1.
    -200003    1    4    4    0    0 -0.48572575135E+02 -0.52212384513E+02 -0.48710863452E+01  0.77518743758E+02  0.30000000000E+02 0.  1.
    -200000    1    3    3    0    0 -0.29141819583E+02  0.14689484148E+03 -0.75050935011E+02  0.19560414860E+03  0.10100000000E+03 0.  1.
<mgrwt>
<rscale>  0 0.17603300E+04</rscale>
<asrwt>0</asrwt>
<pdfrwt beam="1">  1        2 0.94828450E-01 0.17603300E+04</pdfrwt>
<pdfrwt beam="2">  1       -2 0.16672222E+00 0.17603300E+04</pdfrwt>
<totfact> 0.10258931E+01</totfact>
</mgrwt>
</event>
<event>
 8    2  0.4306980E-052  0.1426249E+04  0.7818608E-02  0.8935034E-01
         -2   -1    0    0    0  501 -0.00000000000E+00  0.00000000000E+00  0.42901658741E+03  0.42901658741E+03  0.25500000000E-02 0. -1.
          2   -1    0    0  501    0  0.00000000000E+00 -0.00000000000E+00 -0.11853778360E+04  0.11853778360E+04  0.25500000000E-02 0.  1.
    -200001    2    1    2    0    0 -0.13220792634E+03  0.17955031763E+03 -0.53153007082E+02  0.65523433080E+03  0.61383184485E+03 0.  0.
   -5000001    2    3    3    0    0 -0.17119782039E+03 -0.18971524686E+03 -0.28222310098E+02  0.26961818927E+03  0.81221306347E+02 0.  0.
     200001    1    1    2    0    0  0.13220792634E+03 -0.17955031763E+03 -0.70320824154E+03  0.95916009265E+03  0.61300000000E+03 0.  1.
         13    1    4    4    0    0 -0.23109543253E+02 -0.40911238106E+01 -0.18827870233E+02  0.30088006663E+02  0.10566000000E+00 0.  1.
    -200003    1    4    4    0    0 -0.14808827713E+03 -0.18562412305E+03 -0.93944398654E+01  0.23953018261E+03  0.30000000000E+02 0.  1.
    -200000    1    3    3    0    0  0.38989894045E+02  0.36926556449E+03 -0.24930696983E+02  0.38561614153E+03  0.10100000000E+03 0.  1.
<mgrwt>
<rscale>  0 0.14262493E+04</rscale>
<asrwt>0</asrwt>
<pdfrwt beam="1">  1        2 0.16933969E+00 0.14262493E+04</pdfrwt>
<pdfrwt beam="2">  1       -2 0.61288084E-01 0.14262493E+04</pdfrwt>
<totfact> 0.52471950E+01</totfact>
</mgrwt>
</event>
<event>
 8    2  0.4306980E-052  0.1339112E+04  0.7818608E-02  0.8999112E-01
         -2   -1    0    0    0  501 -0.00000000000E+00  0.00000000000E+00  0.27400993882E+03  0.27400993883E+03  0.25500000000E-02 0. -1.
          2   -1    0    0  501    0  0.00000000000E+00 -0.00000000000E+00 -0.16360900136E+04  0.16360900136E+04  0.25500000000E-02 0.  1.
    -200001    2    1    2    0    0  0.25697212103E+03 -0.70703025193E+02 -0.73069059673E+03  0.99061354048E+03  0.61349233872E+03 0.  0.
   -5000001    2    3    3    0    0  0.10075931079E+03  0.22959153179E+03 -0.50982251434E+03  0.57400464372E+03  0.81839017018E+02 0.  0.
     200001    1    1    2    0    0 -0.25697212103E+03  0.70703025193E+02 -0.63138947804E+03  0.91948641194E+03  0.61300000000E+03 0.  1.
         13    1    4    4    0    0  0.66083027676E+02  0.18225198119E+03 -0.42014464590E+03  0.46271404327E+03  0.10566000000E+00 0.  1.
    -200003    1    4    4    0    0  0.34676283115E+02  0.47339550599E+02 -0.89677868438E+02  0.11129060045E+03  0.30000000000E+02 0. -1.
    -200000    1    3    3    0    0  0.15621281024E+03 -0.30029455698E+03 -0.22086808239E+03  0.41660889676E+03  0.10100000000E+03 0. -1.
<mgrwt>
<rscale>  0 0.13391115E+04</rscale>
<asrwt>0</asrwt>
<pdfrwt beam="1">  1        2 0.23372714E+00 0.13391115E+04</pdfrwt>
<pdfrwt beam="2">  1       -2 0.39144278E-01 0.13391115E+04</pdfrwt>
<totfact> 0.74726500E+01</totfact>
</mgrwt>
</event>
<event>
 8    2  0.4306980E-052  0.1391277E+04  0.7818608E-02  0.8960157E-01
         -2   -1    0    0    0  501 -0.00000000000E+00  0.00000000000E+00  0.23413662788E+03  0.23413662790E+03  0.25500000000E-02 0. -1.
          2   -1    0    0  501    0  0.00000000000E+00 -0.00000000000E+00 -0.20667975171E+04  0.20667975171E+04  0.25500000000E-02 0.  1.
    -200001    2    1    2    0    0 -0.79433037036E+02  0.28060397253E+03 -0.66375992257E+03  0.94921425293E+03  0.61268447539E+03 0.  0.
   -5000001    2    3    3    0    0 -0.18611834793E+03  0.11033236202E+03  0.68981342333E+01  0.24185479264E+03  0.10785586178E+03 0.  0.
     200001    1    1    2    0    0  0.79433037036E+02 -0.28060397253E+03 -0.11689009666E+04  0.13517198920E+04  0.61300000000E+03 0.  1.
         13    1    4    4    0    0 -0.90708396241E+01  0.36481238303E+01  0.30147341763E+02  0.31693253516E+02  0.10566000000E+00 0.  1.
    -200003    1    4    4    0    0 -0.17704750831E+03  0.10668423819E+03 -0.23249207530E+02  0.21016153912E+03  0.30000000000E+02 0.  1.
    -200000    1    3    3    0    0  0.10668531090E+03  0.17027161051E+03 -0.67065805680E+03  0.70735946029E+03  0.10100000000E+03 0.  1.
<mgrwt>
<rscale>  0 0.13912771E+04</rscale>
<asrwt>0</asrwt>
<pdfrwt beam="1">  1        2 0.29525678E+00 0.13912771E+04</pdfrwt>
<pdfrwt beam="2">  1       -2 0.33448091E-01 0.13912771E+04</pdfrwt>
<totfact> 0.60363356E+01</totfact>
</mgrwt>
</event>
<event>
 8    2  0.4306980E-052  0.1333481E+04  0.7818608E-02  0.9003428E-01
         -2   -1    0    0    0  501 -0.00000000000E+00  0.00000000000E+00  0.30294827954E+03  0.30294827956E+03  0.25500000000E-02 0. -1.
          2   -1    0    0  501    0  0.00000000000E+00 -0.00000000000E+00 -0.14673879246E+04  0.14673879246E+04  0.25500000000E-02 0.  1.
    -200001    2    1    2    0    0  0.15986987477E+02 -0.13750807440E+02 -0.22093957943E+03  0.64498912778E+03  0.60560053560E+03 0.  0.
   -5000001    2    3    3    0    0 -0.13956020019E+03 -0.24701038546E+03 -0.17170820286E+03  0.34294660302E+03  0.87392709026E+02 0.  0.
     200001    1    1    2    0    0 -0.15986987477E+02  0.13750807440E+02 -0.94350006559E+03  0.11253470763E+04  0.61300000000E+03 0.  1.
         13    1    4    4    0    0 -0.27438516668E+02 -0.92705064533E+01 -0.28732424145E+01  0.29104658954E+02  0.10566000000E+00 0.  1.
    -200003    1    4    4    0    0 -0.11212168352E+03 -0.23773987900E+03 -0.16883496045E+03  0.31384194406E+03  0.30000000000E+02 0.  1.
    -200000    1    3    3    0    0  0.15554718766E+03  0.23325957802E+03 -0.49231376573E+02  0.30204252476E+03  0.10100000000E+03 0. -1.
<mgrwt>
<rscale>  0 0.13334806E+04</rscale>
<asrwt>0</asrwt>
<pdfrwt beam="1">  1        2 0.20962684E+00 0.13334806E+04</pdfrwt>
<pdfrwt beam="2">  1       -2 0.43278326E-01 0.13334806E+04</pdfrwt>
<totfact> 0.75348681E+01</totfact>
</mgrwt>
</event>
<event>
 8    2  0.4306980E-052  0.2011518E+04  0.7818608E-02  0.8601254E-01
          2   -1    0    0  501    0  0.00000000000E+00  0.00000000000E+00  0.29465061262E+04  0.29465061262E+04  0.25500000000E-02 0.  1.
         -2   -1    0    0    0  501 -0.00000000000E+00 -0.00000000000E+00 -0.34330536116E+03  0.34330536117E+03  0.25500000000E-02 0. -1.
    -200001    2    1    2    0    0  0.24235774372E+03  0.41937576569E+03  0.23373477613E+04  0.24645478154E+04  0.61334172203E+03 0.  0.
   -5000001    2    3    3    0    0  0.10812138653E+03  0.47383435753E+03  0.11163332122E+04  0.12308287764E+04  0.18036186852E+03 0.  0.
     200001    1    1    2    0    0 -0.24235774372E+03 -0.41937576569E+03  0.26585300373E+03  0.82526367204E+03  0.61300000000E+03 0. -1.
         13    1    4    4    0    0  0.89084900210E+02  0.47338301904E+03  0.10163681077E+04  0.11247362996E+04  0.10566000000E+00 0.  1.
    -200003    1    4    4    0    0  0.19036486316E+02  0.45133848768E+00  0.99965104469E+02  0.10609247678E+03  0.30000000000E+02 0.  1.
    -200000    1    3    3    0    0  0.13423635719E+03 -0.54458591839E+02  0.12210145492E+04  0.12337190390E+04  0.10100000000E+03 0. -1.
<mgrwt>
<rscale>  0 0.20115182E+04</rscale>
<asrwt>0</asrwt>
<pdfrwt beam="1">  1        2 0.42092942E+00 0.20115182E+04</pdfrwt>
<pdfrwt beam="2">  1       -2 0.49043626E-01 0.20115182E+04</pdfrwt>
<totfact> 0.92733510E+00</totfact>
</mgrwt>
</event>
<event>
 8    2  0.4306980E-052  0.1305266E+04  0.7818608E-02  0.9025400E-01
         -2   -1    0    0    0  501 -0.00000000000E+00  0.00000000000E+00  0.99810224140E+02  0.99810224173E+02  0.25500000000E-02 0. -1.
          2   -1    0    0  501    0  0.00000000000E+00 -0.00000000000E+00 -0.42673969221E+04  0.42673969221E+04  0.25500000000E-02 0.  1.
    -200001    2    1    2    0    0 -0.49366997700E+02 -0.21287601601E+03 -0.22843008425E+04  0.23746490136E+04  0.61087993923E+03 0.  0.
   -5000001    2    3    3    0    0  0.24249013851E+02 -0.38984568893E+03 -0.10816820582E+04  0.11526708948E+04  0.77758864683E+02 0.  0.
     200001    1    1    2    0    0  0.49366997700E+02  0.21287601601E+03 -0.18832858554E+04  0.19925581326E+04  0.61300000000E+03 0.  1.
         13    1    4    4    0    0 -0.17536498430E+01 -0.19458662798E+03 -0.62015683459E+03  0.64997041604E+03  0.10566000000E+00 0.  1.
    -200003    1    4    4    0    0  0.26002663694E+02 -0.19525906095E+03 -0.46152522357E+03  0.50270047880E+03  0.30000000000E+02 0.  1.
    -200000    1    3    3    0    0 -0.73616011551E+02  0.17696967292E+03 -0.12026187844E+04  0.12219781188E+04  0.10100000000E+03 0. -1.
<mgrwt>
<rscale>  0 0.13052660E+04</rscale>
<asrwt>0</asrwt>
<pdfrwt beam="1">  1        2 0.60962802E+00 0.13052660E+04</pdfrwt>
<pdfrwt beam="2">  1       -2 0.14258606E-01 0.13052660E+04</pdfrwt>
<totfact> 0.14221191E+01</totfact>
</mgrwt>
</event>
<event>
 8    2  0.4306980E-052  0.1620042E+04  0.7818608E-02  0.8808329E-01
          2   -1    0    0  501    0  0.00000000000E+00  0.00000000000E+00  0.12995405750E+04  0.12995405750E+04  0.25500000000E-02 0.  1.
         -2   -1    0    0    0  501 -0.00000000000E+00 -0.00000000000E+00 -0.50489700267E+03  0.50489700267E+03  0.25500000000E-02 0. -1.
    -200001    2    1    2    0    0  0.23462423733E+03  0.31568136535E+03  0.79223004444E+03  0.10760983145E+04  0.61290772709E+03 0.  0.
   -5000001    2    3    3    0    0  0.33889328231E+03  0.14395663804E+03  0.72696374704E+03  0.84195710647E+03  0.21176238851E+03 0.  0.
     200001    1    1    2    0    0 -0.23462423733E+03 -0.31568136535E+03  0.24135278692E+01  0.72833926318E+03  0.61300000000E+03 0. -1.
         13    1    4    4    0    0  0.45049864652E+02  0.10727951866E+03  0.29742458194E+03  0.31937404174E+03  0.10566000000E+00 0.  1.
    -200003    1    4    4    0    0  0.29384341766E+03  0.36677119385E+02  0.42953916510E+03  0.52258306473E+03  0.30000000000E+02 0.  1.
    -200000    1    3    3    0    0 -0.10426904498E+03  0.17172472731E+03  0.65266297399E+02  0.23414120801E+03  0.10100000000E+03 0. -1.
<mgrwt>
<rscale>  0 0.16200421E+04</rscale>
<asrwt>0</asrwt>
<pdfrwt beam="1">  1        2 0.18564865E+00 0.16200421E+04</pdfrwt>
<pdfrwt beam="2">  1       -2 0.72128144E-01 0.16200421E+04</pdfrwt>
<totfact> 0.31379643E+01</totfact>
</mgrwt>
</event>
<event>
 8    2  0.4306980E-052  0.1436372E+04  0.7818608E-02  0.8927903E-01
         -2   -1    0    0    0  501 -0.00000000000E+00  0.00000000000E+00  0.81242403010E+03  0.81242403010E+03  0.25500000000E-02 0. -1.
          2   -1    0    0  501    0  0.00000000000E+00 -0.00000000000E+00 -0.63487952777E+03  0.63487952778E+03  0.25500000000E-02 0.  1.
    -200001    2    1    2    0    0 -0.23279704198E+03  0.20154178334E+03  0.30207504731E+03  0.75010171492E+03  0.61366904382E+03 0.  0.
   -5000001    2    3    3    0    0 -0.30901734208E+03 -0.10428361095E+03  0.21893537059E+03  0.40885120314E+03  0.11340114900E+03 0.  0.
     200001    1    1    2    0    0  0.23279704198E+03 -0.20154178334E+03 -0.12453054499E+03  0.69720184296E+03  0.61300000000E+03 0.  1.
         13    1    4    4    0    0 -0.22183987388E+03 -0.24633886891E+02  0.14905599875E+03  0.26839795073E+03  0.10566000000E+00 0.  1.
    -200003    1    4    4    0    0 -0.87177468197E+02 -0.79649724064E+02  0.69879371845E+02  0.14045325242E+03  0.30000000000E+02 0.  1.
    -200000    1    3    3    0    0  0.76220300105E+02  0.30582539430E+03  0.83139676719E+02  0.34125051178E+03  0.10100000000E+03 0. -1.
<mgrwt>
<rscale>  0 0.14363724E+04</rscale>
<asrwt>0</asrwt>
<pdfrwt beam="1">  1        2 0.90697075E-01 0.14363724E+04</pdfrwt>
<pdfrwt beam="2">  1       -2 0.11606058E+00 0.14363724E+04</pdfrwt>
<totfact> 0.28431703E+01</totfact>
</mgrwt>
</event>
<event>
 8    2  0.4306980E-052  0.2494070E+04  0.7818608E-02  0.8405101E-01
         -2   -1    0    0    0  501 -0.00000000000E+00  0.00000000000E+00  0.13873725146E+04  0.13873725146E+04  0.25500000000E-02 0. -1.
          2   -1    0    0  501    0  0.00000000000E+00 -0.00000000000E+00 -0.11208933636E+04  0.11208933636E+04  0.25500000000E-02 0.  1.
    -200001    2    1    2    0    0  0.35178865589E+03 -0.42476152496E+02  0.11656088081E+04  0.13638172676E+04  0.61302052485E+03 0.  0.
   -5000001    2    3    3    0    0 -0.11257574294E+03  0.88788608562E+02  0.24861394861E+03  0.32269032781E+03  0.14752436174E+03 0.  0.
     200001    1    1    2    0    0 -0.35178865589E+03  0.42476152496E+02 -0.89912965712E+03  0.11444486106E+04  0.61300000000E+03 0.  1.
         13    1    4    4    0    0 -0.97505497572E+02  0.10424255314E+03  0.11277162003E+03  0.18191009150E+03  0.10566000000E+00 0.  1.
    -200003    1    4    4    0    0 -0.15070245368E+02 -0.15453944580E+02  0.13584232859E+03  0.14078023630E+03  0.30000000000E+02 0.  1.
    -200000    1    3    3    0    0  0.46436439883E+03 -0.13126476106E+03  0.91699485953E+03  0.10411269398E+04  0.10100000000E+03 0. -1.
<mgrwt>
<rscale>  0 0.24940703E+04</rscale>
<asrwt>0</asrwt>
<pdfrwt beam="1">  1        2 0.16012762E+00 0.24940703E+04</pdfrwt>
<pdfrwt beam="2">  1       -2 0.19819608E+00 0.24940703E+04</pdfrwt>
<totfact> 0.29123237E+00</totfact>
</mgrwt>
</event>
<event>
 8    2  0.4306980E-052  0.1687637E+04  0.7818608E-02  0.8768447E-01
          2   -1    0    0  501    0  0.00000000000E+00  0.00000000000E+00  0.28912321212E+04  0.28912321212E+04  0.25500000000E-02 0.  1.
         -2   -1    0    0    0  501 -0.00000000000E+00 -0.00000000000E+00 -0.24627214796E+03  0.24627214798E+03  0.25500000000E-02 0. -1.
    -200001    2    1    2    0    0 -0.42741777361E+03  0.29500286296E+03  0.84123338580E+03  0.11629381790E+04  0.61240424264E+03 0.  0.
   -5000001    2    3    3    0    0  0.85951989850E+02  0.87796321549E+02  0.70008253104E+01  0.15664397259E+03  0.96914312449E+02 0.  0.
     200001    1    1    2    0    0  0.42741777361E+03 -0.29500286296E+03  0.18037265875E+04  0.19745660902E+04  0.61300000000E+03 0.  1.
         13    1    4    4    0    0  0.34275959161E+02  0.42792625651E+02  0.46643746753E+02  0.71984029213E+02  0.10566000000E+00 0.  1.
    -200003    1    4    4    0    0  0.51676030689E+02  0.45003695898E+02 -0.39642921443E+02  0.84659943379E+02  0.30000000000E+02 0.  1.
    -200000    1    3    3    0    0 -0.51336976346E+03  0.20720654141E+03  0.83423256049E+03  0.10062942064E+04  0.10100000000E+03 0. -1.
<mgrwt>
<rscale>  0 0.16876373E+04</rscale>
<asrwt>0</asrwt>
<pdfrwt beam="1">  1        2 0.41303315E+00 0.16876373E+04</pdfrwt>
<pdfrwt beam="2">  1       -2 0.35181737E-01 0.16876373E+04</pdfrwt>
<totfact> 0.19681039E+01</totfact>
</mgrwt>
</event>
<event>
 8    2  0.4306980E-052  0.1626010E+04  0.7818608E-02  0.8804727E-01
         -2   -1    0    0    0  501 -0.00000000000E+00  0.00000000000E+00  0.10054204238E+04  0.10054204238E+04  0.25500000000E-02 0.  1.
          2   -1    0    0  501    0  0.00000000000E+00 -0.00000000000E+00 -0.65741334601E+03  0.65741334601E+03  0.25500000000E-02 0. -1.
    -200001    2    1    2    0    0 -0.39555430119E+03 -0.35776092984E+03  0.15104039123E+03  0.82675903409E+03  0.61340134704E+03 0.  0.
   -5000001    2    3    3    0    0 -0.42655868856E+03 -0.95205917082E+02 -0.89406943747E+02  0.45539354342E+03  0.91505171251E+02 0.  0.
     200001    1    1    2    0    0  0.39555430119E+03  0.35776092984E+03  0.19696668656E+03  0.83607473573E+03  0.61300000000E+03 0. -1.
         13    1    4    4    0    0 -0.14891770368E+03 -0.40222791635E+02  0.82834802144E+01  0.15447647926E+03  0.10566000000E+00 0.  1.
    -200003    1    4    4    0    0 -0.27764098488E+03 -0.54983125447E+02 -0.97690423962E+02  0.30091706416E+03  0.30000000000E+02 0.  1.
    -200000    1    3    3    0    0  0.31004387371E+02 -0.26255501276E+03  0.24044733498E+03  0.37136549067E+03  0.10100000000E+03 0.  1.
<mgrwt>
<rscale>  0 0.16260096E+04</rscale>
<asrwt>0</asrwt>
<pdfrwt beam="1">  1        2 0.93916193E-01 0.16260096E+04</pdfrwt>
<pdfrwt beam="2">  1       -2 0.14363149E+00 0.16260096E+04</pdfrwt>
<totfact> 0.15659777E+01</totfact>
</mgrwt>
</event>
<event>
 8    2  0.4306980E-052  0.1331097E+04  0.7818608E-02  0.9005262E-01
         -2   -1    0    0    0  501 -0.00000000000E+00  0.00000000000E+00  0.10237266702E+04  0.10237266702E+04  0.25500000000E-02 0. -1.
          2   -1    0    0  501    0  0.00000000000E+00 -0.00000000000E+00 -0.43268882143E+03  0.43268882144E+03  0.25500000000E-02 0.  1.
    -200001    2    1    2    0    0  0.20348690371E+03  0.10864089583E+03  0.42525028203E+03  0.78079408767E+03  0.61285548113E+03 0.  0.
   -5000001    2    3    3    0    0  0.23584506949E+03  0.88798603786E+02  0.54798347471E+02  0.39494903682E+03  0.29912170427E+03 0.  0.
     200001    1    1    2    0    0 -0.20348690371E+03 -0.10864089583E+03  0.16578756675E+03  0.67562140398E+03  0.61300000000E+03 0.  1.
         13    1    4    4    0    0  0.26624820756E+03  0.86933269864E+02 -0.47496018284E+02  0.28407989080E+03  0.10566000000E+00 0.  1.
    -200003    1    4    4    0    0 -0.30403138073E+02  0.18653339228E+01  0.10229436575E+03  0.11086914603E+03  0.30000000000E+02 0.  1.
    -200000    1    3    3    0    0 -0.32358165776E+02  0.19842292042E+02  0.37045193456E+03  0.38584505085E+03  0.10100000000E+03 0. -1.
<mgrwt>
<rscale>  0 0.13310974E+04</rscale>
<asrwt>0</asrwt>
<pdfrwt beam="1">  1        2 0.61812690E-01 0.13310974E+04</pdfrwt>
<pdfrwt beam="2">  1       -2 0.14624667E+00 0.13310974E+04</pdfrwt>
<totfact> 0.24820865E+01</totfact>
</mgrwt>
</event>
<event>
 8    2  0.4306980E-052  0.1491555E+04  0.7818608E-02  0.8890088E-01
         -2   -1    0    0    0  501 -0.00000000000E+00  0.00000000000E+00  0.52166067850E+03  0.52166067850E+03  0.25500000000E-02 0. -1.
          2   -1    0    0  501    0  0.00000000000E+00 -0.00000000000E+00 -0.10661797411E+04  0.10661797411E+04  0.25500000000E-02 0.  1.
    -200001    2    1    2    0    0  0.96092088348E+02 -0.26540337347E+03  0.66550867968E+02  0.67742946838E+03  0.61221648664E+03 0.  0.
   -5000001    2    3    3    0    0  0.11751630469E+02 -0.18906209655E+03  0.32108417394E+03  0.38090036822E+03  0.78150282038E+02 0.  0.
     200001    1    1    2    0    0 -0.96092088348E+02  0.26540337347E+03 -0.61106993061E+03  0.91041095127E+03  0.61300000000E+03 0.  1.
         13    1    4    4    0    0  0.35904867092E+02 -0.12594109873E+03  0.20718569346E+03  0.24510455436E+03  0.10566000000E+00 0.  1.
    -200003    1    4    4    0    0 -0.24153236622E+02 -0.63120997828E+02  0.11389848048E+03  0.13579581386E+03  0.30000000000E+02 0.  1.
    -200000    1    3    3    0    0  0.84340457878E+02 -0.76341276912E+02 -0.25453330597E+03  0.29652910016E+03  0.10100000000E+03 0.  1.
<mgrwt>
<rscale>  0 0.14915550E+04</rscale>
<asrwt>0</asrwt>
<pdfrwt beam="1">  1        2 0.15231139E+00 0.14915550E+04</pdfrwt>
<pdfrwt beam="2">  1       -2 0.74522954E-01 0.14915550E+04</pdfrwt>
<totfact> 0.40151881E+01</totfact>
</mgrwt>
</event>
<event>
 8    2  0.4306980E-052  0.1343651E+04  0.7818608E-02  0.8995648E-01
         -2   -1    0    0    0  501 -0.00000000000E+00  0.00000000000E+00  0.40068908080E+03  0.40068908081E+03  0.25500000000E-02 0. -1.
          2   -1    0    0  501    0  0.00000000000E+00 -0.00000000000E+00 -0.11264334221E+04  0.11264334221E+04  0.25500000000E-02 0.  1.
    -200001    2    1    2    0    0 -0.14716067468E+03 -0.16548177691E+03 -0.17753055609E+03  0.67544895223E+03  0.61292226755E+03 0.  0.
   -5000001    2    3    3    0    0  0.11759625733E+03 -0.14640695162E+03 -0.29802979851E+03  0.36693452885E+03  0.10273905022E+03 0.  0.
     200001    1    1    2    0    0  0.14716067468E+03  0.16548177691E+03 -0.54821378523E+03  0.85167355071E+03  0.61300000000E+03 0. -1.
         13    1    4    4    0    0  0.22515904282E+02 -0.96841624375E+02 -0.10886416765E+03  0.14743366074E+03  0.10566000000E+00 0.  1.
    -200003    1    4    4    0    0  0.95080353051E+02 -0.49565327247E+02 -0.18916563087E+03  0.21950086811E+03  0.30000000000E+02 0.  1.
    -200000    1    3    3    0    0 -0.26475693202E+03 -0.19074825285E+02  0.12049924242E+03  0.30851442338E+03  0.10100000000E+03 0. -1.
<mgrwt>
<rscale>  0 0.13436511E+04</rscale>
<asrwt>0</asrwt>
<pdfrwt beam="1">  1        2 0.16091906E+00 0.13436511E+04</pdfrwt>
<pdfrwt beam="2">  1       -2 0.57241298E-01 0.13436511E+04</pdfrwt>
<totfact> 0.65937748E+01</totfact>
</mgrwt>
</event>
<event>
 8    2  0.4306980E-052  0.1524390E+04  0.7818608E-02  0.8868394E-01
          2   -1    0    0  501    0  0.00000000000E+00  0.00000000000E+00  0.12992225484E+04  0.12992225484E+04  0.25500000000E-02 0.  1.
         -2   -1    0    0    0  501 -0.00000000000E+00 -0.00000000000E+00 -0.44714522929E+03  0.44714522930E+03  0.25500000000E-02 0. -1.
    -200001    2    1    2    0    0  0.97126123091E+02  0.42206389804E+03  0.27386786914E+03  0.79891509506E+03  0.61293580541E+03 0.  0.
   -5000001    2    3    3    0    0 -0.85782687012E+02  0.45665603864E+03  0.22515995655E+02  0.47023437870E+03  0.68702211292E+02 0.  0.
     200001    1    1    2    0    0 -0.97126123091E+02 -0.42206389804E+03  0.57820944998E+03  0.94745268265E+03  0.61300000000E+03 0.  1.
         13    1    4    4    0    0 -0.11098382678E+02  0.60145098366E+02  0.23819772389E+02  0.65635353859E+02  0.10566000000E+00 0.  1.
    -200003    1    4    4    0    0 -0.74684304334E+02  0.39651094027E+03 -0.13037767335E+01  0.40459902484E+03  0.30000000000E+02 0.  1.
    -200000    1    3    3    0    0  0.18290881010E+03 -0.34592140599E+02  0.25135187348E+03  0.32868071636E+03  0.10100000000E+03 0.  1.
<mgrwt>
<rscale>  0 0.15243899E+04</rscale>
<asrwt>0</asrwt>
<pdfrwt beam="1">  1        2 0.18560322E+00 0.15243899E+04</pdfrwt>
<pdfrwt beam="2">  1       -2 0.63877890E-01 0.15243899E+04</pdfrwt>
<totfact> 0.41147102E+01</totfact>
</mgrwt>
</event>
<event>
 8    2  0.4306980E-052  0.1344182E+04  0.7818608E-02  0.8995244E-01
         -2   -1    0    0    0  501 -0.00000000000E+00  0.00000000000E+00  0.32785644154E+04  0.32785644154E+04  0.25500000000E-02 0. -1.
          2   -1    0    0  501    0  0.00000000000E+00 -0.00000000000E+00 -0.13777555281E+03  0.13777555283E+03  0.25500000000E-02 0.  1.
    -200001    2    1    2    0    0  0.10705127661E+03 -0.16584977153E+03  0.20585362551E+04  0.21569727346E+04  0.61318328586E+03 0.  0.
   -5000001    2    3    3    0    0  0.21668520223E+03 -0.28507812996E+02  0.18555606443E+04  0.18701234541E+04  0.80568333513E+02 0.  0.
     200001    1    1    2    0    0 -0.10705127661E+03  0.16584977153E+03  0.10822526075E+04  0.12593672336E+04  0.61300000000E+03 0.  1.
         13    1    4    4    0    0  0.13668890479E+03  0.14097062798E+02  0.11130539570E+04  0.11215042159E+04  0.10566000000E+00 0.  1.
    -200003    1    4    4    0    0  0.79996297441E+02 -0.42604875794E+02  0.74250668734E+03  0.74861923819E+03  0.30000000000E+02 0.  1.
    -200000    1    3    3    0    0 -0.10963392562E+03 -0.13734195854E+03  0.20297561074E+03  0.28684928059E+03  0.10100000000E+03 0. -1.
<mgrwt>
<rscale>  0 0.13441816E+04</rscale>
<asrwt>0</asrwt>
<pdfrwt beam="1">  1        2 0.19682219E-01 0.13441816E+04</pdfrwt>
<pdfrwt beam="2">  1       -2 0.46836641E+00 0.13441816E+04</pdfrwt>
<totfact> 0.75529634E-01</totfact>
</mgrwt>
</event>
<event>
 8    2  0.4306980E-052  0.1450528E+04  0.7818608E-02  0.8918035E-01
         -2   -1    0    0    0  501 -0.00000000000E+00  0.00000000000E+00  0.51940632103E+03  0.51940632103E+03  0.25500000000E-02 0. -1.
          2   -1    0    0  501    0  0.00000000000E+00 -0.00000000000E+00 -0.10127098369E+04  0.10127098369E+04  0.25500000000E-02 0.  1.
    -200001    2    1    2    0    0 -0.22009739844E+03  0.27723997227E+03 -0.41415404233E+03  0.81983917099E+03  0.61262372504E+03 0.  0.
   -5000001    2    3    3    0    0 -0.70252003418E+02 -0.16844034424E+03 -0.21033635171E+02  0.19868762631E+03  0.75676056230E+02 0.  0.
     200001    1    1    2    0    0  0.22009739844E+03 -0.27723997227E+03 -0.79149473582E+02  0.71227698699E+03  0.61300000000E+03 0. -1.
         13    1    4    4    0    0  0.38791559980E+01 -0.19480574151E+02  0.16123225918E+02  0.25583396931E+02  0.10566000000E+00 0.  1.
    -200003    1    4    4    0    0 -0.74131159416E+02 -0.14895977009E+03 -0.37156861088E+02  0.17310422938E+03  0.30000000000E+02 0.  1.
    -200000    1    3    3    0    0 -0.14984539502E+03  0.44568031651E+03 -0.39312040716E+03  0.62115154468E+03  0.10100000000E+03 0.  1.
<mgrwt>
<rscale>  0 0.14505280E+04</rscale>
<asrwt>0</asrwt>
<pdfrwt beam="1">  1        2 0.14467283E+00 0.14505280E+04</pdfrwt>
<pdfrwt beam="2">  1       -2 0.74200904E-01 0.14505280E+04</pdfrwt>
<totfact> 0.43816815E+01</totfact>
</mgrwt>
</event>
<event>
 8    2  0.4306980E-052  0.1549948E+04  0.7818608E-02  0.8851901E-01
          2   -1    0    0  501    0  0.00000000000E+00  0.00000000000E+00  0.33689123265E+04  0.33689123265E+04  0.25500000000E-02 0.  1.
         -2   -1    0    0    0  501 -0.00000000000E+00 -0.00000000000E+00 -0.17827266262E+03  0.17827266264E+03  0.25500000000E-02 0. -1.
    -200001    2    1    2    0    0  0.38417659998E+03 -0.23375915751E+03  0.19388923431E+04  0.20826456900E+04  0.61308608544E+03 0.  0.
   -5000001    2    3    3    0    0  0.41810459769E+03 -0.33851256636E+03  0.17951064556E+04  0.18752818379E+04  0.69803814530E+02 0.  0.
     200001    1    1    2    0    0 -0.38417659998E+03  0.23375915751E+03  0.12517473207E+04  0.14645392991E+04  0.61300000000E+03 0. -1.
         13    1    4    4    0    0  0.21705929958E+03 -0.18731500459E+03  0.86412678846E+03  0.91044866312E+03  0.10566000000E+00 0.  1.
    -200003    1    4    4    0    0  0.20104529812E+03 -0.15119756178E+03  0.93097966715E+03  0.96483317482E+03  0.30000000000E+02 0.  1.
    -200000    1    3    3    0    0 -0.33927997716E+02  0.10475340885E+03  0.14378588752E+03  0.20736385207E+03  0.10100000000E+03 0. -1.
<mgrwt>
<rscale>  0 0.15499483E+04</rscale>
<asrwt>0</asrwt>
<pdfrwt beam="1">  1        2 0.48127314E+00 0.15499483E+04</pdfrwt>
<pdfrwt beam="2">  1       -2 0.25467526E-01 0.15499483E+04</pdfrwt>
<totfact> 0.19451233E+01</totfact>
</mgrwt>
</event>
<event>
 8    2  0.4306980E-052  0.1966641E+04  0.7818608E-02  0.8622378E-01
          2   -1    0    0  501    0  0.00000000000E+00  0.00000000000E+00  0.96539787966E+03  0.96539787966E+03  0.25500000000E-02 0.  1.
         -2   -1    0    0    0  501 -0.00000000000E+00 -0.00000000000E+00 -0.10015762337E+04  0.10015762337E+04  0.25500000000E-02 0. -1.
    -200001    2    1    2    0    0 -0.53882383775E+03 -0.91452535116E+02 -0.55903244825E+03  0.99340331573E+03  0.61289328206E+03 0.  0.
   -5000001    2    3    3    0    0 -0.34441145659E+03 -0.26471503457E+03 -0.55701081133E+03  0.71408064446E+03  0.10467483895E+03 0.  0.
     200001    1    1    2    0    0  0.53882383775E+03  0.91452535116E+02  0.52285409417E+03  0.97357079768E+03  0.61300000000E+03 0.  1.
         13    1    4    4    0    0 -0.11206639128E+03 -0.52557695490E+02 -0.10377677670E+03  0.16152652400E+03  0.10566000000E+00 0.  1.
    -200003    1    4    4    0    0 -0.23234506531E+03 -0.21215733908E+03 -0.45323403463E+03  0.55255412046E+03  0.30000000000E+02 0.  1.
    -200000    1    3    3    0    0 -0.19441238116E+03  0.17326249945E+03 -0.20216369205E+01  0.27932267126E+03  0.10100000000E+03 0. -1.
<mgrwt>
<rscale>  0 0.19666414E+04</rscale>
<asrwt>0</asrwt>
<pdfrwt beam="1">  1        2 0.13791398E+00 0.19666414E+04</pdfrwt>
<pdfrwt beam="2">  1       -2 0.14308232E+00 0.19666414E+04</pdfrwt>
<totfact> 0.93649661E+00</totfact>
</mgrwt>
</event>
<event>
 8    2  0.4306980E-052  0.1506598E+04  0.7818608E-02  0.8880077E-01
         -2   -1    0    0    0  501 -0.00000000000E+00  0.00000000000E+00  0.86513140354E+03  0.86513140354E+03  0.25500000000E-02 0.  1.
          2   -1    0    0  501    0  0.00000000000E+00 -0.00000000000E+00 -0.65592290602E+03  0.65592290603E+03  0.25500000000E-02 0. -1.
    -200001    2    1    2    0    0 -0.26190613638E+03 -0.27657917489E+03 -0.11016344493E+03  0.73184058574E+03  0.61511283037E+03 0.  0.
   -5000001    2    3    3    0    0 -0.14087676337E+03 -0.11408621061E+03 -0.34743987502E+03  0.40388757562E+03  0.97717864647E+02 0.  0.
     200001    1    1    2    0    0  0.26190613638E+03  0.27657917489E+03  0.31937194244E+03  0.78921372383E+03  0.61300000000E+03 0.  1.
         13    1    4    4    0    0 -0.16965955633E+02 -0.53505482956E+02 -0.52251057553E+02  0.76686795059E+02  0.10566000000E+00 0.  1.
    -200003    1    4    4    0    0 -0.12391080774E+03 -0.60580727652E+02 -0.29518881747E+03  0.32720078056E+03  0.30000000000E+02 0.  1.
    -200000    1    3    3    0    0 -0.12102937300E+03 -0.16249296429E+03  0.23727643009E+03  0.32795301013E+03  0.10100000000E+03 0.  1.
<mgrwt>
<rscale>  0 0.15065982E+04</rscale>
<asrwt>0</asrwt>
<pdfrwt beam="1">  1        2 0.93703272E-01 0.15065982E+04</pdfrwt>
<pdfrwt beam="2">  1       -2 0.12359020E+00 0.15065982E+04</pdfrwt>
<totfact> 0.23267183E+01</totfact>
</mgrwt>
</event>
<event>
 8    2  0.4306980E-052  0.1322199E+04  0.7818608E-02  0.9012144E-01
          2   -1    0    0  501    0  0.00000000000E+00  0.00000000000E+00  0.18778139072E+04  0.18778139072E+04  0.25500000000E-02 0.  1.
         -2   -1    0    0    0  501 -0.00000000000E+00 -0.00000000000E+00 -0.23274537144E+03  0.23274537146E+03  0.25500000000E-02 0. -1.
    -200001    2    1    2    0    0  0.58177731407E+02  0.23683747589E+03  0.74581205932E+03  0.99525311046E+03  0.61222258013E+03 0.  0.
   -5000001    2    3    3    0    0 -0.93414649348E+02 -0.12607645555E+03  0.43931444318E+03  0.48650114708E+03  0.13807467823E+03 0.  0.
     200001    1    1    2    0    0 -0.58177731407E+02 -0.23683747589E+03  0.89925647640E+03  0.11153061682E+04  0.61300000000E+03 0. -1.
         13    1    4    4    0    0  0.27994403883E+02 -0.60524313601E+01  0.11786242472E+03  0.12129254264E+03  0.10566000000E+00 0.  1.
    -200003    1    4    4    0    0 -0.12140905323E+03 -0.12002402419E+03  0.32145201845E+03  0.36520860444E+03  0.30000000000E+02 0.  1.
    -200000    1    3    3    0    0  0.15159238076E+03  0.36291393144E+03  0.30649761615E+03  0.50875196338E+03  0.10100000000E+03 0.  1.
<mgrwt>
<rscale>  0 0.13221989E+04</rscale>
<asrwt>0</asrwt>
<pdfrwt beam="1">  1        2 0.26825914E+00 0.13221989E+04</pdfrwt>
<pdfrwt beam="2">  1       -2 0.33249337E-01 0.13221989E+04</pdfrwt>
<totfact> 0.76731577E+01</totfact>
</mgrwt>
</event>
<event>
 8    2  0.4306980E-052  0.1452519E+04  0.7818608E-02  0.8916656E-01
         -2   -1    0    0    0  501 -0.00000000000E+00  0.00000000000E+00  0.98589452247E+03  0.98589452248E+03  0.25500000000E-02 0. -1.
          2   -1    0    0  501    0  0.00000000000E+00 -0.00000000000E+00 -0.53499932140E+03  0.53499932140E+03  0.25500000000E-02 0.  1.
    -200001    2    1    2    0    0  0.26368940500E+03 -0.19847914471E+03  0.83222124070E+01  0.69592964860E+03  0.61263589789E+03 0.  0.
   -5000001    2    3    3    0    0  0.38106742611E+03 -0.29733892277E+03  0.79059704651E+02  0.49906510540E+03  0.95878695721E+02 0.  0.
     200001    1    1    2    0    0 -0.26368940500E+03  0.19847914471E+03  0.44257298867E+03  0.82496419528E+03  0.61300000000E+03 0. -1.
         13    1    4    4    0    0  0.30551459001E+03 -0.26703934071E+03  0.59185606833E+02  0.41006355778E+03  0.10566000000E+00 0.  1.
    -200003    1    4    4    0    0  0.75552836099E+02 -0.30299582065E+02  0.19874097819E+02  0.89001547627E+02  0.30000000000E+02 0. -1.
    -200000    1    3    3    0    0 -0.11737802111E+03  0.98859778063E+02 -0.70737492244E+02  0.19686454319E+03  0.10100000000E+03 0. -1.
<mgrwt>
<rscale>  0 0.14525191E+04</rscale>
<asrwt>0</asrwt>
<pdfrwt beam="1">  1        2 0.76428475E-01 0.14525191E+04</pdfrwt>
<pdfrwt beam="2">  1       -2 0.14084207E+00 0.14525191E+04</pdfrwt>
<totfact> 0.21314434E+01</totfact>
</mgrwt>
</event>
<event>
 8    2  0.4306980E-052  0.1780988E+04  0.7818608E-02  0.8716476E-01
         -2   -1    0    0    0  501 -0.00000000000E+00  0.00000000000E+00  0.38638055888E+03  0.38638055888E+03  0.25500000000E-02 0. -1.
          2   -1    0    0  501    0  0.00000000000E+00 -0.00000000000E+00 -0.20523282602E+04  0.20523282602E+04  0.25500000000E-02 0.  1.
    -200001    2    1    2    0    0 -0.62833071193E+03  0.10310580288E+03 -0.68329882830E+03  0.11170439229E+04  0.61274753922E+03 0.  0.
   -5000001    2    3    3    0    0 -0.80295213574E+02  0.23422106543E+03 -0.48761827668E+02  0.26242568961E+03  0.71990957163E+02 0.  0.
     200001    1    1    2    0    0  0.62833071193E+03 -0.10310580288E+03 -0.98264887306E+03  0.13216648962E+04  0.61300000000E+03 0.  1.
         13    1    4    4    0    0 -0.71862958461E+02  0.17625414371E+03 -0.49256970994E+02  0.19661146541E+03  0.10566000000E+00 0.  1.
    -200003    1    4    4    0    0 -0.84322551130E+01  0.57966921719E+02  0.49514332647E+00  0.65814224198E+02  0.30000000000E+02 0. -1.
    -200000    1    3    3    0    0 -0.54803549835E+03 -0.13111526255E+03 -0.63453700063E+03  0.85461823331E+03  0.10100000000E+03 0.  1.
<mgrwt>
<rscale>  0 0.17809882E+04</rscale>
<asrwt>0</asrwt>
<pdfrwt beam="1">  1        2 0.29318975E+00 0.17809882E+04</pdfrwt>
<pdfrwt beam="2">  1       -2 0.55197224E-01 0.17809882E+04</pdfrwt>
<totfact> 0.22057131E+01</totfact>
</mgrwt>
</event>
<event>
 8    2  0.4306980E-052  0.1711689E+04  0.7818608E-02  0.8754726E-01
          2   -1    0    0  501    0  0.00000000000E+00  0.00000000000E+00  0.27547724364E+04  0.27547724364E+04  0.25500000000E-02 0.  1.
         -2   -1    0    0    0  501 -0.00000000000E+00 -0.00000000000E+00 -0.26589113851E+03  0.26589113852E+03  0.25500000000E-02 0. -1.
    -200001    2    1    2    0    0  0.43278461413E+03 -0.11069604551E+03  0.19431051312E+04  0.20862135972E+04  0.61406309576E+03 0.  0.
   -5000001    2    3    3    0    0  0.35127764965E+02  0.12889457867E+03  0.11827702324E+03  0.20054839350E+03  0.91555620410E+02 0.  0.
     200001    1    1    2    0    0 -0.43278461413E+03  0.11069604551E+03  0.54577616671E+03  0.93444997772E+03  0.61300000000E+03 0. -1.
         13    1    4    4    0    0  0.22838611558E+02 -0.17009618912E+01  0.36494326526E+02  0.43085293105E+02  0.10566000000E+00 0.  1.
    -200003    1    4    4    0    0  0.12289153406E+02  0.13059554056E+03  0.81782696715E+02  0.15746310040E+03  0.30000000000E+02 0.  1.
    -200000    1    3    3    0    0  0.39765684916E+03 -0.23959062418E+03  0.18248281080E+04  0.18856652037E+04  0.10100000000E+03 0.  1.
<mgrwt>
<rscale>  0 0.17116887E+04</rscale>
<asrwt>0</asrwt>
<pdfrwt beam="1">  1        2 0.39353890E+00 0.17116887E+04</pdfrwt>
<pdfrwt beam="2">  1       -2 0.37984450E-01 0.17116887E+04</pdfrwt>
<totfact> 0.20109032E+01</totfact>
</mgrwt>
</event>
<event>
 8    2  0.4306980E-052  0.1440712E+04  0.7818608E-02  0.8924865E-01
         -2   -1    0    0    0  501 -0.00000000000E+00  0.00000000000E+00  0.33956569898E+03  0.33956569899E+03  0.25500000000E-02 0. -1.
          2   -1    0    0  501    0  0.00000000000E+00 -0.00000000000E+00 -0.15281656573E+04  0.15281656573E+04  0.25500000000E-02 0.  1.
    -200001    2    1    2    0    0  0.21574660931E+03 -0.11035065377E+03 -0.97145156858E+03  0.11737239432E+04  0.61252418612E+03 0.  0.
   -5000001    2    3    3    0    0  0.39422208363E+03 -0.32367928597E+01 -0.72569546880E+03  0.83619774467E+03  0.13103902741E+03 0.  0.
     200001    1    1    2    0    0 -0.21574660931E+03  0.11035065377E+03 -0.21714838973E+03  0.69400741306E+03  0.61300000000E+03 0. -1.
         13    1    4    4    0    0  0.33562993712E+03  0.34569391458E+02 -0.62290297548E+03  0.70841416243E+03  0.10566000000E+00 0.  1.
    -200003    1    4    4    0    0  0.58592146510E+02 -0.37806184318E+02 -0.10279249333E+03  0.12778358224E+03  0.30000000000E+02 0. -1.
    -200000    1    3    3    0    0 -0.17847547432E+03 -0.10711386091E+03 -0.24575609978E+03  0.33752619855E+03  0.10100000000E+03 0.  1.
<mgrwt>
<rscale>  0 0.14407118E+04</rscale>
<asrwt>0</asrwt>
<pdfrwt beam="1">  1        2 0.21830937E+00 0.14407118E+04</pdfrwt>
<pdfrwt beam="2">  1       -2 0.48509387E-01 0.14407118E+04</pdfrwt>
<totfact> 0.55213501E+01</totfact>
</mgrwt>
</event>
<event>
 8    2  0.4306980E-052  0.1273953E+04  0.7818608E-02  0.9050480E-01
          2   -1    0    0  501    0  0.00000000000E+00  0.00000000000E+00  0.36953202413E+04  0.36953202413E+04  0.25500000000E-02 0.  1.
         -2   -1    0    0    0  501 -0.00000000000E+00 -0.00000000000E+00 -0.10979804678E+03  0.10979804681E+03  0.25500000000E-02 0. -1.
    -200001    2    1    2    0    0  0.23249295015E+02 -0.15978851668E+03  0.16080334944E+04  0.17285096445E+04  0.61310763500E+03 0.  0.
   -5000001    2    3    3    0    0  0.25101785081E+03 -0.19285105615E+03  0.12300820719E+04  0.12746154670E+04  0.10649504183E+03 0.  0.
     200001    1    1    2    0    0 -0.23249295015E+02  0.15978851668E+03  0.19774887001E+04  0.20766086436E+04  0.61300000000E+03 0.  1.
         13    1    4    4    0    0  0.25655025250E+01  0.96819735148E+01  0.19079218730E+02  0.21548785714E+02  0.10566000000E+00 0.  1.
    -200003    1    4    4    0    0  0.24845234828E+03 -0.20253302967E+03  0.12110028531E+04  0.12530666813E+04  0.30000000000E+02 0.  1.
    -200000    1    3    3    0    0 -0.22776855579E+03  0.33062539478E+02  0.37795142254E+03  0.45389417745E+03  0.10100000000E+03 0. -1.
<mgrwt>
<rscale>  0 0.12739528E+04</rscale>
<asrwt>0</asrwt>
<pdfrwt beam="1">  1        2 0.52790287E+00 0.12739528E+04</pdfrwt>
<pdfrwt beam="2">  1       -2 0.15685436E-01 0.12739528E+04</pdfrwt>
<totfact> 0.29639749E+01</totfact>
</mgrwt>
</event>
<event>
 8    2  0.4306980E-052  0.1505703E+04  0.7818608E-02  0.8880669E-01
          2   -1    0    0  501    0  0.00000000000E+00  0.00000000000E+00  0.18978362448E+04  0.18978362448E+04  0.25500000000E-02 0. -1.
         -2   -1    0    0    0  501 -0.00000000000E+00 -0.00000000000E+00 -0.29864836294E+03  0.29864836295E+03  0.25500000000E-02 0.  1.
    -200001    2    1    2    0    0  0.20032615566E+03 -0.34112510938E+03  0.10699575207E+04  0.12951796182E+04  0.61333860027E+03 0.  0.
   -5000001    2    3    3    0    0  0.99173304011E+01 -0.45811606870E+03  0.77182665849E+03  0.90914151613E+03  0.14440643942E+03 0.  0.
     200001    1    1    2    0    0 -0.20032615566E+03  0.34112510938E+03  0.52923036116E+03  0.90130498948E+03  0.61300000000E+03 0. -1.
         13    1    4    4    0    0 -0.57876236496E+02 -0.22652016345E+03  0.43296379063E+03  0.49205558463E+03  0.10566000000E+00 0.  1.
    -200003    1    4    4    0    0  0.67793566897E+02 -0.23159590526E+03  0.33886286786E+03  0.41708593150E+03  0.30000000000E+02 0.  1.
    -200000    1    3    3    0    0  0.19040882526E+03  0.11699095932E+03  0.29813086216E+03  0.38603810210E+03  0.10100000000E+03 0. -1.
<mgrwt>
<rscale>  0 0.15057034E+04</rscale>
<asrwt>0</asrwt>
<pdfrwt beam="1">  1        2 0.27111948E+00 0.15057034E+04</pdfrwt>
<pdfrwt beam="2">  1       -2 0.42664050E-01 0.15057034E+04</pdfrwt>
<totfact> 0.45622039E+01</totfact>
</mgrwt>
</event>
<event>
 8    2  0.4306980E-052  0.1683117E+04  0.7818608E-02  0.8771052E-01
          2   -1    0    0  501    0  0.00000000000E+00  0.00000000000E+00  0.12382772301E+04  0.12382772301E+04  0.25500000000E-02 0.  1.
         -2   -1    0    0    0  501 -0.00000000000E+00 -0.00000000000E+00 -0.57194062077E+03  0.57194062078E+03  0.25500000000E-02 0. -1.
    -200001    2    1    2    0    0  0.21030664181E+03  0.35912853976E+03 -0.96414936079E+02  0.74684533306E+03  0.61260094675E+03 0.  0.
   -5000001    2    3    3    0    0  0.62720509167E+02  0.22383211576E+03  0.16437988500E+03  0.40289515121E+03  0.28507731927E+03 0.  0.
     200001    1    1    2    0    0 -0.21030664181E+03 -0.35912853976E+03  0.76275154544E+03  0.10633725179E+04  0.61300000000E+03 0.  1.
         13    1    4    4    0    0 -0.57158777609E+02  0.68222630887E+02  0.18281837515E+03  0.20333229620E+03  0.10566000000E+00 0.  1.
    -200003    1    4    4    0    0  0.11987928678E+03  0.15560948487E+03 -0.18438490153E+02  0.19956285501E+03  0.30000000000E+02 0.  1.
    -200000    1    3    3    0    0  0.14758613264E+03  0.13529642400E+03 -0.26079482108E+03  0.34395018185E+03  0.10100000000E+03 0. -1.
<mgrwt>
<rscale>  0 0.16831174E+04</rscale>
<asrwt>0</asrwt>
<pdfrwt beam="1">  1        2 0.17689675E+00 0.16831174E+04</pdfrwt>
<pdfrwt beam="2">  1       -2 0.81705802E-01 0.16831174E+04</pdfrwt>
<totfact> 0.25597417E+01</totfact>
</mgrwt>
</event>
<event>
 8    2  0.4306980E-052  0.1705505E+04  0.7818608E-02  0.8758231E-01
         -2   -1    0    0    0  501 -0.00000000000E+00  0.00000000000E+00  0.99327744276E+03  0.99327744276E+03  0.25500000000E-02 0. -1.
          2   -1    0    0  501    0  0.00000000000E+00 -0.00000000000E+00 -0.73210856727E+03  0.73210856728E+03  0.25500000000E-02 0.  1.
    -200001    2    1    2    0    0 -0.47528936256E+03  0.31658053724E+03 -0.32102754617E+02  0.83774843549E+03  0.61210182126E+03 0.  0.
   -5000001    2    3    3    0    0  0.16996799569E+02  0.29776701257E+03 -0.10617561987E+03  0.32943022462E+03  0.91087461658E+02 0.  0.
     200001    1    1    2    0    0  0.47528936256E+03 -0.31658053724E+03  0.29327163010E+03  0.88763757455E+03  0.61300000000E+03 0.  1.
         13    1    4    4    0    0 -0.14865792287E+02  0.29865570934E+02 -0.35943123881E+02  0.49039406867E+02  0.10566000000E+00 0.  1.
    -200003    1    4    4    0    0  0.31862591855E+02  0.26790144163E+03 -0.70232495990E+02  0.28039081775E+03  0.30000000000E+02 0.  1.
    -200000    1    3    3    0    0 -0.49228616213E+03  0.18813524673E+02  0.74072865255E+02  0.50831821087E+03  0.10100000000E+03 0. -1.
<mgrwt>
<rscale>  0 0.17055051E+04</rscale>
<asrwt>0</asrwt>
<pdfrwt beam="1">  1        2 0.10458694E+00 0.17055051E+04</pdfrwt>
<pdfrwt beam="2">  1       -2 0.14189678E+00 0.17055051E+04</pdfrwt>
<totfact> 0.14071280E+01</totfact>
</mgrwt>
</event>
<event>
 8    2  0.4306980E-052  0.1751326E+04  0.7818608E-02  0.8732621E-01
         -2   -1    0    0    0  501 -0.00000000000E+00  0.00000000000E+00  0.17768406661E+03  0.17768406663E+03  0.25500000000E-02 0. -1.
          2   -1    0    0  501    0  0.00000000000E+00 -0.00000000000E+00 -0.43154447825E+04  0.43154447825E+04  0.25500000000E-02 0.  1.
    -200001    2    1    2    0    0 -0.36550904410E+03  0.45349504990E+02 -0.77273861183E+03  0.10529549873E+04  0.61313604046E+03 0.  0.
   -5000001    2    3    3    0    0 -0.85136931995E+02  0.11244133603E+03 -0.72581295081E+03  0.74390345000E+03  0.81832463678E+02 0.  0.
     200001    1    1    2    0    0  0.36550904410E+03 -0.45349504990E+02 -0.33650221040E+04  0.34401738618E+04  0.61300000000E+03 0.  1.
         13    1    4    4    0    0 -0.42631646287E+02  0.30984651192E+02 -0.41703093652E+03  0.42034785482E+03  0.10566000000E+00 0.  1.
    -200003    1    4    4    0    0 -0.42505285709E+02  0.81456684840E+02 -0.30878201429E+03  0.32355559517E+03  0.30000000000E+02 0.  1.
    -200000    1    3    3    0    0 -0.28037211210E+03 -0.67091831041E+02 -0.46925661017E+02  0.30905153729E+03  0.10100000000E+03 0. -1.
<mgrwt>
<rscale>  0 0.17513261E+04</rscale>
<asrwt>0</asrwt>
<pdfrwt beam="1">  1        2 0.61649205E+00 0.17513261E+04</pdfrwt>
<pdfrwt beam="2">  1       -2 0.25383441E-01 0.17513261E+04</pdfrwt>
<totfact> 0.45443802E+00</totfact>
</mgrwt>
</event>
<event>
 8    2  0.4306980E-052  0.1465640E+04  0.7818608E-02  0.8907629E-01
          2   -1    0    0  501    0  0.00000000000E+00  0.00000000000E+00  0.24093876289E+04  0.24093876289E+04  0.25500000000E-02 0.  1.
         -2   -1    0    0    0  501 -0.00000000000E+00 -0.00000000000E+00 -0.22288868214E+03  0.22288868215E+03  0.25500000000E-02 0. -1.
    -200001    2    1    2    0    0 -0.21236221324E+03  0.32710899734E+03  0.12650375441E+04  0.14588377220E+04  0.61301672515E+03 0.  0.
   -5000001    2    3    3    0    0 -0.32476851403E+03  0.14022224573E+03  0.11023124372E+04  0.11685924898E+04  0.15930735098E+03 0.  0.
     200001    1    1    2    0    0  0.21236221324E+03 -0.32710899734E+03  0.92146140267E+03  0.11734385891E+04  0.61300000000E+03 0. -1.
         13    1    4    4    0    0  0.36104987161E+01  0.25149952887E+02  0.23328039455E+02  0.34492961892E+02  0.10566000000E+00 0.  1.
    -200003    1    4    4    0    0 -0.32837901274E+03  0.11507229284E+03  0.10789843978E+04  0.11340995279E+04  0.30000000000E+02 0.  1.
    -200000    1    3    3    0    0  0.11240630078E+03  0.18688675161E+03  0.16272510686E+03  0.29024523215E+03  0.10100000000E+03 0. -1.
<mgrwt>
<rscale>  0 0.14656401E+04</rscale>
<asrwt>0</asrwt>
<pdfrwt beam="1">  1        2 0.34419824E+00 0.14656401E+04</pdfrwt>
<pdfrwt beam="2">  1       -2 0.31841239E-01 0.14656401E+04</pdfrwt>
<totfact> 0.43812971E+01</totfact>
</mgrwt>
</event>
<event>
 8    2  0.4306980E-052  0.1914001E+04  0.7818608E-02  0.8647918E-01
          2   -1    0    0  501    0  0.00000000000E+00  0.00000000000E+00  0.88234456241E+03  0.88234456241E+03  0.25500000000E-02 0. -1.
         -2   -1    0    0    0  501 -0.00000000000E+00 -0.00000000000E+00 -0.10379731035E+04  0.10379731035E+04  0.25500000000E-02 0.  1.
    -200001    2    1    2    0    0  0.12004428322E+03  0.13147725475E+03 -0.79320633191E+03  0.10181140648E+04  0.61292990267E+03 0.  0.
   -5000001    2    3    3    0    0  0.31261649760E+03  0.15658469397E+03 -0.26022619746E+03  0.44193417542E+03  0.73077360390E+02 0.  0.
     200001    1    1    2    0    0 -0.12004428322E+03 -0.13147725475E+03  0.63757779082E+03  0.90220360107E+03  0.61300000000E+03 0. -1.
         13    1    4    4    0    0  0.10682792115E+03  0.34051757584E+02 -0.11306288673E+03  0.15923239134E+03  0.10566000000E+00 0.  1.
    -200003    1    4    4    0    0  0.20578857644E+03  0.12253293639E+03 -0.14716331072E+03  0.28270178407E+03  0.30000000000E+02 0.  1.
    -200000    1    3    3    0    0 -0.19257221438E+03 -0.25107439219E+02 -0.53298013445E+03  0.57617988942E+03  0.10100000000E+03 0.  1.
<mgrwt>
<rscale>  0 0.19140010E+04</rscale>
<asrwt>0</asrwt>
<pdfrwt beam="1">  1        2 0.12604922E+00 0.19140010E+04</pdfrwt>
<pdfrwt beam="2">  1       -2 0.14828187E+00 0.19140010E+04</pdfrwt>
<totfact> 0.96840280E+00</totfact>
</mgrwt>
</event>
<event>
 8    2  0.4306980E-052  0.2113415E+04  0.7818608E-02  0.8555357E-01
         -2   -1    0    0    0  501 -0.00000000000E+00  0.00000000000E+00  0.20922390213E+03  0.20922390215E+03  0.25500000000E-02 0. -1.
          2   -1    0    0  501    0  0.00000000000E+00 -0.00000000000E+00 -0.53370118934E+04  0.53370118934E+04  0.25500000000E-02 0.  1.
    -200001    2    1    2    0    0  0.72698641335E+03 -0.42655908717E+03 -0.30213491929E+04  0.31960623314E+04  0.61302657453E+03 0.  0.
   -5000001    2    3    3    0    0  0.40048905271E+03 -0.81754743070E+02 -0.22187826649E+04  0.22580833370E+04  0.94172837558E+02 0.  0.
     200001    1    1    2    0    0 -0.72698641335E+03  0.42655908717E+03 -0.21064387984E+04  0.23501734641E+04  0.61300000000E+03 0. -1.
         13    1    4    4    0    0  0.16623625215E+03 -0.19931307788E+02 -0.69587091245E+03  0.71572905943E+03  0.10566000000E+00 0.  1.
    -200003    1    4    4    0    0  0.23425280057E+03 -0.61823435282E+02 -0.15229117524E+04  0.15423542775E+04  0.30000000000E+02 0.  1.
    -200000    1    3    3    0    0  0.32649736064E+03 -0.34480434410E+03 -0.80256652800E+03  0.93797899448E+03  0.10100000000E+03 0.  1.
<mgrwt>
<rscale>  0 0.21134147E+04</rscale>
<asrwt>0</asrwt>
<pdfrwt beam="1">  1        2 0.76243019E+00 0.21134147E+04</pdfrwt>
<pdfrwt beam="2">  1       -2 0.29889132E-01 0.21134147E+04</pdfrwt>
<totfact> 0.37913434E-01</totfact>
</mgrwt>
</event>
<event>
 8    2  0.4306980E-052  0.2012710E+04  0.7818608E-02  0.8600701E-01
          2   -1    0    0  501    0  0.00000000000E+00  0.00000000000E+00  0.19201022103E+04  0.19201022103E+04  0.25500000000E-02 0.  1.
         -2   -1    0    0    0  501 -0.00000000000E+00 -0.00000000000E+00 -0.52744609975E+03  0.52744609976E+03  0.25500000000E-02 0. -1.
    -200001    2    1    2    0    0 -0.71942686057E+03 -0.28931652088E+03  0.46718224557E+03  0.10934619274E+04  0.61328678375E+03 0.  0.
   -5000001    2    3    3    0    0 -0.40255939399E+03 -0.15614714708E+03  0.57332920405E+03  0.71982139120E+03  0.54776471021E+02 0.  0.
     200001    1    1    2    0    0  0.71942686057E+03  0.28931652088E+03  0.92547386499E+03  0.13540863827E+04  0.61300000000E+03 0.  1.
         13    1    4    4    0    0 -0.48749394354E+02 -0.17745470890E+02  0.94944334534E+02  0.10819354422E+03  0.10566000000E+00 0.  1.
    -200003    1    4    4    0    0 -0.35380999963E+03 -0.13840167619E+03  0.47838486952E+03  0.61162784698E+03  0.30000000000E+02 0.  1.
    -200000    1    3    3    0    0 -0.31686746659E+03 -0.13316937380E+03 -0.10614695848E+03  0.37364053620E+03  0.10100000000E+03 0. -1.
<mgrwt>
<rscale>  0 0.20127100E+04</rscale>
<asrwt>0</asrwt>
<pdfrwt beam="1">  1        2 0.27430032E+00 0.20127100E+04</pdfrwt>
<pdfrwt beam="2">  1       -2 0.75349443E-01 0.20127100E+04</pdfrwt>
<totfact> 0.12988974E+01</totfact>
</mgrwt>
</event>
<event>
 8    2  0.4306980E-052  0.1402718E+04  0.7818608E-02  0.8951854E-01
         -2   -1    0    0    0  501 -0.00000000000E+00  0.00000000000E+00  0.32906354070E+03  0.32906354071E+03  0.25500000000E-02 0. -1.
          2   -1    0    0  501    0  0.00000000000E+00 -0.00000000000E+00 -0.14948610172E+04  0.14948610172E+04  0.25500000000E-02 0.  1.
    -200001    2    1    2    0    0  0.20565092949E+03 -0.23078471139E+03 -0.39538164036E+03  0.79200234748E+03  0.61268849268E+03 0.  0.
   -5000001    2    3    3    0    0  0.39376250377E+03 -0.50146576190E+02 -0.22113885510E+03  0.46249112084E+03  0.86209368089E+02 0.  0.
     200001    1    1    2    0    0 -0.20565092949E+03  0.23078471139E+03 -0.77041583614E+03  0.10319222104E+04  0.61300000000E+03 0.  1.
         13    1    4    4    0    0  0.79225028644E+02  0.64426961221E+01 -0.76841889721E+02  0.11055677581E+03  0.10566000000E+00 0.  1.
    -200003    1    4    4    0    0  0.31453747512E+03 -0.56589272312E+02 -0.14429696538E+03  0.35193434504E+03  0.30000000000E+02 0.  1.
    -200000    1    3    3    0    0 -0.18811157427E+03 -0.18063813520E+03 -0.17424278526E+03  0.32951122664E+03  0.10100000000E+03 0. -1.
<mgrwt>
<rscale>  0 0.14027177E+04</rscale>
<asrwt>0</asrwt>
<pdfrwt beam="1">  1        2 0.21355157E+00 0.14027177E+04</pdfrwt>
<pdfrwt beam="2">  1       -2 0.47009078E-01 0.14027177E+04</pdfrwt>
<totfact> 0.61447461E+01</totfact>
</mgrwt>
</event>
<event>
 8    2  0.4306980E-052  0.1384323E+04  0.7818608E-02  0.8965245E-01
         -2   -1    0    0    0  501 -0.00000000000E+00  0.00000000000E+00  0.28404674406E+03  0.28404674407E+03  0.25500000000E-02 0. -1.
          2   -1    0    0  501    0  0.00000000000E+00 -0.00000000000E+00 -0.16866494784E+04  0.16866494784E+04  0.25500000000E-02 0.  1.
    -200001    2    1    2    0    0 -0.24459141969E+03 -0.17581504949E+03 -0.86651747020E+03  0.11024265036E+04  0.61135568659E+03 0.  0.
   -5000001    2    3    3    0    0 -0.36251645111E+03 -0.24876315264E+02 -0.24905642840E+03  0.44809634792E+03  0.82001366476E+02 0.  0.
     200001    1    1    2    0    0  0.24459141969E+03  0.17581504949E+03 -0.53608526412E+03  0.86826971882E+03  0.61300000000E+03 0.  1.
         13    1    4    4    0    0 -0.59022753106E+02  0.87763758748E+01 -0.73231651024E+02  0.94464787268E+02  0.10566000000E+00 0.  1.
    -200003    1    4    4    0    0 -0.30349369801E+03 -0.33652691138E+02 -0.17582477737E+03  0.35363156065E+03  0.30000000000E+02 0.  1.
    -200000    1    3    3    0    0  0.11792503142E+03 -0.15093873423E+03 -0.61746104180E+03  0.65433015571E+03  0.10100000000E+03 0.  1.
<mgrwt>
<rscale>  0 0.13843226E+04</rscale>
<asrwt>0</asrwt>
<pdfrwt beam="1">  1        2 0.24094992E+00 0.13843226E+04</pdfrwt>
<pdfrwt beam="2">  1       -2 0.40578107E-01 0.13843226E+04</pdfrwt>
<totfact> 0.65338732E+01</totfact>
</mgrwt>
</event>
<event>
 8    2  0.4306980E-052  0.1288392E+04  0.7818608E-02  0.9038821E-01
         -2   -1    0    0    0  501 -0.00000000000E+00  0.00000000000E+00  0.67624711955E+03  0.67624711956E+03  0.25500000000E-02 0. -1.
          2   -1    0    0  501    0  0.00000000000E+00 -0.00000000000E+00 -0.61366394747E+03  0.61366394747E+03  0.25500000000E-02 0.  1.
    -200001    2    1    2    0    0 -0.58124704807E+01  0.25246094053E+02  0.22949063863E+03  0.65406654793E+03  0.61193622693E+03 0.  0.
   -5000001    2    3    3    0    0 -0.14502877239E+03 -0.23776864877E+03  0.16744165290E+03  0.33374013583E+03  0.76016419144E+02 0.  0.
     200001    1    1    2    0    0  0.58124704807E+01 -0.25246094053E+02 -0.16690746655E+03  0.63584451910E+03  0.61300000000E+03 0.  1.
         13    1    4    4    0    0 -0.76005997706E+02 -0.13316384034E+03  0.55563286216E+02  0.16308528444E+03  0.10566000000E+00 0.  1.
    -200003    1    4    4    0    0 -0.69022774687E+02 -0.10460480843E+03  0.11187836668E+03  0.17065485139E+03  0.30000000000E+02 0.  1.
    -200000    1    3    3    0    0  0.13921630191E+03  0.26301474282E+03  0.62048985738E+02  0.32032641210E+03  0.10100000000E+03 0. -1.
<mgrwt>
<rscale>  0 0.12883920E+04</rscale>
<asrwt>0</asrwt>
<pdfrwt beam="1">  1        2 0.87666279E-01 0.12883920E+04</pdfrwt>
<pdfrwt beam="2">  1       -2 0.96606731E-01 0.12883920E+04</pdfrwt>
<totfact> 0.46505040E+01</totfact>
</mgrwt>
</event>
<event>
 8    2  0.4306980E-052  0.1416203E+04  0.7818608E-02  0.8942172E-01
         -2   -1    0    0    0  501 -0.00000000000E+00  0.00000000000E+00  0.15097147083E+04  0.15097147083E+04  0.25500000000E-02 0. -1.
          2   -1    0    0  501    0  0.00000000000E+00 -0.00000000000E+00 -0.33212108550E+03  0.33212108551E+03  0.25500000000E-02 0.  1.
    -200001    2    1    2    0    0  0.15660685198E+03 -0.27534985994E+03  0.37542778059E+03  0.78373263728E+03  0.61069433995E+03 0.  0.
   -5000001    2    3    3    0    0 -0.58717074155E+02  0.14830597703E+03  0.35592850170E+02  0.19082670773E+03  0.98517124295E+02 0.  0.
     200001    1    1    2    0    0 -0.15660685198E+03  0.27534985994E+03  0.80216584219E+03  0.10581031565E+04  0.61300000000E+03 0.  1.
         13    1    4    4    0    0  0.27065103042E+01  0.32813371939E+02 -0.27152525887E+02  0.42676848549E+02  0.10566000000E+00 0.  1.
    -200003    1    4    4    0    0 -0.61423584459E+02  0.11549260509E+03  0.62745376057E+02  0.14814985918E+03  0.30000000000E+02 0.  1.
    -200000    1    3    3    0    0  0.21532392614E+03 -0.42365583697E+03  0.33983493042E+03  0.59290592955E+03  0.10100000000E+03 0. -1.
<mgrwt>
<rscale>  0 0.14162035E+04</rscale>
<asrwt>0</asrwt>
<pdfrwt beam="1">  1        2 0.47445868E-01 0.14162035E+04</pdfrwt>
<pdfrwt beam="2">  1       -2 0.21567354E+00 0.14162035E+04</pdfrwt>
<totfact> 0.10913582E+01</totfact>
</mgrwt>
</event>
<event>
 8    2  0.4306980E-052  0.1368083E+04  0.7818608E-02  0.8977252E-01
         -2   -1    0    0    0  501 -0.00000000000E+00  0.00000000000E+00  0.27887819663E+03  0.27887819664E+03  0.25500000000E-02 0. -1.
          2   -1    0    0  501    0  0.00000000000E+00 -0.00000000000E+00 -0.16778385174E+04  0.16778385174E+04  0.25500000000E-02 0.  1.
    -200001    2    1    2    0    0 -0.28793751020E+03 -0.95518207259E+02 -0.66238183962E+03  0.95155573361E+03  0.61210854839E+03 0.  0.
   -5000001    2    3    3    0    0 -0.39928560895E+03  0.27971801145E+02 -0.63586145686E+03  0.75520779761E+03  0.76207651054E+02 0.  0.
     200001    1    1    2    0    0  0.28793751020E+03  0.95518207259E+02 -0.73657848118E+03  0.10051609805E+04  0.61300000000E+03 0. -1.
         13    1    4    4    0    0 -0.12269325756E+02 -0.78187049879E+01 -0.45378048518E+02  0.47653404427E+02  0.10566000000E+00 0.  1.
    -200003    1    4    4    0    0 -0.38701628320E+03  0.35790506133E+02 -0.59048340834E+03  0.70755439318E+03  0.30000000000E+02 0.  1.
    -200000    1    3    3    0    0  0.11134809875E+03 -0.12349000840E+03 -0.26520382766E+02  0.19634793600E+03  0.10100000000E+03 0.  1.
<mgrwt>
<rscale>  0 0.13680827E+04</rscale>
<asrwt>0</asrwt>
<pdfrwt beam="1">  1        2 0.23969121E+00 0.13680827E+04</pdfrwt>
<pdfrwt beam="2">  1       -2 0.39839743E-01 0.13680827E+04</pdfrwt>
<totfact> 0.68529202E+01</totfact>
</mgrwt>
</event>
<event>
 8    2  0.4306980E-052  0.1301187E+04  0.7818608E-02  0.9028624E-01
         -2   -1    0    0    0  501 -0.00000000000E+00  0.00000000000E+00  0.39849899049E+03  0.39849899050E+03  0.25500000000E-02 0. -1.
          2   -1    0    0  501    0  0.00000000000E+00 -0.00000000000E+00 -0.10621656161E+04  0.10621656161E+04  0.25500000000E-02 0.  1.
    -200001    2    1    2    0    0 -0.12330756172E+03  0.10693295375E+03 -0.49353444593E+03  0.80388962993E+03  0.61320704205E+03 0.  0.
   -5000001    2    3    3    0    0 -0.25213363307E+03 -0.14066974390E+03 -0.37992317329E+03  0.48606613519E+03  0.92516616872E+02 0.  0.
     200001    1    1    2    0    0  0.12330756172E+03 -0.10693295375E+03 -0.17013217964E+03  0.65677497663E+03  0.61300000000E+03 0. -1.
         13    1    4    4    0    0 -0.34028865153E+02  0.43277262383E+00 -0.86917186006E+02  0.93342162729E+02  0.10566000000E+00 0.  1.
    -200003    1    4    4    0    0 -0.21810476792E+03 -0.14110251652E+03 -0.29300598728E+03  0.39272397246E+03  0.30000000000E+02 0.  1.
    -200000    1    3    3    0    0  0.12882607136E+03  0.24760269764E+03 -0.11361127264E+03  0.31782349475E+03  0.10100000000E+03 0. -1.
<mgrwt>
<rscale>  0 0.13011870E+04</rscale>
<asrwt>0</asrwt>
<pdfrwt beam="1">  1        2 0.15173794E+00 0.13011870E+04</pdfrwt>
<pdfrwt beam="2">  1       -2 0.56928427E-01 0.13011870E+04</pdfrwt>
<totfact> 0.73030089E+01</totfact>
</mgrwt>
</event>
<event>
 8    2  0.4306980E-052  0.1279366E+04  0.7818608E-02  0.9046090E-01
         -2   -1    0    0    0  501 -0.00000000000E+00  0.00000000000E+00  0.50392208507E+03  0.50392208508E+03  0.25500000000E-02 0. -1.
          2   -1    0    0  501    0  0.00000000000E+00 -0.00000000000E+00 -0.81201866892E+03  0.81201866893E+03  0.25500000000E-02 0.  1.
    -200001    2    1    2    0    0 -0.71044253206E+02  0.48363951433E+02  0.10986442699E+02  0.61954335629E+03  0.61345489703E+03 0.  0.
   -5000001    2    3    3    0    0 -0.18794361591E+03 -0.20552032481E+03 -0.50461002363E+02  0.31606440277E+03  0.14067333531E+03 0.  0.
     200001    1    1    2    0    0  0.71044253206E+02 -0.48363951433E+02 -0.31908302655E+03  0.69639739772E+03  0.61300000000E+03 0.  1.
         13    1    4    4    0    0 -0.18259593199E+03 -0.19823698995E+03 -0.16742150285E+02  0.27003608892E+03  0.10566000000E+00 0.  1.
    -200003    1    4    4    0    0 -0.53476839248E+01 -0.72833348631E+01 -0.33718852078E+02  0.46028313846E+02  0.30000000000E+02 0.  1.
    -200000    1    3    3    0    0  0.11689936271E+03  0.25388427624E+03  0.61447445061E+02  0.30347895352E+03  0.10100000000E+03 0.  1.
<mgrwt>
<rscale>  0 0.12793657E+04</rscale>
<asrwt>0</asrwt>
<pdfrwt beam="1">  1        2 0.11600267E+00 0.12793657E+04</pdfrwt>
<pdfrwt beam="2">  1       -2 0.71988869E-01 0.12793657E+04</pdfrwt>
<totfact> 0.64060234E+01</totfact>
</mgrwt>
</event>
<event>
 8    2  0.4306980E-052  0.1771780E+04  0.7818608E-02  0.8721452E-01
         -2   -1    0    0    0  501 -0.00000000000E+00  0.00000000000E+00  0.54006141000E+03  0.54006141000E+03  0.25500000000E-02 0. -1.
          2   -1    0    0  501    0  0.00000000000E+00 -0.00000000000E+00 -0.14531699165E+04  0.14531699165E+04  0.25500000000E-02 0.  1.
    -200001    2    1    2    0    0 -0.25150575946E+02  0.57866114642E+03 -0.15263824026E+03  0.85764103961E+03  0.61381466794E+03 0.  0.
   -5000001    2    3    3    0    0  0.12691101284E+03  0.22530931331E+03 -0.45478838948E+00  0.43179946370E+03  0.34580323621E+03 0.  0.
     200001    1    1    2    0    0  0.25150575946E+02 -0.57866114642E+03 -0.76047026623E+03  0.11355902869E+04  0.61300000000E+03 0.  1.
         13    1    4    4    0    0  0.15917303157E+03  0.16923370893E+02 -0.10809815789E+03  0.19315195408E+03  0.10566000000E+00 0.  1.
    -200003    1    4    4    0    0 -0.32262018730E+02  0.20838594241E+03  0.10764336950E+03  0.23864750962E+03  0.30000000000E+02 0.  1.
    -200000    1    3    3    0    0 -0.15206158879E+03  0.35335183311E+03 -0.15218345187E+03  0.42584157591E+03  0.10100000000E+03 0. -1.
<mgrwt>
<rscale>  0 0.17717799E+04</rscale>
<asrwt>0</asrwt>
<pdfrwt beam="1">  1        2 0.20759570E+00 0.17717799E+04</pdfrwt>
<pdfrwt beam="2">  1       -2 0.77151630E-01 0.17717799E+04</pdfrwt>
<totfact> 0.22036348E+01</totfact>
</mgrwt>
</event>
<event>
 8    2  0.4306980E-052  0.1607228E+04  0.7818608E-02  0.8816120E-01
          2   -1    0    0  501    0  0.00000000000E+00  0.00000000000E+00  0.16777173320E+04  0.16777173320E+04  0.25500000000E-02 0.  1.
         -2   -1    0    0    0  501 -0.00000000000E+00 -0.00000000000E+00 -0.38492509051E+03  0.38492509052E+03  0.25500000000E-02 0. -1.
    -200001    2    1    2    0    0  0.37428192551E+02  0.40712151775E+03  0.22238529281E+03  0.76314681437E+03  0.60480496196E+03 0.  0.
   -5000001    2    3    3    0    0  0.10509624534E+02  0.48880823404E+03 -0.25385106472E+00  0.50398177563E+03  0.12228501074E+03 0.  0.
     200001    1    1    2    0    0 -0.37428192551E+02 -0.40712151775E+03  0.10704069487E+04  0.12994956081E+04  0.61300000000E+03 0.  1.
         13    1    4    4    0    0 -0.26167136747E+02  0.86808238933E+02 -0.36156280768E+02  0.97609821202E+02  0.10566000000E+00 0.  1.
    -200003    1    4    4    0    0  0.36676761282E+02  0.40199999511E+03  0.35902429703E+02  0.40637195442E+03  0.30000000000E+02 0.  1.
    -200000    1    3    3    0    0  0.26918568017E+02 -0.81686716287E+02  0.22263914387E+03  0.25916503874E+03  0.10100000000E+03 0.  1.
<mgrwt>
<rscale>  0 0.16072280E+04</rscale>
<asrwt>0</asrwt>
<pdfrwt beam="1">  1        2 0.23967390E+00 0.16072280E+04</pdfrwt>
<pdfrwt beam="2">  1       -2 0.54989299E-01 0.16072280E+04</pdfrwt>
<totfact> 0.35185039E+01</totfact>
</mgrwt>
</event>
<event>
 8    2  0.4306980E-052  0.3296435E+04  0.7818608E-02  0.8163803E-01
          2   -1    0    0  501    0  0.00000000000E+00  0.00000000000E+00  0.21210382737E+04  0.21210382737E+04  0.25500000000E-02 0.  1.
         -2   -1    0    0    0  501 -0.00000000000E+00 -0.00000000000E+00 -0.12807978208E+04  0.12807978208E+04  0.25500000000E-02 0. -1.
    -200001    2    1    2    0    0 -0.24798864089E+03 -0.12374480157E+04 -0.47252363770E+03  0.14804057640E+04  0.61281863569E+03 0.  0.
   -5000001    2    3    3    0    0 -0.42547031631E+03 -0.98967657928E+03 -0.34246205304E+03  0.11339848558E+04  0.90314305509E+02 0.  0.
     200001    1    1    2    0    0  0.24798864089E+03  0.12374480157E+04  0.13127640906E+04  0.19214303305E+04  0.61300000000E+03 0.  1.
         13    1    4    4    0    0 -0.84518248262E+02 -0.24930411296E+03 -0.53273849813E+02  0.26857771550E+03  0.10566000000E+00 0.  1.
    -200003    1    4    4    0    0 -0.34095206805E+03 -0.74037246632E+03 -0.28918820323E+03  0.86540714030E+03  0.30000000000E+02 0.  1.
    -200000    1    3    3    0    0  0.17748167542E+03 -0.24777143641E+03 -0.13006158466E+03  0.34642090816E+03  0.10100000000E+03 0.  1.
<mgrwt>
<rscale>  0 0.32964352E+04</rscale>
<asrwt>0</asrwt>
<pdfrwt beam="1">  1        2 0.30300547E+00 0.32964352E+04</pdfrwt>
<pdfrwt beam="2">  1       -2 0.18297112E+00 0.32964352E+04</pdfrwt>
<totfact> 0.10133527E+00</totfact>
</mgrwt>
</event>
<event>
 8    2  0.4306980E-052  0.1613450E+04  0.7818608E-02  0.8812328E-01
         -2   -1    0    0    0  501 -0.00000000000E+00  0.00000000000E+00  0.30849983996E+03  0.30849983998E+03  0.25500000000E-02 0. -1.
          2   -1    0    0  501    0  0.00000000000E+00 -0.00000000000E+00 -0.21095800676E+04  0.21095800676E+04  0.25500000000E-02 0.  1.
    -200001    2    1    2    0    0  0.11635698981E+03  0.32495170041E+02 -0.16656799887E+04  0.17787856797E+04  0.61236736071E+03 0.  0.
   -5000001    2    3    3    0    0  0.35319142791E+03  0.50360569500E+02 -0.91609739002E+03  0.98601534992E+03  0.75574271850E+02 0.  0.
     200001    1    1    2    0    0 -0.11635698981E+03 -0.32495170041E+02 -0.13540023902E+03  0.63929422794E+03  0.61300000000E+03 0. -1.
         13    1    4    4    0    0  0.24924985995E+03  0.23065973163E+02 -0.57467477896E+03  0.62682425331E+03  0.10566000000E+00 0.  1.
    -200003    1    4    4    0    0  0.10394156796E+03  0.27294596337E+02 -0.34142261106E+03  0.35919109661E+03  0.30000000000E+02 0.  1.
    -200000    1    3    3    0    0 -0.23683443810E+03 -0.17865399460E+02 -0.74958259863E+03  0.79277032976E+03  0.10100000000E+03 0.  1.
<mgrwt>
<rscale>  0 0.16134499E+04</rscale>
<asrwt>0</asrwt>
<pdfrwt beam="1">  1        2 0.30136857E+00 0.16134499E+04</pdfrwt>
<pdfrwt beam="2">  1       -2 0.44071407E-01 0.16134499E+04</pdfrwt>
<totfact> 0.33010884E+01</totfact>
</mgrwt>
</event>
<event>
 8    2  0.4306980E-052  0.1647004E+04  0.7818608E-02  0.8792181E-01
         -2   -1    0    0    0  501 -0.00000000000E+00  0.00000000000E+00  0.52159083746E+03  0.52159083747E+03  0.25500000000E-02 0. -1.
          2   -1    0    0  501    0  0.00000000000E+00 -0.00000000000E+00 -0.13001682727E+04  0.13001682727E+04  0.25500000000E-02 0.  1.
    -200001    2    1    2    0    0  0.42725911948E+03  0.21776776835E+03 -0.92338375287E+02  0.78413383893E+03  0.61348703792E+03 0.  0.
   -5000001    2    3    3    0    0  0.37601004808E+03  0.29741987669E+03  0.13999767620E+03  0.51366763678E+03  0.12005395631E+03 0.  0.
     200001    1    1    2    0    0 -0.42725911948E+03 -0.21776776835E+03 -0.68623905994E+03  0.10376252712E+04  0.61300000000E+03 0. -1.
         13    1    4    4    0    0  0.55407547592E+01  0.18154899042E+02  0.30689634461E+02  0.36085525490E+02  0.10566000000E+00 0.  1.
    -200003    1    4    4    0    0  0.37046929332E+03  0.27926497765E+03  0.10930804174E+03  0.47758211129E+03  0.30000000000E+02 0.  1.
    -200000    1    3    3    0    0  0.51249071397E+02 -0.79652108348E+02 -0.23233605149E+03  0.27046620215E+03  0.10100000000E+03 0.  1.
<mgrwt>
<rscale>  0 0.16470044E+04</rscale>
<asrwt>0</asrwt>
<pdfrwt beam="1">  1        2 0.18573832E+00 0.16470044E+04</pdfrwt>
<pdfrwt beam="2">  1       -2 0.74512977E-01 0.16470044E+04</pdfrwt>
<totfact> 0.29124689E+01</totfact>
</mgrwt>
</event>
<event>
 8    2  0.4306980E-052  0.1272931E+04  0.7818608E-02  0.9051311E-01
         -2   -1    0    0    0  501 -0.00000000000E+00  0.00000000000E+00  0.28558630765E+03  0.28558630767E+03  0.25500000000E-02 0. -1.
          2   -1    0    0  501    0  0.00000000000E+00 -0.00000000000E+00 -0.14184444024E+04  0.14184444024E+04  0.25500000000E-02 0.  1.
    -200001    2    1    2    0    0  0.89621571854E+02  0.44288612019E+02 -0.38010421782E+03  0.72812041372E+03  0.61293279662E+03 0.  0.
   -5000001    2    3    3    0    0  0.33691403632E+03  0.70077023951E+02 -0.21051245245E+03  0.41066022400E+03  0.76840547793E+02 0.  0.
     200001    1    1    2    0    0 -0.89621571854E+02 -0.44288612019E+02 -0.75275387692E+03  0.97591029635E+03  0.61300000000E+03 0.  1.
         13    1    4    4    0    0  0.99147775487E+01  0.17366261611E+02 -0.10807676128E+02  0.22731187464E+02  0.10566000000E+00 0.  1.
    -200003    1    4    4    0    0  0.32699925877E+03  0.52710762340E+02 -0.19970477632E+03  0.38792903654E+03  0.30000000000E+02 0.  1.
    -200000    1    3    3    0    0 -0.24729246447E+03 -0.25788411932E+02 -0.16959176538E+03  0.31746018972E+03  0.10100000000E+03 0.  1.
<mgrwt>
<rscale>  0 0.12729309E+04</rscale>
<asrwt>0</asrwt>
<pdfrwt beam="1">  1        2 0.20263491E+00 0.12729309E+04</pdfrwt>
<pdfrwt beam="2">  1       -2 0.40798044E-01 0.12729309E+04</pdfrwt>
<totfact> 0.90309232E+01</totfact>
</mgrwt>
</event>
<event>
 8    2  0.4306980E-052  0.1306733E+04  0.7818608E-02  0.9024243E-01
         -2   -1    0    0    0  501 -0.00000000000E+00  0.00000000000E+00  0.49422520108E+03  0.49422520109E+03  0.25500000000E-02 0. -1.
          2   -1    0    0  501    0  0.00000000000E+00 -0.00000000000E+00 -0.86375205553E+03  0.86375205553E+03  0.25500000000E-02 0.  1.
    -200001    2    1    2    0    0  0.64053660420E+01  0.69927668172E+01 -0.42118309704E+03  0.74273153750E+03  0.61169028769E+03 0.  0.
   -5000001    2    3    3    0    0  0.16963605456E+03 -0.94854502985E+02 -0.47554224749E+03  0.51873814188E+03  0.71937910392E+02 0.  0.
     200001    1    1    2    0    0 -0.64053660420E+01 -0.69927668172E+01  0.51656242591E+02  0.61524571912E+03  0.61300000000E+03 0. -1.
         13    1    4    4    0    0  0.84913635496E+02 -0.68264976953E+02 -0.30882659175E+03  0.32748176668E+03  0.10566000000E+00 0.  1.
    -200003    1    4    4    0    0  0.84722419064E+02 -0.26589526032E+02 -0.16671565574E+03  0.19125637520E+03  0.30000000000E+02 0.  1.
    -200000    1    3    3    0    0 -0.16323068852E+03  0.10184726980E+03  0.54359150450E+02  0.22399339561E+03  0.10100000000E+03 0. -1.
<mgrwt>
<rscale>  0 0.13067334E+04</rscale>
<asrwt>0</asrwt>
<pdfrwt beam="1">  1        2 0.12339315E+00 0.13067334E+04</pdfrwt>
<pdfrwt beam="2">  1       -2 0.70603601E-01 0.13067334E+04</pdfrwt>
<totfact> 0.61511594E+01</totfact>
</mgrwt>
</event>
<event>
 8    2  0.4306980E-052  0.1691872E+04  0.7818608E-02  0.8766014E-01
         -2   -1    0    0    0  501 -0.00000000000E+00  0.00000000000E+00  0.14757443681E+04  0.14757443681E+04  0.25500000000E-02 0. -1.
          2   -1    0    0  501    0  0.00000000000E+00 -0.00000000000E+00 -0.48491289534E+03  0.48491289535E+03  0.25500000000E-02 0.  1.
    -200001    2    1    2    0    0  0.42332619475E+03 -0.11993865047E+03  0.93768230001E+03  0.12042286934E+04  0.61427054563E+03 0.  0.
   -5000001    2    3    3    0    0  0.19678119825E+03  0.23360055197E+03  0.49924548773E+03  0.58880977797E+03  0.64489066949E+02 0.  0.
     200001    1    1    2    0    0 -0.42332619475E+03  0.11993865047E+03  0.53149172763E+02  0.75642857006E+03  0.61300000000E+03 0.  1.
         13    1    4    4    0    0  0.14757609448E+03  0.17276963689E+03  0.34137582541E+03  0.41007989030E+03  0.10566000000E+00 0.  1.
    -200003    1    4    4    0    0  0.49205103772E+02  0.60830915083E+02  0.15786966232E+03  0.17872988767E+03  0.30000000000E+02 0.  1.
    -200000    1    3    3    0    0  0.22654499651E+03 -0.35353920244E+03  0.43843681228E+03  0.61541891543E+03  0.10100000000E+03 0. -1.
<mgrwt>
<rscale>  0 0.16918717E+04</rscale>
<asrwt>0</asrwt>
<pdfrwt beam="1">  1        2 0.69273271E-01 0.16918717E+04</pdfrwt>
<pdfrwt beam="2">  1       -2 0.21082062E+00 0.16918717E+04</pdfrwt>
<totfact> 0.75037194E+00</totfact>
</mgrwt>
</event>
<event>
 8    2  0.4306980E-052  0.2550936E+04  0.7818608E-02  0.8385061E-01
          2   -1    0    0  501    0  0.00000000000E+00  0.00000000000E+00  0.17141360134E+04  0.17141360134E+04  0.25500000000E-02 0.  1.
         -2   -1    0    0    0  501 -0.00000000000E+00 -0.00000000000E+00 -0.94906036064E+03  0.94906036064E+03  0.25500000000E-02 0. -1.
    -200001    2    1    2    0    0 -0.14208951949E+03 -0.10538310793E+04  0.74479158383E+03  0.14356256760E+04  0.61282722111E+03 0.  0.
   -5000001    2    3    3    0    0 -0.24413461026E+03 -0.57513325863E+03  0.68528107443E+03  0.93232923768E+03  0.96164875923E+02 0.  0.
     200001    1    1    2    0    0  0.14208951949E+03  0.10538310793E+04  0.20284068965E+02  0.12275706981E+04  0.61300000000E+03 0. -1.
         13    1    4    4    0    0 -0.42522497133E+02 -0.19240795021E+03  0.18505007420E+03  0.27031929860E+03  0.10566000000E+00 0.  1.
    -200003    1    4    4    0    0 -0.20161211313E+03 -0.38272530842E+03  0.50023100022E+03  0.66200993909E+03  0.30000000000E+02 0.  1.
    -200000    1    3    3    0    0  0.10204509077E+03 -0.47869782070E+03  0.59510509405E+02  0.50329643832E+03  0.10100000000E+03 0. -1.
<mgrwt>
<rscale>  0 0.25509359E+04</rscale>
<asrwt>0</asrwt>
<pdfrwt beam="1">  1        2 0.24487657E+00 0.25509359E+04</pdfrwt>
<pdfrwt beam="2">  1       -2 0.13558005E+00 0.25509359E+04</pdfrwt>
<totfact> 0.39336770E+00</totfact>
</mgrwt>
</event>
<event>
 8    2  0.4306980E-052  0.1262076E+04  0.7818608E-02  0.9060192E-01
         -2   -1    0    0    0  501 -0.00000000000E+00  0.00000000000E+00  0.52426449255E+03  0.52426449255E+03  0.25500000000E-02 0. -1.
          2   -1    0    0  501    0  0.00000000000E+00 -0.00000000000E+00 -0.75955749313E+03  0.75955749313E+03  0.25500000000E-02 0.  1.
    -200001    2    1    2    0    0  0.48522098314E+02  0.12023979830E+03 -0.40743150823E+02  0.62774985005E+03  0.61286039746E+03 0.  0.
   -5000001    2    3    3    0    0  0.91380445238E+02 -0.21667172455E+03 -0.92333890719E+02  0.26968726253E+03  0.94385646179E+02 0.  0.
     200001    1    1    2    0    0 -0.48522098314E+02 -0.12023979830E+03 -0.19454984976E+03  0.65607213564E+03  0.61300000000E+03 0.  1.
         13    1    4    4    0    0  0.62562012591E+02 -0.10102629682E+03 -0.85887432787E+02  0.14661848568E+03  0.10566000000E+00 0.  1.
    -200003    1    4    4    0    0  0.28818432647E+02 -0.11564542774E+03 -0.64464579322E+01  0.12306877685E+03  0.30000000000E+02 0.  1.
    -200000    1    3    3    0    0 -0.42858346924E+02  0.33691152286E+03  0.51590739896E+02  0.35806258751E+03  0.10100000000E+03 0. -1.
<mgrwt>
<rscale>  0 0.12620761E+04</rscale>
<asrwt>0</asrwt>
<pdfrwt beam="1">  1        2 0.10850821E+00 0.12620761E+04</pdfrwt>
<pdfrwt beam="2">  1       -2 0.74894928E-01 0.12620761E+04</pdfrwt>
<totfact> 0.64039392E+01</totfact>
</mgrwt>
</event>
<event>
 8    2  0.4306980E-052  0.1788998E+04  0.7818608E-02  0.8712172E-01
         -2   -1    0    0    0  501 -0.00000000000E+00  0.00000000000E+00  0.44922004678E+03  0.44922004679E+03  0.25500000000E-02 0. -1.
          2   -1    0    0  501    0  0.00000000000E+00 -0.00000000000E+00 -0.17811509183E+04  0.17811509183E+04  0.25500000000E-02 0.  1.
    -200001    2    1    2    0    0  0.20299722733E+03  0.11376410599E+03 -0.14249919727E+04  0.15681176037E+04  0.61175203354E+03 0.  0.
   -5000001    2    3    3    0    0  0.16509223835E+03  0.16366344127E+03 -0.15574997978E+03  0.29332233836E+03  0.87970272270E+02 0.  0.
     200001    1    1    2    0    0 -0.20299722733E+03 -0.11376410599E+03  0.93061101226E+02  0.66225336139E+03  0.61300000000E+03 0. -1.
         13    1    4    4    0    0  0.10077734814E+03  0.54040605235E+02 -0.97727312246E+02  0.15042306883E+03  0.10566000000E+00 0.  1.
    -200003    1    4    4    0    0  0.64314890213E+02  0.10962283604E+03 -0.58022667534E+02  0.14289926953E+03  0.30000000000E+02 0.  1.
    -200000    1    3    3    0    0  0.37904988971E+02 -0.49899335280E+02 -0.12692419929E+04  0.12747952653E+04  0.10100000000E+03 0.  1.
<mgrwt>
<rscale>  0 0.17889983E+04</rscale>
<asrwt>0</asrwt>
<pdfrwt beam="1">  1        2 0.25445013E+00 0.17889983E+04</pdfrwt>
<pdfrwt beam="2">  1       -2 0.64174293E-01 0.17889983E+04</pdfrwt>
<totfact> 0.22131395E+01</totfact>
</mgrwt>
</event>
<event>
 8    2  0.4306980E-052  0.1247909E+04  0.7818608E-02  0.9071925E-01
         -2   -1    0    0    0  501 -0.00000000000E+00  0.00000000000E+00  0.43243095752E+03  0.43243095753E+03  0.25500000000E-02 0. -1.
          2   -1    0    0  501    0  0.00000000000E+00 -0.00000000000E+00 -0.90030420584E+03  0.90030420585E+03  0.25500000000E-02 0.  1.
    -200001    2    1    2    0    0 -0.11144254280E+03 -0.30078904262E+02 -0.23736227348E+03  0.66773253905E+03  0.61335284626E+03 0.  0.
   -5000001    2    3    3    0    0 -0.20921958419E+03 -0.20187494821E+03 -0.31293474742E+03  0.43324068556E+03  0.72408606906E+02 0.  0.
     200001    1    1    2    0    0  0.11144254280E+03  0.30078904262E+02 -0.23051097485E+03  0.66500262432E+03  0.61300000000E+03 0.  1.
         13    1    4    4    0    0 -0.54352777666E+02 -0.77385179088E+02 -0.13504877308E+03  0.16486622655E+03  0.10566000000E+00 0.  1.
    -200003    1    4    4    0    0 -0.15486680653E+03 -0.12448976912E+03 -0.17788597434E+03  0.26837445900E+03  0.30000000000E+02 0.  1.
    -200000    1    3    3    0    0  0.97777041394E+02  0.17179604394E+03  0.75572473946E+02  0.23449185350E+03  0.10100000000E+03 0.  1.
<mgrwt>
<rscale>  0 0.12479093E+04</rscale>
<asrwt>0</asrwt>
<pdfrwt beam="1">  1        2 0.12861489E+00 0.12479093E+04</pdfrwt>
<pdfrwt beam="2">  1       -2 0.61775852E-01 0.12479093E+04</pdfrwt>
<totfact> 0.77902618E+01</totfact>
</mgrwt>
</event>
<event>
 8    2  0.4306980E-052  0.1529320E+04  0.7818608E-02  0.8865186E-01
         -2   -1    0    0    0  501 -0.00000000000E+00  0.00000000000E+00  0.32993630778E+03  0.32993630779E+03  0.25500000000E-02 0. -1.
          2   -1    0    0  501    0  0.00000000000E+00 -0.00000000000E+00 -0.17721744316E+04  0.17721744316E+04  0.25500000000E-02 0.  1.
    -200001    2    1    2    0    0 -0.21264190907E+03  0.38015491198E+03 -0.91114110396E+03  0.11814765106E+04  0.61316742843E+03 0.  0.
   -5000001    2    3    3    0    0  0.15181624473E+03  0.89942057280E+02 -0.54445048655E+03  0.58004799802E+03  0.94295290798E+02 0.  0.
     200001    1    1    2    0    0  0.21264190907E+03 -0.38015491198E+03 -0.53109701981E+03  0.92063422870E+03  0.61300000000E+03 0. -1.
         13    1    4    4    0    0  0.57756238370E+02 -0.21299299250E+01 -0.99486182168E+02  0.11505577464E+03  0.10566000000E+00 0.  1.
    -200003    1    4    4    0    0  0.94060006364E+02  0.92071987205E+02 -0.44496430439E+03  0.46499222338E+03  0.30000000000E+02 0.  1.
    -200000    1    3    3    0    0 -0.36445815380E+03  0.29021285470E+03 -0.36669061740E+03  0.60142851262E+03  0.10100000000E+03 0. -1.
<mgrwt>
<rscale>  0 0.15293197E+04</rscale>
<asrwt>0</asrwt>
<pdfrwt beam="1">  1        2 0.25316777E+00 0.15293197E+04</pdfrwt>
<pdfrwt beam="2">  1       -2 0.47133759E-01 0.15293197E+04</pdfrwt>
<totfact> 0.43334349E+01</totfact>
</mgrwt>
</event>
<event>
 8    2  0.4306980E-052  0.1352104E+04  0.7818608E-02  0.8989237E-01
          2   -1    0    0  501    0  0.00000000000E+00  0.00000000000E+00  0.87170777984E+03  0.87170777985E+03  0.25500000000E-02 0.  1.
         -2   -1    0    0    0  501 -0.00000000000E+00 -0.00000000000E+00 -0.52431159054E+03  0.52431159055E+03  0.25500000000E-02 0. -1.
    -200001    2    1    2    0    0 -0.12811129529E+03 -0.20292738210E+03  0.12826599630E+02  0.65757652446E+03  0.61208687085E+03 0.  0.
   -5000001    2    3    3    0    0 -0.10868220592E+02 -0.26910420942E+03  0.24551414144E+03  0.37040096290E+03  0.66215450776E+02 0.  0.
     200001    1    1    2    0    0  0.12811129529E+03  0.20292738210E+03  0.33456958967E+03  0.73844284594E+03  0.61300000000E+03 0.  1.
         13    1    4    4    0    0 -0.66493169759E+01 -0.31955155514E+02  0.84500650025E+01  0.33715873751E+02  0.10566000000E+00 0.  1.
    -200003    1    4    4    0    0 -0.42189036165E+01 -0.23714905391E+03  0.23706407644E+03  0.33668508915E+03  0.30000000000E+02 0.  1.
    -200000    1    3    3    0    0 -0.11724307470E+03  0.66176827323E+02 -0.23268754181E+03  0.28717556156E+03  0.10100000000E+03 0. -1.
<mgrwt>
<rscale>  0 0.13521043E+04</rscale>
<asrwt>0</asrwt>
<pdfrwt beam="1">  1        2 0.12452968E+00 0.13521043E+04</pdfrwt>
<pdfrwt beam="2">  1       -2 0.74901656E-01 0.13521043E+04</pdfrwt>
<totfact> 0.53182525E+01</totfact>
</mgrwt>
</event>
<event>
 8    2  0.4306980E-052  0.1739852E+04  0.7818608E-02  0.8738956E-01
         -2   -1    0    0    0  501 -0.00000000000E+00  0.00000000000E+00  0.97564616547E+03  0.97564616548E+03  0.25500000000E-02 0. -1.
          2   -1    0    0  501    0  0.00000000000E+00 -0.00000000000E+00 -0.77566136764E+03  0.77566136764E+03  0.25500000000E-02 0.  1.
    -200001    2    1    2    0    0  0.57986345419E+03  0.11985570637E+03 -0.75716535580E+02  0.85554682785E+03  0.61287875231E+03 0.  0.
   -5000001    2    3    3    0    0  0.58026741524E+01 -0.20142894246E+02 -0.22531498751E+03  0.23770697467E+03  0.72789800088E+02 0.  0.
     200001    1    1    2    0    0 -0.57986345419E+03 -0.11985570637E+03  0.27570133342E+03  0.89576070527E+03  0.61300000000E+03 0. -1.
         13    1    4    4    0    0 -0.16780549558E+02  0.14071200508E+02 -0.40550771546E+02  0.46086459662E+02  0.10566000000E+00 0.  1.
    -200003    1    4    4    0    0  0.22583223711E+02 -0.34214094755E+02 -0.18476421596E+03  0.19162051501E+03  0.30000000000E+02 0. -1.
    -200000    1    3    3    0    0  0.57406078004E+03  0.13999860061E+03  0.14959845193E+03  0.61783985317E+03  0.10100000000E+03 0.  1.
<mgrwt>
<rscale>  0 0.17398518E+04</rscale>
<asrwt>0</asrwt>
<pdfrwt beam="1">  1        2 0.11080877E+00 0.17398518E+04</pdfrwt>
<pdfrwt beam="2">  1       -2 0.13937802E+00 0.17398518E+04</pdfrwt>
<totfact> 0.13667566E+01</totfact>
</mgrwt>
</event>
<event>
 8    2  0.4306980E-052  0.3256810E+04  0.7818608E-02  0.8173973E-01
         -2   -1    0    0    0  501 -0.00000000000E+00  0.00000000000E+00  0.12132183263E+04  0.12132183263E+04  0.25500000000E-02 0. -1.
          2   -1    0    0  501    0  0.00000000000E+00 -0.00000000000E+00 -0.21856758976E+04  0.21856758976E+04  0.25500000000E-02 0.  1.
    -200001    2    1    2    0    0 -0.15066615570E+04 -0.51475773904E+02 -0.42161814895E+03  0.16807929836E+04  0.61206567253E+03 0.  0.
   -5000001    2    3    3    0    0 -0.10638137811E+04 -0.16817136245E+03 -0.47109073722E+02  0.10806346208E+04  0.74636122632E+02 0.  0.
     200001    1    1    2    0    0  0.15066615570E+04  0.51475773904E+02 -0.55083942229E+03  0.17181012403E+04  0.61300000000E+03 0. -1.
         13    1    4    4    0    0 -0.97110542360E+01 -0.50300872177E+01 -0.66365780526E+01  0.12793032638E+02  0.10566000000E+00 0.  1.
    -200003    1    4    4    0    0 -0.10541027269E+04 -0.16314127523E+03 -0.40472495669E+02  0.10678415882E+04  0.30000000000E+02 0.  1.
    -200000    1    3    3    0    0 -0.44284777591E+03  0.11669558855E+03 -0.37450907523E+03  0.60015836281E+03  0.10100000000E+03 0.  1.
<mgrwt>
<rscale>  0 0.32568095E+04</rscale>
<asrwt>0</asrwt>
<pdfrwt beam="1">  1        2 0.31223941E+00 0.32568095E+04</pdfrwt>
<pdfrwt beam="2">  1       -2 0.17331691E+00 0.32568095E+04</pdfrwt>
<totfact> 0.10985566E+00</totfact>
</mgrwt>
</event>
<event>
 8    2  0.4306980E-052  0.1499237E+04  0.7818608E-02  0.8884960E-01
         -2   -1    0    0    0  501 -0.00000000000E+00  0.00000000000E+00  0.49473353874E+03  0.49473353875E+03  0.25500000000E-02 0. -1.
          2   -1    0    0  501    0  0.00000000000E+00 -0.00000000000E+00 -0.11358198051E+04  0.11358198051E+04  0.25500000000E-02 0.  1.
    -200001    2    1    2    0    0 -0.10361271354E+03  0.41268717646E+03 -0.23574608032E+03  0.78136787150E+03  0.61148445295E+03 0.  0.
   -5000001    2    3    3    0    0 -0.11788247852E+03  0.54645384712E+03 -0.23840139698E+03  0.61312638114E+03  0.81121189610E+02 0.  0.
     200001    1    1    2    0    0  0.10361271354E+03 -0.41268717646E+03 -0.40534018600E+03  0.84918547233E+03  0.61300000000E+03 0.  1.
         13    1    4    4    0    0 -0.40018508419E+02  0.32792233826E+03 -0.12556753581E+03  0.35341442834E+03  0.10566000000E+00 0.  1.
    -200003    1    4    4    0    0 -0.77863970101E+02  0.21853150885E+03 -0.11283386116E+03  0.25971195280E+03  0.30000000000E+02 0. -1.
    -200000    1    3    3    0    0  0.14269764978E+02 -0.13376667066E+03  0.26553166512E+01  0.16824149036E+03  0.10100000000E+03 0. -1.
<mgrwt>
<rscale>  0 0.14992373E+04</rscale>
<asrwt>0</asrwt>
<pdfrwt beam="1">  1        2 0.16225997E+00 0.14992373E+04</pdfrwt>
<pdfrwt beam="2">  1       -2 0.70676220E-01 0.14992373E+04</pdfrwt>
<totfact> 0.41012388E+01</totfact>
</mgrwt>
</event>
<event>
 8    2  0.4306980E-052  0.1329619E+04  0.7818608E-02  0.9006401E-01
         -2   -1    0    0    0  501 -0.00000000000E+00  0.00000000000E+00  0.15483318946E+03  0.15483318948E+03  0.25500000000E-02 0. -1.
          2   -1    0    0  501    0  0.00000000000E+00 -0.00000000000E+00 -0.28545038686E+04  0.28545038686E+04  0.25500000000E-02 0.  1.
    -200001    2    1    2    0    0 -0.19829396809E+03 -0.14882032086E+03 -0.14840503063E+04  0.16255126919E+04  0.61515706457E+03 0.  0.
   -5000001    2    3    3    0    0 -0.30361027025E+03 -0.21899081894E+03 -0.13825655222E+04  0.14344221801E+04  0.77093400657E+02 0.  0.
     200001    1    1    2    0    0  0.19829396809E+03  0.14882032086E+03 -0.12156203728E+04  0.13838243662E+04  0.61300000000E+03 0. -1.
         13    1    4    4    0    0 -0.62506589600E+00 -0.56280355399E+01 -0.49544056621E+01  0.75248116862E+01  0.10566000000E+00 0.  1.
    -200003    1    4    4    0    0 -0.30298520436E+03 -0.21336278340E+03 -0.13776111166E+04  0.14268973684E+04  0.30000000000E+02 0.  1.
    -200000    1    3    3    0    0  0.10531630216E+03  0.70170498085E+02 -0.10148478409E+03  0.19109051181E+03  0.10100000000E+03 0.  1.
<mgrwt>
<rscale>  0 0.13296194E+04</rscale>
<asrwt>0</asrwt>
<pdfrwt beam="1">  1        2 0.40778623E+00 0.13296194E+04</pdfrwt>
<pdfrwt beam="2">  1       -2 0.22119029E-01 0.13296194E+04</pdfrwt>
<totfact> 0.50038289E+01</totfact>
</mgrwt>
</event>
<event>
 8    2  0.4306980E-052  0.1757111E+04  0.7818608E-02  0.8729446E-01
          2   -1    0    0  501    0  0.00000000000E+00  0.00000000000E+00  0.10199620291E+04  0.10199620291E+04  0.25500000000E-02 0.  1.
         -2   -1    0    0    0  501 -0.00000000000E+00 -0.00000000000E+00 -0.75675301052E+03  0.75675301052E+03  0.25500000000E-02 0. -1.
    -200001    2    1    2    0    0 -0.42875614625E+03 -0.50991609831E+02 -0.33118992665E+03  0.81989160589E+03  0.61327277836E+03 0.  0.
   -5000001    2    3    3    0    0 -0.16601215599E+03  0.24518265652E+03 -0.98343986150E+02  0.34960251132E+03  0.15772065594E+03 0.  0.
     200001    1    1    2    0    0  0.42875614625E+03  0.50991609831E+02  0.59439894518E+03  0.95682343369E+03  0.61300000000E+03 0.  1.
         13    1    4    4    0    0  0.27472498100E+02  0.14777139080E+02 -0.20674099098E+02  0.37423676046E+02  0.10566000000E+00 0.  1.
    -200003    1    4    4    0    0 -0.19348465409E+03  0.23040551744E+03 -0.77669887053E+02  0.31217883527E+03  0.30000000000E+02 0.  1.
    -200000    1    3    3    0    0 -0.26274399026E+03 -0.29617426635E+03 -0.23284594050E+03  0.47028909457E+03  0.10100000000E+03 0. -1.
<mgrwt>
<rscale>  0 0.17571105E+04</rscale>
<asrwt>0</asrwt>
<pdfrwt beam="1">  1        2 0.14570886E+00 0.17571105E+04</pdfrwt>
<pdfrwt beam="2">  1       -2 0.10810757E+00 0.17571105E+04</pdfrwt>
<totfact> 0.17775482E+01</totfact>
</mgrwt>
</event>
<event>
 8    2  0.4306980E-052  0.1507761E+04  0.7818608E-02  0.8879309E-01
         -2   -1    0    0    0  501 -0.00000000000E+00  0.00000000000E+00  0.32950634272E+03  0.32950634273E+03  0.25500000000E-02 0. -1.
          2   -1    0    0  501    0  0.00000000000E+00 -0.00000000000E+00 -0.17248088656E+04  0.17248088656E+04  0.25500000000E-02 0.  1.
    -200001    2    1    2    0    0 -0.26008515873E+03 -0.24050773800E+03 -0.34002478364E+03  0.78354049629E+03  0.61059855388E+03 0.  0.
   -5000001    2    3    3    0    0  0.66098600511E+02 -0.83857358747E+02 -0.38032504200E+03  0.40570416011E+03  0.92453482132E+02 0.  0.
     200001    1    1    2    0    0  0.26008515873E+03  0.24050773800E+03 -0.10552777392E+04  0.12707747120E+04  0.61300000000E+03 0. -1.
         13    1    4    4    0    0  0.86241438100E+01  0.61923095554E+01 -0.12119698217E+01  0.10686467563E+02  0.10566000000E+00 0.  1.
    -200003    1    4    4    0    0  0.57474456701E+02 -0.90049668302E+02 -0.37911307217E+03  0.39501769255E+03  0.30000000000E+02 0.  1.
    -200000    1    3    3    0    0 -0.32618375924E+03 -0.15665037925E+03  0.40300258353E+02  0.37783633617E+03  0.10100000000E+03 0. -1.
<mgrwt>
<rscale>  0 0.15077605E+04</rscale>
<asrwt>0</asrwt>
<pdfrwt beam="1">  1        2 0.24640126E+00 0.15077605E+04</pdfrwt>
<pdfrwt beam="2">  1       -2 0.47072335E-01 0.15077605E+04</pdfrwt>
<totfact> 0.46050507E+01</totfact>
</mgrwt>
</event>
<event>
 8    2  0.4306980E-052  0.1530431E+04  0.7818608E-02  0.8864465E-01
          2   -1    0    0  501    0  0.00000000000E+00  0.00000000000E+00  0.18978138278E+04  0.18978138278E+04  0.25500000000E-02 0.  1.
         -2   -1    0    0    0  501 -0.00000000000E+00 -0.00000000000E+00 -0.30854170446E+03  0.30854170448E+03  0.25500000000E-02 0. -1.
    -200001    2    1    2    0    0 -0.32565260832E+03 -0.97331404504E+02  0.35112300029E+03  0.78357470781E+03  0.61251852035E+03 0.  0.
   -5000001    2    3    3    0    0  0.13792348520E+03  0.76425478156E+02  0.12518465472E+02  0.17534097004E+03  0.75657136568E+02 0.  0.
     200001    1    1    2    0    0  0.32565260832E+03  0.97331404504E+02  0.12381491231E+04  0.14227808245E+04  0.61300000000E+03 0.  1.
         13    1    4    4    0    0  0.29469638831E+02  0.47719715822E+02 -0.10208916796E+02  0.57007578770E+02  0.10566000000E+00 0.  1.
    -200003    1    4    4    0    0  0.10845384637E+03  0.28705762334E+02  0.22727382268E+02  0.11833339127E+03  0.30000000000E+02 0.  1.
    -200000    1    3    3    0    0 -0.46357609353E+03 -0.17375688266E+03  0.33860453482E+03  0.60823373777E+03  0.10100000000E+03 0. -1.
<mgrwt>
<rscale>  0 0.15304309E+04</rscale>
<asrwt>0</asrwt>
<pdfrwt beam="1">  1        2 0.27111627E+00 0.15304309E+04</pdfrwt>
<pdfrwt beam="2">  1       -2 0.44077385E-01 0.15304309E+04</pdfrwt>
<totfact> 0.42685082E+01</totfact>
</mgrwt>
</event>
<event>
 8    2  0.4306980E-052  0.1675729E+04  0.7818608E-02  0.8775329E-01
         -2   -1    0    0    0  501 -0.00000000000E+00  0.00000000000E+00  0.46134485612E+03  0.46134485613E+03  0.25500000000E-02 0. -1.
          2   -1    0    0  501    0  0.00000000000E+00 -0.00000000000E+00 -0.15216749825E+04  0.15216749825E+04  0.25500000000E-02 0.  1.
    -200001    2    1    2    0    0  0.10898517811E+03 -0.36741765834E+03 -0.10308202021E+04  0.12594776212E+04  0.61385672970E+03 0.  0.
   -5000001    2    3    3    0    0 -0.18083753097E+03 -0.29511233158E+02 -0.98847033771E+02  0.22171418895E+03  0.76245131059E+02 0.  0.
     200001    1    1    2    0    0 -0.10898517811E+03  0.36741765834E+03 -0.29509924267E+02  0.72354221738E+03  0.61300000000E+03 0. -1.
         13    1    4    4    0    0 -0.67509048129E+02 -0.30021504406E+02 -0.68183143777E+02  0.10053713028E+03  0.10566000000E+00 0.  1.
    -200003    1    4    4    0    0 -0.11332848284E+03  0.51027124842E+00 -0.30663889994E+02  0.12117705867E+03  0.30000000000E+02 0.  1.
    -200000    1    3    3    0    0  0.28982270908E+03 -0.33790642518E+03 -0.93197316831E+03  0.10377634323E+04  0.10100000000E+03 0.  1.
<mgrwt>
<rscale>  0 0.16757290E+04</rscale>
<asrwt>0</asrwt>
<pdfrwt beam="1">  1        2 0.21738214E+00 0.16757290E+04</pdfrwt>
<pdfrwt beam="2">  1       -2 0.65906409E-01 0.16757290E+04</pdfrwt>
<totfact> 0.28824743E+01</totfact>
</mgrwt>
</event>
<event>
 8    2  0.4306980E-052  0.1298295E+04  0.7818608E-02  0.9030919E-01
          2   -1    0    0  501    0  0.00000000000E+00  0.00000000000E+00  0.32639042116E+03  0.32639042117E+03  0.25500000000E-02 0.  1.
         -2   -1    0    0    0  501 -0.00000000000E+00 -0.00000000000E+00 -0.12910683206E+04  0.12910683206E+04  0.25500000000E-02 0. -1.
    -200001    2    1    2    0    0 -0.41888044703E+02  0.20365906890E+03 -0.41901044804E+03  0.77084572972E+03  0.61270038259E+03 0.  0.
   -5000001    2    3    3    0    0  0.18447412358E+02  0.33066543525E+03 -0.14359495852E+03  0.44553714339E+03  0.26115875811E+03 0.  0.
     200001    1    1    2    0    0  0.41888044703E+02 -0.20365906890E+03 -0.54566745136E+03  0.84661301201E+03  0.61300000000E+03 0. -1.
         13    1    4    4    0    0  0.85238506006E+02  0.10453544043E+02 -0.65231608189E+02  0.10784272511E+03  0.10566000000E+00 0.  1.
    -200003    1    4    4    0    0 -0.66791093648E+02  0.32021189120E+03 -0.78363350333E+02  0.33769441827E+03  0.30000000000E+02 0.  1.
    -200000    1    3    3    0    0 -0.60335457061E+02 -0.12700636635E+03 -0.27541548952E+03  0.32530858633E+03  0.10100000000E+03 0.  1.
<mgrwt>
<rscale>  0 0.12982948E+04</rscale>
<asrwt>0</asrwt>
<pdfrwt beam="1">  1        2 0.46627204E-01 0.12982948E+04</pdfrwt>
<pdfrwt beam="2">  1       -2 0.18443833E+00 0.12982948E+04</pdfrwt>
<totfact> 0.17995543E+01</totfact>
</mgrwt>
</event>
<event>
 8    2  0.4306980E-052  0.2084529E+04  0.7818608E-02  0.8568089E-01
         -2   -1    0    0    0  501 -0.00000000000E+00  0.00000000000E+00  0.13329960067E+04  0.13329960067E+04  0.25500000000E-02 0. -1.
          2   -1    0    0  501    0  0.00000000000E+00 -0.00000000000E+00 -0.81494291960E+03  0.81494291960E+03  0.25500000000E-02 0.  1.
    -200001    2    1    2    0    0  0.71209601705E+03  0.43716510869E+03  0.14249654972E+03  0.10456659191E+04  0.61230537960E+03 0.  0.
   -5000001    2    3    3    0    0  0.24007227419E+03 -0.11777819970E+03 -0.54459613249E+02  0.28424539173E+03  0.79518501501E+02 0.  0.
     200001    1    1    2    0    0 -0.71209601705E+03 -0.43716510869E+03  0.37555653743E+03  0.11022730073E+04  0.61300000000E+03 0. -1.
         13    1    4    4    0    0  0.21316563395E+02 -0.27379039471E+02  0.11754830654E+02  0.36635978014E+02  0.10566000000E+00 0.  1.
    -200003    1    4    4    0    0  0.21875571080E+03 -0.90399160227E+02 -0.66214443903E+02  0.24760941371E+03  0.30000000000E+02 0.  1.
    -200000    1    3    3    0    0  0.47202374286E+03  0.55494330839E+03  0.19695616297E+03  0.76142052735E+03  0.10100000000E+03 0.  1.
<mgrwt>
<rscale>  0 0.20845294E+04</rscale>
<asrwt>0</asrwt>
<pdfrwt beam="1">  1        2 0.11642042E+00 0.20845294E+04</pdfrwt>
<pdfrwt beam="2">  1       -2 0.19042800E+00 0.20845294E+04</pdfrwt>
<totfact> 0.52906774E+00</totfact>
</mgrwt>
</event>
<event>
 8    2  0.4306980E-052  0.2230434E+04  0.7818608E-02  0.8505866E-01
         -2   -1    0    0    0  501 -0.00000000000E+00  0.00000000000E+00  0.66174924495E+03  0.66174924496E+03  0.25500000000E-02 0. -1.
          2   -1    0    0  501    0  0.00000000000E+00 -0.00000000000E+00 -0.18794268836E+04  0.18794268836E+04  0.25500000000E-02 0.  1.
    -200001    2    1    2    0    0  0.71864755160E+02 -0.41780656665E+03  0.33620165199E+03  0.81779668107E+03  0.61321528894E+03 0.  0.
   -5000001    2    3    3    0    0 -0.24303967654E+03 -0.77895014933E+02  0.15695955179E+03  0.31081207126E+03  0.82655459701E+02 0.  0.
     200001    1    1    2    0    0 -0.71864755160E+02  0.41780656665E+03 -0.15538792906E+04  0.17233794475E+04  0.61300000000E+03 0.  1.
         13    1    4    4    0    0  0.33233642237E+01  0.14482552104E+01 -0.33094011269E+01  0.49097344910E+01  0.10566000000E+00 0.  1.
    -200003    1    4    4    0    0 -0.24636304077E+03 -0.79343270143E+02  0.16026895291E+03  0.30590233677E+03  0.30000000000E+02 0.  1.
    -200000    1    3    3    0    0  0.31490443170E+03 -0.33991155172E+03  0.17924210020E+03  0.50698460981E+03  0.10100000000E+03 0. -1.
<mgrwt>
<rscale>  0 0.22304343E+04</rscale>
<asrwt>0</asrwt>
<pdfrwt beam="1">  1        2 0.26848955E+00 0.22304343E+04</pdfrwt>
<pdfrwt beam="2">  1       -2 0.94535607E-01 0.22304343E+04</pdfrwt>
<totfact> 0.79976309E+00</totfact>
</mgrwt>
</event>
<event>
 8    2  0.4306980E-052  0.3416795E+04  0.7818608E-02  0.8133797E-01
         -2   -1    0    0    0  501 -0.00000000000E+00  0.00000000000E+00  0.54832188521E+03  0.54832188521E+03  0.25500000000E-02 0. -1.
          2   -1    0    0  501    0  0.00000000000E+00 -0.00000000000E+00 -0.53228245664E+04  0.53228245664E+04  0.25500000000E-02 0.  1.
    -200001    2    1    2    0    0 -0.63625077135E+03  0.17680372798E+03  0.10665192031E+03  0.90752742453E+03  0.61331622504E+03 0.  0.
   -5000001    2    3    3    0    0 -0.65639786072E+03  0.18486502751E+03  0.24086211852E+03  0.73816312173E+03  0.14777348943E+03 0.  0.
     200001    1    1    2    0    0  0.63625077135E+03 -0.17680372798E+03 -0.48811546015E+04  0.49636190271E+04  0.61300000000E+03 0.  1.
         13    1    4    4    0    0 -0.62079807653E+03  0.15044417103E+03  0.20907323194E+03  0.67211258573E+03  0.10566000000E+00 0.  1.
    -200003    1    4    4    0    0 -0.35599784196E+02  0.34420856478E+02  0.31788886579E+02  0.66050535997E+02  0.30000000000E+02 0.  1.
    -200000    1    3    3    0    0  0.20147089370E+02 -0.80612995295E+01 -0.13421019822E+03  0.16936430281E+03  0.10100000000E+03 0.  1.
<mgrwt>
<rscale>  0 0.34167945E+04</rscale>
<asrwt>0</asrwt>
<pdfrwt beam="1">  1        2 0.76040348E+00 0.34167945E+04</pdfrwt>
<pdfrwt beam="2">  1       -2 0.78331701E-01 0.34167945E+04</pdfrwt>
<totfact> 0.48532795E-02</totfact>
</mgrwt>
</event>
<event>
 8    2  0.4306980E-052  0.4045609E+04  0.7818608E-02  0.7995408E-01
          2   -1    0    0  501    0  0.00000000000E+00  0.00000000000E+00  0.27120911586E+04  0.27120911586E+04  0.25500000000E-02 0.  1.
         -2   -1    0    0    0  501 -0.00000000000E+00 -0.00000000000E+00 -0.15087025411E+04  0.15087025411E+04  0.25500000000E-02 0. -1.
    -200001    2    1    2    0    0  0.61432251176E+03 -0.41393601478E+02  0.25073144256E+04  0.26539187552E+04  0.61445386458E+03 0.  0.
   -5000001    2    3    3    0    0 -0.58805013226E+02 -0.15531152747E+03  0.46994324726E+03  0.50283524286E+03  0.66459955374E+02 0.  0.
     200001    1    1    2    0    0 -0.61432251176E+03  0.41393601478E+02 -0.13039258081E+04  0.15668749445E+04  0.61300000000E+03 0. -1.
         13    1    4    4    0    0 -0.50754615948E+02 -0.69232685981E+02  0.19489684318E+03  0.21296475412E+03  0.10566000000E+00 0.  1.
    -200003    1    4    4    0    0 -0.80503972782E+01 -0.86078841486E+02  0.27504640408E+03  0.28987048874E+03  0.30000000000E+02 0. -1.
    -200000    1    3    3    0    0  0.67312752499E+03  0.11391792599E+03  0.20373711783E+04  0.21510835123E+04  0.10100000000E+03 0.  1.
<mgrwt>
<rscale>  0 0.40456094E+04</rscale>
<asrwt>0</asrwt>
<pdfrwt beam="1">  1        2 0.38744159E+00 0.40456094E+04</pdfrwt>
<pdfrwt beam="2">  1       -2 0.21552893E+00 0.40456094E+04</pdfrwt>
<totfact> 0.28494342E-01</totfact>
</mgrwt>
</event>
<event>
 8    2  0.4306980E-052  0.1485508E+04  0.7818608E-02  0.8894147E-01
         -2   -1    0    0    0  501 -0.00000000000E+00  0.00000000000E+00  0.72493716520E+03  0.72493716520E+03  0.25500000000E-02 0. -1.
          2   -1    0    0  501    0  0.00000000000E+00 -0.00000000000E+00 -0.76100919415E+03  0.76100919416E+03  0.25500000000E-02 0.  1.
    -200001    2    1    2    0    0  0.20409498165E+02 -0.25296723959E+03  0.31670426309E+03  0.73452831050E+03  0.61222649139E+03 0.  0.
   -5000001    2    3    3    0    0 -0.17783250019E+02 -0.13786043980E+03 -0.16267433122E+03  0.22983721879E+03  0.83907474391E+02 0.  0.
     200001    1    1    2    0    0 -0.20409498165E+02  0.25296723959E+03 -0.35277629204E+03  0.75141804886E+03  0.61300000000E+03 0.  1.
         13    1    4    4    0    0 -0.96638173597E+01 -0.34926274837E+02 -0.97705681721E+02  0.10420962261E+03  0.10566000000E+00 0.  1.
    -200003    1    4    4    0    0 -0.81194326589E+01 -0.10293416497E+03 -0.64968649503E+02  0.12562759618E+03  0.30000000000E+02 0.  1.
    -200000    1    3    3    0    0  0.38192748184E+02 -0.11510679978E+03  0.47937859431E+03  0.50469109171E+03  0.10100000000E+03 0. -1.
<mgrwt>
<rscale>  0 0.14855085E+04</rscale>
<asrwt>0</asrwt>
<pdfrwt beam="1">  1        2 0.10871560E+00 0.14855085E+04</pdfrwt>
<pdfrwt beam="2">  1       -2 0.10356245E+00 0.14855085E+04</pdfrwt>
<totfact> 0.29847025E+01</totfact>
</mgrwt>
</event>
<event>
 8    2  0.4306980E-052  0.1287665E+04  0.7818608E-02  0.9039404E-01
          2   -1    0    0  501    0  0.00000000000E+00  0.00000000000E+00  0.71909243923E+03  0.71909243924E+03  0.25500000000E-02 0.  1.
         -2   -1    0    0    0  501 -0.00000000000E+00 -0.00000000000E+00 -0.57644950721E+03  0.57644950721E+03  0.25500000000E-02 0. -1.
    -200001    2    1    2    0    0 -0.82319695938E+02 -0.12608777276E+03  0.19906360321E+03  0.66180150201E+03  0.61292760679E+03 0.  0.
   -5000001    2    3    3    0    0 -0.14815334853E+03  0.26686032401E+02  0.36479275822E+03  0.40618253133E+03  0.96171374647E+02 0.  0.
     200001    1    1    2    0    0  0.82319695938E+02  0.12608777276E+03 -0.56420671187E+02  0.63374044444E+03  0.61300000000E+03 0. -1.
         13    1    4    4    0    0 -0.19254261758E+02  0.36613804894E+02  0.52356388879E+02  0.66727055421E+02  0.10566000000E+00 0.  1.
    -200003    1    4    4    0    0 -0.12889908677E+03 -0.99277724934E+01  0.31243636934E+03  0.33945547591E+03  0.30000000000E+02 0.  1.
    -200000    1    3    3    0    0  0.65833652591E+02 -0.15277380516E+03 -0.16572915500E+03  0.25561897069E+03  0.10100000000E+03 0. -1.
<mgrwt>
<rscale>  0 0.12876653E+04</rscale>
<asrwt>0</asrwt>
<pdfrwt beam="1">  1        2 0.10272749E+00 0.12876653E+04</pdfrwt>
<pdfrwt beam="2">  1       -2 0.82349930E-01 0.12876653E+04</pdfrwt>
<totfact> 0.55375967E+01</totfact>
</mgrwt>
</event>
<event>
 8    2  0.4306980E-052  0.1530273E+04  0.7818608E-02  0.8864567E-01
         -2   -1    0    0    0  501 -0.00000000000E+00  0.00000000000E+00  0.25208141291E+03  0.25208141293E+03  0.25500000000E-02 0. -1.
          2   -1    0    0  501    0  0.00000000000E+00 -0.00000000000E+00 -0.23224011401E+04  0.23224011401E+04  0.25500000000E-02 0.  1.
    -200001    2    1    2    0    0  0.40420395803E+02 -0.35602588054E+03 -0.15162318880E+04  0.16738324714E+04  0.61185600270E+03 0.  0.
   -5000001    2    3    3    0    0 -0.17690618099E+03 -0.76096513994E+02 -0.14848608387E+03  0.25731530737E+03  0.84122375066E+02 0.  0.
     200001    1    1    2    0    0 -0.40420395803E+02  0.35602588054E+03 -0.55408783914E+03  0.90065008160E+03  0.61300000000E+03 0. -1.
         13    1    4    4    0    0 -0.54253065661E+02  0.10474360000E+01 -0.73696910681E+02  0.91519058473E+02  0.10566000000E+00 0.  1.
    -200003    1    4    4    0    0 -0.12265311533E+03 -0.77143949994E+02 -0.74789173192E+02  0.16579624889E+03  0.30000000000E+02 0.  1.
    -200000    1    3    3    0    0  0.21732657679E+03 -0.27992936654E+03 -0.13677458041E+04  0.14165171640E+04  0.10100000000E+03 0.  1.
<mgrwt>
<rscale>  0 0.15302734E+04</rscale>
<asrwt>0</asrwt>
<pdfrwt beam="1">  1        2 0.33177158E+00 0.15302734E+04</pdfrwt>
<pdfrwt beam="2">  1       -2 0.36011632E-01 0.15302734E+04</pdfrwt>
<totfact> 0.38282563E+01</totfact>
</mgrwt>
</event>
<event>
 8    2  0.4306980E-052  0.1725722E+04  0.7818608E-02  0.8746828E-01
         -2   -1    0    0    0  501 -0.00000000000E+00  0.00000000000E+00  0.24661659978E+03  0.24661659980E+03  0.25500000000E-02 0. -1.
          2   -1    0    0  501    0  0.00000000000E+00 -0.00000000000E+00 -0.30189749417E+04  0.30189749417E+04  0.25500000000E-02 0.  1.
    -200001    2    1    2    0    0  0.19488355617E+03  0.27249474994E+03 -0.42988854169E+03  0.82117611973E+03  0.61424186778E+03 0.  0.
   -5000001    2    3    3    0    0  0.32619397642E+03  0.13314565352E+03 -0.47902472134E+03  0.59919422567E+03  0.73747956637E+02 0.  0.
     200001    1    1    2    0    0 -0.19488355617E+03 -0.27249474994E+03 -0.23424698002E+04  0.24444154218E+04  0.61300000000E+03 0.  1.
         13    1    4    4    0    0  0.27286743706E+02  0.33795656882E+02 -0.62749278860E+02  0.76316420039E+02  0.10566000000E+00 0.  1.
    -200003    1    4    4    0    0  0.29890723272E+03  0.99349996637E+02 -0.41627544248E+03  0.52287780563E+03  0.30000000000E+02 0.  1.
    -200000    1    3    3    0    0 -0.13131042026E+03  0.13934909642E+03  0.49136179654E+02  0.22198189406E+03  0.10100000000E+03 0. -1.
<mgrwt>
<rscale>  0 0.17257223E+04</rscale>
<asrwt>0</asrwt>
<pdfrwt beam="1">  1        2 0.43128211E+00 0.17257223E+04</pdfrwt>
<pdfrwt beam="2">  1       -2 0.35230945E-01 0.17257223E+04</pdfrwt>
<totfact> 0.16619918E+01</totfact>
</mgrwt>
</event>
<event>
 8    2  0.4306980E-052  0.1509565E+04  0.7818608E-02  0.8878117E-01
          2   -1    0    0  501    0  0.00000000000E+00  0.00000000000E+00  0.19581464436E+04  0.19581464436E+04  0.25500000000E-02 0.  1.
         -2   -1    0    0    0  501 -0.00000000000E+00 -0.00000000000E+00 -0.29093650904E+03  0.29093650905E+03  0.25500000000E-02 0. -1.
    -200001    2    1    2    0    0 -0.14686856302E+03 -0.10351089247E+03  0.23562075220E+03  0.68144094418E+03  0.61364463811E+03 0.  0.
   -5000001    2    3    3    0    0  0.20597739540E+03 -0.13376325176E+03  0.32627607957E+02  0.26093804024E+03  0.81882874302E+02 0.  0.
     200001    1    1    2    0    0  0.14686856302E+03  0.10351089247E+03  0.14315891824E+04  0.15676420085E+04  0.61300000000E+03 0.  1.
         13    1    4    4    0    0  0.14115635988E+03 -0.53173693124E+02  0.12211793273E+02  0.15133307184E+03  0.10566000000E+00 0.  1.
    -200003    1    4    4    0    0  0.64821035526E+02 -0.80589558639E+02  0.20415814684E+02  0.10960496840E+03  0.30000000000E+02 0. -1.
    -200000    1    3    3    0    0 -0.35284595842E+03  0.30252359296E+02  0.20299314424E+03  0.42050290394E+03  0.10100000000E+03 0.  1.
<mgrwt>
<rscale>  0 0.15095646E+04</rscale>
<asrwt>0</asrwt>
<pdfrwt beam="1">  1        2 0.27973521E+00 0.15095646E+04</pdfrwt>
<pdfrwt beam="2">  1       -2 0.41562357E-01 0.15095646E+04</pdfrwt>
<totfact> 0.44714105E+01</totfact>
</mgrwt>
</event>
<event>
 8    2  0.4306980E-052  0.1385026E+04  0.7818608E-02  0.8964729E-01
          2   -1    0    0  501    0  0.00000000000E+00  0.00000000000E+00  0.52524284990E+03  0.52524284991E+03  0.25500000000E-02 0.  1.
         -2   -1    0    0    0  501 -0.00000000000E+00 -0.00000000000E+00 -0.91305306732E+03  0.91305306732E+03  0.25500000000E-02 0. -1.
    -200001    2    1    2    0    0  0.13286018504E+03 -0.20036936202E+03  0.29484533246E+02  0.65874244316E+03  0.61259493852E+03 0.  0.
   -5000001    2    3    3    0    0  0.19989307637E+02 -0.36719353818E+03  0.14754908786E+03  0.40436009359E+03  0.80657826998E+02 0.  0.
     200001    1    1    2    0    0 -0.13286018504E+03  0.20036936202E+03 -0.41729475066E+03  0.77955347407E+03  0.61300000000E+03 0. -1.
         13    1    4    4    0    0 -0.22984977762E+01 -0.16753342755E+03  0.31710365069E+02  0.17052357859E+03  0.10566000000E+00 0.  1.
    -200003    1    4    4    0    0  0.22287805413E+02 -0.19966011063E+03  0.11583872279E+03  0.23383651499E+03  0.30000000000E+02 0.  1.
    -200000    1    3    3    0    0  0.11287087741E+03  0.16682417615E+03 -0.11806455462E+03  0.25438234957E+03  0.10100000000E+03 0.  1.
<mgrwt>
<rscale>  0 0.13850265E+04</rscale>
<asrwt>0</asrwt>
<pdfrwt beam="1">  1        2 0.75034693E-01 0.13850265E+04</pdfrwt>
<pdfrwt beam="2">  1       -2 0.13043615E+00 0.13850265E+04</pdfrwt>
<totfact> 0.26647179E+01</totfact>
</mgrwt>
</event>
<event>
 8    2  0.4306980E-052  0.1974859E+04  0.7818608E-02  0.8618466E-01
         -2   -1    0    0    0  501 -0.00000000000E+00  0.00000000000E+00  0.40207259700E+03  0.40207259701E+03  0.25500000000E-02 0. -1.
          2   -1    0    0  501    0  0.00000000000E+00 -0.00000000000E+00 -0.24249779327E+04  0.24249779327E+04  0.25500000000E-02 0.  1.
    -200001    2    1    2    0    0 -0.69081516371E+03  0.35317379649E+03 -0.10800103814E+04  0.14607499714E+04  0.60449212891E+03 0.  0.
   -5000001    2    3    3    0    0 -0.50689703855E+03  0.46982011594E+03 -0.79251929391E+03  0.10862044254E+04  0.27217213945E+03 0.  0.
     200001    1    1    2    0    0  0.69081516371E+03 -0.35317379649E+03 -0.94289495422E+03  0.13663005583E+04  0.61300000000E+03 0.  1.
         13    1    4    4    0    0  0.26256170545E+02  0.31693545497E+01 -0.58791971114E+01  0.27092571356E+02  0.10566000000E+00 0.  1.
    -200003    1    4    4    0    0 -0.53315320910E+03  0.46665076139E+03 -0.78664009680E+03  0.10591118540E+04  0.30000000000E+02 0.  1.
    -200000    1    3    3    0    0 -0.18391812516E+03 -0.11664631945E+03 -0.28749108754E+03  0.37454554599E+03  0.10100000000E+03 0.  1.
<mgrwt>
<rscale>  0 0.19748592E+04</rscale>
<asrwt>0</asrwt>
<pdfrwt beam="1">  1        2 0.34642541E+00 0.19748592E+04</pdfrwt>
<pdfrwt beam="2">  1       -2 0.57438944E-01 0.19748592E+04</pdfrwt>
<totfact> 0.12807767E+01</totfact>
</mgrwt>
</event>
<event>
 8    2  0.4306980E-052  0.1460078E+04  0.7818608E-02  0.8911443E-01
         -2   -1    0    0    0  501 -0.00000000000E+00  0.00000000000E+00  0.55284901985E+03  0.55284901986E+03  0.25500000000E-02 0. -1.
          2   -1    0    0  501    0  0.00000000000E+00 -0.00000000000E+00 -0.96401914637E+03  0.96401914638E+03  0.25500000000E-02 0.  1.
    -200001    2    1    2    0    0 -0.14326502293E+03 -0.36749940553E+03 -0.16411852505E+03  0.74720319129E+03  0.61302286985E+03 0.  0.
   -5000001    2    3    3    0    0  0.49699580742E+02 -0.14581676146E+03 -0.32535415693E+03  0.39709397700E+03  0.16761778810E+03 0.  0.
     200001    1    1    2    0    0  0.14326502293E+03  0.36749940553E+03 -0.24705160147E+03  0.76966497494E+03  0.61300000000E+03 0. -1.
         13    1    4    4    0    0  0.10615095878E+03 -0.11111670171E+03 -0.23960052976E+03  0.28464604771E+03  0.10566000000E+00 0.  1.
    -200003    1    4    4    0    0 -0.56451378041E+02 -0.34700059754E+02 -0.85753627164E+02  0.11244792929E+03  0.30000000000E+02 0.  1.
    -200000    1    3    3    0    0 -0.19296460367E+03 -0.22168264407E+03  0.16123563188E+03  0.35010921430E+03  0.10100000000E+03 0.  1.
<mgrwt>
<rscale>  0 0.14600781E+04</rscale>
<asrwt>0</asrwt>
<pdfrwt beam="1">  1        2 0.13771702E+00 0.14600781E+04</pdfrwt>
<pdfrwt beam="2">  1       -2 0.78978432E-01 0.14600781E+04</pdfrwt>
<totfact> 0.40861590E+01</totfact>
</mgrwt>
</event>
<event>
 8    2  0.4306980E-052  0.2769290E+04  0.7818608E-02  0.8312867E-01
          2   -1    0    0  501    0  0.00000000000E+00  0.00000000000E+00  0.62483104468E+03  0.62483104469E+03  0.25500000000E-02 0.  1.
         -2   -1    0    0    0  501 -0.00000000000E+00 -0.00000000000E+00 -0.30684155793E+04  0.30684155793E+04  0.25500000000E-02 0. -1.
    -200001    2    1    2    0    0  0.32998752239E+03 -0.10936377678E+04 -0.57353623440E+03  0.14177719532E+04  0.61334995472E+03 0.  0.
   -5000001    2    3    3    0    0  0.40955201236E+03 -0.10112151881E+04 -0.62119176510E+03  0.12577843308E+04  0.76506250569E+02 0.  0.
     200001    1    1    2    0    0 -0.32998752239E+03  0.10936377678E+04 -0.18700483002E+04  0.22754746708E+04  0.61300000000E+03 0. -1.
         13    1    4    4    0    0  0.33910555067E+03 -0.82605565492E+03 -0.49462926255E+03  0.10207931417E+04  0.10566000000E+00 0.  1.
    -200003    1    4    4    0    0  0.70446461684E+02 -0.18515953314E+03 -0.12656250255E+03  0.23699118913E+03  0.30000000000E+02 0. -1.
    -200000    1    3    3    0    0 -0.79564489964E+02 -0.82422579791E+02  0.47655530699E+02  0.15998762242E+03  0.10100000000E+03 0.  1.
<mgrwt>
<rscale>  0 0.27692897E+04</rscale>
<asrwt>0</asrwt>
<pdfrwt beam="1">  1        2 0.89261579E-01 0.27692897E+04</pdfrwt>
<pdfrwt beam="2">  1       -2 0.43834508E+00 0.27692897E+04</pdfrwt>
<totfact> 0.18769817E-01</totfact>
</mgrwt>
</event>
<event>
 8    2  0.4306980E-052  0.2592181E+04  0.7818608E-02  0.8370862E-01
         -2   -1    0    0    0  501 -0.00000000000E+00  0.00000000000E+00  0.47066456158E+03  0.47066456159E+03  0.25500000000E-02 0. -1.
          2   -1    0    0  501    0  0.00000000000E+00 -0.00000000000E+00 -0.35691047602E+04  0.35691047602E+04  0.25500000000E-02 0.  1.
    -200001    2    1    2    0    0 -0.58160506468E+03  0.21523529692E+03 -0.30435958141E+04  0.31660602221E+04  0.61308332705E+03 0.  0.
   -5000001    2    3    3    0    0 -0.54909461004E+03  0.51823203130E+02 -0.14384948853E+04  0.15491772846E+04  0.16276421215E+03 0.  0.
     200001    1    1    2    0    0  0.58160506468E+03 -0.21523529692E+03 -0.54844384446E+02  0.87370909965E+03  0.61300000000E+03 0. -1.
         13    1    4    4    0    0 -0.20226651253E+03 -0.50929634423E+02 -0.60950758337E+03  0.64420887537E+03  0.10566000000E+00 0.  1.
    -200003    1    4    4    0    0 -0.34682809750E+03  0.10275283755E+03 -0.82898730197E+03  0.90496840921E+03  0.30000000000E+02 0.  1.
    -200000    1    3    3    0    0 -0.32510454646E+02  0.16341209379E+03 -0.16051009288E+04  0.16168829375E+04  0.10100000000E+03 0. -1.
<mgrwt>
<rscale>  0 0.25921814E+04</rscale>
<asrwt>0</asrwt>
<pdfrwt beam="1">  1        2 0.50987209E+00 0.25921814E+04</pdfrwt>
<pdfrwt beam="2">  1       -2 0.67237797E-01 0.25921814E+04</pdfrwt>
<totfact> 0.19678806E+00</totfact>
</mgrwt>
</event>
<event>
 8    2  0.4306980E-052  0.1625721E+04  0.7818608E-02  0.8804900E-01
          2   -1    0    0  501    0  0.00000000000E+00  0.00000000000E+00  0.19806095816E+04  0.19806095816E+04  0.25500000000E-02 0.  1.
         -2   -1    0    0    0  501 -0.00000000000E+00 -0.00000000000E+00 -0.33360563167E+03  0.33360563168E+03  0.25500000000E-02 0. -1.
    -200001    2    1    2    0    0 -0.17236424032E+03  0.94392627903E+02  0.11736480593E+03  0.65464168060E+03  0.61332033454E+03 0.  0.
   -5000001    2    3    3    0    0 -0.79886801371E+02  0.29436937737E+03 -0.93048762349E+02  0.33367805843E+03  0.98222925722E+02 0.  0.
     200001    1    1    2    0    0  0.17236424032E+03 -0.94392627903E+02  0.15296391440E+04  0.16595735327E+04  0.61300000000E+03 0.  1.
         13    1    4    4    0    0  0.72556778134E+01  0.10247559334E+02  0.11685404011E+02  0.17152759655E+02  0.10566000000E+00 0.  1.
    -200003    1    4    4    0    0 -0.87142479185E+02  0.28412181803E+03 -0.10473416636E+03  0.31652529877E+03  0.30000000000E+02 0.  1.
    -200000    1    3    3    0    0 -0.92477438952E+02 -0.19997674946E+03  0.21041356828E+03  0.32096362217E+03  0.10100000000E+03 0. -1.
<mgrwt>
<rscale>  0 0.16257214E+04</rscale>
<asrwt>0</asrwt>
<pdfrwt beam="1">  1        2 0.28294423E+00 0.16257214E+04</pdfrwt>
<pdfrwt beam="2">  1       -2 0.47657947E-01 0.16257214E+04</pdfrwt>
<totfact> 0.32845305E+01</totfact>
</mgrwt>
</event>
<event>
 8    2  0.4306980E-052  0.1366718E+04  0.7818608E-02  0.8978268E-01
         -2   -1    0    0    0  501 -0.00000000000E+00  0.00000000000E+00  0.81527519542E+03  0.81527519543E+03  0.25500000000E-02 0. -1.
          2   -1    0    0  501    0  0.00000000000E+00 -0.00000000000E+00 -0.57278794361E+03  0.57278794361E+03  0.25500000000E-02 0.  1.
    -200001    2    1    2    0    0  0.27761866013E+02  0.29839485776E+03  0.15836735456E+03  0.70056377944E+03  0.61310617166E+03 0.  0.
   -5000001    2    3    3    0    0 -0.17247336491E+03 -0.69466551075E+02 -0.26414958180E+02  0.23177633622E+03  0.13583024956E+03 0.  0.
     200001    1    1    2    0    0 -0.27761866013E+02 -0.29839485776E+03  0.84119897261E+02  0.68749935961E+03  0.61300000000E+03 0.  1.
         13    1    4    4    0    0 -0.25822753090E+02 -0.61195058759E+02 -0.45702112090E+02  0.80624710897E+02  0.10566000000E+00 0.  1.
    -200003    1    4    4    0    0 -0.14665061182E+03 -0.82714923159E+01  0.19287153910E+02  0.15115162533E+03  0.30000000000E+02 0.  1.
    -200000    1    3    3    0    0  0.20023523092E+03  0.36786140884E+03  0.18478231274E+03  0.46878744321E+03  0.10100000000E+03 0. -1.
<mgrwt>
<rscale>  0 0.13667184E+04</rscale>
<asrwt>0</asrwt>
<pdfrwt beam="1">  1        2 0.81826849E-01 0.13667184E+04</pdfrwt>
<pdfrwt beam="2">  1       -2 0.11646788E+00 0.13667184E+04</pdfrwt>
<totfact> 0.32017121E+01</totfact>
</mgrwt>
</event>
<event>
 8    2  0.4306980E-052  0.1343538E+04  0.7818608E-02  0.8995734E-01
         -2   -1    0    0    0  501 -0.00000000000E+00  0.00000000000E+00  0.31438443732E+03  0.31438443733E+03  0.25500000000E-02 0. -1.
          2   -1    0    0  501    0  0.00000000000E+00 -0.00000000000E+00 -0.14354197148E+04  0.14354197148E+04  0.25500000000E-02 0.  1.
    -200001    2    1    2    0    0  0.10331162983E+03 -0.25318910395E+03 -0.54663657728E+03  0.86635586164E+03  0.61398934532E+03 0.  0.
   -5000001    2    3    3    0    0  0.15672158977E+03 -0.12789324199E+03 -0.63758534638E+03  0.67393872247E+03  0.82219156405E+02 0.  0.
     200001    1    1    2    0    0 -0.10331162983E+03  0.25318910395E+03 -0.57439870024E+03  0.88344829054E+03  0.61300000000E+03 0.  1.
         13    1    4    4    0    0  0.67866515618E+02 -0.22414741507E+02 -0.14700851009E+03  0.16346191539E+03  0.10566000000E+00 0.  1.
    -200003    1    4    4    0    0  0.88855074156E+02 -0.10547850048E+03 -0.49057683629E+03  0.51047680708E+03  0.30000000000E+02 0.  1.
    -200000    1    3    3    0    0 -0.53409959946E+02 -0.12529586196E+03  0.90948769099E+02  0.19241713917E+03  0.10100000000E+03 0. -1.
<mgrwt>
<rscale>  0 0.13435380E+04</rscale>
<asrwt>0</asrwt>
<pdfrwt beam="1">  1        2 0.20505996E+00 0.13435380E+04</pdfrwt>
<pdfrwt beam="2">  1       -2 0.44912063E-01 0.13435380E+04</pdfrwt>
<totfact> 0.72760003E+01</totfact>
</mgrwt>
</event>
<event>
 8    2  0.4306980E-052  0.2262376E+04  0.7818608E-02  0.8492905E-01
          2   -1    0    0  501    0  0.00000000000E+00  0.00000000000E+00  0.12142907554E+04  0.12142907554E+04  0.25500000000E-02 0.  1.
         -2   -1    0    0    0  501 -0.00000000000E+00 -0.00000000000E+00 -0.10537722091E+04  0.10537722091E+04  0.25500000000E-02 0. -1.
    -200001    2    1    2    0    0 -0.23374628828E+03  0.71127123369E+03  0.66750593950E+03  0.11756576771E+04  0.61323951215E+03 0.  0.
   -5000001    2    3    3    0    0  0.85577166546E+02  0.34473902236E+03  0.30795470249E+02  0.36824542030E+03  0.92129710811E+02 0.  0.
     200001    1    1    2    0    0  0.23374628828E+03 -0.71127123369E+03 -0.50698739323E+03  0.10924052875E+04  0.61300000000E+03 0. -1.
         13    1    4    4    0    0  0.18802741243E+02  0.75342968480E+02  0.43093532859E+02  0.88809738858E+02  0.10566000000E+00 0.  1.
    -200003    1    4    4    0    0  0.66774425303E+02  0.26939605388E+03 -0.12298062610E+02  0.27943568144E+03  0.30000000000E+02 0.  1.
    -200000    1    3    3    0    0 -0.31932345483E+03  0.36653221133E+03  0.63671046925E+03  0.80741225678E+03  0.10100000000E+03 0.  1.
<mgrwt>
<rscale>  0 0.22623756E+04</rscale>
<asrwt>0</asrwt>
<pdfrwt beam="1">  1        2 0.17347011E+00 0.22623756E+04</pdfrwt>
<pdfrwt beam="2">  1       -2 0.15053889E+00 0.22623756E+04</pdfrwt>
<totfact> 0.56891307E+00</totfact>
</mgrwt>
</event>
<event>
 8    2  0.4306980E-052  0.2125815E+04  0.7818608E-02  0.8549956E-01
          2   -1    0    0  501    0  0.00000000000E+00  0.00000000000E+00  0.12832907723E+04  0.12832907723E+04  0.25500000000E-02 0.  1.
         -2   -1    0    0    0  501 -0.00000000000E+00 -0.00000000000E+00 -0.88037118566E+03  0.88037118567E+03  0.25500000000E-02 0. -1.
    -200001    2    1    2    0    0 -0.69694982852E+03  0.37235698302E+03 -0.16599268276E+03  0.10130886415E+04  0.61188743940E+03 0.  0.
   -5000001    2    3    3    0    0 -0.31244897724E+03  0.16973403693E+03 -0.37296251996E+03  0.52122028874E+03  0.78329696977E+02 0.  0.
     200001    1    1    2    0    0  0.69694982852E+03 -0.37235698302E+03  0.56891226936E+03  0.11505733164E+04  0.61300000000E+03 0. -1.
         13    1    4    4    0    0 -0.22450153115E+03  0.11096651705E+03 -0.22339053863E+03  0.33558583002E+03  0.10566000000E+00 0.  1.
    -200003    1    4    4    0    0 -0.87947446090E+02  0.58767519880E+02 -0.14957198133E+03  0.18563445872E+03  0.30000000000E+02 0. -1.
    -200000    1    3    3    0    0 -0.38450085128E+03  0.20262294610E+03  0.20696983720E+03  0.49186835275E+03  0.10100000000E+03 0.  1.
<mgrwt>
<rscale>  0 0.21258149E+04</rscale>
<asrwt>0</asrwt>
<pdfrwt beam="1">  1        2 0.18332725E+00 0.21258149E+04</pdfrwt>
<pdfrwt beam="2">  1       -2 0.12576731E+00 0.21258149E+04</pdfrwt>
<totfact> 0.83666837E+00</totfact>
</mgrwt>
</event>
<event>
 8    2  0.4306980E-052  0.1578010E+04  0.7818608E-02  0.8834172E-01
          2   -1    0    0  501    0  0.00000000000E+00  0.00000000000E+00  0.93477751585E+03  0.93477751586E+03  0.25500000000E-02 0.  1.
         -2   -1    0    0    0  501 -0.00000000000E+00 -0.00000000000E+00 -0.66596480668E+03  0.66596480669E+03  0.25500000000E-02 0. -1.
    -200001    2    1    2    0    0  0.41723036921E+03 -0.79818692970E+02  0.39422408281E+03  0.84446908001E+03  0.61421754686E+03 0.  0.
   -5000001    2    3    3    0    0 -0.10385617113E+03  0.73329065503E+02  0.77860999594E+02  0.20785929460E+03  0.14484438189E+03 0.  0.
     200001    1    1    2    0    0 -0.41723036921E+03  0.79818692970E+02 -0.12541137364E+03  0.75627324254E+03  0.61300000000E+03 0. -1.
         13    1    4    4    0    0 -0.78039463812E+02 -0.19851565127E+02  0.69336742112E+02  0.10626305812E+03  0.10566000000E+00 0.  1.
    -200003    1    4    4    0    0 -0.25816707319E+02  0.93180630630E+02  0.85242574826E+01  0.10159623648E+03  0.30000000000E+02 0.  1.
    -200000    1    3    3    0    0  0.52108654034E+03 -0.15314775847E+03  0.31636308322E+03  0.63660978541E+03  0.10100000000E+03 0.  1.
<mgrwt>
<rscale>  0 0.15780100E+04</rscale>
<asrwt>0</asrwt>
<pdfrwt beam="1">  1        2 0.13353965E+00 0.15780100E+04</pdfrwt>
<pdfrwt beam="2">  1       -2 0.95137829E-01 0.15780100E+04</pdfrwt>
<totfact> 0.27612415E+01</totfact>
</mgrwt>
</event>
<event>
 8    2  0.4306980E-052  0.1241685E+04  0.7818608E-02  0.9077132E-01
         -2   -1    0    0    0  501 -0.00000000000E+00  0.00000000000E+00  0.14351166247E+03  0.14351166249E+03  0.25500000000E-02 0. -1.
          2   -1    0    0  501    0  0.00000000000E+00 -0.00000000000E+00 -0.26858126475E+04  0.26858126475E+04  0.25500000000E-02 0.  1.
    -200001    2    1    2    0    0 -0.97782347000E+02  0.57129185962E+01 -0.12519496835E+04  0.13974131723E+04  0.61301838416E+03 0.  0.
   -5000001    2    3    3    0    0 -0.26554766105E+03 -0.13363033787E+03 -0.35546520322E+03  0.46927139053E+03  0.74077660458E+02 0.  0.
     200001    1    1    2    0    0  0.97782347000E+02 -0.57129185962E+01 -0.12903513015E+04  0.14319111376E+04  0.61300000000E+03 0. -1.
         13    1    4    4    0    0 -0.53418682164E+02 -0.52789471827E+02 -0.64420676211E+02  0.98946038968E+02  0.10566000000E+00 0.  1.
    -200003    1    4    4    0    0 -0.21212897888E+03 -0.80840866042E+02 -0.29104452701E+03  0.37032535156E+03  0.30000000000E+02 0.  1.
    -200000    1    3    3    0    0  0.16776531405E+03  0.13934325646E+03 -0.89648448031E+03  0.92814178181E+03  0.10100000000E+03 0.  1.
<mgrwt>
<rscale>  0 0.12416850E+04</rscale>
<asrwt>0</asrwt>
<pdfrwt beam="1">  1        2 0.38368749E+00 0.12416850E+04</pdfrwt>
<pdfrwt beam="2">  1       -2 0.20501668E-01 0.12416850E+04</pdfrwt>
<totfact> 0.71101482E+01</totfact>
</mgrwt>
</event>
<event>
 8    2  0.4306980E-052  0.2090731E+04  0.7818608E-02  0.8565338E-01
          2   -1    0    0  501    0  0.00000000000E+00  0.00000000000E+00  0.14600383670E+04  0.14600383670E+04  0.25500000000E-02 0.  1.
         -2   -1    0    0    0  501 -0.00000000000E+00 -0.00000000000E+00 -0.74846562924E+03  0.74846562924E+03  0.25500000000E-02 0. -1.
    -200001    2    1    2    0    0  0.79678576365E+03  0.28328443727E+03  0.39998710821E+03  0.11185626079E+04  0.61324953766E+03 0.  0.
   -5000001    2    3    3    0    0  0.28799888827E+03 -0.16827802511E+03  0.35725287926E+02  0.34032073306E+03  0.57280465927E+02 0.  0.
     200001    1    1    2    0    0 -0.79678576365E+03 -0.28328443727E+03  0.31158562954E+03  0.10899413884E+04  0.61300000000E+03 0.  1.
         13    1    4    4    0    0  0.19725582047E+03 -0.12285525214E+03  0.30429898459E+02  0.23436992463E+03  0.10566000000E+00 0.  1.
    -200003    1    4    4    0    0  0.90743067799E+02 -0.45422772971E+02  0.52953894672E+01  0.10595080843E+03  0.30000000000E+02 0. -1.
    -200000    1    3    3    0    0  0.50878687538E+03  0.45156246238E+03  0.36426182029E+03  0.77824187481E+03  0.10100000000E+03 0.  1.
<mgrwt>
<rscale>  0 0.20907305E+04</rscale>
<asrwt>0</asrwt>
<pdfrwt beam="1">  1        2 0.20857691E+00 0.20907305E+04</pdfrwt>
<pdfrwt beam="2">  1       -2 0.10692366E+00 0.20907305E+04</pdfrwt>
<totfact> 0.10010684E+01</totfact>
</mgrwt>
</event>
<event>
 8    2  0.4306980E-052  0.3003585E+04  0.7818608E-02  0.8242708E-01
          2   -1    0    0  501    0  0.00000000000E+00  0.00000000000E+00  0.85408994950E+03  0.85408994950E+03  0.25500000000E-02 0.  1.
         -2   -1    0    0    0  501 -0.00000000000E+00 -0.00000000000E+00 -0.26406822213E+04  0.26406822213E+04  0.25500000000E-02 0. -1.
    -200001    2    1    2    0    0 -0.73633207012E+03  0.12468249130E+03 -0.22312013112E+04  0.24312041951E+04  0.61217963558E+03 0.  0.
   -5000001    2    3    3    0    0 -0.81804598432E+03  0.14672367659E+03 -0.18751690949E+04  0.20515689536E+04  0.44147105328E+02 0.  0.
     200001    1    1    2    0    0  0.73633207012E+03 -0.12468249130E+03  0.44460903934E+03  0.10635679757E+04  0.61300000000E+03 0.  1.
         13    1    4    4    0    0 -0.31893529202E+03  0.67369748721E+02 -0.74289279898E+03  0.81126328986E+03  0.10566000000E+00 0.  1.
    -200003    1    4    4    0    0 -0.49911069230E+03  0.79353927864E+02 -0.11322762960E+04  0.12403056637E+04  0.30000000000E+02 0. -1.
    -200000    1    3    3    0    0  0.81713914201E+02 -0.22041185285E+02 -0.35603221621E+03  0.37963524151E+03  0.10100000000E+03 0. -1.
<mgrwt>
<rscale>  0 0.30035846E+04</rscale>
<asrwt>0</asrwt>
<pdfrwt beam="1">  1        2 0.12201285E+00 0.30035846E+04</pdfrwt>
<pdfrwt beam="2">  1       -2 0.37724031E+00 0.30035846E+04</pdfrwt>
<totfact> 0.31316082E-01</totfact>
</mgrwt>
</event>
<event>
 8    2  0.4306980E-052  0.1662355E+04  0.7818608E-02  0.8783131E-01
         -2   -1    0    0    0  501 -0.00000000000E+00  0.00000000000E+00  0.38159033863E+03  0.38159033864E+03  0.25500000000E-02 0. -1.
          2   -1    0    0  501    0  0.00000000000E+00 -0.00000000000E+00 -0.18104644314E+04  0.18104644314E+04  0.25500000000E-02 0.  1.
    -200001    2    1    2    0    0 -0.14707770994E+03  0.25419080306E+02 -0.14299271266E+04  0.15611442445E+04  0.60844209452E+03 0.  0.
   -5000001    2    3    3    0    0  0.22189769946E+03 -0.30817599928E+02 -0.49770901810E+03  0.55191829421E+03  0.81922056223E+02 0.  0.
     200001    1    1    2    0    0  0.14707770994E+03 -0.25419080306E+02  0.10530337723E+01  0.63091052558E+03  0.61300000000E+03 0. -1.
         13    1    4    4    0    0  0.13497762767E+03 -0.62634793237E+01 -0.35998137339E+03  0.38450590568E+03  0.10566000000E+00 0.  1.
    -200003    1    4    4    0    0  0.86920071794E+02 -0.24554120604E+02 -0.13772764470E+03  0.16741238853E+03  0.30000000000E+02 0.  1.
    -200000    1    3    3    0    0 -0.36897540940E+03  0.56236680234E+02 -0.93221810847E+03  0.10092259503E+04  0.10100000000E+03 0.  1.
<mgrwt>
<rscale>  0 0.16623546E+04</rscale>
<asrwt>0</asrwt>
<pdfrwt beam="1">  1        2 0.25863777E+00 0.16623546E+04</pdfrwt>
<pdfrwt beam="2">  1       -2 0.54512907E-01 0.16623546E+04</pdfrwt>
<totfact> 0.30442739E+01</totfact>
</mgrwt>
</event>
<event>
 8    2  0.4306980E-052  0.1853347E+04  0.7818608E-02  0.8678434E-01
         -2   -1    0    0    0  501 -0.00000000000E+00  0.00000000000E+00  0.65355064705E+03  0.65355064705E+03  0.25500000000E-02 0. -1.
          2   -1    0    0  501    0  0.00000000000E+00 -0.00000000000E+00 -0.13139359217E+04  0.13139359217E+04  0.25500000000E-02 0.  1.
    -200001    2    1    2    0    0  0.48824087412E+03 -0.29425792613E+03  0.92036653378E+02  0.84193131199E+03  0.61270768748E+03 0.  0.
   -5000001    2    3    3    0    0  0.47925650700E+03 -0.25856707790E+02 -0.97536922425E+02  0.49804314194E+03  0.90433130821E+02 0.  0.
     200001    1    1    2    0    0 -0.48824087412E+03  0.29425792613E+03 -0.75242192802E+03  0.11255552568E+04  0.61300000000E+03 0.  1.
         13    1    4    4    0    0  0.28341986093E+03  0.86177882941E+01 -0.87295463122E+02  0.29668433206E+03  0.10566000000E+00 0.  1.
    -200003    1    4    4    0    0  0.19583664608E+03 -0.34474496084E+02 -0.10241459303E+02  0.20135880988E+03  0.30000000000E+02 0.  1.
    -200000    1    3    3    0    0  0.89843671125E+01 -0.26840121834E+03  0.18957357580E+03  0.34388817005E+03  0.10100000000E+03 0.  1.
<mgrwt>
<rscale>  0 0.18533469E+04</rscale>
<asrwt>0</asrwt>
<pdfrwt beam="1">  1        2 0.18770513E+00 0.18533469E+04</pdfrwt>
<pdfrwt beam="2">  1       -2 0.93364379E-01 0.18533469E+04</pdfrwt>
<totfact> 0.16885818E+01</totfact>
</mgrwt>
</event>
<event>
 8    2  0.4306980E-052  0.1380644E+04  0.7818608E-02  0.8967950E-01
          2   -1    0    0  501    0  0.00000000000E+00  0.00000000000E+00  0.34716915849E+04  0.34716915849E+04  0.25500000000E-02 0.  1.
         -2   -1    0    0    0  501 -0.00000000000E+00 -0.00000000000E+00 -0.13726578946E+03  0.13726578948E+03  0.25500000000E-02 0. -1.
    -200001    2    1    2    0    0  0.14133931002E+03 -0.28132544593E+03  0.17607740858E+04  0.18910314417E+04  0.61363973553E+03 0.  0.
   -5000001    2    3    3    0    0  0.21086408450E+03 -0.28977596428E+03  0.17238525472E+04  0.17626986495E+04  0.83696790885E+02 0.  0.
     200001    1    1    2    0    0 -0.14133931002E+03  0.28132544593E+03  0.15736517096E+04  0.17179259327E+04  0.61300000000E+03 0. -1.
         13    1    4    4    0    0  0.16659530765E+03 -0.18581781492E+03  0.10959369148E+04  0.11239928778E+04  0.10566000000E+00 0.  1.
    -200003    1    4    4    0    0  0.44268776853E+02 -0.10395814935E+03  0.62791563240E+03  0.63870577173E+03  0.30000000000E+02 0. -1.
    -200000    1    3    3    0    0 -0.69524774485E+02  0.84505183535E+01  0.36921538567E+02  0.12833279214E+03  0.10100000000E+03 0. -1.
<mgrwt>
<rscale>  0 0.13806440E+04</rscale>
<asrwt>0</asrwt>
<pdfrwt beam="1">  1        2 0.49595592E+00 0.13806440E+04</pdfrwt>
<pdfrwt beam="2">  1       -2 0.19609399E-01 0.13806440E+04</pdfrwt>
<totfact> 0.27369585E+01</totfact>
</mgrwt>
</event>
<event>
 8    2  0.4306980E-052  0.1438923E+04  0.7818608E-02  0.8926116E-01
         -2   -1    0    0    0  501 -0.00000000000E+00  0.00000000000E+00  0.33571258696E+03  0.33571258697E+03  0.25500000000E-02 0. -1.
          2   -1    0    0  501    0  0.00000000000E+00 -0.00000000000E+00 -0.15418692204E+04  0.15418692204E+04  0.25500000000E-02 0.  1.
    -200001    2    1    2    0    0 -0.24837474207E+03  0.72946785829E+02 -0.24728919715E+03  0.71044556579E+03  0.61365275919E+03 0.  0.
   -5000001    2    3    3    0    0  0.64683940797E+02  0.80116504109E+02 -0.34456079648E+03  0.36734221720E+03  0.74936610836E+02 0.  0.
     200001    1    1    2    0    0  0.24837474207E+03 -0.72946785829E+02 -0.95886743632E+03  0.11671362416E+04  0.61300000000E+03 0.  1.
         13    1    4    4    0    0  0.19359316944E+02  0.15749813382E+01 -0.14279762194E+03  0.14411258000E+03  0.10566000000E+00 0.  1.
    -200003    1    4    4    0    0  0.45324623853E+02  0.78541522771E+02 -0.20176317454E+03  0.22322963721E+03  0.30000000000E+02 0. -1.
    -200000    1    3    3    0    0 -0.31305868287E+03 -0.71697182804E+01  0.97271599325E+02  0.34310334859E+03  0.10100000000E+03 0. -1.
<mgrwt>
<rscale>  0 0.14389231E+04</rscale>
<asrwt>0</asrwt>
<pdfrwt beam="1">  1        2 0.22026703E+00 0.14389231E+04</pdfrwt>
<pdfrwt beam="2">  1       -2 0.47958942E-01 0.14389231E+04</pdfrwt>
<totfact> 0.55574886E+01</totfact>
</mgrwt>
</event>
<event>
 8    2  0.4306980E-052  0.1239941E+04  0.7818608E-02  0.9078597E-01
         -2   -1    0    0    0  501 -0.00000000000E+00  0.00000000000E+00  0.21287069197E+03  0.21287069198E+03  0.25500000000E-02 0. -1.
          2   -1    0    0  501    0  0.00000000000E+00 -0.00000000000E+00 -0.18056203536E+04  0.18056203536E+04  0.25500000000E-02 0.  1.
    -200001    2    1    2    0    0 -0.85741728836E+02 -0.12630011727E+02 -0.82463185398E+03  0.10319389042E+04  0.61430370837E+03 0.  0.
   -5000001    2    3    3    0    0 -0.12091745196E+03  0.40954808899E+02 -0.88465104104E+03  0.89810330611E+03  0.87657044624E+02 0.  0.
     200001    1    1    2    0    0  0.85741728836E+02  0.12630011727E+02 -0.76811780766E+03  0.98655214140E+03  0.61300000000E+03 0. -1.
         13    1    4    4    0    0 -0.11055956021E+03  0.26277056720E+02 -0.76677315996E+03  0.77514836649E+03  0.10566000000E+00 0.  1.
    -200003    1    4    4    0    0 -0.10357891752E+02  0.14677752178E+02 -0.11787788107E+03  0.12295493962E+03  0.30000000000E+02 0. -1.
    -200000    1    3    3    0    0  0.35175723124E+02 -0.53584820625E+02  0.60019187057E+02  0.13383559808E+03  0.10100000000E+03 0. -1.
<mgrwt>
<rscale>  0 0.12399414E+04</rscale>
<asrwt>0</asrwt>
<pdfrwt beam="1">  1        2 0.25794576E+00 0.12399414E+04</pdfrwt>
<pdfrwt beam="2">  1       -2 0.30410100E-01 0.12399414E+04</pdfrwt>
<totfact> 0.99445704E+01</totfact>
</mgrwt>
</event>
<event>
 8    2  0.4306980E-052  0.1275747E+04  0.7818608E-02  0.9049022E-01
          2   -1    0    0  501    0  0.00000000000E+00  0.00000000000E+00  0.28807814709E+04  0.28807814709E+04  0.25500000000E-02 0.  1.
         -2   -1    0    0    0  501 -0.00000000000E+00 -0.00000000000E+00 -0.14124031420E+03  0.14124031423E+03  0.25500000000E-02 0. -1.
    -200001    2    1    2    0    0 -0.11023450174E+03 -0.13576224655E+03  0.13602905061E+04  0.15025862353E+04  0.61383393563E+03 0.  0.
   -5000001    2    3    3    0    0  0.21837949150E+03  0.40921268998E+02  0.58669054548E+03  0.63779601778E+03  0.11495134439E+03 0.  0.
     200001    1    1    2    0    0  0.11023450174E+03  0.13576224655E+03  0.13792506506E+04  0.15194355499E+04  0.61300000000E+03 0. -1.
         13    1    4    4    0    0  0.18063739824E+03  0.20039461761E+02  0.33953373040E+03  0.38511636542E+03  0.10566000000E+00 0.  1.
    -200003    1    4    4    0    0  0.37742093260E+02  0.20881807237E+02  0.24715681508E+03  0.25267965236E+03  0.30000000000E+02 0.  1.
    -200000    1    3    3    0    0 -0.32861399324E+03 -0.17668351555E+03  0.77359996061E+03  0.86479021750E+03  0.10100000000E+03 0. -1.
<mgrwt>
<rscale>  0 0.12757468E+04</rscale>
<asrwt>0</asrwt>
<pdfrwt beam="1">  1        2 0.41154021E+00 0.12757468E+04</pdfrwt>
<pdfrwt beam="2">  1       -2 0.20177188E-01 0.12757468E+04</pdfrwt>
<totfact> 0.57237652E+01</totfact>
</mgrwt>
</event>
<event>
 8    2  0.4306980E-052  0.1456907E+04  0.7818608E-02  0.8913626E-01
          2   -1    0    0  501    0  0.00000000000E+00  0.00000000000E+00  0.18985159182E+04  0.18985159182E+04  0.25500000000E-02 0. -1.
         -2   -1    0    0    0  501 -0.00000000000E+00 -0.00000000000E+00 -0.27950493130E+03  0.27950493131E+03  0.25500000000E-02 0.  1.
    -200001    2    1    2    0    0 -0.21383920392E+02 -0.19658533331E+03  0.13149362535E+04  0.14657473706E+04  0.61664814787E+03 0.  0.
   -5000001    2    3    3    0    0 -0.11642235904E+02 -0.36676915160E+03  0.64803979868E+03  0.77003959150E+03  0.19583217199E+03 0.  0.
     200001    1    1    2    0    0  0.21383920392E+02  0.19658533331E+03  0.30407473344E+03  0.71227347897E+03  0.61300000000E+03 0.  1.
         13    1    4    4    0    0  0.16642147356E+01 -0.38034273374E+03  0.59676379469E+03  0.70766545948E+03  0.10566000000E+00 0.  1.
    -200003    1    4    4    0    0 -0.13306450640E+02  0.13573582140E+02  0.51276003988E+02  0.62374132024E+02  0.30000000000E+02 0.  1.
    -200000    1    3    3    0    0 -0.97416844877E+01  0.17018381829E+03  0.66689645479E+03  0.69570777906E+03  0.10100000000E+03 0. -1.
<mgrwt>
<rscale>  0 0.14569071E+04</rscale>
<asrwt>0</asrwt>
<pdfrwt beam="1">  1        2 0.27121656E+00 0.14569071E+04</pdfrwt>
<pdfrwt beam="2">  1       -2 0.39929275E-01 0.14569071E+04</pdfrwt>
<totfact> 0.52121838E+01</totfact>
</mgrwt>
</event>
<event>
 8    2  0.4306980E-052  0.1772515E+04  0.7818608E-02  0.8721054E-01
         -2   -1    0    0    0  501 -0.00000000000E+00  0.00000000000E+00  0.47752291318E+03  0.47752291318E+03  0.25500000000E-02 0. -1.
          2   -1    0    0  501    0  0.00000000000E+00 -0.00000000000E+00 -0.16448481394E+04  0.16448481394E+04  0.25500000000E-02 0.  1.
    -200001    2    1    2    0    0  0.38178098946E+03  0.34079100594E+03 -0.10437798772E+04  0.13143316433E+04  0.61326666536E+03 0.  0.
   -5000001    2    3    3    0    0  0.76968092260E+02  0.58684067638E+02 -0.82154432393E+03  0.83257976932E+03  0.94266054727E+02 0.  0.
     200001    1    1    2    0    0 -0.38178098946E+03 -0.34079100594E+03 -0.12354534897E+03  0.80803940925E+03  0.61300000000E+03 0. -1.
         13    1    4    4    0    0  0.66899671191E+02  0.71890088470E+02 -0.52951584757E+03  0.53854507222E+03  0.10566000000E+00 0.  1.
    -200003    1    4    4    0    0  0.10068421069E+02 -0.13206020832E+02 -0.29202847637E+03  0.29403469710E+03  0.30000000000E+02 0. -1.
    -200000    1    3    3    0    0  0.30481289720E+03  0.28210693830E+03 -0.22223555329E+03  0.48175187398E+03  0.10100000000E+03 0.  1.
<mgrwt>
<rscale>  0 0.17725154E+04</rscale>
<asrwt>0</asrwt>
<pdfrwt beam="1">  1        2 0.23497830E+00 0.17725154E+04</pdfrwt>
<pdfrwt beam="2">  1       -2 0.68217560E-01 0.17725154E+04</pdfrwt>
<totfact> 0.22869296E+01</totfact>
</mgrwt>
</event>
<event>
 8    2  0.4306980E-052  0.1329938E+04  0.7818608E-02  0.9006155E-01
          2   -1    0    0  501    0  0.00000000000E+00  0.00000000000E+00  0.63078124038E+03  0.63078124039E+03  0.25500000000E-02 0. -1.
         -2   -1    0    0    0  501 -0.00000000000E+00 -0.00000000000E+00 -0.70100975097E+03  0.70100975097E+03  0.25500000000E-02 0.  1.
    -200001    2    1    2    0    0 -0.15763378406E+03 -0.19061042515E+03 -0.12170681747E+03  0.66876779408E+03  0.60930868115E+03 0.  0.
   -5000001    2    3    3    0    0  0.93402602183E+02 -0.22036738841E+03  0.13711687660E+03  0.29314105290E+03  0.99221001199E+02 0.  0.
     200001    1    1    2    0    0  0.15763378406E+03  0.19061042515E+03  0.51478306880E+02  0.66302319728E+03  0.61300000000E+03 0. -1.
         13    1    4    4    0    0 -0.10104052849E+02 -0.86885352476E+02  0.49536912269E+02  0.10052399316E+03  0.10566000000E+00 0.  1.
    -200003    1    4    4    0    0  0.10350665503E+03 -0.13348203593E+03  0.87579964327E+02  0.19261705974E+03  0.30000000000E+02 0.  1.
    -200000    1    3    3    0    0 -0.25103638624E+03  0.29756963261E+02 -0.25882369406E+03  0.37562674118E+03  0.10100000000E+03 0.  1.
<mgrwt>
<rscale>  0 0.13299380E+04</rscale>
<asrwt>0</asrwt>
<pdfrwt beam="1">  1        2 0.90111606E-01 0.13299380E+04</pdfrwt>
<pdfrwt beam="2">  1       -2 0.10014425E+00 0.13299380E+04</pdfrwt>
<totfact> 0.41220108E+01</totfact>
</mgrwt>
</event>
<event>
 8    2  0.4306980E-052  0.1426301E+04  0.7818608E-02  0.8934998E-01
          2   -1    0    0  501    0  0.00000000000E+00  0.00000000000E+00  0.20882921391E+04  0.20882921391E+04  0.25500000000E-02 0.  1.
         -2   -1    0    0    0  501 -0.00000000000E+00 -0.00000000000E+00 -0.24354037117E+03  0.24354037119E+03  0.25500000000E-02 0. -1.
    -200001    2    1    2    0    0  0.18607935391E+03 -0.23871431263E+03  0.12469221822E+04  0.14236589241E+04  0.61674934520E+03 0.  0.
   -5000001    2    3    3    0    0 -0.14436222946E+03  0.64836957452E+02  0.43100684949E+03  0.48704062209E+03  0.16247270204E+03 0.  0.
     200001    1    1    2    0    0 -0.18607935391E+03  0.23871431263E+03  0.59782958572E+03  0.90817358614E+03  0.61300000000E+03 0. -1.
         13    1    4    4    0    0 -0.16358416067E+03  0.61340489655E+02  0.40966129337E+03  0.44535920305E+03  0.10566000000E+00 0.  1.
    -200003    1    4    4    0    0  0.19221931210E+02  0.34964677969E+01  0.21345556120E+02  0.41681419032E+02  0.30000000000E+02 0.  1.
    -200000    1    3    3    0    0  0.33044158336E+03 -0.30355127009E+03  0.81591533267E+03  0.93661830202E+03  0.10100000000E+03 0. -1.
<mgrwt>
<rscale>  0 0.14263007E+04</rscale>
<asrwt>0</asrwt>
<pdfrwt beam="1">  1        2 0.29832743E+00 0.14263007E+04</pdfrwt>
<pdfrwt beam="2">  1       -2 0.34791484E-01 0.14263007E+04</pdfrwt>
<totfact> 0.54454125E+01</totfact>
</mgrwt>
</event>
<event>
 8    2  0.4306980E-052  0.1394001E+04  0.7818608E-02  0.8958173E-01
         -2   -1    0    0    0  501 -0.00000000000E+00  0.00000000000E+00  0.14677321356E+04  0.14677321356E+04  0.25500000000E-02 0. -1.
          2   -1    0    0  501    0  0.00000000000E+00 -0.00000000000E+00 -0.33099334460E+03  0.33099334461E+03  0.25500000000E-02 0.  1.
    -200001    2    1    2    0    0  0.13603290888E+02  0.32125354585E+03  0.46691848784E+03  0.83549283499E+03  0.61371533531E+03 0.  0.
   -5000001    2    3    3    0    0 -0.27432493040E+03  0.17834653732E+03  0.14721651601E+03  0.37101955859E+03  0.94451868455E+02 0.  0.
     200001    1    1    2    0    0 -0.13603290888E+02 -0.32125354585E+03  0.66982030313E+03  0.96323264518E+03  0.61300000000E+03 0.  1.
         13    1    4    4    0    0 -0.21593128921E+03  0.12568405656E+03  0.77082187154E+02  0.26146601782E+03  0.10566000000E+00 0.  1.
    -200003    1    4    4    0    0 -0.58393641195E+02  0.52662480755E+02  0.70134328853E+02  0.10955354077E+03  0.30000000000E+02 0.  1.
    -200000    1    3    3    0    0  0.28792822129E+03  0.14290700853E+03  0.31970197183E+03  0.46447327641E+03  0.10100000000E+03 0. -1.
<mgrwt>
<rscale>  0 0.13940008E+04</rscale>
<asrwt>0</asrwt>
<pdfrwt beam="1">  1        2 0.47284763E-01 0.13940008E+04</pdfrwt>
<pdfrwt beam="2">  1       -2 0.20967602E+00 0.13940008E+04</pdfrwt>
<totfact> 0.11986961E+01</totfact>
</mgrwt>
</event>
<event>
 8    2  0.4306980E-052  0.1452769E+04  0.7818608E-02  0.8916483E-01
          2   -1    0    0  501    0  0.00000000000E+00  0.00000000000E+00  0.62892432316E+03  0.62892432317E+03  0.25500000000E-02 0. -1.
         -2   -1    0    0    0  501 -0.00000000000E+00 -0.00000000000E+00 -0.83894737894E+03  0.83894737894E+03  0.25500000000E-02 0.  1.
    -200001    2    1    2    0    0  0.19830152191E+03 -0.28728957400E+03 -0.28019819218E+03  0.75896243944E+03  0.61290632617E+03 0.  0.
   -5000001    2    3    3    0    0 -0.95341855875E+02 -0.35777986453E+03 -0.21095460225E+03  0.43309285031E+03  0.77272710813E+02 0.  0.
     200001    1    1    2    0    0 -0.19830152191E+03  0.28728957400E+03  0.70175136407E+02  0.70890926266E+03  0.61300000000E+03 0. -1.
         13    1    4    4    0    0 -0.28157491393E+02 -0.14371919422E+03 -0.47753923018E+02  0.15404057724E+03  0.10566000000E+00 0.  1.
    -200003    1    4    4    0    0 -0.67184364482E+02 -0.21406067030E+03 -0.16320067923E+03  0.27905227307E+03  0.30000000000E+02 0.  1.
    -200000    1    3    3    0    0  0.29364337779E+03  0.70490290525E+02 -0.69243589931E+02  0.32586958913E+03  0.10100000000E+03 0. -1.
<mgrwt>
<rscale>  0 0.14527690E+04</rscale>
<asrwt>0</asrwt>
<pdfrwt beam="1">  1        2 0.89846332E-01 0.14527690E+04</pdfrwt>
<pdfrwt beam="2">  1       -2 0.11984962E+00 0.14527690E+04</pdfrwt>
<totfact> 0.26534614E+01</totfact>
</mgrwt>
</event>
<event>
 8    2  0.4306980E-052  0.1337704E+04  0.7818608E-02  0.9000188E-01
          2   -1    0    0  501    0  0.00000000000E+00  0.00000000000E+00  0.70333875072E+03  0.70333875072E+03  0.25500000000E-02 0. -1.
         -2   -1    0    0    0  501 -0.00000000000E+00 -0.00000000000E+00 -0.63605641338E+03  0.63605641339E+03  0.25500000000E-02 0.  1.
    -200001    2    1    2    0    0  0.22828139651E+03  0.58066047077E+02 -0.11352311723E+03  0.65826105528E+03  0.60409937670E+03 0.  0.
   -5000001    2    3    3    0    0  0.41061144964E+03 -0.26697208674E+02 -0.38793283535E+02  0.42116485994E+03  0.80996400393E+02 0.  0.
     200001    1    1    2    0    0 -0.22828139651E+03 -0.58066047077E+02  0.18080545457E+03  0.68113410883E+03  0.61300000000E+03 0. -1.
         13    1    4    4    0    0  0.28652597829E+03 -0.34437997836E+02 -0.39766946162E+01  0.28861555258E+03  0.10566000000E+00 0.  1.
    -200003    1    4    4    0    0  0.12408547135E+03  0.77407891611E+01 -0.34816588919E+02  0.13254930735E+03  0.30000000000E+02 0.  1.
    -200000    1    3    3    0    0 -0.18233005313E+03  0.84763255752E+02 -0.74729833697E+02  0.23709619534E+03  0.10100000000E+03 0.  1.
<mgrwt>
<rscale>  0 0.13377042E+04</rscale>
<asrwt>0</asrwt>
<pdfrwt beam="1">  1        2 0.10047696E+00 0.13377042E+04</pdfrwt>
<pdfrwt beam="2">  1       -2 0.90865202E-01 0.13377042E+04</pdfrwt>
<totfact> 0.45294250E+01</totfact>
</mgrwt>
</event>
<event>
 8    2  0.4306980E-052  0.1315929E+04  0.7818608E-02  0.9017028E-01
          2   -1    0    0  501    0  0.00000000000E+00  0.00000000000E+00  0.10586911022E+04  0.10586911022E+04  0.25500000000E-02 0.  1.
         -2   -1    0    0    0  501 -0.00000000000E+00 -0.00000000000E+00 -0.40891734846E+03  0.40891734847E+03  0.25500000000E-02 0. -1.
    -200001    2    1    2    0    0  0.34310294217E+02  0.28699267663E+01  0.58808412151E+03  0.85055088163E+03  0.61352134071E+03 0.  0.
   -5000001    2    3    3    0    0  0.26409786982E+03  0.15613580277E+03  0.34584894545E+03  0.46953691973E+03  0.82020437486E+02 0.  0.
     200001    1    1    2    0    0 -0.34310294217E+02 -0.28699267663E+01  0.61689632222E+02  0.61705756903E+03  0.61300000000E+03 0. -1.
         13    1    4    4    0    0  0.22854311396E+03  0.13209844032E+03  0.30313885905E+03  0.40196409280E+03  0.10566000000E+00 0.  1.
    -200003    1    4    4    0    0  0.35554755857E+02  0.24037362459E+02  0.42710086407E+02  0.67572826927E+02  0.30000000000E+02 0.  1.
    -200000    1    3    3    0    0 -0.22978757560E+03 -0.15326587601E+03  0.24223517606E+03  0.38101396191E+03  0.10100000000E+03 0. -1.
<mgrwt>
<rscale>  0 0.13159288E+04</rscale>
<asrwt>0</asrwt>
<pdfrwt beam="1">  1        2 0.15124158E+00 0.13159288E+04</pdfrwt>
<pdfrwt beam="2">  1       -2 0.58416765E-01 0.13159288E+04</pdfrwt>
<totfact> 0.69448135E+01</totfact>
</mgrwt>
</event>
<event>
 8    2  0.4306980E-052  0.1705733E+04  0.7818608E-02  0.8758101E-01
          2   -1    0    0  501    0  0.00000000000E+00  0.00000000000E+00  0.78868538377E+03  0.78868538377E+03  0.25500000000E-02 0.  1.
         -2   -1    0    0    0  501 -0.00000000000E+00 -0.00000000000E+00 -0.92227052586E+03  0.92227052586E+03  0.25500000000E-02 0. -1.
    -200001    2    1    2    0    0 -0.24968508770E+03 -0.48509192653E+03  0.16445194489E+03  0.83788550845E+03  0.61428890832E+03 0.  0.
   -5000001    2    3    3    0    0 -0.60691568958E+02  0.13733579503E+03  0.40928310839E+02  0.16811397512E+03  0.63581403438E+02 0.  0.
     200001    1    1    2    0    0  0.24968508770E+03  0.48509192653E+03 -0.29803708698E+03  0.87307040118E+03  0.61300000000E+03 0.  1.
         13    1    4    4    0    0 -0.27266872960E+01  0.30104043523E+02  0.29210436215E+02  0.42035092577E+02  0.10566000000E+00 0.  1.
    -200003    1    4    4    0    0 -0.57964881662E+02  0.10723175151E+03  0.11717874624E+02  0.12607888254E+03  0.30000000000E+02 0. -1.
    -200000    1    3    3    0    0 -0.18899351874E+03 -0.62242772156E+03  0.12352363405E+03  0.66977153333E+03  0.10100000000E+03 0. -1.
<mgrwt>
<rscale>  0 0.17057330E+04</rscale>
<asrwt>0</asrwt>
<pdfrwt beam="1">  1        2 0.11266934E+00 0.17057330E+04</pdfrwt>
<pdfrwt beam="2">  1       -2 0.13175293E+00 0.17057330E+04</pdfrwt>
<totfact> 0.15497798E+01</totfact>
</mgrwt>
</event>
<event>
 8    2  0.4306980E-052  0.1529579E+04  0.7818608E-02  0.8865018E-01
          2   -1    0    0  501    0  0.00000000000E+00  0.00000000000E+00  0.16902041759E+04  0.16902041759E+04  0.25500000000E-02 0.  1.
         -2   -1    0    0    0  501 -0.00000000000E+00 -0.00000000000E+00 -0.34605442442E+03  0.34605442443E+03  0.25500000000E-02 0. -1.
    -200001    2    1    2    0    0 -0.10792676784E+03  0.43333274753E+03  0.76413960935E+03  0.10814778809E+04  0.62149787359E+03 0.  0.
   -5000001    2    3    3    0    0  0.52808200068E+02  0.35545763387E+03  0.97508727908E+02  0.38398379820E+03  0.93791096519E+02 0.  0.
     200001    1    1    2    0    0  0.10792676784E+03 -0.43333274753E+03  0.58001014209E+03  0.95478071945E+03  0.61300000000E+03 0. -1.
         13    1    4    4    0    0 -0.55934348825E+01  0.76559251452E+02  0.54751732849E+02  0.94288752832E+02  0.10566000000E+00 0.  1.
    -200003    1    4    4    0    0  0.58401634951E+02  0.27889838242E+03  0.42756995058E+02  0.28969504537E+03  0.30000000000E+02 0.  1.
    -200000    1    3    3    0    0 -0.16073496791E+03  0.77875113660E+02  0.66663088145E+03  0.69749408265E+03  0.10100000000E+03 0.  1.
<mgrwt>
<rscale>  0 0.15295785E+04</rscale>
<asrwt>0</asrwt>
<pdfrwt beam="1">  1        2 0.24145774E+00 0.15295785E+04</pdfrwt>
<pdfrwt beam="2">  1       -2 0.49436347E-01 0.15295785E+04</pdfrwt>
<totfact> 0.43393769E+01</totfact>
</mgrwt>
</event>
<event>
 8    2  0.4306980E-052  0.1567738E+04  0.7818608E-02  0.8840616E-01
          2   -1    0    0  501    0  0.00000000000E+00  0.00000000000E+00  0.15689604242E+04  0.15689604242E+04  0.25500000000E-02 0.  1.
         -2   -1    0    0    0  501 -0.00000000000E+00 -0.00000000000E+00 -0.39162934001E+03  0.39162934002E+03  0.25500000000E-02 0. -1.
    -200001    2    1    2    0    0  0.35731404418E+03 -0.32142650947E+03  0.48194936267E+03  0.91640919278E+03  0.61363042075E+03 0.  0.
   -5000001    2    3    3    0    0  0.22262484319E+03 -0.43373586423E+03  0.51067346940E+03  0.71200604619E+03  0.92068435063E+02 0.  0.
     200001    1    1    2    0    0 -0.35731404418E+03  0.32142650947E+03  0.69538172154E+03  0.10441805715E+04  0.61300000000E+03 0.  1.
         13    1    4    4    0    0  0.18157609372E+03 -0.37570568438E+03  0.40824017046E+03  0.58376766528E+03  0.10566000000E+00 0.  1.
    -200003    1    4    4    0    0  0.41048749476E+02 -0.58030179855E+02  0.10243329893E+03  0.12823838091E+03  0.30000000000E+02 0. -1.
    -200000    1    3    3    0    0  0.13468920099E+03  0.11230935476E+03 -0.28724106722E+02  0.20440314659E+03  0.10100000000E+03 0. -1.
<mgrwt>
<rscale>  0 0.15677384E+04</rscale>
<asrwt>0</asrwt>
<pdfrwt beam="1">  1        2 0.22413720E+00 0.15677384E+04</pdfrwt>
<pdfrwt beam="2">  1       -2 0.55947050E-01 0.15677384E+04</pdfrwt>
<totfact> 0.38820264E+01</totfact>
</mgrwt>
</event>
<event>
 8    2  0.4306980E-052  0.1398353E+04  0.7818608E-02  0.8955012E-01
          2   -1    0    0  501    0  0.00000000000E+00  0.00000000000E+00  0.32574426366E+04  0.32574426366E+04  0.25500000000E-02 0.  1.
         -2   -1    0    0    0  501 -0.00000000000E+00 -0.00000000000E+00 -0.15007096506E+03  0.15007096508E+03  0.25500000000E-02 0. -1.
    -200001    2    1    2    0    0 -0.47114982670E+02  0.32545770250E+03  0.17233931896E+04  0.18585436290E+04  0.61315397524E+03 0.  0.
   -5000001    2    3    3    0    0  0.24406987056E+03  0.32214102024E+02  0.65031666225E+03  0.70421496634E+03  0.11135127989E+03 0.  0.
     200001    1    1    2    0    0  0.47114982670E+02 -0.32545770250E+03  0.13839784819E+04  0.15489699726E+04  0.61300000000E+03 0. -1.
         13    1    4    4    0    0  0.20301449088E+03  0.41443287637E+01  0.57007031286E+03  0.60515471719E+03  0.10566000000E+00 0.  1.
    -200003    1    4    4    0    0  0.41055379679E+02  0.28069773260E+02  0.80246349391E+02  0.99060249152E+02  0.30000000000E+02 0.  1.
    -200000    1    3    3    0    0 -0.29118485323E+03  0.29324360048E+03  0.10730765273E+04  0.11543286627E+04  0.10100000000E+03 0. -1.
<mgrwt>
<rscale>  0 0.13983527E+04</rscale>
<asrwt>0</asrwt>
<pdfrwt beam="1">  1        2 0.46534890E+00 0.13983527E+04</pdfrwt>
<pdfrwt beam="2">  1       -2 0.21438711E-01 0.13983527E+04</pdfrwt>
<totfact> 0.31242253E+01</totfact>
</mgrwt>
</event>
<event>
 8    2  0.4306980E-052  0.1716170E+04  0.7818608E-02  0.8752195E-01
          2   -1    0    0  501    0  0.00000000000E+00  0.00000000000E+00  0.78933156840E+03  0.78933156840E+03  0.25500000000E-02 0.  1.
         -2   -1    0    0    0  501 -0.00000000000E+00 -0.00000000000E+00 -0.93282743787E+03  0.93282743787E+03  0.25500000000E-02 0. -1.
    -200001    2    1    2    0    0 -0.19405999942E+03 -0.50612968107E+03 -0.32662482731E+03  0.88362948823E+03  0.61667719045E+03 0.  0.
   -5000001    2    3    3    0    0 -0.26975326169E+03 -0.35215938597E+02 -0.42001169734E+02  0.31909352901E+03  0.16139887692E+03 0.  0.
     200001    1    1    2    0    0  0.19405999942E+03  0.50612968107E+03  0.18312895784E+03  0.83852951804E+03  0.61300000000E+03 0.  1.
         13    1    4    4    0    0 -0.15413820780E+02  0.45188654645E+02 -0.98070068791E+01  0.48742065278E+02  0.10566000000E+00 0.  1.
    -200003    1    4    4    0    0 -0.25433944092E+03 -0.80404593242E+02 -0.32194162855E+02  0.27035146373E+03  0.30000000000E+02 0.  1.
    -200000    1    3    3    0    0  0.75693262279E+02 -0.47091374247E+03 -0.28462365757E+03  0.56453595922E+03  0.10100000000E+03 0. -1.
<mgrwt>
<rscale>  0 0.17161703E+04</rscale>
<asrwt>0</asrwt>
<pdfrwt beam="1">  1        2 0.11276165E+00 0.17161703E+04</pdfrwt>
<pdfrwt beam="2">  1       -2 0.13326106E+00 0.17161703E+04</pdfrwt>
<totfact> 0.15027299E+01</totfact>
</mgrwt>
</event>
<event>
 8    2  0.4306980E-052  0.1410869E+04  0.7818608E-02  0.8945988E-01
         -2   -1    0    0    0  501 -0.00000000000E+00  0.00000000000E+00  0.24764998881E+03  0.24764998883E+03  0.25500000000E-02 0. -1.
          2   -1    0    0  501    0  0.00000000000E+00 -0.00000000000E+00 -0.20094412526E+04  0.20094412526E+04  0.25500000000E-02 0.  1.
    -200001    2    1    2    0    0  0.22892002309E+03 -0.21243508400E+03 -0.11296110369E+04  0.13227712314E+04  0.61332666173E+03 0.  0.
   -5000001    2    3    3    0    0 -0.16747454551E+03 -0.14931911067E+03 -0.24646752021E+03  0.34744782287E+03  0.98131701767E+02 0.  0.
     200001    1    1    2    0    0 -0.22892002309E+03  0.21243508400E+03 -0.63218022681E+03  0.93432000998E+03  0.61300000000E+03 0. -1.
         13    1    4    4    0    0 -0.12361763675E+03 -0.59001696031E+02 -0.16667144301E+03  0.21573572103E+03  0.10566000000E+00 0.  1.
    -200003    1    4    4    0    0 -0.43856908758E+02 -0.90317414643E+02 -0.79796077205E+02  0.13171210184E+03  0.30000000000E+02 0. -1.
    -200000    1    3    3    0    0  0.39639456860E+03 -0.63115973321E+02 -0.88314351672E+03  0.97532340853E+03  0.10100000000E+03 0. -1.
<mgrwt>
<rscale>  0 0.14108694E+04</rscale>
<asrwt>0</asrwt>
<pdfrwt beam="1">  1        2 0.28706303E+00 0.14108694E+04</pdfrwt>
<pdfrwt beam="2">  1       -2 0.35378571E-01 0.14108694E+04</pdfrwt>
<totfact> 0.57964253E+01</totfact>
</mgrwt>
</event>
<event>
 8    2  0.4306980E-052  0.1345504E+04  0.7818608E-02  0.8994238E-01
         -2   -1    0    0    0  501 -0.00000000000E+00  0.00000000000E+00  0.18138334270E+04  0.18138334270E+04  0.25500000000E-02 0. -1.
          2   -1    0    0  501    0  0.00000000000E+00 -0.00000000000E+00 -0.24952428842E+03  0.24952428844E+03  0.25500000000E-02 0.  1.
    -200001    2    1    2    0    0 -0.16895878384E+03  0.38661506412E+02  0.11124827948E+04  0.12823597464E+04  0.61382959174E+03 0.  0.
   -5000001    2    3    3    0    0  0.19830467135E+03  0.84244035466E+02  0.29513605344E+03  0.37946611583E+03  0.10231052163E+03 0.  0.
     200001    1    1    2    0    0  0.16895878384E+03 -0.38661506412E+02  0.45182634374E+03  0.78099796902E+03  0.61300000000E+03 0. -1.
         13    1    4    4    0    0  0.89373067814E+02  0.85648897695E+02  0.13139913831E+03  0.18052430208E+03  0.10566000000E+00 0.  1.
    -200003    1    4    4    0    0  0.10893160353E+03 -0.14048622287E+01  0.16373691513E+03  0.19894181376E+03  0.30000000000E+02 0.  1.
    -200000    1    3    3    0    0 -0.36726345519E+03 -0.45582529054E+02  0.81734674136E+03  0.90289363054E+03  0.10100000000E+03 0. -1.
<mgrwt>
<rscale>  0 0.13455044E+04</rscale>
<asrwt>0</asrwt>
<pdfrwt beam="1">  1        2 0.35646326E-01 0.13455044E+04</pdfrwt>
<pdfrwt beam="2">  1       -2 0.25911906E+00 0.13455044E+04</pdfrwt>
<totfact> 0.81202337E+00</totfact>
</mgrwt>
</event>
<event>
 8    2  0.4306980E-052  0.1243275E+04  0.7818608E-02  0.9075799E-01
          2   -1    0    0  501    0  0.00000000000E+00  0.00000000000E+00  0.69530622895E+03  0.69530622895E+03  0.25500000000E-02 0.  1.
         -2   -1    0    0    0  501 -0.00000000000E+00 -0.00000000000E+00 -0.55577387216E+03  0.55577387216E+03  0.25500000000E-02 0. -1.
    -200001    2    1    2    0    0 -0.41365304049E+02  0.26123741596E+02 -0.19048625570E+02  0.61601280845E+03  0.61377144914E+03 0.  0.
   -5000001    2    3    3    0    0  0.86234383517E+02 -0.25843937211E+01 -0.27915808853E+03  0.30785088669E+03  0.96952988865E+02 0.  0.
     200001    1    1    2    0    0  0.41365304049E+02 -0.26123741596E+02  0.15858098236E+03  0.63506729267E+03  0.61300000000E+03 0.  1.
         13    1    4    4    0    0 -0.13971496519E+02 -0.19299067007E+02 -0.53737916320E+02  0.58782918580E+02  0.10566000000E+00 0.  1.
    -200003    1    4    4    0    0  0.10020588004E+03  0.16714673286E+02 -0.22542017221E+03  0.24906796811E+03  0.30000000000E+02 0.  1.
    -200000    1    3    3    0    0 -0.12759968757E+03  0.28708135318E+02  0.26010946296E+03  0.30816192176E+03  0.10100000000E+03 0.  1.
<mgrwt>
<rscale>  0 0.12432748E+04</rscale>
<asrwt>0</asrwt>
<pdfrwt beam="1">  1        2 0.99329461E-01 0.12432748E+04</pdfrwt>
<pdfrwt beam="2">  1       -2 0.79396267E-01 0.12432748E+04</pdfrwt>
<totfact> 0.62880055E+01</totfact>
</mgrwt>
</event>
<event>
 8    2  0.4306980E-052  0.1908569E+04  0.7818608E-02  0.8650603E-01
          2   -1    0    0  501    0  0.00000000000E+00  0.00000000000E+00  0.32741304322E+04  0.32741304322E+04  0.25500000000E-02 0.  1.
         -2   -1    0    0    0  501 -0.00000000000E+00 -0.00000000000E+00 -0.27813751900E+03  0.27813751901E+03  0.25500000000E-02 0. -1.
    -200001    2    1    2    0    0 -0.17484525958E+03  0.51523581384E+02  0.28164857281E+04  0.28880259970E+04  0.61227180143E+03 0.  0.
   -5000001    2    3    3    0    0 -0.30604004707E+03 -0.82294539945E+02  0.23809443442E+04  0.24032408292E+04  0.78978549908E+02 0.  0.
     200001    1    1    2    0    0  0.17484525958E+03 -0.51523581384E+02  0.17950718517E+03  0.66424195423E+03  0.61300000000E+03 0. -1.
         13    1    4    4    0    0 -0.33017225555E+02 -0.21973996276E+02  0.17461853372E+03  0.17906601346E+03  0.10566000000E+00 0.  1.
    -200003    1    4    4    0    0 -0.27302282151E+03 -0.60320543669E+02  0.22063258104E+04  0.22241748157E+04  0.30000000000E+02 0.  1.
    -200000    1    3    3    0    0  0.13119478749E+03  0.13381812133E+03  0.43554138391E+03  0.48478516784E+03  0.10100000000E+03 0. -1.
<mgrwt>
<rscale>  0 0.19085686E+04</rscale>
<asrwt>0</asrwt>
<pdfrwt beam="1">  1        2 0.46773290E+00 0.19085686E+04</pdfrwt>
<pdfrwt beam="2">  1       -2 0.39733933E-01 0.19085686E+04</pdfrwt>
<totfact> 0.92643977E+00</totfact>
</mgrwt>
</event>
<event>
 8    2  0.4306980E-052  0.1360376E+04  0.7818608E-02  0.8983011E-01
         -2   -1    0    0    0  501 -0.00000000000E+00  0.00000000000E+00  0.21204991807E+03  0.21204991809E+03  0.25500000000E-02 0. -1.
          2   -1    0    0  501    0  0.00000000000E+00 -0.00000000000E+00 -0.21818236798E+04  0.21818236798E+04  0.25500000000E-02 0.  1.
    -200001    2    1    2    0    0 -0.11532085982E+03 -0.86588870711E+02 -0.14376815897E+04  0.15694419071E+04  0.61271772712E+03 0.  0.
   -5000001    2    3    3    0    0 -0.15765843677E+03 -0.31053246986E+03 -0.10482120955E+04  0.11070235976E+04  0.73932746541E+02 0.  0.
     200001    1    1    2    0    0  0.11532085982E+03  0.86588870711E+02 -0.53209217200E+03  0.82443169077E+03  0.61300000000E+03 0. -1.
         13    1    4    4    0    0 -0.26872736586E+01 -0.53491380036E+01 -0.69416451217E+02  0.69674167241E+02  0.10566000000E+00 0.  1.
    -200003    1    4    4    0    0 -0.15497116311E+03 -0.30518333185E+03 -0.97879564428E+03  0.10373494304E+04  0.30000000000E+02 0.  1.
    -200000    1    3    3    0    0  0.42337576950E+02  0.22394359915E+03 -0.38946949419E+03  0.46241830946E+03  0.10100000000E+03 0. -1.
<mgrwt>
<rscale>  0 0.13603757E+04</rscale>
<asrwt>0</asrwt>
<pdfrwt beam="1">  1        2 0.31168908E+00 0.13603757E+04</pdfrwt>
<pdfrwt beam="2">  1       -2 0.30292847E-01 0.13603757E+04</pdfrwt>
<totfact> 0.63622176E+01</totfact>
</mgrwt>
</event>
<event>
 8    2  0.4306980E-052  0.1418787E+04  0.7818608E-02  0.8940330E-01
          2   -1    0    0  501    0  0.00000000000E+00  0.00000000000E+00  0.45516588037E+04  0.45516588037E+04  0.25500000000E-02 0.  1.
         -2   -1    0    0    0  501 -0.00000000000E+00 -0.00000000000E+00 -0.11056176263E+03  0.11056176265E+03  0.25500000000E-02 0. -1.
    -200001    2    1    2    0    0  0.16304015491E+03  0.84791175524E+02  0.12169155894E+04  0.13751418224E+04  0.61348173931E+03 0.  0.
   -5000001    2    3    3    0    0  0.98039948457E+02 -0.14870029339E+03  0.74235619875E+02  0.20268209788E+03  0.62012069764E+02 0.  0.
     200001    1    1    2    0    0 -0.16304015491E+03 -0.84791175524E+02  0.32241814517E+04  0.32870787440E+04  0.61300000000E+03 0.  1.
         13    1    4    4    0    0  0.63681032238E+02 -0.59260419857E+02  0.45924845104E+02  0.98367544395E+02  0.10566000000E+00 0.  1.
    -200003    1    4    4    0    0  0.34358916219E+02 -0.89439873530E+02  0.28310774771E+02  0.10431455349E+03  0.30000000000E+02 0. -1.
    -200000    1    3    3    0    0  0.65000206458E+02  0.23349146891E+03  0.11426799695E+04  0.11724597245E+04  0.10100000000E+03 0.  1.
<mgrwt>
<rscale>  0 0.14187874E+04</rscale>
<asrwt>0</asrwt>
<pdfrwt beam="1">  1        2 0.65023696E+00 0.14187874E+04</pdfrwt>
<pdfrwt beam="2">  1       -2 0.15794538E-01 0.14187874E+04</pdfrwt>
<totfact> 0.71371066E+00</totfact>
</mgrwt>
</event>
<event>
 8    2  0.4306980E-052  0.1359693E+04  0.7818608E-02  0.8983523E-01
         -2   -1    0    0    0  501 -0.00000000000E+00  0.00000000000E+00  0.20576283657E+03  0.20576283659E+03  0.25500000000E-02 0. -1.
          2   -1    0    0  501    0  0.00000000000E+00 -0.00000000000E+00 -0.22462329637E+04  0.22462329637E+04  0.25500000000E-02 0.  1.
    -200001    2    1    2    0    0  0.26716850697E+03  0.65055231977E+02 -0.12141123828E+04  0.13869853233E+04  0.61159481264E+03 0.  0.
   -5000001    2    3    3    0    0  0.84739834444E+02 -0.25733458113E+03 -0.59193662416E+03  0.65587720087E+03  0.79899996289E+02 0.  0.
     200001    1    1    2    0    0 -0.26716850697E+03 -0.65055231977E+02 -0.82635774433E+03  0.10650104769E+04  0.61300000000E+03 0. -1.
         13    1    4    4    0    0 -0.17327991811E+01 -0.80312818983E+02 -0.21471834718E+03  0.22925342150E+03  0.10566000000E+00 0.  1.
    -200003    1    4    4    0    0  0.86472633625E+02 -0.17702176214E+03 -0.37721827698E+03  0.42662377937E+03  0.30000000000E+02 0.  1.
    -200000    1    3    3    0    0  0.18242867253E+03  0.32238981310E+03 -0.62217575861E+03  0.73110812248E+03  0.10100000000E+03 0.  1.
<mgrwt>
<rscale>  0 0.13596930E+04</rscale>
<asrwt>0</asrwt>
<pdfrwt beam="1">  1        2 0.32089041E+00 0.13596930E+04</pdfrwt>
<pdfrwt beam="2">  1       -2 0.29394692E-01 0.13596930E+04</pdfrwt>
<totfact> 0.62340775E+01</totfact>
</mgrwt>
</event>
<event>
 8    2  0.4306980E-052  0.1820421E+04  0.7818608E-02  0.8695515E-01
         -2   -1    0    0    0  501 -0.00000000000E+00  0.00000000000E+00  0.11067509860E+04  0.11067509860E+04  0.25500000000E-02 0. -1.
          2   -1    0    0  501    0  0.00000000000E+00 -0.00000000000E+00 -0.74857214428E+03  0.74857214429E+03  0.25500000000E-02 0.  1.
    -200001    2    1    2    0    0  0.56343184137E+02 -0.27425368846E+03 -0.44472778956E+03  0.80707807373E+03  0.61253781129E+03 0.  0.
   -5000001    2    3    3    0    0 -0.13216476951E+03 -0.38405063121E+03 -0.36891999176E+03  0.55500975079E+03  0.83495206548E+02 0.  0.
     200001    1    1    2    0    0 -0.56343184137E+02  0.27425368846E+03  0.80290663123E+03  0.10482450565E+04  0.61300000000E+03 0. -1.
         13    1    4    4    0    0 -0.87890503476E+02 -0.27594027586E+03 -0.29579226303E+03  0.41395754670E+03  0.10566000000E+00 0.  1.
    -200003    1    4    4    0    0 -0.44274266029E+02 -0.10811035536E+03 -0.73127728730E+02  0.14105220409E+03  0.30000000000E+02 0.  1.
    -200000    1    3    3    0    0  0.18850795364E+03  0.10979694275E+03 -0.75807797798E+02  0.25206832294E+03  0.10100000000E+03 0. -1.
<mgrwt>
<rscale>  0 0.18204208E+04</rscale>
<asrwt>0</asrwt>
<pdfrwt beam="1">  1        2 0.10693888E+00 0.18204208E+04</pdfrwt>
<pdfrwt beam="2">  1       -2 0.15810728E+00 0.18204208E+04</pdfrwt>
<totfact> 0.10175223E+01</totfact>
</mgrwt>
</event>
<event>
 8    2  0.4306980E-052  0.3198679E+04  0.7818608E-02  0.8189166E-01
          2   -1    0    0  501    0  0.00000000000E+00  0.00000000000E+00  0.20419977138E+04  0.20419977138E+04  0.25500000000E-02 0.  1.
         -2   -1    0    0    0  501 -0.00000000000E+00 -0.00000000000E+00 -0.12526390517E+04  0.12526390517E+04  0.25500000000E-02 0. -1.
    -200001    2    1    2    0    0  0.48275098305E+03 -0.13959377192E+04  0.38578837293E+03  0.16452948950E+04  0.61357313766E+03 0.  0.
   -5000001    2    3    3    0    0 -0.19835760673E+02 -0.81040534029E+03  0.17454689613E+03  0.83890444164E+03  0.12705813746E+03 0.  0.
     200001    1    1    2    0    0 -0.48275098305E+03  0.13959377192E+04  0.40357028921E+03  0.16493418705E+04  0.61300000000E+03 0. -1.
         13    1    4    4    0    0 -0.49612937824E+02 -0.69826875205E+03  0.13688306259E+03  0.71328653266E+03  0.10566000000E+00 0.  1.
    -200003    1    4    4    0    0  0.29777177150E+02 -0.11213658824E+03  0.37663833535E+02  0.12561790899E+03  0.30000000000E+02 0. -1.
    -200000    1    3    3    0    0  0.50258674373E+03 -0.58553237894E+03  0.21124147680E+03  0.80639045336E+03  0.10100000000E+03 0. -1.
<mgrwt>
<rscale>  0 0.31986785E+04</rscale>
<asrwt>0</asrwt>
<pdfrwt beam="1">  1        2 0.29171396E+00 0.31986785E+04</pdfrwt>
<pdfrwt beam="2">  1       -2 0.17894844E+00 0.31986785E+04</pdfrwt>
<totfact> 0.11957151E+00</totfact>
</mgrwt>
</event>
<event>
 8    2  0.4306980E-052  0.1260707E+04  0.7818608E-02  0.9061318E-01
         -2   -1    0    0    0  501 -0.00000000000E+00  0.00000000000E+00  0.63594685029E+03  0.63594685029E+03  0.25500000000E-02 0. -1.
          2   -1    0    0  501    0  0.00000000000E+00 -0.00000000000E+00 -0.62480983406E+03  0.62480983407E+03  0.25500000000E-02 0.  1.
    -200001    2    1    2    0    0  0.29695075704E+02 -0.70525413734E+02  0.13221074036E+03  0.63124617755E+03  0.61248381636E+03 0.  0.
   -5000001    2    3    3    0    0  0.25274138605E+03  0.90034292029E+02 -0.57895477610E+02  0.28214669347E+03  0.65348973565E+02 0.  0.
     200001    1    1    2    0    0 -0.29695075704E+02  0.70525413734E+02 -0.12107372414E+03  0.62951050681E+03  0.61300000000E+03 0.  1.
         13    1    4    4    0    0  0.36059876687E+02  0.19395926339E+02  0.10586120560E+02  0.42291769622E+02  0.10566000000E+00 0.  1.
    -200003    1    4    4    0    0  0.21668150936E+03  0.70638365691E+02 -0.68481598170E+02  0.23985492385E+03  0.30000000000E+02 0.  1.
    -200000    1    3    3    0    0 -0.22304631035E+03 -0.16055970576E+03  0.19010621797E+03  0.34909948408E+03  0.10100000000E+03 0.  1.
<mgrwt>
<rscale>  0 0.12607075E+04</rscale>
<asrwt>0</asrwt>
<pdfrwt beam="1">  1        2 0.89258548E-01 0.12607075E+04</pdfrwt>
<pdfrwt beam="2">  1       -2 0.90849550E-01 0.12607075E+04</pdfrwt>
<totfact> 0.52619671E+01</totfact>
</mgrwt>
</event>
<event>
 8    2  0.4306980E-052  0.1343360E+04  0.7818608E-02  0.8995870E-01
         -2   -1    0    0    0  501 -0.00000000000E+00  0.00000000000E+00  0.37595301400E+03  0.37595301401E+03  0.25500000000E-02 0. -1.
          2   -1    0    0  501    0  0.00000000000E+00 -0.00000000000E+00 -0.12000269951E+04  0.12000269951E+04  0.25500000000E-02 0.  1.
    -200001    2    1    2    0    0 -0.12899748705E+03  0.24315357124E+03 -0.45713249067E+03  0.81035668903E+03  0.60987198539E+03 0.  0.
   -5000001    2    3    3    0    0  0.20722490106E+02  0.36515278941E+03 -0.95775272540E+02  0.38836152331E+03  0.88801963633E+02 0.  0.
     200001    1    1    2    0    0  0.12899748705E+03 -0.24315357124E+03 -0.36694149045E+03  0.76562332010E+03  0.61300000000E+03 0.  1.
         13    1    4    4    0    0  0.37679303176E+02  0.22691166830E+03 -0.85946629917E+02  0.24555135808E+03  0.10566000000E+00 0.  1.
    -200003    1    4    4    0    0 -0.16956813071E+02  0.13824112111E+03 -0.98286426232E+01  0.14281016523E+03  0.30000000000E+02 0.  1.
    -200000    1    3    3    0    0 -0.14971997715E+03 -0.12199921818E+03 -0.36135721813E+03  0.42199516572E+03  0.10100000000E+03 0.  1.
<mgrwt>
<rscale>  0 0.13433596E+04</rscale>
<asrwt>0</asrwt>
<pdfrwt beam="1">  1        2 0.17143243E+00 0.13433596E+04</pdfrwt>
<pdfrwt beam="2">  1       -2 0.53707574E-01 0.13433596E+04</pdfrwt>
<totfact> 0.68264177E+01</totfact>
</mgrwt>
</event>
<event>
 8    2  0.4306980E-052  0.1722132E+04  0.7818608E-02  0.8748841E-01
         -2   -1    0    0    0  501 -0.00000000000E+00  0.00000000000E+00  0.14221596571E+04  0.14221596571E+04  0.25500000000E-02 0. -1.
          2   -1    0    0  501    0  0.00000000000E+00 -0.00000000000E+00 -0.52134419457E+03  0.52134419457E+03  0.25500000000E-02 0.  1.
    -200001    2    1    2    0    0  0.18125213289E+03  0.54070211730E+02 -0.19728410093E+03  0.67174618027E+03  0.61363343354E+03 0.  0.
   -5000001    2    3    3    0    0  0.37479211524E+03  0.92473706367E+02 -0.32095839612E+02  0.39530321175E+03  0.78828740259E+02 0.  0.
     200001    1    1    2    0    0 -0.18125213289E+03 -0.54070211730E+02  0.10980995634E+04  0.12717576714E+04  0.61300000000E+03 0. -1.
         13    1    4    4    0    0  0.15477149261E+03  0.18349906942E+02  0.14780473911E+02  0.15655480696E+03  0.10566000000E+00 0.  1.
    -200003    1    4    4    0    0  0.22002062262E+03  0.74123799426E+02 -0.46876313523E+02  0.23874840479E+03  0.30000000000E+02 0.  1.
    -200000    1    3    3    0    0 -0.19353998234E+03 -0.38403494638E+02 -0.16518826132E+03  0.27644296852E+03  0.10100000000E+03 0.  1.
<mgrwt>
<rscale>  0 0.17221320E+04</rscale>
<asrwt>0</asrwt>
<pdfrwt beam="1">  1        2 0.74477742E-01 0.17221320E+04</pdfrwt>
<pdfrwt beam="2">  1       -2 0.20316567E+00 0.17221320E+04</pdfrwt>
<totfact> 0.77202839E+00</totfact>
</mgrwt>
</event>
<event>
 8    2  0.4306980E-052  0.2385564E+04  0.7818608E-02  0.8444928E-01
          2   -1    0    0  501    0  0.00000000000E+00  0.00000000000E+00  0.17407934686E+04  0.17407934686E+04  0.25500000000E-02 0.  1.
         -2   -1    0    0    0  501 -0.00000000000E+00 -0.00000000000E+00 -0.81728757805E+03  0.81728757805E+03  0.25500000000E-02 0. -1.
    -200001    2    1    2    0    0  0.35085929451E+03  0.83337168601E+03 -0.50805831220E+02  0.10942972707E+04  0.61424317055E+03 0.  0.
   -5000001    2    3    3    0    0 -0.15110730856E+03  0.30639833178E+03 -0.86235671584E+02  0.35868347239E+03  0.67110996808E+02 0.  0.
     200001    1    1    2    0    0 -0.35085929451E+03 -0.83337168601E+03  0.97431172177E+03  0.14637837760E+04  0.61300000000E+03 0.  1.
         13    1    4    4    0    0 -0.62069214989E+02  0.16461872316E+03 -0.23962723221E+02  0.17755600449E+03  0.10566000000E+00 0.  1.
    -200003    1    4    4    0    0 -0.89038093570E+02  0.14177960862E+03 -0.62272948364E+02  0.18112746789E+03  0.30000000000E+02 0.  1.
    -200000    1    3    3    0    0  0.50196660307E+03  0.52697335423E+03  0.35429840364E+02  0.73561379831E+03  0.10100000000E+03 0. -1.
<mgrwt>
<rscale>  0 0.23855640E+04</rscale>
<asrwt>0</asrwt>
<pdfrwt beam="1">  1        2 0.24868478E+00 0.23855640E+04</pdfrwt>
<pdfrwt beam="2">  1       -2 0.11675537E+00 0.23855640E+04</pdfrwt>
<totfact> 0.56197993E+00</totfact>
</mgrwt>
</event>
<event>
 8    2  0.4306980E-052  0.1705114E+04  0.7818608E-02  0.8758453E-01
         -2   -1    0    0    0  501 -0.00000000000E+00  0.00000000000E+00  0.75459818466E+03  0.75459818466E+03  0.25500000000E-02 0. -1.
          2   -1    0    0  501    0  0.00000000000E+00 -0.00000000000E+00 -0.96323215966E+03  0.96323215967E+03  0.25500000000E-02 0.  1.
    -200001    2    1    2    0    0  0.10092533508E+03  0.36698176138E+02  0.48729977078E+03  0.78422150872E+03  0.60498729635E+03 0.  0.
   -5000001    2    3    3    0    0 -0.14024078347E+03  0.23447230674E+03  0.21104171382E+03  0.35550806421E+03  0.84868361413E+02 0.  0.
     200001    1    1    2    0    0 -0.10092533508E+03 -0.36698176138E+02 -0.69593374579E+03  0.93360883561E+03  0.61300000000E+03 0.  1.
         13    1    4    4    0    0 -0.78533622354E+01  0.83886499661E+01 -0.68954115575E+01  0.13401589877E+02  0.10566000000E+00 0.  1.
    -200003    1    4    4    0    0 -0.13238742123E+03  0.22608365678E+03  0.21793712538E+03  0.34210647434E+03  0.30000000000E+02 0.  1.
    -200000    1    3    3    0    0  0.24116611854E+03 -0.19777413061E+03  0.27625805696E+03  0.42871344451E+03  0.10100000000E+03 0.  1.
<mgrwt>
<rscale>  0 0.17051138E+04</rscale>
<asrwt>0</asrwt>
<pdfrwt beam="1">  1        2 0.13760459E+00 0.17051138E+04</pdfrwt>
<pdfrwt beam="2">  1       -2 0.10779974E+00 0.17051138E+04</pdfrwt>
<totfact> 0.19489067E+01</totfact>
</mgrwt>
</event>
<event>
 8    2  0.4306980E-052  0.1723260E+04  0.7818608E-02  0.8748208E-01
         -2   -1    0    0    0  501 -0.00000000000E+00  0.00000000000E+00  0.40219456597E+03  0.40219456598E+03  0.25500000000E-02 0. -1.
          2   -1    0    0  501    0  0.00000000000E+00 -0.00000000000E+00 -0.18458889163E+04  0.18458889163E+04  0.25500000000E-02 0.  1.
    -200001    2    1    2    0    0 -0.50735357474E+03 -0.21236622303E+03 -0.39193205028E+03  0.91223918062E+03  0.61323937263E+03 0.  0.
   -5000001    2    3    3    0    0  0.49070602267E+02  0.13723341074E+03 -0.11590156879E+03  0.19236308336E+03  0.48264367420E+02 0.  0.
     200001    1    1    2    0    0  0.50735357474E+03  0.21236622303E+03 -0.10517623001E+04  0.13358443017E+04  0.61300000000E+03 0. -1.
         13    1    4    4    0    0 -0.28624561464E+01  0.33012516485E+00 -0.65843653703E+01  0.71880226196E+01  0.10566000000E+00 0.  1.
    -200003    1    4    4    0    0  0.51933058413E+02  0.13690328558E+03 -0.10931720342E+03  0.18517506074E+03  0.30000000000E+02 0.  1.
    -200000    1    3    3    0    0 -0.55642417700E+03 -0.34959963377E+03 -0.27603048149E+03  0.71987609726E+03  0.10100000000E+03 0. -1.
<mgrwt>
<rscale>  0 0.17232603E+04</rscale>
<asrwt>0</asrwt>
<pdfrwt beam="1">  1        2 0.26369841E+00 0.17232603E+04</pdfrwt>
<pdfrwt beam="2">  1       -2 0.57456368E-01 0.17232603E+04</pdfrwt>
<totfact> 0.26032545E+01</totfact>
</mgrwt>
</event>
<event>
 8    2  0.4306980E-052  0.1365085E+04  0.7818608E-02  0.8979487E-01
          2   -1    0    0  501    0  0.00000000000E+00  0.00000000000E+00  0.78088354686E+03  0.78088354687E+03  0.25500000000E-02 0.  1.
         -2   -1    0    0    0  501 -0.00000000000E+00 -0.00000000000E+00 -0.59658615491E+03  0.59658615492E+03  0.25500000000E-02 0. -1.
    -200001    2    1    2    0    0 -0.22140884072E+03 -0.17543454650E+03 -0.14574290513E+02  0.67382341213E+03  0.61157699919E+03 0.  0.
   -5000001    2    3    3    0    0 -0.38420665202E+03  0.35856163946E+01 -0.83417101455E+02  0.40272992512E+03  0.87208782079E+02 0.  0.
     200001    1    1    2    0    0  0.22140884072E+03  0.17543454650E+03  0.19887168246E+03  0.70364628965E+03  0.61300000000E+03 0.  1.
         13    1    4    4    0    0 -0.99184823650E+02 -0.34198717165E+02 -0.21342694215E+02  0.10706401477E+03  0.10566000000E+00 0.  1.
    -200003    1    4    4    0    0 -0.28502182837E+03  0.37784333560E+02 -0.62074407240E+02  0.29566591035E+03  0.30000000000E+02 0.  1.
    -200000    1    3    3    0    0  0.16279781130E+03 -0.17902016289E+03  0.68842810942E+02  0.27109348702E+03  0.10100000000E+03 0.  1.
<mgrwt>
<rscale>  0 0.13650851E+04</rscale>
<asrwt>0</asrwt>
<pdfrwt beam="1">  1        2 0.11155479E+00 0.13650851E+04</pdfrwt>
<pdfrwt beam="2">  1       -2 0.85226594E-01 0.13650851E+04</pdfrwt>
<totfact> 0.45905853E+01</totfact>
</mgrwt>
</event>
<event>
 8    2  0.4306980E-052  0.1366874E+04  0.7818608E-02  0.8978152E-01
         -2   -1    0    0    0  501 -0.00000000000E+00  0.00000000000E+00  0.28621209383E+03  0.28621209384E+03  0.25500000000E-02 0. -1.
          2   -1    0    0  501    0  0.00000000000E+00 -0.00000000000E+00 -0.16319574595E+04  0.16319574595E+04  0.25500000000E-02 0.  1.
    -200001    2    1    2    0    0 -0.42768061333E+02 -0.19545874566E+03 -0.99141443853E+03  0.11824028551E+04  0.61248730143E+03 0.  0.
   -5000001    2    3    3    0    0 -0.25787515437E+03 -0.17939987467E+00 -0.71942216784E+03  0.77181074642E+03  0.10781440204E+03 0.  0.
     200001    1    1    2    0    0  0.42768061333E+02  0.19545874566E+03 -0.35433092709E+03  0.73576669823E+03  0.61300000000E+03 0. -1.
         13    1    4    4    0    0 -0.19317508248E+03 -0.40778619570E+02 -0.50516802736E+03  0.54237833229E+03  0.10566000000E+00 0.  1.
    -200003    1    4    4    0    0 -0.64700071885E+02  0.40599219696E+02 -0.21425414048E+03  0.22943241413E+03  0.30000000000E+02 0.  1.
    -200000    1    3    3    0    0  0.21510709303E+03 -0.19527934579E+03 -0.27199227070E+03  0.41059210865E+03  0.10100000000E+03 0. -1.
<mgrwt>
<rscale>  0 0.13668737E+04</rscale>
<asrwt>0</asrwt>
<pdfrwt beam="1">  1        2 0.23313678E+00 0.13668737E+04</pdfrwt>
<pdfrwt beam="2">  1       -2 0.40887443E-01 0.13668737E+04</pdfrwt>
<totfact> 0.68830037E+01</totfact>
</mgrwt>
</event>
<event>
 8    2  0.4306980E-052  0.1525779E+04  0.7818608E-02  0.8867489E-01
          2   -1    0    0  501    0  0.00000000000E+00  0.00000000000E+00  0.34720729881E+04  0.34720729881E+04  0.25500000000E-02 0.  1.
         -2   -1    0    0    0  501 -0.00000000000E+00 -0.00000000000E+00 -0.16762332919E+03  0.16762332921E+03  0.25500000000E-02 0. -1.
    -200001    2    1    2    0    0 -0.41611029127E+03 -0.13070694814E+03  0.13504005927E+04  0.15458221965E+04  0.61298647742E+03 0.  0.
   -5000001    2    3    3    0    0 -0.34885960780E+03 -0.27147236476E+03  0.12622435668E+04  0.13401277188E+04  0.85341724078E+02 0.  0.
     200001    1    1    2    0    0  0.41611029127E+03  0.13070694814E+03  0.19540490661E+04  0.20938741208E+04  0.61300000000E+03 0. -1.
         13    1    4    4    0    0 -0.79855934856E+02 -0.71571804267E+02  0.21686874848E+03  0.24193296329E+03  0.10566000000E+00 0.  1.
    -200003    1    4    4    0    0 -0.26900367294E+03 -0.19990056049E+03  0.10453748183E+04  0.10981947555E+04  0.30000000000E+02 0.  1.
    -200000    1    3    3    0    0 -0.67250683477E+02  0.14076541662E+03  0.88157025919E+02  0.20569447772E+03  0.10100000000E+03 0. -1.
<mgrwt>
<rscale>  0 0.15257791E+04</rscale>
<asrwt>0</asrwt>
<pdfrwt beam="1">  1        2 0.49601041E+00 0.15257791E+04</pdfrwt>
<pdfrwt beam="2">  1       -2 0.23946191E-01 0.15257791E+04</pdfrwt>
<totfact> 0.18907629E+01</totfact>
</mgrwt>
</event>
<event>
 8    2  0.4306980E-052  0.1639686E+04  0.7818608E-02  0.8796531E-01
          2   -1    0    0  501    0  0.00000000000E+00  0.00000000000E+00  0.11647936615E+04  0.11647936615E+04  0.25500000000E-02 0.  1.
         -2   -1    0    0    0  501 -0.00000000000E+00 -0.00000000000E+00 -0.57704871243E+03  0.57704871244E+03  0.25500000000E-02 0. -1.
    -200001    2    1    2    0    0 -0.42711996197E+03 -0.18965356678E+03 -0.28340057122E+01  0.77078499197E+03  0.61294496894E+03 0.  0.
   -5000001    2    3    3    0    0 -0.15109437354E+03 -0.35999512095E+03  0.28456332580E+02  0.42963039972E+03  0.17704948650E+03 0.  0.
     200001    1    1    2    0    0  0.42711996197E+03  0.18965356678E+03  0.59057895482E+03  0.97105738202E+03  0.61300000000E+03 0.  1.
         13    1    4    4    0    0 -0.17363637702E+03 -0.27299378987E+03  0.61414467027E+02  0.32931284314E+03  0.10566000000E+00 0.  1.
    -200003    1    4    4    0    0  0.22542003480E+02 -0.87001331077E+02 -0.32958134447E+02  0.10031755657E+03  0.30000000000E+02 0.  1.
    -200000    1    3    3    0    0 -0.27602558842E+03  0.17034155417E+03 -0.31290338292E+02  0.34115459225E+03  0.10100000000E+03 0.  1.
<mgrwt>
<rscale>  0 0.16396862E+04</rscale>
<asrwt>0</asrwt>
<pdfrwt beam="1">  1        2 0.16639909E+00 0.16396862E+04</pdfrwt>
<pdfrwt beam="2">  1       -2 0.82435531E-01 0.16396862E+04</pdfrwt>
<totfact> 0.27721668E+01</totfact>
</mgrwt>
</event>
<event>
 8    2  0.4306980E-052  0.1708915E+04  0.7818608E-02  0.8756296E-01
         -2   -1    0    0    0  501 -0.00000000000E+00  0.00000000000E+00  0.48900293018E+03  0.48900293018E+03  0.25500000000E-02 0. -1.
          2   -1    0    0  501    0  0.00000000000E+00 -0.00000000000E+00 -0.14930338452E+04  0.14930338452E+04  0.25500000000E-02 0.  1.
    -200001    2    1    2    0    0 -0.53609615215E+03  0.40146508216E+02 -0.20447682398E+03  0.84007943336E+03  0.61230046247E+03 0.  0.
   -5000001    2    3    3    0    0 -0.63112847507E+03 -0.51620482923E+02 -0.21652123339E+03  0.67335093892E+03  0.74378868900E+02 0.  0.
     200001    1    1    2    0    0  0.53609615215E+03 -0.40146508216E+02 -0.79955409100E+03  0.11419573420E+04  0.61300000000E+03 0.  1.
         13    1    4    4    0    0 -0.29818194693E+03 -0.54667234833E+02 -0.96227305565E+02  0.31805767644E+03  0.10566000000E+00 0.  1.
    -200003    1    4    4    0    0 -0.33294652814E+03  0.30467519103E+01 -0.12029392782E+03  0.35529326248E+03  0.30000000000E+02 0.  1.
    -200000    1    3    3    0    0  0.95032322920E+02  0.91766991139E+02  0.12044409404E+02  0.16672849445E+03  0.10100000000E+03 0. -1.
<mgrwt>
<rscale>  0 0.17089154E+04</rscale>
<asrwt>0</asrwt>
<pdfrwt beam="1">  1        2 0.21329055E+00 0.17089154E+04</pdfrwt>
<pdfrwt beam="2">  1       -2 0.69857562E-01 0.17089154E+04</pdfrwt>
<totfact> 0.26246123E+01</totfact>
</mgrwt>
</event>
<event>
 8    2  0.4306980E-052  0.1729452E+04  0.7818608E-02  0.8744743E-01
         -2   -1    0    0    0  501 -0.00000000000E+00  0.00000000000E+00  0.52358292195E+03  0.52358292195E+03  0.25500000000E-02 0. -1.
          2   -1    0    0  501    0  0.00000000000E+00 -0.00000000000E+00 -0.14281426528E+04  0.14281426528E+04  0.25500000000E-02 0.  1.
    -200001    2    1    2    0    0  0.19199896253E+03 -0.13866071718E+03 -0.10868790823E+04  0.12697433594E+04  0.61225130710E+03 0.  0.
   -5000001    2    3    3    0    0  0.25668347751E+03 -0.19846756943E+02 -0.52121066085E+03  0.67941920550E+03  0.35166689129E+03 0.  0.
     200001    1    1    2    0    0 -0.19199896253E+03  0.13866071718E+03  0.18231935149E+03  0.68198221533E+03  0.61300000000E+03 0. -1.
         13    1    4    4    0    0  0.23710186013E+02  0.54711471382E+02 -0.40065340277E+03  0.40506626413E+03  0.10566000000E+00 0.  1.
    -200003    1    4    4    0    0  0.23297329150E+03 -0.74558228325E+02 -0.12055725808E+03  0.27435294137E+03  0.30000000000E+02 0.  1.
    -200000    1    3    3    0    0 -0.64684514978E+02 -0.11881396024E+03 -0.56566842147E+03  0.59032415390E+03  0.10100000000E+03 0. -1.
<mgrwt>
<rscale>  0 0.17294521E+04</rscale>
<asrwt>0</asrwt>
<pdfrwt beam="1">  1        2 0.20402038E+00 0.17294521E+04</pdfrwt>
<pdfrwt beam="2">  1       -2 0.74797561E-01 0.17294521E+04</pdfrwt>
<totfact> 0.24430556E+01</totfact>
</mgrwt>
</event>
<event>
 8    2  0.4306980E-052  0.1546529E+04  0.7818608E-02  0.8854088E-01
         -2   -1    0    0    0  501 -0.00000000000E+00  0.00000000000E+00  0.33441758523E+03  0.33441758524E+03  0.25500000000E-02 0. -1.
          2   -1    0    0  501    0  0.00000000000E+00 -0.00000000000E+00 -0.17879981008E+04  0.17879981008E+04  0.25500000000E-02 0.  1.
    -200001    2    1    2    0    0 -0.12491909509E+03 -0.30851259133E+03 -0.11936183172E+04  0.13780138161E+04  0.60283711817E+03 0.  0.
   -5000001    2    3    3    0    0  0.13800082287E+03 -0.64862284280E+02 -0.86137393279E+03  0.87893497834E+03  0.85500298338E+02 0.  0.
     200001    1    1    2    0    0  0.12491909509E+03  0.30851259133E+03 -0.25996219841E+03  0.74440186991E+03  0.61300000000E+03 0. -1.
         13    1    4    4    0    0  0.83878211951E+02 -0.75474261363E+01 -0.31387018593E+03  0.32497234168E+03  0.10566000000E+00 0.  1.
    -200003    1    4    4    0    0  0.54122610917E+02 -0.57314858144E+02 -0.54750374687E+03  0.55396263666E+03  0.30000000000E+02 0.  1.
    -200000    1    3    3    0    0 -0.26291991796E+03 -0.24365030705E+03 -0.33224438437E+03  0.49907883779E+03  0.10100000000E+03 0.  1.
<mgrwt>
<rscale>  0 0.15465290E+04</rscale>
<asrwt>0</asrwt>
<pdfrwt beam="1">  1        2 0.25542829E+00 0.15465290E+04</pdfrwt>
<pdfrwt beam="2">  1       -2 0.47773942E-01 0.15465290E+04</pdfrwt>
<totfact> 0.41329193E+01</totfact>
</mgrwt>
</event>
<event>
 8    2  0.4306980E-052  0.1252697E+04  0.7818608E-02  0.9067942E-01
          2   -1    0    0  501    0  0.00000000000E+00  0.00000000000E+00  0.10606305955E+04  0.10606305955E+04  0.25500000000E-02 0.  1.
         -2   -1    0    0    0  501 -0.00000000000E+00 -0.00000000000E+00 -0.36988585085E+03  0.36988585085E+03  0.25500000000E-02 0. -1.
    -200001    2    1    2    0    0 -0.47467579222E+02 -0.11123131572E+03  0.29041111718E+03  0.68845068783E+03  0.61237256300E+03 0.  0.
   -5000001    2    3    3    0    0 -0.17548669034E+03  0.16887041008E+03  0.25330016246E+03  0.36222363106E+03  0.87932887547E+02 0.  0.
     200001    1    1    2    0    0  0.47467579222E+02  0.11123131572E+03  0.40033362745E+03  0.74206575850E+03  0.61300000000E+03 0. -1.
         13    1    4    4    0    0 -0.10371268903E+02 -0.94674144399E+01  0.14244913748E+02  0.20003096925E+02  0.10566000000E+00 0.  1.
    -200003    1    4    4    0    0 -0.16511542143E+03  0.17833782452E+03  0.23905524871E+03  0.34222053414E+03  0.30000000000E+02 0.  1.
    -200000    1    3    3    0    0  0.12801911112E+03 -0.28010172580E+03  0.37110954720E+02  0.32622705677E+03  0.10100000000E+03 0. -1.
<mgrwt>
<rscale>  0 0.12526967E+04</rscale>
<asrwt>0</asrwt>
<pdfrwt beam="1">  1        2 0.15151866E+00 0.12526967E+04</pdfrwt>
<pdfrwt beam="2">  1       -2 0.52840836E-01 0.12526967E+04</pdfrwt>
<totfact> 0.85706623E+01</totfact>
</mgrwt>
</event>
<event>
 8    2  0.4306980E-052  0.1799575E+04  0.7818608E-02  0.8706525E-01
          2   -1    0    0  501    0  0.00000000000E+00  0.00000000000E+00  0.11199540901E+04  0.11199540901E+04  0.25500000000E-02 0.  1.
         -2   -1    0    0    0  501 -0.00000000000E+00 -0.00000000000E+00 -0.72290253410E+03  0.72290253411E+03  0.25500000000E-02 0. -1.
    -200001    2    1    2    0    0 -0.25985109927E+03 -0.15568438735E+03  0.79748595543E+03  0.10504697676E+04  0.61297851613E+03 0.  0.
   -5000001    2    3    3    0    0 -0.73985361843E+02 -0.55648103065E+02 -0.78813543274E+02  0.14346638172E+03  0.76160901648E+02 0.  0.
     200001    1    1    2    0    0  0.25985109927E+03  0.15568438735E+03 -0.40043439945E+03  0.79238685661E+03  0.61300000000E+03 0. -1.
         13    1    4    4    0    0 -0.64670169924E+02 -0.58358161312E+02 -0.48366203690E+02  0.99635368686E+02  0.10566000000E+00 0.  1.
    -200003    1    4    4    0    0 -0.93151919188E+01  0.27100582472E+01 -0.30447339584E+02  0.43831013038E+02  0.30000000000E+02 0.  1.
    -200000    1    3    3    0    0 -0.18586573743E+03 -0.10003628429E+03  0.87629949870E+03  0.90700338585E+03  0.10100000000E+03 0.  1.
<mgrwt>
<rscale>  0 0.17995751E+04</rscale>
<asrwt>0</asrwt>
<pdfrwt beam="1">  1        2 0.15999344E+00 0.17995751E+04</pdfrwt>
<pdfrwt beam="2">  1       -2 0.10327179E+00 0.17995751E+04</pdfrwt>
<totfact> 0.17229281E+01</totfact>
</mgrwt>
</event>
<event>
 8    2  0.4306980E-052  0.1257124E+04  0.7818608E-02  0.9064275E-01
         -2   -1    0    0    0  501 -0.00000000000E+00  0.00000000000E+00  0.21386195697E+03  0.21386195699E+03  0.25500000000E-02 0.  1.
          2   -1    0    0  501    0  0.00000000000E+00 -0.00000000000E+00 -0.18474080654E+04  0.18474080654E+04  0.25500000000E-02 0. -1.
    -200001    2    1    2    0    0 -0.80589581420E+02  0.27519186891E+02 -0.63703358878E+03  0.88821495630E+03  0.61307587547E+03 0.  0.
   -5000001    2    3    3    0    0 -0.49891107256E+02 -0.22807732469E+03 -0.44488635873E+03  0.55147539660E+03  0.22736062159E+03 0.  0.
     200001    1    1    2    0    0  0.80589581420E+02 -0.27519186891E+02 -0.99651251966E+03  0.11730550661E+04  0.61300000000E+03 0. -1.
         13    1    4    4    0    0  0.20806432062E+02  0.15979828612E+01  0.18972329043E+02  0.28203219634E+02  0.10566000000E+00 0.  1.
    -200003    1    4    4    0    0 -0.70697539319E+02 -0.22967530755E+03 -0.46385868777E+03  0.52327217697E+03  0.30000000000E+02 0.  1.
    -200000    1    3    3    0    0 -0.30698474163E+02  0.25559651158E+03 -0.19214723005E+03  0.33673955970E+03  0.10100000000E+03 0.  1.
<mgrwt>
<rscale>  0 0.12571242E+04</rscale>
<asrwt>0</asrwt>
<pdfrwt beam="1">  1        2 0.26391543E+00 0.12571242E+04</pdfrwt>
<pdfrwt beam="2">  1       -2 0.30551709E-01 0.12571242E+04</pdfrwt>
<totfact> 0.93706328E+01</totfact>
</mgrwt>
</event>
<event>
 8    2  0.4306980E-052  0.1317476E+04  0.7818608E-02  0.9015821E-01
          2   -1    0    0  501    0  0.00000000000E+00  0.00000000000E+00  0.30367644039E+04  0.30367644039E+04  0.25500000000E-02 0.  1.
         -2   -1    0    0    0  501 -0.00000000000E+00 -0.00000000000E+00 -0.14289400717E+03  0.14289400719E+03  0.25500000000E-02 0. -1.
    -200001    2    1    2    0    0  0.83256587091E+02 -0.18929964791E+03  0.11444838999E+04  0.13144806364E+04  0.61257646894E+03 0.  0.
   -5000001    2    3    3    0    0  0.42262841511E+02  0.20775175333E+03  0.51286325365E+03  0.56050719973E+03  0.78693489109E+02 0.  0.
     200001    1    1    2    0    0 -0.83256587091E+02  0.18929964791E+03  0.17493864968E+04  0.18651777747E+04  0.61300000000E+03 0.  1.
         13    1    4    4    0    0  0.24589421690E+02  0.18527141919E+02  0.10712857377E+03  0.11146495920E+03  0.10566000000E+00 0.  1.
    -200003    1    4    4    0    0  0.17673419820E+02  0.18922461141E+03  0.40573467987E+03  0.44904224053E+03  0.30000000000E+02 0.  1.
    -200000    1    3    3    0    0  0.40993745581E+02 -0.39705140124E+03  0.63162064627E+03  0.75397343666E+03  0.10100000000E+03 0. -1.
<mgrwt>
<rscale>  0 0.13174755E+04</rscale>
<asrwt>0</asrwt>
<pdfrwt beam="1">  1        2 0.43382348E+00 0.13174755E+04</pdfrwt>
<pdfrwt beam="2">  1       -2 0.20413430E-01 0.13174755E+04</pdfrwt>
<totfact> 0.45822443E+01</totfact>
</mgrwt>
</event>
<event>
 8    2  0.4306980E-052  0.1482599E+04  0.7818608E-02  0.8896107E-01
          2   -1    0    0  501    0  0.00000000000E+00  0.00000000000E+00  0.14859878540E+04  0.14859878540E+04  0.25500000000E-02 0.  1.
         -2   -1    0    0    0  501 -0.00000000000E+00 -0.00000000000E+00 -0.36980455762E+03  0.36980455763E+03  0.25500000000E-02 0. -1.
    -200001    2    1    2    0    0 -0.58163356304E+02 -0.27232095155E+03  0.16718602653E+03  0.69221753444E+03  0.61128738810E+03 0.  0.
   -5000001    2    3    3    0    0  0.15472159738E+03 -0.22001659900E+03  0.26197944116E+03  0.43290586819E+03  0.21547200883E+03 0.  0.
     200001    1    1    2    0    0  0.58163356304E+02  0.27232095155E+03  0.94899726987E+03  0.11635748772E+04  0.61300000000E+03 0.  1.
         13    1    4    4    0    0  0.19896940233E+03 -0.13099830254E+03  0.15735013552E+03  0.28549685576E+03  0.10566000000E+00 0.  1.
    -200003    1    4    4    0    0 -0.44247804957E+02 -0.89018296453E+02  0.10462930564E+03  0.14740901243E+03  0.30000000000E+02 0.  1.
    -200000    1    3    3    0    0 -0.21288495368E+03 -0.52304352552E+02 -0.94793414627E+02  0.25931166626E+03  0.10100000000E+03 0. -1.
<mgrwt>
<rscale>  0 0.14825992E+04</rscale>
<asrwt>0</asrwt>
<pdfrwt beam="1">  1        2 0.21228398E+00 0.14825992E+04</pdfrwt>
<pdfrwt beam="2">  1       -2 0.52829222E-01 0.14825992E+04</pdfrwt>
<totfact> 0.48688877E+01</totfact>
</mgrwt>
</event>
<event>
 8    2  0.4306980E-052  0.2278365E+04  0.7818608E-02  0.8486501E-01
         -2   -1    0    0    0  501 -0.00000000000E+00  0.00000000000E+00  0.15945388148E+04  0.15945388148E+04  0.25500000000E-02 0. -1.
          2   -1    0    0  501    0  0.00000000000E+00 -0.00000000000E+00 -0.81386306813E+03  0.81386306814E+03  0.25500000000E-02 0.  1.
    -200001    2    1    2    0    0 -0.40843777784E+03 -0.22242624078E+03 -0.49812816021E+03  0.91595312898E+03  0.61199968917E+03 0.  0.
   -5000001    2    3    3    0    0 -0.53476220520E+03 -0.20790214358E+03 -0.42474638088E+03  0.73775465568E+03  0.18622171328E+03 0.  0.
     200001    1    1    2    0    0  0.40843777784E+03  0.22242624078E+03  0.12788039069E+04  0.14924487540E+04  0.61300000000E+03 0. -1.
         13    1    4    4    0    0 -0.40336308436E+03 -0.14879489791E+03 -0.21277794395E+03  0.47970424645E+03  0.10566000000E+00 0.  1.
    -200003    1    4    4    0    0 -0.13139912084E+03 -0.59107245666E+02 -0.21196843694E+03  0.25805040923E+03  0.30000000000E+02 0.  1.
    -200000    1    3    3    0    0  0.12632442736E+03 -0.14524097199E+02 -0.73381779329E+02  0.17819847330E+03  0.10100000000E+03 0. -1.
<mgrwt>
<rscale>  0 0.22783645E+04</rscale>
<asrwt>0</asrwt>
<pdfrwt beam="1">  1        2 0.11626615E+00 0.22783645E+04</pdfrwt>
<pdfrwt beam="2">  1       -2 0.22779126E+00 0.22783645E+04</pdfrwt>
<totfact> 0.29922384E+00</totfact>
</mgrwt>
</event>
<event>
 8    2  0.4306980E-052  0.1503628E+04  0.7818608E-02  0.8882044E-01
         -2   -1    0    0    0  501 -0.00000000000E+00  0.00000000000E+00  0.16055436214E+04  0.16055436214E+04  0.25500000000E-02 0. -1.
          2   -1    0    0  501    0  0.00000000000E+00 -0.00000000000E+00 -0.35204534980E+03  0.35204534981E+03  0.25500000000E-02 0.  1.
    -200001    2    1    2    0    0  0.78594478822E+02 -0.16993020229E+03  0.11380869997E+04  0.13063270213E+04  0.61334729303E+03 0.  0.
   -5000001    2    3    3    0    0  0.26175735974E+03  0.91013515736E+02  0.38835186303E+03  0.48538607328E+03  0.89342572126E+02 0.  0.
     200001    1    1    2    0    0 -0.78594478822E+02  0.16993020229E+03  0.11541127189E+03  0.65126194993E+03  0.61300000000E+03 0.  1.
         13    1    4    4    0    0  0.49046778635E+02  0.32463833769E+01  0.27396564772E+02  0.56273514417E+02  0.10566000000E+00 0.  1.
    -200003    1    4    4    0    0  0.21271058111E+03  0.87767132360E+02  0.36095529826E+03  0.42911255887E+03  0.30000000000E+02 0.  1.
    -200000    1    3    3    0    0 -0.18316288092E+03 -0.26094371803E+03  0.74973513667E+03  0.82094094799E+03  0.10100000000E+03 0.  1.
<mgrwt>
<rscale>  0 0.15036278E+04</rscale>
<asrwt>0</asrwt>
<pdfrwt beam="1">  1        2 0.50292192E-01 0.15036278E+04</pdfrwt>
<pdfrwt beam="2">  1       -2 0.22936338E+00 0.15036278E+04</pdfrwt>
<totfact> 0.83305152E+00</totfact>
</mgrwt>
</event>
<event>
 8    2  0.4306980E-052  0.1733732E+04  0.7818608E-02  0.8742356E-01
          2   -1    0    0  501    0  0.00000000000E+00  0.00000000000E+00  0.86174971418E+03  0.86174971419E+03  0.25500000000E-02 0.  1.
         -2   -1    0    0    0  501 -0.00000000000E+00 -0.00000000000E+00 -0.87201298783E+03  0.87201298784E+03  0.25500000000E-02 0. -1.
    -200001    2    1    2    0    0  0.49741591184E+03  0.26066888337E+03  0.23962391141E+03  0.86567085126E+03  0.61367381212E+03 0.  0.
   -5000001    2    3    3    0    0 -0.12913379874E+03 -0.11674534649E+02  0.26878216888E+02  0.14303871268E+03  0.54090683544E+02 0.  0.
     200001    1    1    2    0    0 -0.49741591184E+03 -0.26066888337E+03 -0.24988718506E+03  0.86809185077E+03  0.61300000000E+03 0. -1.
         13    1    4    4    0    0 -0.54439878890E+02  0.10044435972E+01 -0.67906940818E+01  0.54871067154E+02  0.10566000000E+00 0.  1.
    -200003    1    4    4    0    0 -0.74693919848E+02 -0.12678978246E+02  0.33668910970E+02  0.88167645525E+02  0.30000000000E+02 0.  1.
    -200000    1    3    3    0    0  0.62654971058E+03  0.27234341802E+03  0.21274569452E+03  0.72263213858E+03  0.10100000000E+03 0.  1.
<mgrwt>
<rscale>  0 0.17337323E+04</rscale>
<asrwt>0</asrwt>
<pdfrwt beam="1">  1        2 0.12310710E+00 0.17337323E+04</pdfrwt>
<pdfrwt beam="2">  1       -2 0.12457328E+00 0.17337323E+04</pdfrwt>
<totfact> 0.15867246E+01</totfact>
</mgrwt>
</event>
<event>
 8    2  0.4306980E-052  0.1493194E+04  0.7818608E-02  0.8888992E-01
         -2   -1    0    0    0  501 -0.00000000000E+00  0.00000000000E+00  0.28463759715E+03  0.28463759716E+03  0.25500000000E-02 0. -1.
          2   -1    0    0  501    0  0.00000000000E+00 -0.00000000000E+00 -0.19583038116E+04  0.19583038116E+04  0.25500000000E-02 0.  1.
    -200001    2    1    2    0    0 -0.24523105156E+03 -0.19370995248E+03 -0.40204574825E+03  0.79710275096E+03  0.61324562580E+03 0.  0.
   -5000001    2    3    3    0    0 -0.67664225111E+02 -0.12009760031E+02  0.14896732025E+03  0.18199191587E+03  0.78785234953E+02 0.  0.
     200001    1    1    2    0    0  0.24523105156E+03  0.19370995248E+03 -0.12716204662E+04  0.14458386578E+04  0.61300000000E+03 0. -1.
         13    1    4    4    0    0 -0.26286260576E+00 -0.54287645487E+01 -0.72750426323E+01  0.90817394046E+01  0.10566000000E+00 0.  1.
    -200003    1    4    4    0    0 -0.67401362505E+02 -0.65809954821E+01  0.15624236288E+03  0.17291017647E+03  0.30000000000E+02 0.  1.
    -200000    1    3    3    0    0 -0.17756682645E+03 -0.18170019245E+03 -0.55101306850E+03  0.61511083509E+03  0.10100000000E+03 0.  1.
<mgrwt>
<rscale>  0 0.14931937E+04</rscale>
<asrwt>0</asrwt>
<pdfrwt beam="1">  1        2 0.27975768E+00 0.14931937E+04</pdfrwt>
<pdfrwt beam="2">  1       -2 0.40662515E-01 0.14931937E+04</pdfrwt>
<totfact> 0.46729618E+01</totfact>
</mgrwt>
</event>
<event>
 8    2  0.4306980E-052  0.1294252E+04  0.7818608E-02  0.9034136E-01
          2   -1    0    0  501    0  0.00000000000E+00  0.00000000000E+00  0.39525630866E+03  0.39525630867E+03  0.25500000000E-02 0.  1.
         -2   -1    0    0    0  501 -0.00000000000E+00 -0.00000000000E+00 -0.10594945777E+04  0.10594945777E+04  0.25500000000E-02 0. -1.
    -200001    2    1    2    0    0  0.14005594159E+03 -0.38752602164E+02 -0.16517363168E+03  0.65103953073E+03  0.61274196120E+03 0.  0.
   -5000001    2    3    3    0    0  0.18844875988E+03 -0.15069065946E+03 -0.32542177870E+03  0.42575645956E+03  0.13095273520E+03 0.  0.
     200001    1    1    2    0    0 -0.14005594159E+03  0.38752602164E+02 -0.49906463739E+03  0.80371135567E+03  0.61300000000E+03 0. -1.
         13    1    4    4    0    0  0.17383396566E+03 -0.15286359982E+03 -0.23731897037E+03  0.33152048598E+03  0.10566000000E+00 0.  1.
    -200003    1    4    4    0    0  0.14614794213E+02  0.21729403528E+01 -0.88102808331E+02  0.94235973575E+02  0.30000000000E+02 0.  1.
    -200000    1    3    3    0    0 -0.48392818283E+02  0.11193805730E+03  0.16024814701E+03  0.22528307117E+03  0.10100000000E+03 0.  1.
<mgrwt>
<rscale>  0 0.12942518E+04</rscale>
<asrwt>0</asrwt>
<pdfrwt beam="1">  1        2 0.56465187E-01 0.12942518E+04</pdfrwt>
<pdfrwt beam="2">  1       -2 0.15135637E+00 0.12942518E+04</pdfrwt>
<totfact> 0.25151153E+01</totfact>
</mgrwt>
</event>
<event>
 8    2  0.4306980E-052  0.1269325E+04  0.7818608E-02  0.9054250E-01
          2   -1    0    0  501    0  0.00000000000E+00  0.00000000000E+00  0.87439404388E+03  0.87439404389E+03  0.25500000000E-02 0.  1.
         -2   -1    0    0    0  501 -0.00000000000E+00 -0.00000000000E+00 -0.46065809392E+03  0.46065809393E+03  0.25500000000E-02 0. -1.
    -200001    2    1    2    0    0  0.64774272416E+02 -0.44850110107E+01  0.36487398117E+03  0.71668953086E+03  0.61342891994E+03 0.  0.
   -5000001    2    3    3    0    0 -0.10828975787E+03 -0.22326683511E+03  0.14773718683E+02  0.25779102473E+03  0.68287614870E+02 0.  0.
     200001    1    1    2    0    0 -0.64774272416E+02  0.44850110107E+01  0.48861968788E+02  0.61836260696E+03  0.61300000000E+03 0. -1.
         13    1    4    4    0    0 -0.66427617166E+02 -0.94846592825E+02  0.26962039891E+02  0.11889267114E+03  0.10566000000E+00 0.  1.
    -200003    1    4    4    0    0 -0.41862140704E+02 -0.12842024229E+03 -0.12188321208E+02  0.13889835358E+03  0.30000000000E+02 0.  1.
    -200000    1    3    3    0    0  0.17306403029E+03  0.21878182410E+03  0.35010026249E+03  0.45889850613E+03  0.10100000000E+03 0.  1.
<mgrwt>
<rscale>  0 0.12693253E+04</rscale>
<asrwt>0</asrwt>
<pdfrwt beam="1">  1        2 0.12491343E+00 0.12693253E+04</pdfrwt>
<pdfrwt beam="2">  1       -2 0.65808300E-01 0.12693253E+04</pdfrwt>
<totfact> 0.70674410E+01</totfact>
</mgrwt>
</event>
<event>
 8    2  0.4306980E-052  0.1478953E+04  0.7818608E-02  0.8898571E-01
         -2   -1    0    0    0  501 -0.00000000000E+00  0.00000000000E+00  0.16074547168E+03  0.16074547170E+03  0.25500000000E-02 0. -1.
          2   -1    0    0  501    0  0.00000000000E+00 -0.00000000000E+00 -0.34018114628E+04  0.34018114628E+04  0.25500000000E-02 0.  1.
    -200001    2    1    2    0    0  0.33048731550E+03 -0.19048120264E+03 -0.20032508421E+04  0.21295669494E+04  0.61362570133E+03 0.  0.
   -5000001    2    3    3    0    0  0.31619085471E+03 -0.36755129626E+03 -0.16342045708E+04  0.17077205825E+04  0.10302619536E+03 0.  0.
     200001    1    1    2    0    0 -0.33048731550E+03  0.19048120264E+03 -0.12378151490E+04  0.14329899851E+04  0.61300000000E+03 0.  1.
         13    1    4    4    0    0  0.25595299525E+03 -0.24109747076E+03 -0.12039622820E+04  0.12542587906E+04  0.10566000000E+00 0.  1.
    -200003    1    4    4    0    0  0.60237859466E+02 -0.12645382550E+03 -0.43024228877E+03  0.45346179194E+03  0.30000000000E+02 0. -1.
    -200000    1    3    3    0    0  0.14296460790E+02  0.17707009363E+03 -0.36904627136E+03  0.42184636688E+03  0.10100000000E+03 0. -1.
<mgrwt>
<rscale>  0 0.14789534E+04</rscale>
<asrwt>0</asrwt>
<pdfrwt beam="1">  1        2 0.48597302E+00 0.14789534E+04</pdfrwt>
<pdfrwt beam="2">  1       -2 0.22963641E-01 0.14789534E+04</pdfrwt>
<totfact> 0.22564573E+01</totfact>
</mgrwt>
</event>
<event>
 8    2  0.4306980E-052  0.1536707E+04  0.7818608E-02  0.8860403E-01
          2   -1    0    0  501    0  0.00000000000E+00  0.00000000000E+00  0.38189134719E+04  0.38189134719E+04  0.25500000000E-02 0.  1.
         -2   -1    0    0    0  501 -0.00000000000E+00 -0.00000000000E+00 -0.15459039617E+03  0.15459039620E+03  0.25500000000E-02 0. -1.
    -200001    2    1    2    0    0  0.16588457694E+03 -0.54547749394E+02  0.29416545356E+04  0.30099106091E+04  0.61297415802E+03 0.  0.
   -5000001    2    3    3    0    0  0.31951199665E+02  0.24988718729E+03  0.13972015866E+04  0.14268266910E+04  0.14211842602E+03 0.  0.
     200001    1    1    2    0    0 -0.16588457694E+03  0.54547749394E+02  0.72266854018E+03  0.96359325900E+03  0.61300000000E+03 0. -1.
         13    1    4    4    0    0 -0.48964884921E+02  0.12281080989E+03  0.75665651548E+03  0.76812052997E+03  0.10566000000E+00 0.  1.
    -200003    1    4    4    0    0  0.80916084586E+02  0.12707637741E+03  0.64054507110E+03  0.65870616101E+03  0.30000000000E+02 0.  1.
    -200000    1    3    3    0    0  0.13393337727E+03 -0.30443493669E+03  0.15444529490E+04  0.15830839182E+04  0.10100000000E+03 0.  1.
<mgrwt>
<rscale>  0 0.15367073E+04</rscale>
<asrwt>0</asrwt>
<pdfrwt beam="1">  1        2 0.54555901E+00 0.15367073E+04</pdfrwt>
<pdfrwt beam="2">  1       -2 0.22084345E-01 0.15367073E+04</pdfrwt>
<totfact> 0.13236186E+01</totfact>
</mgrwt>
</event>
<event>
 8    2  0.4306980E-052  0.2219979E+04  0.7818608E-02  0.8510158E-01
         -2   -1    0    0    0  501 -0.00000000000E+00  0.00000000000E+00  0.54834577979E+03  0.54834577979E+03  0.25500000000E-02 0. -1.
          2   -1    0    0  501    0  0.00000000000E+00 -0.00000000000E+00 -0.22468975210E+04  0.22468975210E+04  0.25500000000E-02 0.  1.
    -200001    2    1    2    0    0  0.79842880461E+02 -0.44371509043E+03  0.16316961962E+03  0.78401646316E+03  0.62032211206E+03 0.  0.
   -5000001    2    3    3    0    0 -0.11929395615E+03 -0.50376715007E+03  0.47973066501E+02  0.52568919899E+03  0.77687382258E+02 0.  0.
     200001    1    1    2    0    0 -0.79842880461E+02  0.44371509043E+03 -0.18617213609E+04  0.20112268377E+04  0.61300000000E+03 0.  1.
         13    1    4    4    0    0 -0.35009186693E+02 -0.13247754848E+03  0.43439843740E+02  0.14374621801E+03  0.10566000000E+00 0.  1.
    -200003    1    4    4    0    0 -0.84284769461E+02 -0.37128960159E+03  0.45332227610E+01  0.38194298098E+03  0.30000000000E+02 0.  1.
    -200000    1    3    3    0    0  0.19913683662E+03  0.60052059638E+02  0.11519655312E+03  0.25832726417E+03  0.10100000000E+03 0. -1.
<mgrwt>
<rscale>  0 0.22199791E+04</rscale>
<asrwt>0</asrwt>
<pdfrwt beam="1">  1        2 0.32098536E+00 0.22199791E+04</pdfrwt>
<pdfrwt beam="2">  1       -2 0.78335113E-01 0.22199791E+04</pdfrwt>
<totfact> 0.79437938E+00</totfact>
</mgrwt>
</event>
<event>
 8    2  0.4306980E-052  0.1784681E+04  0.7818608E-02  0.8714488E-01
          2   -1    0    0  501    0  0.00000000000E+00  0.00000000000E+00  0.13464636217E+04  0.13464636217E+04  0.25500000000E-02 0.  1.
         -2   -1    0    0    0  501 -0.00000000000E+00 -0.00000000000E+00 -0.59138018372E+03  0.59138018373E+03  0.25500000000E-02 0. -1.
    -200001    2    1    2    0    0 -0.75563730088E+02  0.18955869143E+03  0.10470993905E+04  0.12288412023E+04  0.60991080662E+03 0.  0.
   -5000001    2    3    3    0    0  0.22578654808E+03  0.93746287735E+02  0.22413232096E+03  0.34144737516E+03  0.81136187668E+02 0.  0.
     200001    1    1    2    0    0  0.75563730088E+02 -0.18955869143E+03 -0.29201595249E+03  0.70900260318E+03  0.61300000000E+03 0. -1.
         13    1    4    4    0    0  0.11165707139E+02 -0.11148598582E+02  0.70901192136E+01  0.17298705754E+02  0.10566000000E+00 0.  1.
    -200003    1    4    4    0    0  0.21462084094E+03  0.10489488632E+03  0.21704220175E+03  0.32414866941E+03  0.30000000000E+02 0.  1.
    -200000    1    3    3    0    0 -0.30135027817E+03  0.95812403695E+02  0.82296706951E+03  0.88739382709E+03  0.10100000000E+03 0.  1.
<mgrwt>
<rscale>  0 0.17846814E+04</rscale>
<asrwt>0</asrwt>
<pdfrwt beam="1">  1        2 0.19235194E+00 0.17846814E+04</pdfrwt>
<pdfrwt beam="2">  1       -2 0.84482884E-01 0.17846814E+04</pdfrwt>
<totfact> 0.20501260E+01</totfact>
</mgrwt>
</event>
<event>
 8    2  0.4306980E-052  0.1333847E+04  0.7818608E-02  0.9003146E-01
         -2   -1    0    0    0  501 -0.00000000000E+00  0.00000000000E+00  0.10219884673E+04  0.10219884673E+04  0.25500000000E-02 0. -1.
          2   -1    0    0  501    0  0.00000000000E+00 -0.00000000000E+00 -0.43521750182E+03  0.43521750183E+03  0.25500000000E-02 0.  1.
    -200001    2    1    2    0    0  0.16399969454E+03  0.17814973176E+03  0.40407060897E+03  0.77326032288E+03  0.61320897186E+03 0.  0.
   -5000001    2    3    3    0    0  0.35915219149E+03  0.22778598747E+03  0.26818087769E+03  0.51017236418E+03  0.86476038727E+02 0.  0.
     200001    1    1    2    0    0 -0.16399969454E+03 -0.17814973176E+03  0.18270035648E+03  0.68394564623E+03  0.61300000000E+03 0.  1.
         13    1    4    4    0    0  0.90203818127E+02  0.36321116102E+02  0.29267432104E+02  0.10155070667E+03  0.10566000000E+00 0.  1.
    -200003    1    4    4    0    0  0.26894837337E+03  0.19146487136E+03  0.23891344558E+03  0.40862165751E+03  0.30000000000E+02 0.  1.
    -200000    1    3    3    0    0 -0.19515249695E+03 -0.49636255700E+02  0.13588973129E+03  0.26308795871E+03  0.10100000000E+03 0.  1.
<mgrwt>
<rscale>  0 0.13338475E+04</rscale>
<asrwt>0</asrwt>
<pdfrwt beam="1">  1        2 0.62173928E-01 0.13338475E+04</pdfrwt>
<pdfrwt beam="2">  1       -2 0.14599835E+00 0.13338475E+04</pdfrwt>
<totfact> 0.24764230E+01</totfact>
</mgrwt>
</event>
<event>
 8    2  0.4306980E-052  0.1241046E+04  0.7818608E-02  0.9077668E-01
          2   -1    0    0  501    0  0.00000000000E+00  0.00000000000E+00  0.19091027511E+03  0.19091027513E+03  0.25500000000E-02 0.  1.
         -2   -1    0    0    0  501 -0.00000000000E+00 -0.00000000000E+00 -0.20169113113E+04  0.20169113113E+04  0.25500000000E-02 0. -1.
    -200001    2    1    2    0    0 -0.52388977283E+02 -0.57169164646E+02 -0.10111091995E+04  0.11851629807E+04  0.61339755396E+03 0.  0.
   -5000001    2    3    3    0    0 -0.11468008665E+03  0.20437643189E+03 -0.76318005774E+03  0.80574745559E+03  0.10892159327E+03 0.  0.
     200001    1    1    2    0    0  0.52388977283E+02  0.57169164646E+02 -0.81489183660E+03  0.10226586056E+04  0.61300000000E+03 0.  1.
         13    1    4    4    0    0 -0.10920195788E+03  0.10195227581E+03 -0.49517814738E+03  0.51722407422E+03  0.10566000000E+00 0.  1.
    -200003    1    4    4    0    0 -0.54781287699E+01  0.10242415608E+03 -0.26800191035E+03  0.28852338137E+03  0.30000000000E+02 0.  1.
    -200000    1    3    3    0    0  0.62291109362E+02 -0.26154559654E+03 -0.24792914181E+03  0.37941552516E+03  0.10100000000E+03 0.  1.
<mgrwt>
<rscale>  0 0.12410465E+04</rscale>
<asrwt>0</asrwt>
<pdfrwt beam="1">  1        2 0.27272898E-01 0.12410465E+04</pdfrwt>
<pdfrwt beam="2">  1       -2 0.28813017E+00 0.12410465E+04</pdfrwt>
<totfact> 0.73937157E+00</totfact>
</mgrwt>
</event>
<event>
 8    2  0.4306980E-052  0.1298043E+04  0.7818608E-02  0.9031119E-01
          2   -1    0    0  501    0  0.00000000000E+00  0.00000000000E+00  0.15548073450E+04  0.15548073450E+04  0.25500000000E-02 0.  1.
         -2   -1    0    0    0  501 -0.00000000000E+00 -0.00000000000E+00 -0.27092014072E+03  0.27092014073E+03  0.25500000000E-02 0. -1.
    -200001    2    1    2    0    0 -0.13327054905E+03  0.13388525465E+03  0.49951159855E+03  0.81246523363E+03  0.61229210196E+03 0.  0.
   -5000001    2    3    3    0    0 -0.21549185573E+03  0.83301445035E+02 -0.45156291865E+02  0.25016355667E+03  0.84657213292E+02 0.  0.
     200001    1    1    2    0    0  0.13327054905E+03 -0.13388525465E+03  0.78437560570E+03  0.10132622521E+04  0.61300000000E+03 0.  1.
         13    1    4    4    0    0 -0.53898937271E+02 -0.10227896629E+01 -0.36759978263E+02  0.65249127991E+02  0.10566000000E+00 0.  1.
    -200003    1    4    4    0    0 -0.16159291846E+03  0.84324234698E+02 -0.83963136019E+01  0.18491442868E+03  0.30000000000E+02 0.  1.
    -200000    1    3    3    0    0  0.82221306672E+02  0.50583809618E+02  0.54466789041E+03  0.56230167696E+03  0.10100000000E+03 0.  1.
<mgrwt>
<rscale>  0 0.12980426E+04</rscale>
<asrwt>0</asrwt>
<pdfrwt beam="1">  1        2 0.22211533E+00 0.12980426E+04</pdfrwt>
<pdfrwt beam="2">  1       -2 0.38702879E-01 0.12980426E+04</pdfrwt>
<totfact> 0.84525206E+01</totfact>
</mgrwt>
</event>
<event>
 8    2  0.4306980E-052  0.2606024E+04  0.7818608E-02  0.8366158E-01
         -2   -1    0    0    0  501 -0.00000000000E+00  0.00000000000E+00  0.86408171101E+03  0.86408171101E+03  0.25500000000E-02 0. -1.
          2   -1    0    0  501    0  0.00000000000E+00 -0.00000000000E+00 -0.19649077046E+04  0.19649077046E+04  0.25500000000E-02 0.  1.
    -200001    2    1    2    0    0  0.25799423988E+03 -0.92151351123E+03  0.14031295159E+03  0.11461516158E+04  0.61500213238E+03 0.  0.
   -5000001    2    3    3    0    0 -0.14077331622E+02 -0.29321834485E+03 -0.19666648532E+03  0.37638938172E+03  0.12967687226E+03 0.  0.
     200001    1    1    2    0    0 -0.25799423988E+03  0.92151351123E+03 -0.12411389452E+04  0.16828377998E+04  0.61300000000E+03 0.  1.
         13    1    4    4    0    0 -0.62372630640E+02 -0.91270046389E+02 -0.78703009015E+02  0.13570092562E+03  0.10566000000E+00 0.  1.
    -200003    1    4    4    0    0  0.48295299018E+02 -0.20194829846E+03 -0.11796347631E+03  0.24068845610E+03  0.30000000000E+02 0.  1.
    -200000    1    3    3    0    0  0.27207157151E+03 -0.62829516639E+03  0.33697943691E+03  0.76976223409E+03  0.10100000000E+03 0. -1.
<mgrwt>
<rscale>  0 0.26060244E+04</rscale>
<asrwt>0</asrwt>
<pdfrwt beam="1">  1        2 0.28070110E+00 0.26060244E+04</pdfrwt>
<pdfrwt beam="2">  1       -2 0.12344024E+00 0.26060244E+04</pdfrwt>
<totfact> 0.36833413E+00</totfact>
</mgrwt>
</event>
<event>
 8    2  0.4306980E-052  0.1301751E+04  0.7818608E-02  0.9028178E-01
         -2   -1    0    0    0  501 -0.00000000000E+00  0.00000000000E+00  0.18353174106E+03  0.18353174108E+03  0.25500000000E-02 0. -1.
          2   -1    0    0  501    0  0.00000000000E+00 -0.00000000000E+00 -0.23082597220E+04  0.23082597220E+04  0.25500000000E-02 0.  1.
    -200001    2    1    2    0    0  0.90279142931E+01 -0.93754923927E+02 -0.14444449869E+04  0.15712343269E+04  0.61113378310E+03 0.  0.
   -5000001    2    3    3    0    0  0.70983485696E+02  0.15719839143E+03 -0.91707318823E+03  0.97529970518E+03  0.28361292787E+03 0.  0.
     200001    1    1    2    0    0 -0.90279142931E+01  0.93754923927E+02 -0.68028299407E+03  0.92055713621E+03  0.61300000000E+03 0. -1.
         13    1    4    4    0    0 -0.80414178705E+02  0.24098412346E+02 -0.54171313913E+03  0.54817908560E+03  0.10566000000E+00 0.  1.
    -200003    1    4    4    0    0  0.15139766440E+03  0.13309997909E+03 -0.37536004909E+03  0.42712061959E+03  0.30000000000E+02 0.  1.
    -200000    1    3    3    0    0 -0.61955571403E+02 -0.25095331536E+03 -0.52737179863E+03  0.59593462167E+03  0.10100000000E+03 0. -1.
<mgrwt>
<rscale>  0 0.13017510E+04</rscale>
<asrwt>0</asrwt>
<pdfrwt beam="1">  1        2 0.32975137E+00 0.13017510E+04</pdfrwt>
<pdfrwt beam="2">  1       -2 0.26218822E-01 0.13017510E+04</pdfrwt>
<totfact> 0.71795435E+01</totfact>
</mgrwt>
</event>
<event>
 8    2  0.4306980E-052  0.1585708E+04  0.7818608E-02  0.8829376E-01
          2   -1    0    0  501    0  0.00000000000E+00  0.00000000000E+00  0.29882474697E+04  0.29882474697E+04  0.25500000000E-02 0.  1.
         -2   -1    0    0    0  501 -0.00000000000E+00 -0.00000000000E+00 -0.21036337299E+03  0.21036337300E+03  0.25500000000E-02 0. -1.
    -200001    2    1    2    0    0 -0.19476322380E+03 -0.18894658845E+03  0.22426632986E+04  0.23407857851E+04  0.61327472996E+03 0.  0.
   -5000001    2    3    3    0    0 -0.10674971480E+03 -0.39929228760E+03  0.14318890021E+04  0.14925242389E+04  0.80577024767E+02 0.  0.
     200001    1    1    2    0    0  0.19476322380E+03  0.18894658845E+03  0.53522079811E+03  0.85782505755E+03  0.61300000000E+03 0. -1.
         13    1    4    4    0    0 -0.18596609917E+02 -0.11167343789E+03  0.29060365805E+03  0.31187703966E+03  0.10566000000E+00 0.  1.
    -200003    1    4    4    0    0 -0.88153104886E+02 -0.28761884971E+03  0.11412853441E+04  0.11806471993E+04  0.30000000000E+02 0.  1.
    -200000    1    3    3    0    0 -0.88013509000E+02  0.21034569915E+03  0.81077429649E+03  0.84826154620E+03  0.10100000000E+03 0.  1.
<mgrwt>
<rscale>  0 0.15857084E+04</rscale>
<asrwt>0</asrwt>
<pdfrwt beam="1">  1        2 0.42689248E+00 0.15857084E+04</pdfrwt>
<pdfrwt beam="2">  1       -2 0.30051911E-01 0.15857084E+04</pdfrwt>
<totfact> 0.23631634E+01</totfact>
</mgrwt>
</event>
<event>
 8    2  0.4306980E-052  0.1413368E+04  0.7818608E-02  0.8944199E-01
          2   -1    0    0  501    0  0.00000000000E+00  0.00000000000E+00  0.62784313777E+03  0.62784313778E+03  0.25500000000E-02 0.  1.
         -2   -1    0    0    0  501 -0.00000000000E+00 -0.00000000000E+00 -0.79542474266E+03  0.79542474266E+03  0.25500000000E-02 0. -1.
    -200001    2    1    2    0    0  0.24992967820E+03  0.24627051001E+03 -0.57327229393E+02  0.70839793740E+03  0.61272115872E+03 0.  0.
   -5000001    2    3    3    0    0 -0.14394384877E+03  0.50508401345E+02 -0.17118239381E+03  0.24297000861E+03  0.80374641101E+02 0.  0.
     200001    1    1    2    0    0 -0.24992967820E+03 -0.24627051001E+03 -0.11025437549E+03  0.71486994304E+03  0.61300000000E+03 0.  1.
         13    1    4    4    0    0 -0.11371209190E+03  0.13694528861E+02 -0.98704601482E+02  0.15119718741E+03  0.10566000000E+00 0.  1.
    -200003    1    4    4    0    0 -0.30231756872E+02  0.36813872485E+02 -0.72477792323E+02  0.91772821199E+02  0.30000000000E+02 0. -1.
    -200000    1    3    3    0    0  0.39387352697E+03  0.19576210866E+03  0.11385516441E+03  0.46542792879E+03  0.10100000000E+03 0.  1.
<mgrwt>
<rscale>  0 0.14133676E+04</rscale>
<asrwt>0</asrwt>
<pdfrwt beam="1">  1        2 0.89691877E-01 0.14133676E+04</pdfrwt>
<pdfrwt beam="2">  1       -2 0.11363211E+00 0.14133676E+04</pdfrwt>
<totfact> 0.30393493E+01</totfact>
</mgrwt>
</event>
<event>
 8    2  0.4306980E-052  0.1321343E+04  0.7818608E-02  0.9012809E-01
          2   -1    0    0  501    0  0.00000000000E+00  0.00000000000E+00  0.10031274535E+04  0.10031274535E+04  0.25500000000E-02 0.  1.
         -2   -1    0    0    0  501 -0.00000000000E+00 -0.00000000000E+00 -0.43512585743E+03  0.43512585744E+03  0.25500000000E-02 0. -1.
    -200001    2    1    2    0    0  0.15674767062E+03  0.14441716953E+03  0.41910820289E+03  0.77239717514E+03  0.61279650728E+03 0.  0.
   -5000001    2    3    3    0    0  0.35998017997E+03  0.12219218965E+03  0.37738112724E+03  0.54057924782E+03  0.72751266609E+02 0.  0.
     200001    1    1    2    0    0 -0.15674767062E+03 -0.14441716953E+03  0.14889339322E+03  0.66585613585E+03  0.61300000000E+03 0. -1.
         13    1    4    4    0    0  0.58283487692E+02  0.60894486286E+01  0.87688044035E+02  0.10546682205E+03  0.10566000000E+00 0.  1.
    -200003    1    4    4    0    0  0.30169669227E+03  0.11610274102E+03  0.28969308321E+03  0.43511242577E+03  0.30000000000E+02 0.  1.
    -200000    1    3    3    0    0 -0.20323250935E+03  0.22224979886E+02  0.41727075653E+02  0.23181792732E+03  0.10100000000E+03 0. -1.
<mgrwt>
<rscale>  0 0.13213428E+04</rscale>
<asrwt>0</asrwt>
<pdfrwt beam="1">  1        2 0.14330392E+00 0.13213428E+04</pdfrwt>
<pdfrwt beam="2">  1       -2 0.62160836E-01 0.13213428E+04</pdfrwt>
<totfact> 0.65814674E+01</totfact>
</mgrwt>
</event>
<event>
 8    2  0.4306980E-052  0.1563181E+04  0.7818608E-02  0.8843492E-01
         -2   -1    0    0    0  501 -0.00000000000E+00  0.00000000000E+00  0.42879390745E+03  0.42879390746E+03  0.25500000000E-02 0. -1.
          2   -1    0    0  501    0  0.00000000000E+00 -0.00000000000E+00 -0.14246555335E+04  0.14246555335E+04  0.25500000000E-02 0.  1.
    -200001    2    1    2    0    0  0.44952882370E+03  0.17429160598E+03 -0.55574318689E+03  0.95794569016E+03  0.61347838451E+03 0.  0.
   -5000001    2    3    3    0    0  0.51002426957E+03  0.22133968697E+03 -0.22762017282E+03  0.60618023811E+03  0.80793102526E+02 0.  0.
     200001    1    1    2    0    0 -0.44952882370E+03 -0.17429160598E+03 -0.44011843921E+03  0.89550375085E+03  0.61300000000E+03 0. -1.
         13    1    4    4    0    0  0.38149414795E+03  0.17359936066E+03 -0.14609557927E+03  0.44386760682E+03  0.10566000000E+00 0.  1.
    -200003    1    4    4    0    0  0.12853012163E+03  0.47740326312E+02 -0.81524593553E+02  0.16231263129E+03  0.30000000000E+02 0.  1.
    -200000    1    3    3    0    0 -0.60495445871E+02 -0.47048080984E+02 -0.32812301407E+03  0.35176545205E+03  0.10100000000E+03 0.  1.
<mgrwt>
<rscale>  0 0.15631809E+04</rscale>
<asrwt>0</asrwt>
<pdfrwt beam="1">  1        2 0.20352222E+00 0.15631809E+04</pdfrwt>
<pdfrwt beam="2">  1       -2 0.61256273E-01 0.15631809E+04</pdfrwt>
<totfact> 0.38310775E+01</totfact>
</mgrwt>
</event>
<event>
 8    2  0.4306980E-052  0.1652123E+04  0.7818608E-02  0.8789152E-01
          2   -1    0    0  501    0  0.00000000000E+00  0.00000000000E+00  0.42213016570E+03  0.42213016571E+03  0.25500000000E-02 0. -1.
         -2   -1    0    0    0  501 -0.00000000000E+00 -0.00000000000E+00 -0.16165094715E+04  0.16165094715E+04  0.25500000000E-02 0.  1.
    -200001    2    1    2    0    0 -0.11341233137E+03 -0.51006171059E+03 -0.82471776676E+03  0.11523868747E+04  0.61221794221E+03 0.  0.
   -5000001    2    3    3    0    0 -0.24557015261E+03 -0.40510157752E+03 -0.34776428941E+03  0.63647221242E+03  0.24442767486E+03 0.  0.
     200001    1    1    2    0    0  0.11341233137E+03  0.51006171059E+03 -0.36966153904E+03  0.88625276246E+03  0.61300000000E+03 0.  1.
         13    1    4    4    0    0 -0.27200112168E+03 -0.38875040368E+03 -0.26584414127E+03  0.54386083254E+03  0.10566000000E+00 0.  1.
    -200003    1    4    4    0    0  0.26430969077E+02 -0.16351173836E+02 -0.81920148135E+02  0.92611379876E+02  0.30000000000E+02 0.  1.
    -200000    1    3    3    0    0  0.13215782123E+03 -0.10496013307E+03 -0.47695347735E+03  0.51591466233E+03  0.10100000000E+03 0.  1.
<mgrwt>
<rscale>  0 0.16521228E+04</rscale>
<asrwt>0</asrwt>
<pdfrwt beam="1">  1        2 0.60304310E-01 0.16521228E+04</pdfrwt>
<pdfrwt beam="2">  1       -2 0.23092992E+00 0.16521228E+04</pdfrwt>
<totfact> 0.65714652E+00</totfact>
</mgrwt>
</event>
<event>
 8    2  0.4306980E-052  0.1691073E+04  0.7818608E-02  0.8766472E-01
         -2   -1    0    0    0  501 -0.00000000000E+00  0.00000000000E+00  0.35126888125E+03  0.35126888126E+03  0.25500000000E-02 0. -1.
          2   -1    0    0  501    0  0.00000000000E+00 -0.00000000000E+00 -0.20352829707E+04  0.20352829707E+04  0.25500000000E-02 0.  1.
    -200001    2    1    2    0    0 -0.28295542808E+03  0.50191855171E+03 -0.96140839424E+03  0.12775369749E+04  0.61303231140E+03 0.  0.
   -5000001    2    3    3    0    0 -0.11177559314E+03  0.60019259789E+03 -0.74728096907E+03  0.96929700626E+03  0.91558188224E+02 0.  0.
     200001    1    1    2    0    0  0.28295542808E+03 -0.50191855171E+03 -0.72260569516E+03  0.11090148770E+04  0.61300000000E+03 0. -1.
         13    1    4    4    0    0 -0.35878320780E+02  0.70908103328E+02 -0.70288011482E+02  0.10609254800E+03  0.10566000000E+00 0.  1.
    -200003    1    4    4    0    0 -0.75897272362E+02  0.52928449456E+03 -0.67699295759E+03  0.86320445826E+03  0.30000000000E+02 0.  1.
    -200000    1    3    3    0    0 -0.17117983494E+03 -0.98274046176E+02 -0.21412742517E+03  0.30823996862E+03  0.10100000000E+03 0.  1.
<mgrwt>
<rscale>  0 0.16910725E+04</rscale>
<asrwt>0</asrwt>
<pdfrwt beam="1">  1        2 0.29075470E+00 0.16910725E+04</pdfrwt>
<pdfrwt beam="2">  1       -2 0.50181270E-01 0.16910725E+04</pdfrwt>
<totfact> 0.27582436E+01</totfact>
</mgrwt>
</event>
<event>
 8    2  0.4306980E-052  0.1303510E+04  0.7818608E-02  0.9026786E-01
         -2   -1    0    0    0  501 -0.00000000000E+00  0.00000000000E+00  0.22165764387E+03  0.22165764389E+03  0.25500000000E-02 0. -1.
          2   -1    0    0  501    0  0.00000000000E+00 -0.00000000000E+00 -0.19163999745E+04  0.19163999745E+04  0.25500000000E-02 0.  1.
    -200001    2    1    2    0    0 -0.69950545038E+02  0.20451857785E+03 -0.92486196906E+03  0.11304834531E+04  0.61310867592E+03 0.  0.
   -5000001    2    3    3    0    0 -0.24066635826E+03  0.24436643111E+03 -0.28751050121E+03  0.46179097231E+03  0.11381285144E+03 0.  0.
     200001    1    1    2    0    0  0.69950545038E+02 -0.20451857785E+03 -0.76988036156E+03  0.10075741653E+04  0.61300000000E+03 0.  1.
         13    1    4    4    0    0  0.60559509909E+01  0.31063421255E+02 -0.12163232933E+02  0.33905251538E+02  0.10566000000E+00 0.  1.
    -200003    1    4    4    0    0 -0.24672230925E+03  0.21330300986E+03 -0.27534726828E+03  0.42788572078E+03  0.30000000000E+02 0.  1.
    -200000    1    3    3    0    0  0.17071581322E+03 -0.39847853265E+02 -0.63735146785E+03  0.66869248079E+03  0.10100000000E+03 0.  1.
<mgrwt>
<rscale>  0 0.13035102E+04</rscale>
<asrwt>0</asrwt>
<pdfrwt beam="1">  1        2 0.27377141E+00 0.13035102E+04</pdfrwt>
<pdfrwt beam="2">  1       -2 0.31665379E-01 0.13035102E+04</pdfrwt>
<totfact> 0.80487050E+01</totfact>
</mgrwt>
</event>
<event>
 8    2  0.4306980E-052  0.1724457E+04  0.7818608E-02  0.8747538E-01
         -2   -1    0    0    0  501 -0.00000000000E+00  0.00000000000E+00  0.67133413772E+03  0.67133413772E+03  0.25500000000E-02 0. -1.
          2   -1    0    0  501    0  0.00000000000E+00 -0.00000000000E+00 -0.11074032917E+04  0.11074032917E+04  0.25500000000E-02 0.  1.
    -200001    2    1    2    0    0  0.12137970004E+02  0.50905045440E+03 -0.55631557190E+03  0.97281690207E+03  0.61449655326E+03 0.  0.
   -5000001    2    3    3    0    0 -0.70729057625E+02  0.59249679535E+03 -0.54986681630E+03  0.81766271252E+03  0.10081539404E+03 0.  0.
     200001    1    1    2    0    0 -0.12137970004E+02 -0.50905045440E+03  0.12024641789E+03  0.80592052738E+03  0.61300000000E+03 0. -1.
         13    1    4    4    0    0 -0.69379535918E+02  0.25520360536E+03 -0.20785315559E+03  0.33637084541E+03  0.10566000000E+00 0.  1.
    -200003    1    4    4    0    0 -0.13495217071E+01  0.33729318999E+03 -0.34201366072E+03  0.48129186711E+03  0.30000000000E+02 0.  1.
    -200000    1    3    3    0    0  0.82867027629E+02 -0.83446340952E+02 -0.64487555970E+01  0.15515418955E+03  0.10100000000E+03 0. -1.
<mgrwt>
<rscale>  0 0.17244566E+04</rscale>
<asrwt>0</asrwt>
<pdfrwt beam="1">  1        2 0.15820047E+00 0.17244566E+04</pdfrwt>
<pdfrwt beam="2">  1       -2 0.95904877E-01 0.17244566E+04</pdfrwt>
<totfact> 0.21001778E+01</totfact>
</mgrwt>
</event>
<event>
 8    2  0.4306980E-052  0.1642163E+04  0.7818608E-02  0.8795056E-01
          2   -1    0    0  501    0  0.00000000000E+00  0.00000000000E+00  0.27974693070E+04  0.27974693070E+04  0.25500000000E-02 0.  1.
         -2   -1    0    0    0  501 -0.00000000000E+00 -0.00000000000E+00 -0.24099452700E+03  0.24099452702E+03  0.25500000000E-02 0. -1.
    -200001    2    1    2    0    0 -0.40406180914E+03  0.99786109335E+02  0.19322957884E+04  0.20696544478E+04  0.61357909545E+03 0.  0.
   -5000001    2    3    3    0    0 -0.24232265392E+03  0.81766740339E+02  0.21053242256E+03  0.33727044308E+03  0.63414370586E+02 0.  0.
     200001    1    1    2    0    0  0.40406180914E+03 -0.99786109335E+02  0.62417899162E+03  0.96880938621E+03  0.61300000000E+03 0. -1.
         13    1    4    4    0    0 -0.39234454504E+01  0.12613737004E+02  0.13949954253E+02  0.19212292240E+02  0.10566000000E+00 0.  1.
    -200003    1    4    4    0    0 -0.23839920847E+03  0.69153003335E+02  0.19658246830E+03  0.31805815084E+03  0.30000000000E+02 0.  1.
    -200000    1    3    3    0    0 -0.16173915522E+03  0.18019368996E+02  0.17217633659E+04  0.17323840048E+04  0.10100000000E+03 0.  1.
<mgrwt>
<rscale>  0 0.16421630E+04</rscale>
<asrwt>0</asrwt>
<pdfrwt beam="1">  1        2 0.39963847E+00 0.16421630E+04</pdfrwt>
<pdfrwt beam="2">  1       -2 0.34427790E-01 0.16421630E+04</pdfrwt>
<totfact> 0.23168230E+01</totfact>
</mgrwt>
</event>
<event>
 8    2  0.4306980E-052  0.1546380E+04  0.7818608E-02  0.8854183E-01
         -2   -1    0    0    0  501 -0.00000000000E+00  0.00000000000E+00  0.25032991452E+03  0.25032991453E+03  0.25500000000E-02 0. -1.
          2   -1    0    0  501    0  0.00000000000E+00 -0.00000000000E+00 -0.23881409936E+04  0.23881409936E+04  0.25500000000E-02 0.  1.
    -200001    2    1    2    0    0  0.18150138629E+03 -0.20563653689E+02 -0.32791776929E+03  0.71887501058E+03  0.61309509893E+03 0.  0.
   -5000001    2    3    3    0    0  0.24081559202E+03  0.14621877073E+03 -0.38343097053E+03  0.50764701147E+03  0.17695790691E+03 0.  0.
     200001    1    1    2    0    0 -0.18150138629E+03  0.20563653689E+02 -0.18098933098E+04  0.19195958976E+04  0.61300000000E+03 0.  1.
         13    1    4    4    0    0  0.16477855257E+03  0.11954142065E+03 -0.13376189939E+03  0.24358649291E+03  0.10566000000E+00 0.  1.
    -200003    1    4    4    0    0  0.76037039447E+02  0.26677350081E+02 -0.24966907114E+03  0.26406051855E+03  0.30000000000E+02 0.  1.
    -200000    1    3    3    0    0 -0.59314205723E+02 -0.16678242442E+03  0.55513201236E+02  0.21122799911E+03  0.10100000000E+03 0. -1.
<mgrwt>
<rscale>  0 0.15463805E+04</rscale>
<asrwt>0</asrwt>
<pdfrwt beam="1">  1        2 0.34116299E+00 0.15463805E+04</pdfrwt>
<pdfrwt beam="2">  1       -2 0.35761418E-01 0.15463805E+04</pdfrwt>
<totfact> 0.35814966E+01</totfact>
</mgrwt>
</event>
<event>
 8    2  0.4306980E-052  0.1452824E+04  0.7818608E-02  0.8916445E-01
          2   -1    0    0  501    0  0.00000000000E+00  0.00000000000E+00  0.10092620767E+04  0.10092620767E+04  0.25500000000E-02 0.  1.
         -2   -1    0    0    0  501 -0.00000000000E+00 -0.00000000000E+00 -0.52283174630E+03  0.52283174630E+03  0.25500000000E-02 0. -1.
    -200001    2    1    2    0    0  0.68495520669E+02  0.28347752880E+03  0.51768787463E+03  0.85253721779E+03  0.61136554244E+03 0.  0.
   -5000001    2    3    3    0    0  0.12709002226E+03 -0.14176550282E+03  0.45619497389E+02  0.20653837541E+03  0.65784727930E+02 0.  0.
     200001    1    1    2    0    0 -0.68495520669E+02 -0.28347752880E+03 -0.31257544183E+02  0.67955660526E+03  0.61300000000E+03 0. -1.
         13    1    4    4    0    0 -0.40500696458E+01  0.15620721730E+01 -0.11239188678E+01  0.44852526424E+01  0.10566000000E+00 0.  1.
    -200003    1    4    4    0    0  0.13114009190E+03 -0.14332757499E+03  0.46743416257E+02  0.20205312277E+03  0.30000000000E+02 0.  1.
    -200000    1    3    3    0    0 -0.58594501587E+02  0.42524303162E+03  0.47206837724E+03  0.64599884237E+03  0.10100000000E+03 0.  1.
<mgrwt>
<rscale>  0 0.14528238E+04</rscale>
<asrwt>0</asrwt>
<pdfrwt beam="1">  1        2 0.14418030E+00 0.14528238E+04</pdfrwt>
<pdfrwt beam="2">  1       -2 0.74690248E-01 0.14528238E+04</pdfrwt>
<totfact> 0.43388387E+01</totfact>
</mgrwt>
</event>
<event>
 8    2  0.4306980E-052  0.1444884E+04  0.7818608E-02  0.8921955E-01
          2   -1    0    0  501    0  0.00000000000E+00  0.00000000000E+00  0.13172935954E+04  0.13172935954E+04  0.25500000000E-02 0.  1.
         -2   -1    0    0    0  501 -0.00000000000E+00 -0.00000000000E+00 -0.39620836388E+03  0.39620836389E+03  0.25500000000E-02 0. -1.
    -200001    2    1    2    0    0 -0.20804442049E+03  0.11258018094E+03  0.10299206444E+03  0.66421543595E+03  0.61206045615E+03 0.  0.
   -5000001    2    3    3    0    0 -0.75080107482E+02  0.23254217784E+03 -0.17882065340E+03  0.31537478871E+03  0.88156362546E+02 0.  0.
     200001    1    1    2    0    0  0.20804442049E+03 -0.11258018094E+03  0.81809316703E+03  0.10492865233E+04  0.61300000000E+03 0.  1.
         13    1    4    4    0    0 -0.63098180086E+02  0.12040565975E+03 -0.59226111812E+02  0.14827894899E+03  0.10566000000E+00 0.  1.
    -200003    1    4    4    0    0 -0.11981927396E+02  0.11213651809E+03 -0.11959454158E+03  0.16709583972E+03  0.30000000000E+02 0.  1.
    -200000    1    3    3    0    0 -0.13296431301E+03 -0.11996199690E+03  0.28181271784E+03  0.34884064724E+03  0.10100000000E+03 0.  1.
<mgrwt>
<rscale>  0 0.14448844E+04</rscale>
<asrwt>0</asrwt>
<pdfrwt beam="1">  1        2 0.18818480E+00 0.14448844E+04</pdfrwt>
<pdfrwt beam="2">  1       -2 0.56601195E-01 0.14448844E+04</pdfrwt>
<totfact> 0.52231186E+01</totfact>
</mgrwt>
</event>
<event>
 8    2  0.4306980E-052  0.1510061E+04  0.7818608E-02  0.8877790E-01
          2   -1    0    0  501    0  0.00000000000E+00  0.00000000000E+00  0.22396732473E+04  0.22396732473E+04  0.25500000000E-02 0.  1.
         -2   -1    0    0    0  501 -0.00000000000E+00 -0.00000000000E+00 -0.25453327275E+03  0.25453327276E+03  0.25500000000E-02 0. -1.
    -200001    2    1    2    0    0  0.80892866398E+02 -0.21948134951E+03  0.16099443176E+04  0.17383913974E+04  0.61267301740E+03 0.  0.
   -5000001    2    3    3    0    0  0.56360127814E+02 -0.31910138887E+03  0.15250079828E+04  0.15712352175E+04  0.19526546257E+03 0.  0.
     200001    1    1    2    0    0 -0.80892866398E+02  0.21948134951E+03  0.37519565695E+03  0.75581512264E+03  0.61300000000E+03 0. -1.
         13    1    4    4    0    0 -0.62200400222E+02 -0.62465181268E+02  0.49141305077E+03  0.49925703429E+03  0.10566000000E+00 0.  1.
    -200003    1    4    4    0    0  0.11856052804E+03 -0.25663620760E+03  0.10335949320E+04  0.10719781832E+04  0.30000000000E+02 0.  1.
    -200000    1    3    3    0    0  0.24532738584E+02  0.99620039359E+02  0.84936334816E+02  0.16715617989E+03  0.10100000000E+03 0. -1.
<mgrwt>
<rscale>  0 0.15100614E+04</rscale>
<asrwt>0</asrwt>
<pdfrwt beam="1">  1        2 0.31995331E+00 0.15100614E+04</pdfrwt>
<pdfrwt beam="2">  1       -2 0.36361898E-01 0.15100614E+04</pdfrwt>
<totfact> 0.41539449E+01</totfact>
</mgrwt>
</event>
<event>
 8    2  0.4306980E-052  0.1375687E+04  0.7818608E-02  0.8971608E-01
          2   -1    0    0  501    0  0.00000000000E+00  0.00000000000E+00  0.21187035907E+04  0.21187035907E+04  0.25500000000E-02 0.  1.
         -2   -1    0    0    0  501 -0.00000000000E+00 -0.00000000000E+00 -0.22331044640E+03  0.22331044642E+03  0.25500000000E-02 0. -1.
    -200001    2    1    2    0    0 -0.30411853363E+03  0.31572473058E+02  0.10490708775E+04  0.12532003328E+04  0.61357677957E+03 0.  0.
   -5000001    2    3    3    0    0 -0.17748294988E+03 -0.14619080010E+03  0.96738758779E+03  0.99921310439E+03  0.98570459313E+02 0.  0.
     200001    1    1    2    0    0  0.30411853363E+03 -0.31572473058E+02  0.84632226675E+03  0.10888137043E+04  0.61300000000E+03 0. -1.
         13    1    4    4    0    0 -0.15724667281E+03 -0.11253828824E+03  0.85237805077E+03  0.87403646093E+03  0.10566000000E+00 0.  1.
    -200003    1    4    4    0    0 -0.20236277071E+02 -0.33652511860E+02  0.11500953702E+03  0.12517664347E+03  0.30000000000E+02 0. -1.
    -200000    1    3    3    0    0 -0.12663558374E+03  0.17776327316E+03  0.81683289742E+02  0.25398722838E+03  0.10100000000E+03 0. -1.
<mgrwt>
<rscale>  0 0.13756869E+04</rscale>
<asrwt>0</asrwt>
<pdfrwt beam="1">  1        2 0.30267195E+00 0.13756869E+04</pdfrwt>
<pdfrwt beam="2">  1       -2 0.31901492E-01 0.13756869E+04</pdfrwt>
<totfact> 0.62152119E+01</totfact>
</mgrwt>
</event>
<event>
 8    2  0.4306980E-052  0.1447984E+04  0.7818608E-02  0.8919799E-01
          2   -1    0    0  501    0  0.00000000000E+00  0.00000000000E+00  0.15486531019E+04  0.15486531019E+04  0.25500000000E-02 0.  1.
         -2   -1    0    0    0  501 -0.00000000000E+00 -0.00000000000E+00 -0.33846491020E+03  0.33846491021E+03  0.25500000000E-02 0. -1.
    -200001    2    1    2    0    0 -0.37943818253E+02 -0.12918546180E+03  0.10759766106E+04  0.12453155773E+04  0.61233700168E+03 0.  0.
   -5000001    2    3    3    0    0  0.19829585635E+03  0.95400099553E+02  0.70097856819E+03  0.73829251072E+03  0.72680483554E+02 0.  0.
     200001    1    1    2    0    0  0.37943818253E+02  0.12918546180E+03  0.13421158116E+03  0.64180243487E+03  0.61300000000E+03 0. -1.
         13    1    4    4    0    0  0.13919633307E+03  0.84690673155E+02  0.53460710152E+03  0.55888540276E+03  0.10566000000E+00 0.  1.
    -200003    1    4    4    0    0  0.59099523285E+02  0.10709426397E+02  0.16637146667E+03  0.17940710796E+03  0.30000000000E+02 0. -1.
    -200000    1    3    3    0    0 -0.23623967461E+03 -0.22458556135E+03  0.37499804239E+03  0.50702306656E+03  0.10100000000E+03 0. -1.
<mgrwt>
<rscale>  0 0.14479844E+04</rscale>
<asrwt>0</asrwt>
<pdfrwt beam="1">  1        2 0.22123616E+00 0.14479844E+04</pdfrwt>
<pdfrwt beam="2">  1       -2 0.48352130E-01 0.14479844E+04</pdfrwt>
<totfact> 0.54178519E+01</totfact>
</mgrwt>
</event>
<event>
 8    2  0.4306980E-052  0.2190220E+04  0.7818608E-02  0.8522510E-01
         -2   -1    0    0    0  501 -0.00000000000E+00  0.00000000000E+00  0.97771213673E+03  0.97771213673E+03  0.25500000000E-02 0. -1.
          2   -1    0    0  501    0  0.00000000000E+00 -0.00000000000E+00 -0.12266047392E+04  0.12266047392E+04  0.25500000000E-02 0.  1.
    -200001    2    1    2    0    0  0.54409886655E+03  0.48609519499E+03 -0.66818993802E+03  0.11632062330E+04  0.61175062900E+03 0.  0.
   -5000001    2    3    3    0    0  0.44865231865E+03  0.27104186155E+03 -0.99326179531E+02  0.53937536214E+03  0.79419755747E+02 0.  0.
     200001    1    1    2    0    0 -0.54409886655E+03 -0.48609519499E+03  0.41929733556E+03  0.10411106429E+04  0.61300000000E+03 0.  1.
         13    1    4    4    0    0  0.27059005759E+03  0.13001976567E+03 -0.41365334810E+02  0.30304326559E+03  0.10566000000E+00 0.  1.
    -200003    1    4    4    0    0  0.17806226106E+03  0.14102209588E+03 -0.57960844721E+02  0.23633209655E+03  0.30000000000E+02 0.  1.
    -200000    1    3    3    0    0  0.95446547900E+02  0.21505333345E+03 -0.56886375849E+03  0.62383087088E+03  0.10100000000E+03 0.  1.
<mgrwt>
<rscale>  0 0.21902204E+04</rscale>
<asrwt>0</asrwt>
<pdfrwt beam="1">  1        2 0.17522925E+00 0.21902204E+04</pdfrwt>
<pdfrwt beam="2">  1       -2 0.13967316E+00 0.21902204E+04</pdfrwt>
<totfact> 0.68552684E+00</totfact>
</mgrwt>
</event>
<event>
 8    2  0.4306980E-052  0.1342097E+04  0.7818608E-02  0.8996832E-01
          2   -1    0    0  501    0  0.00000000000E+00  0.00000000000E+00  0.21606892788E+04  0.21606892788E+04  0.25500000000E-02 0.  1.
         -2   -1    0    0    0  501 -0.00000000000E+00 -0.00000000000E+00 -0.20840858659E+03  0.20840858661E+03  0.25500000000E-02 0. -1.
    -200001    2    1    2    0    0  0.16664367187E+03 -0.18862844103E+02  0.13519027861E+04  0.14948275694E+04  0.61542050584E+03 0.  0.
   -5000001    2    3    3    0    0  0.23039023704E+03  0.20837353605E+03  0.10397629639E+04  0.10906837019E+04  0.10947476756E+03 0.  0.
     200001    1    1    2    0    0 -0.16664367187E+03  0.18862844103E+02  0.60037790608E+03  0.87427029594E+03  0.61300000000E+03 0. -1.
         13    1    4    4    0    0  0.15768958979E+03  0.76990598787E+02  0.59213339700E+03  0.61758847952E+03  0.10566000000E+00 0.  1.
    -200003    1    4    4    0    0  0.72700647251E+02  0.13138293726E+03  0.44762956687E+03  0.47309522239E+03  0.30000000000E+02 0. -1.
    -200000    1    3    3    0    0 -0.63746565167E+02 -0.22723638015E+03  0.31213982225E+03  0.40414386754E+03  0.10100000000E+03 0. -1.
<mgrwt>
<rscale>  0 0.13420972E+04</rscale>
<asrwt>0</asrwt>
<pdfrwt beam="1">  1        2 0.30866991E+00 0.13420972E+04</pdfrwt>
<pdfrwt beam="2">  1       -2 0.29772654E-01 0.13420972E+04</pdfrwt>
<totfact> 0.67469857E+01</totfact>
</mgrwt>
</event>
<event>
 8    2  0.4306980E-052  0.1268935E+04  0.7818608E-02  0.9054569E-01
          2   -1    0    0  501    0  0.00000000000E+00  0.00000000000E+00  0.21965147151E+04  0.21965147151E+04  0.25500000000E-02 0.  1.
         -2   -1    0    0    0  501 -0.00000000000E+00 -0.00000000000E+00 -0.18326719127E+03  0.18326719129E+03  0.25500000000E-02 0. -1.
    -200001    2    1    2    0    0  0.48375033587E+02  0.17174571975E+03  0.10287558357E+04  0.12063980732E+04  0.60433517628E+03 0.  0.
   -5000001    2    3    3    0    0  0.26324091851E+03  0.12767370989E+03  0.26996152892E+03  0.41010698908E+03  0.98550281696E+02 0.  0.
     200001    1    1    2    0    0 -0.48375033587E+02 -0.17174571975E+03  0.98449168810E+03  0.11733838332E+04  0.61300000000E+03 0. -1.
         13    1    4    4    0    0  0.24090999577E+03  0.10192455529E+03  0.21349006122E+03  0.33764516647E+03  0.10566000000E+00 0.  1.
    -200003    1    4    4    0    0  0.22330922739E+02  0.25749154603E+02  0.56471467692E+02  0.72461822614E+02  0.30000000000E+02 0. -1.
    -200000    1    3    3    0    0 -0.21486588492E+03  0.44072009857E+02  0.75879430680E+03  0.79629108409E+03  0.10100000000E+03 0.  1.
<mgrwt>
<rscale>  0 0.12689351E+04</rscale>
<asrwt>0</asrwt>
<pdfrwt beam="1">  1        2 0.31378780E+00 0.12689351E+04</pdfrwt>
<pdfrwt beam="2">  1       -2 0.26181029E-01 0.12689351E+04</pdfrwt>
<totfact> 0.82406234E+01</totfact>
</mgrwt>
</event>
<event>
 8    2  0.4306980E-052  0.1456590E+04  0.7818608E-02  0.8913844E-01
          2   -1    0    0  501    0  0.00000000000E+00  0.00000000000E+00  0.32563537749E+03  0.32563537750E+03  0.25500000000E-02 0.  1.
         -2   -1    0    0    0  501 -0.00000000000E+00 -0.00000000000E+00 -0.16288583445E+04  0.16288583445E+04  0.25500000000E-02 0. -1.
    -200001    2    1    2    0    0  0.34279088788E+03  0.32616767903E+02 -0.38874871661E+03  0.80097666490E+03  0.60981030386E+03 0.  0.
   -5000001    2    3    3    0    0 -0.81572232744E+02  0.18712884249E+03 -0.39690276250E+02  0.22132087555E+03  0.75738887516E+02 0.  0.
     200001    1    1    2    0    0 -0.34279088788E+03 -0.32616767903E+02 -0.91447425036E+03  0.11535170571E+04  0.61300000000E+03 0. -1.
         13    1    4    4    0    0 -0.55281602495E+02  0.59680259225E+02 -0.32438504691E+02  0.87578859699E+02  0.10566000000E+00 0.  1.
    -200003    1    4    4    0    0 -0.26290630249E+02  0.12744858326E+03 -0.72517715587E+01  0.13374201585E+03  0.30000000000E+02 0.  1.
    -200000    1    3    3    0    0  0.42436312062E+03 -0.15451207458E+03 -0.34905844036E+03  0.57965578935E+03  0.10100000000E+03 0. -1.
<mgrwt>
<rscale>  0 0.14565904E+04</rscale>
<asrwt>0</asrwt>
<pdfrwt beam="1">  1        2 0.46519340E-01 0.14565904E+04</pdfrwt>
<pdfrwt beam="2">  1       -2 0.23269405E+00 0.14565904E+04</pdfrwt>
<totfact> 0.86935556E+00</totfact>
</mgrwt>
</event>
<event>
 8    2  0.4306980E-052  0.1866197E+04  0.7818608E-02  0.8671868E-01
         -2   -1    0    0    0  501 -0.00000000000E+00  0.00000000000E+00  0.29325526007E+03  0.29325526009E+03  0.25500000000E-02 0. -1.
          2   -1    0    0  501    0  0.00000000000E+00 -0.00000000000E+00 -0.29689916764E+04  0.29689916764E+04  0.25500000000E-02 0.  1.
    -200001    2    1    2    0    0 -0.12283539751E+03 -0.27036377089E+03 -0.22365322720E+03  0.71731745419E+03  0.61346431074E+03 0.  0.
   -5000001    2    3    3    0    0  0.36090053827E+02  0.19495582087E+02  0.16419543788E+03  0.19779524042E+03  0.10237307072E+03 0.  0.
     200001    1    1    2    0    0  0.12283539751E+03  0.27036377089E+03 -0.24520831891E+04  0.25449294823E+04  0.61300000000E+03 0.  1.
         13    1    4    4    0    0 -0.10666086306E+02 -0.72851268046E+01 -0.77918446256E+01  0.15085174058E+02  0.10566000000E+00 0.  1.
    -200003    1    4    4    0    0  0.46756140133E+02  0.26780708892E+02  0.17198728250E+03  0.18271006637E+03  0.30000000000E+02 0.  1.
    -200000    1    3    3    0    0 -0.15892545134E+03 -0.28985935298E+03 -0.38784866508E+03  0.51952221377E+03  0.10100000000E+03 0. -1.
<mgrwt>
<rscale>  0 0.18661966E+04</rscale>
<asrwt>0</asrwt>
<pdfrwt beam="1">  1        2 0.42414165E+00 0.18661966E+04</pdfrwt>
<pdfrwt beam="2">  1       -2 0.41893610E-01 0.18661966E+04</pdfrwt>
<totfact> 0.12505287E+01</totfact>
</mgrwt>
</event>
<event>
 8    2  0.4306980E-052  0.1982573E+04  0.7818608E-02  0.8614812E-01
         -2   -1    0    0    0  501 -0.00000000000E+00  0.00000000000E+00  0.30384204617E+03  0.30384204618E+03  0.25500000000E-02 0. -1.
          2   -1    0    0  501    0  0.00000000000E+00 -0.00000000000E+00 -0.32340785954E+04  0.32340785954E+04  0.25500000000E-02 0.  1.
    -200001    2    1    2    0    0  0.76115207732E+03 -0.15649382259E+03 -0.15619213284E+04  0.18491641924E+04  0.61316162041E+03 0.  0.
   -5000001    2    3    3    0    0  0.80338065008E+03 -0.23763392568E+03 -0.12375069143E+04  0.14972939310E+04  0.92603463563E+02 0.  0.
     200001    1    1    2    0    0 -0.76115207732E+03  0.15649382259E+03 -0.13683152208E+04  0.16887564492E+04  0.61300000000E+03 0. -1.
         13    1    4    4    0    0  0.58891339686E+03 -0.20071439268E+03 -0.94642319250E+03  0.11326173789E+04  0.10566000000E+00 0.  1.
    -200003    1    4    4    0    0  0.21446725322E+03 -0.36919533003E+02 -0.29108372180E+03  0.36467655219E+03  0.30000000000E+02 0. -1.
    -200000    1    3    3    0    0 -0.42228572765E+02  0.81140103095E+02 -0.32441441415E+03  0.35187026131E+03  0.10100000000E+03 0. -1.
<mgrwt>
<rscale>  0 0.19825731E+04</rscale>
<asrwt>0</asrwt>
<pdfrwt beam="1">  1        2 0.46201121E+00 0.19825731E+04</pdfrwt>
<pdfrwt beam="2">  1       -2 0.43406008E-01 0.19825731E+04</pdfrwt>
<totfact> 0.81604408E+00</totfact>
</mgrwt>
</event>
<event>
 8    2  0.4306980E-052  0.2305202E+04  0.7818608E-02  0.8475873E-01
          2   -1    0    0  501    0  0.00000000000E+00  0.00000000000E+00  0.16925101344E+04  0.16925101344E+04  0.25500000000E-02 0.  1.
         -2   -1    0    0    0  501 -0.00000000000E+00 -0.00000000000E+00 -0.78492202922E+03  0.78492202923E+03  0.25500000000E-02 0. -1.
    -200001    2    1    2    0    0 -0.54839659229E+03 -0.60871146051E+03 -0.11557277518E+03  0.10304022221E+04  0.61408729700E+03 0.  0.
   -5000001    2    3    3    0    0 -0.25092514689E+03 -0.57562816510E+03  0.11015738161E+03  0.64215118353E+03  0.76891351793E+02 0.  0.
     200001    1    1    2    0    0  0.54839659229E+03  0.60871146051E+03  0.10231608803E+04  0.14470299415E+04  0.61300000000E+03 0.  1.
         13    1    4    4    0    0 -0.21635919640E+03 -0.48556371915E+03  0.90709440452E+02  0.53926954390E+03  0.10566000000E+00 0.  1.
    -200003    1    4    4    0    0 -0.34565950490E+02 -0.90064445952E+02  0.19447941160E+02  0.10288163963E+03  0.30000000000E+02 0. -1.
    -200000    1    3    3    0    0 -0.29747144540E+03 -0.33083295413E+02 -0.22573015679E+03  0.38825103857E+03  0.10100000000E+03 0. -1.
<mgrwt>
<rscale>  0 0.23052015E+04</rscale>
<asrwt>0</asrwt>
<pdfrwt beam="1">  1        2 0.24178716E+00 0.23052015E+04</pdfrwt>
<pdfrwt beam="2">  1       -2 0.11213172E+00 0.23052015E+04</pdfrwt>
<totfact> 0.66132807E+00</totfact>
</mgrwt>
</event>
<event>
 8    2  0.4306980E-052  0.3565740E+04  0.7818608E-02  0.8098385E-01
          2   -1    0    0  501    0  0.00000000000E+00  0.00000000000E+00  0.25054391023E+04  0.25054391023E+04  0.25500000000E-02 0.  1.
         -2   -1    0    0    0  501 -0.00000000000E+00 -0.00000000000E+00 -0.12686901675E+04  0.12686901675E+04  0.25500000000E-02 0. -1.
    -200001    2    1    2    0    0  0.16385825434E+04  0.31223204492E+03  0.46508615597E+03  0.18366891945E+04  0.61211147967E+03 0.  0.
   -5000001    2    3    3    0    0  0.63818589738E+03 -0.10885079284E+03  0.31471458075E+01  0.65275809237E+03  0.83387576491E+02 0.  0.
     200001    1    1    2    0    0 -0.16385825434E+04 -0.31223204492E+03  0.77166277886E+03  0.19374400753E+04  0.61300000000E+03 0.  1.
         13    1    4    4    0    0  0.24486977744E+03 -0.76580194668E+02  0.12521902466E+02  0.25687067432E+03  0.10566000000E+00 0.  1.
    -200003    1    4    4    0    0  0.39331611994E+03 -0.32270598171E+02 -0.93747566583E+01  0.39588741805E+03  0.30000000000E+02 0.  1.
    -200000    1    3    3    0    0  0.10003966460E+04  0.42108283776E+03  0.46193901016E+03  0.11839311021E+04  0.10100000000E+03 0. -1.
<mgrwt>
<rscale>  0 0.35657403E+04</rscale>
<asrwt>0</asrwt>
<pdfrwt beam="1">  1        2 0.35791987E+00 0.35657403E+04</pdfrwt>
<pdfrwt beam="2">  1       -2 0.18124145E+00 0.35657403E+04</pdfrwt>
<totfact> 0.64260454E-01</totfact>
</mgrwt>
</event>
<event>
 8    2  0.4306980E-052  0.1697925E+04  0.7818608E-02  0.8762548E-01
          2   -1    0    0  501    0  0.00000000000E+00  0.00000000000E+00  0.11069870069E+04  0.11069870069E+04  0.25500000000E-02 0.  1.
         -2   -1    0    0    0  501 -0.00000000000E+00 -0.00000000000E+00 -0.65108047218E+03  0.65108047219E+03  0.25500000000E-02 0. -1.
    -200001    2    1    2    0    0  0.26536302749E+03 -0.14470390475E+03 -0.29350615538E+03  0.74379673788E+03  0.61296897771E+03 0.  0.
   -5000001    2    3    3    0    0 -0.11137631930E+03 -0.97713592842E+02  0.93388956534E+02  0.19240807963E+03  0.79666436958E+02 0.  0.
     200001    1    1    2    0    0 -0.26536302749E+03  0.14470390475E+03  0.74941269014E+03  0.10142707412E+04  0.61300000000E+03 0.  1.
         13    1    4    4    0    0 -0.38084322078E+02 -0.65766605248E+02  0.17097565767E+02  0.77897367563E+02  0.10566000000E+00 0.  1.
    -200003    1    4    4    0    0 -0.73291997219E+02 -0.31946987593E+02  0.76291390767E+02  0.11451071207E+03  0.30000000000E+02 0.  1.
    -200000    1    3    3    0    0  0.37673934679E+03 -0.46990311913E+02 -0.38689511191E+03  0.55138865826E+03  0.10100000000E+03 0. -1.
<mgrwt>
<rscale>  0 0.16979253E+04</rscale>
<asrwt>0</asrwt>
<pdfrwt beam="1">  1        2 0.15814100E+00 0.16979253E+04</pdfrwt>
<pdfrwt beam="2">  1       -2 0.93011497E-01 0.16979253E+04</pdfrwt>
<totfact> 0.22616836E+01</totfact>
</mgrwt>
</event>
<event>
 8    2  0.4306980E-052  0.1689465E+04  0.7818608E-02  0.8767396E-01
          2   -1    0    0  501    0  0.00000000000E+00  0.00000000000E+00  0.34659559444E+04  0.34659559444E+04  0.25500000000E-02 0.  1.
         -2   -1    0    0    0  501 -0.00000000000E+00 -0.00000000000E+00 -0.20588061586E+03  0.20588061587E+03  0.25500000000E-02 0. -1.
    -200001    2    1    2    0    0  0.41663609151E+03 -0.99512789021E+02  0.77637225158E+03  0.10779903038E+04  0.61304224491E+03 0.  0.
   -5000001    2    3    3    0    0  0.55349290570E+03 -0.11695770458E+03  0.54149438302E+03  0.78746883156E+03  0.82809978400E+02 0.  0.
     200001    1    1    2    0    0 -0.41663609151E+03  0.99512789021E+02  0.24837030770E+04  0.25938462565E+04  0.61300000000E+03 0.  1.
         13    1    4    4    0    0  0.38032285379E+03 -0.79525164325E+02  0.40956087918E+03  0.56454393079E+03  0.10566000000E+00 0.  1.
    -200003    1    4    4    0    0  0.17317005191E+03 -0.37432540255E+02  0.13193350383E+03  0.22292490077E+03  0.30000000000E+02 0.  1.
    -200000    1    3    3    0    0 -0.13685681418E+03  0.17444915559E+02  0.23487786857E+03  0.29052147220E+03  0.10100000000E+03 0.  1.
<mgrwt>
<rscale>  0 0.16894652E+04</rscale>
<asrwt>0</asrwt>
<pdfrwt beam="1">  1        2 0.49513659E+00 0.16894652E+04</pdfrwt>
<pdfrwt beam="2">  1       -2 0.29411515E-01 0.16894652E+04</pdfrwt>
<totfact> 0.12892639E+01</totfact>
</mgrwt>
</event>
<event>
 8    2  0.4306980E-052  0.1407806E+04  0.7818608E-02  0.8948187E-01
         -2   -1    0    0    0  501 -0.00000000000E+00  0.00000000000E+00  0.20316500714E+03  0.20316500715E+03  0.25500000000E-02 0. -1.
          2   -1    0    0  501    0  0.00000000000E+00 -0.00000000000E+00 -0.24388029678E+04  0.24388029678E+04  0.25500000000E-02 0.  1.
    -200001    2    1    2    0    0 -0.52022409854E+01  0.21679184252E+03 -0.61016572660E+03  0.89126675830E+03  0.61239566804E+03 0.  0.
   -5000001    2    3    3    0    0  0.22062459595E+03  0.20017892960E+03 -0.11125571062E+03  0.33414383362E+03  0.10260337327E+03 0.  0.
     200001    1    1    2    0    0  0.52022409854E+01 -0.21679184252E+03 -0.16254722341E+04  0.17507012167E+04  0.61300000000E+03 0.  1.
         13    1    4    4    0    0  0.28554098960E+02  0.67427862690E+02 -0.56420306423E+02  0.92439793245E+02  0.10566000000E+00 0.  1.
    -200003    1    4    4    0    0  0.19207049699E+03  0.13275106691E+03 -0.54835404197E+02  0.24170404038E+03  0.30000000000E+02 0.  1.
    -200000    1    3    3    0    0 -0.22582683693E+03  0.16612912914E+02 -0.49891001598E+03  0.55712292468E+03  0.10100000000E+03 0. -1.
<mgrwt>
<rscale>  0 0.14078060E+04</rscale>
<asrwt>0</asrwt>
<pdfrwt beam="1">  1        2 0.34840041E+00 0.14078060E+04</pdfrwt>
<pdfrwt beam="2">  1       -2 0.29023574E-01 0.14078060E+04</pdfrwt>
<totfact> 0.50516188E+01</totfact>
</mgrwt>
</event>
<event>
 8    2  0.4306980E-052  0.1651039E+04  0.7818608E-02  0.8789792E-01
          2   -1    0    0  501    0  0.00000000000E+00  0.00000000000E+00  0.18324105445E+04  0.18324105445E+04  0.25500000000E-02 0.  1.
         -2   -1    0    0    0  501 -0.00000000000E+00 -0.00000000000E+00 -0.37190490206E+03  0.37190490206E+03  0.25500000000E-02 0. -1.
    -200001    2    1    2    0    0 -0.13192929806E+03  0.41890695373E+03  0.11782527615E+04  0.13991297137E+04  0.61351121442E+03 0.  0.
   -5000001    2    3    3    0    0  0.13272167042E+03  0.36872666254E+03  0.81448254791E+03  0.93535394349E+03  0.24068814948E+03 0.  0.
     200001    1    1    2    0    0  0.13192929806E+03 -0.41890695373E+03  0.28225288090E+03  0.80518573282E+03  0.61300000000E+03 0. -1.
         13    1    4    4    0    0  0.10631759982E+03  0.19240611094E+02  0.18368286955E+03  0.21310335726E+03  0.10566000000E+00 0.  1.
    -200003    1    4    4    0    0  0.26404070599E+02  0.34948605144E+03  0.63079967836E+03  0.72225058623E+03  0.30000000000E+02 0.  1.
    -200000    1    3    3    0    0 -0.26465096847E+03  0.50180291188E+02  0.36377021363E+03  0.46377577024E+03  0.10100000000E+03 0. -1.
<mgrwt>
<rscale>  0 0.16510390E+04</rscale>
<asrwt>0</asrwt>
<pdfrwt beam="1">  1        2 0.26177294E+00 0.16510390E+04</pdfrwt>
<pdfrwt beam="2">  1       -2 0.53129272E-01 0.16510390E+04</pdfrwt>
<totfact> 0.31305550E+01</totfact>
</mgrwt>
</event>
<event>
 8    2  0.4306980E-052  0.1236764E+04  0.7818608E-02  0.9081272E-01
         -2   -1    0    0    0  501 -0.00000000000E+00  0.00000000000E+00  0.25287384720E+03  0.25287384721E+03  0.25500000000E-02 0. -1.
          2   -1    0    0  501    0  0.00000000000E+00 -0.00000000000E+00 -0.15122029351E+04  0.15122029351E+04  0.25500000000E-02 0.  1.
    -200001    2    1    2    0    0 -0.65622938041E+02  0.63122277271E+02 -0.62288248181E+03  0.87675022395E+03  0.61026025364E+03 0.  0.
   -5000001    2    3    3    0    0 -0.55487065966E+02  0.14921780980E+03 -0.70019550984E+03  0.72282335519E+03  0.82795419840E+02 0.  0.
     200001    1    1    2    0    0  0.65622938041E+02 -0.63122277271E+02 -0.63644660609E+03  0.88832655836E+03  0.61300000000E+03 0. -1.
         13    1    4    4    0    0 -0.23811145394E+02  0.77850060125E+02 -0.20430449482E+03  0.21992712491E+03  0.10566000000E+00 0.  1.
    -200003    1    4    4    0    0 -0.31675920572E+02  0.71367749672E+02 -0.49589101503E+03  0.50289623027E+03  0.30000000000E+02 0.  1.
    -200000    1    3    3    0    0 -0.10135872075E+02 -0.86095532526E+02  0.77313028038E+02  0.15392686877E+03  0.10100000000E+03 0. -1.
<mgrwt>
<rscale>  0 0.12367644E+04</rscale>
<asrwt>0</asrwt>
<pdfrwt beam="1">  1        2 0.21602899E+00 0.12367644E+04</pdfrwt>
<pdfrwt beam="2">  1       -2 0.36124836E-01 0.12367644E+04</pdfrwt>
<totfact> 0.10213624E+02</totfact>
</mgrwt>
</event>
<event>
 8    2  0.4306980E-052  0.1283507E+04  0.7818608E-02  0.9042747E-01
          2   -1    0    0  501    0  0.00000000000E+00  0.00000000000E+00  0.44366073237E+04  0.44366073237E+04  0.25500000000E-02 0.  1.
         -2   -1    0    0    0  501 -0.00000000000E+00 -0.00000000000E+00 -0.92829429713E+02  0.92829429748E+02  0.25500000000E-02 0. -1.
    -200001    2    1    2    0    0 -0.63073447255E+02  0.64255699587E+02  0.15830301601E+04  0.17000191270E+04  0.61316677154E+03 0.  0.
   -5000001    2    3    3    0    0  0.10454276025E+03 -0.73909181762E+01  0.39960625124E+02  0.14294076654E+03  0.88608107908E+02 0.  0.
     200001    1    1    2    0    0  0.63073447255E+02 -0.64255699587E+02  0.27607477339E+04  0.28294176264E+04  0.61300000000E+03 0.  1.
         13    1    4    4    0    0  0.84505430196E+02 -0.34293948897E+02  0.34922256520E+02  0.97656632278E+02  0.10566000000E+00 0.  1.
    -200003    1    4    4    0    0  0.20037330052E+02  0.26903030721E+02  0.50383686038E+01  0.45284134261E+02  0.30000000000E+02 0.  1.
    -200000    1    3    3    0    0 -0.16761620750E+03  0.71646617763E+02  0.15430695350E+04  0.15570783605E+04  0.10100000000E+03 0.  1.
<mgrwt>
<rscale>  0 0.12835073E+04</rscale>
<asrwt>0</asrwt>
<pdfrwt beam="1">  1        2 0.63380122E+00 0.12835073E+04</pdfrwt>
<pdfrwt beam="2">  1       -2 0.13261343E-01 0.12835073E+04</pdfrwt>
<totfact> 0.12020021E+01</totfact>
</mgrwt>
</event>
<event>
 8    2  0.4306980E-052  0.1752342E+04  0.7818608E-02  0.8732062E-01
         -2   -1    0    0    0  501 -0.00000000000E+00  0.00000000000E+00  0.43044097206E+03  0.43044097207E+03  0.25500000000E-02 0. -1.
          2   -1    0    0  501    0  0.00000000000E+00 -0.00000000000E+00 -0.17834623033E+04  0.17834623033E+04  0.25500000000E-02 0.  1.
    -200001    2    1    2    0    0 -0.60966230281E+03  0.82541051525E+02 -0.82730513235E+03  0.11986950847E+04  0.61150222841E+03 0.  0.
   -5000001    2    3    3    0    0 -0.46509534627E+03 -0.36300849931E+02 -0.16391412683E+03  0.50205197039E+03  0.86930473217E+02 0.  0.
     200001    1    1    2    0    0  0.60966230281E+03 -0.82541051525E+02 -0.52571619885E+03  0.10152081907E+04  0.61300000000E+03 0. -1.
         13    1    4    4    0    0 -0.20279197286E+03 -0.54153485953E+02 -0.75107122555E+02  0.22293109994E+03  0.10566000000E+00 0.  1.
    -200003    1    4    4    0    0 -0.26230337341E+03  0.17852636021E+02 -0.88807004273E+02  0.27912087046E+03  0.30000000000E+02 0.  1.
    -200000    1    3    3    0    0 -0.14456695654E+03  0.11884190146E+03 -0.66339100552E+03  0.69664311427E+03  0.10100000000E+03 0. -1.
<mgrwt>
<rscale>  0 0.17523416E+04</rscale>
<asrwt>0</asrwt>
<pdfrwt beam="1">  1        2 0.25478032E+00 0.17523416E+04</pdfrwt>
<pdfrwt beam="2">  1       -2 0.61491569E-01 0.17523416E+04</pdfrwt>
<totfact> 0.24245201E+01</totfact>
</mgrwt>
</event>
<event>
 8    2  0.4306980E-052  0.1359118E+04  0.7818608E-02  0.8983954E-01
         -2   -1    0    0    0  501 -0.00000000000E+00  0.00000000000E+00  0.30324581098E+03  0.30324581099E+03  0.25500000000E-02 0. -1.
          2   -1    0    0  501    0  0.00000000000E+00 -0.00000000000E+00 -0.15228595111E+04  0.15228595111E+04  0.25500000000E-02 0.  1.
    -200001    2    1    2    0    0  0.43065864899E+02  0.13175814351E+03 -0.95532820711E+03  0.11443203861E+04  0.61449351961E+03 0.  0.
   -5000001    2    3    3    0    0 -0.10545616357E+03  0.87946288840E+02  0.13919110805E+02  0.15759872584E+03  0.76079330851E+02 0.  0.
     200001    1    1    2    0    0 -0.43065864899E+02 -0.13175814351E+03 -0.26428549297E+03  0.68178493596E+03  0.61300000000E+03 0. -1.
         13    1    4    4    0    0 -0.84249430788E+02  0.73140286224E+02  0.28899955987E+02  0.11525053873E+03  0.10566000000E+00 0.  1.
    -200003    1    4    4    0    0 -0.21206732787E+02  0.14806002615E+02 -0.14980845181E+02  0.42348187107E+02  0.30000000000E+02 0.  1.
    -200000    1    3    3    0    0  0.14852202847E+03  0.43811854667E+02 -0.96924731791E+03  0.98672166026E+03  0.10100000000E+03 0.  1.
<mgrwt>
<rscale>  0 0.13591185E+04</rscale>
<asrwt>0</asrwt>
<pdfrwt beam="1">  1        2 0.21755135E+00 0.13591185E+04</pdfrwt>
<pdfrwt beam="2">  1       -2 0.43320831E-01 0.13591185E+04</pdfrwt>
<totfact> 0.70130801E+01</totfact>
</mgrwt>
</event>
<event>
 8    2  0.4306980E-052  0.1387084E+04  0.7818608E-02  0.8963221E-01
         -2   -1    0    0    0  501 -0.00000000000E+00  0.00000000000E+00  0.36037533367E+03  0.36037533368E+03  0.25500000000E-02 0. -1.
          2   -1    0    0  501    0  0.00000000000E+00 -0.00000000000E+00 -0.13347210349E+04  0.13347210349E+04  0.25500000000E-02 0.  1.
    -200001    2    1    2    0    0  0.20227365275E+03  0.17489235256E+03 -0.26288039931E+03  0.71864675830E+03  0.61306206317E+03 0.  0.
   -5000001    2    3    3    0    0  0.11373789430E+03 -0.15944654384E+03 -0.28999620800E+03  0.35731955859E+03  0.72249272335E+02 0.  0.
     200001    1    1    2    0    0 -0.20227365275E+03 -0.17489235256E+03 -0.71146530193E+03  0.97644961028E+03  0.61300000000E+03 0. -1.
         13    1    4    4    0    0 -0.85678473009E+00 -0.40119439819E+02 -0.46641595087E+02  0.61528473797E+02  0.10566000000E+00 0.  1.
    -200003    1    4    4    0    0  0.11459467903E+03 -0.11932710402E+03 -0.24335461291E+03  0.29579108479E+03  0.30000000000E+02 0.  1.
    -200000    1    3    3    0    0  0.88535758449E+02  0.33433889640E+03  0.27115808688E+02  0.36132719971E+03  0.10100000000E+03 0. -1.
<mgrwt>
<rscale>  0 0.13870840E+04</rscale>
<asrwt>0</asrwt>
<pdfrwt beam="1">  1        2 0.19067443E+00 0.13870840E+04</pdfrwt>
<pdfrwt beam="2">  1       -2 0.51482191E-01 0.13870840E+04</pdfrwt>
<totfact> 0.62421039E+01</totfact>
</mgrwt>
</event>
<event>
 8    2  0.4306980E-052  0.1477656E+04  0.7818608E-02  0.8899449E-01
         -2   -1    0    0    0  501 -0.00000000000E+00  0.00000000000E+00  0.31213219665E+03  0.31213219666E+03  0.25500000000E-02 0. -1.
          2   -1    0    0  501    0  0.00000000000E+00 -0.00000000000E+00 -0.17488322229E+04  0.17488322229E+04  0.25500000000E-02 0.  1.
    -200001    2    1    2    0    0  0.76416098025E+02 -0.15564038247E+03 -0.19716937998E+03  0.66731145998E+03  0.61348632546E+03 0.  0.
   -5000001    2    3    3    0    0  0.29785085098E+03  0.57743994178E+02 -0.71201986376E+02  0.31998592642E+03  0.72606969047E+02 0.  0.
     200001    1    1    2    0    0 -0.76416098025E+02  0.15564038247E+03 -0.12395306463E+04  0.13936529596E+04  0.61300000000E+03 0.  1.
         13    1    4    4    0    0  0.17277939332E+03  0.16711348765E+02 -0.16675598561E+02  0.17438484649E+03  0.10566000000E+00 0.  1.
    -200003    1    4    4    0    0  0.12507145765E+03  0.41032645413E+02 -0.54526387815E+02  0.14560107993E+03  0.30000000000E+02 0. -1.
    -200000    1    3    3    0    0 -0.22143475295E+03 -0.21338437665E+03 -0.12596739361E+03  0.34732553356E+03  0.10100000000E+03 0.  1.
<mgrwt>
<rscale>  0 0.14776560E+04</rscale>
<asrwt>0</asrwt>
<pdfrwt beam="1">  1        2 0.24983317E+00 0.14776560E+04</pdfrwt>
<pdfrwt beam="2">  1       -2 0.44590315E-01 0.14776560E+04</pdfrwt>
<totfact> 0.49994361E+01</totfact>
</mgrwt>
</event>
<event>
 8    2  0.4306980E-052  0.1451536E+04  0.7818608E-02  0.8917337E-01
         -2   -1    0    0    0  501 -0.00000000000E+00  0.00000000000E+00  0.27997134749E+03  0.27997134750E+03  0.25500000000E-02 0. -1.
          2   -1    0    0  501    0  0.00000000000E+00 -0.00000000000E+00 -0.18814031289E+04  0.18814031289E+04  0.25500000000E-02 0.  1.
    -200001    2    1    2    0    0 -0.27030737404E+03  0.26498692275E+03 -0.93137089513E+03  0.11774869132E+04  0.61297597081E+03 0.  0.
   -5000001    2    3    3    0    0  0.59966977138E+02 -0.87320503762E+01 -0.63842181674E+03  0.64831455393E+03  0.95168575181E+02 0.  0.
     200001    1    1    2    0    0  0.27030737404E+03 -0.26498692275E+03 -0.67006088625E+03  0.98388756318E+03  0.61300000000E+03 0. -1.
         13    1    4    4    0    0  0.32338930269E+02  0.20328725784E+02 -0.49365800391E+03  0.49513361782E+03  0.10566000000E+00 0.  1.
    -200003    1    4    4    0    0  0.27628046869E+02 -0.29060776160E+02 -0.14476381282E+03  0.15318093611E+03  0.30000000000E+02 0.  1.
    -200000    1    3    3    0    0 -0.33027435117E+03  0.27371897313E+03 -0.29294907840E+03  0.52917235928E+03  0.10100000000E+03 0. -1.
<mgrwt>
<rscale>  0 0.14515357E+04</rscale>
<asrwt>0</asrwt>
<pdfrwt beam="1">  1        2 0.26877187E+00 0.14515357E+04</pdfrwt>
<pdfrwt beam="2">  1       -2 0.39995908E-01 0.14515357E+04</pdfrwt>
<totfact> 0.53038102E+01</totfact>
</mgrwt>
</event>
<event>
 8    2  0.4306980E-052  0.1713200E+04  0.7818608E-02  0.8753871E-01
         -2   -1    0    0    0  501 -0.00000000000E+00  0.00000000000E+00  0.31618276923E+03  0.31618276924E+03  0.25500000000E-02 0. -1.
          2   -1    0    0  501    0  0.00000000000E+00 -0.00000000000E+00 -0.23206949565E+04  0.23206949565E+04  0.25500000000E-02 0.  1.
    -200001    2    1    2    0    0  0.20712848598E+03  0.30888387017E+03 -0.28195233024E+03  0.77105540944E+03  0.61377347038E+03 0.  0.
   -5000001    2    3    3    0    0  0.35220665105E+03  0.29614273054E+03 -0.36674129443E+02  0.46844607977E+03  0.79666153345E+02 0.  0.
     200001    1    1    2    0    0 -0.20712848598E+03 -0.30888387017E+03 -0.17225598570E+04  0.18658223163E+04  0.61300000000E+03 0.  1.
         13    1    4    4    0    0  0.24662459562E+03  0.16917561579E+03 -0.18783545673E+02  0.29966133033E+03  0.10566000000E+00 0.  1.
    -200003    1    4    4    0    0  0.10558205543E+03  0.12696711476E+03 -0.17890583769E+02  0.16878474945E+03  0.30000000000E+02 0.  1.
    -200000    1    3    3    0    0 -0.14507816506E+03  0.12741139630E+02 -0.24527820079E+03  0.30260932967E+03  0.10100000000E+03 0. -1.
<mgrwt>
<rscale>  0 0.17132002E+04</rscale>
<asrwt>0</asrwt>
<pdfrwt beam="1">  1        2 0.33152784E+00 0.17132002E+04</pdfrwt>
<pdfrwt beam="2">  1       -2 0.45168968E-01 0.17132002E+04</pdfrwt>
<totfact> 0.24252152E+01</totfact>
</mgrwt>
</event>
<event>
 8    2  0.4306980E-052  0.1947093E+04  0.7818608E-02  0.8631764E-01
          2   -1    0    0  501    0  0.00000000000E+00  0.00000000000E+00  0.16572855197E+04  0.16572855197E+04  0.25500000000E-02 0.  1.
         -2   -1    0    0    0  501 -0.00000000000E+00 -0.00000000000E+00 -0.57189485577E+03  0.57189485577E+03  0.25500000000E-02 0. -1.
    -200001    2    1    2    0    0  0.21914299020E+03 -0.41886819709E+03 -0.13496306966E+03  0.78401379276E+03  0.61072774653E+03 0.  0.
   -5000001    2    3    3    0    0  0.19729151956E+03  0.13692635078E+01 -0.16224067584E+03  0.35039866635E+03  0.23985697803E+03 0.  0.
     200001    1    1    2    0    0 -0.21914299020E+03  0.41886819709E+03  0.12203537336E+04  0.14451665827E+04  0.61300000000E+03 0.  1.
         13    1    4    4    0    0  0.19040545374E+03 -0.69303330038E+02 -0.41006896687E+02  0.20673356068E+03  0.10566000000E+00 0.  1.
    -200003    1    4    4    0    0  0.68860658177E+01  0.70672593545E+02 -0.12123377915E+03  0.14366510567E+03  0.30000000000E+02 0.  1.
    -200000    1    3    3    0    0  0.21851470636E+02 -0.42023746060E+03  0.27277606174E+02  0.43361512642E+03  0.10100000000E+03 0. -1.
<mgrwt>
<rscale>  0 0.19470933E+04</rscale>
<asrwt>0</asrwt>
<pdfrwt beam="1">  1        2 0.23675508E+00 0.19470933E+04</pdfrwt>
<pdfrwt beam="2">  1       -2 0.81699263E-01 0.19470933E+04</pdfrwt>
<totfact> 0.14907453E+01</totfact>
</mgrwt>
</event>
<event>
 8    2  0.4306980E-052  0.2015724E+04  0.7818608E-02  0.8599304E-01
         -2   -1    0    0    0  501 -0.00000000000E+00  0.00000000000E+00  0.56484298925E+03  0.56484298926E+03  0.25500000000E-02 0. -1.
          2   -1    0    0  501    0  0.00000000000E+00 -0.00000000000E+00 -0.17983503737E+04  0.17983503737E+04  0.25500000000E-02 0.  1.
    -200001    2    1    2    0    0  0.38832044580E+03 -0.59857630052E+03 -0.10404489565E+04  0.14029189684E+04  0.61364586257E+03 0.  0.
   -5000001    2    3    3    0    0 -0.12074987459E+03 -0.16608496981E+03 -0.46548634432E+03  0.51579758570E+03  0.84881465928E+02 0.  0.
     200001    1    1    2    0    0 -0.38832044580E+03  0.59857630052E+03 -0.19305842788E+03  0.96027439451E+03  0.61300000000E+03 0. -1.
         13    1    4    4    0    0 -0.20371344218E+02 -0.83485384762E+02 -0.14345006895E+03  0.16722061649E+03  0.10566000000E+00 0.  1.
    -200003    1    4    4    0    0 -0.10037853037E+03 -0.82599585044E+02 -0.32203627538E+03  0.34857696921E+03  0.30000000000E+02 0.  1.
    -200000    1    3    3    0    0  0.50907032039E+03 -0.43249133071E+03 -0.57496261221E+03  0.88712138272E+03  0.10100000000E+03 0. -1.
<mgrwt>
<rscale>  0 0.20157238E+04</rscale>
<asrwt>0</asrwt>
<pdfrwt beam="1">  1        2 0.25690719E+00 0.20157238E+04</pdfrwt>
<pdfrwt beam="2">  1       -2 0.80691856E-01 0.20157238E+04</pdfrwt>
<totfact> 0.12878346E+01</totfact>
</mgrwt>
</event>
<event>
 8    2  0.4306980E-052  0.1406676E+04  0.7818608E-02  0.8949000E-01
          2   -1    0    0  501    0  0.00000000000E+00  0.00000000000E+00  0.33536233995E+04  0.33536233995E+04  0.25500000000E-02 0.  1.
         -2   -1    0    0    0  501 -0.00000000000E+00 -0.00000000000E+00 -0.14750749940E+03  0.14750749943E+03  0.25500000000E-02 0. -1.
    -200001    2    1    2    0    0 -0.54981481577E+02  0.32489182900E+03  0.13562325330E+04  0.15246655854E+04  0.61372697492E+03 0.  0.
   -5000001    2    3    3    0    0 -0.22034954819E+03 -0.60360869577E+02  0.31277418028E+03  0.39560731712E+03  0.80499090329E+02 0.  0.
     200001    1    1    2    0    0  0.54981481577E+02 -0.32489182900E+03  0.18498833671E+04  0.19764653135E+04  0.61300000000E+03 0.  1.
         13    1    4    4    0    0 -0.15962269119E+03 -0.48533012188E+02  0.26002479742E+03  0.30894621417E+03  0.10566000000E+00 0.  1.
    -200003    1    4    4    0    0 -0.60726857000E+02 -0.11827857389E+02  0.52749382860E+02  0.86661102945E+02  0.30000000000E+02 0.  1.
    -200000    1    3    3    0    0  0.16536806662E+03  0.38525269858E+03  0.10434583527E+04  0.11290582683E+04  0.10100000000E+03 0.  1.
<mgrwt>
<rscale>  0 0.14066764E+04</rscale>
<asrwt>0</asrwt>
<pdfrwt beam="1">  1        2 0.47908907E+00 0.14066764E+04</pdfrwt>
<pdfrwt beam="2">  1       -2 0.21072499E-01 0.14066764E+04</pdfrwt>
<totfact> 0.28278808E+01</totfact>
</mgrwt>
</event>
<event>
 8    2  0.4306980E-052  0.1425825E+04  0.7818608E-02  0.8935335E-01
          2   -1    0    0  501    0  0.00000000000E+00  0.00000000000E+00  0.17397177067E+04  0.17397177067E+04  0.25500000000E-02 0.  1.
         -2   -1    0    0    0  501 -0.00000000000E+00 -0.00000000000E+00 -0.29214161393E+03  0.29214161394E+03  0.25500000000E-02 0. -1.
    -200001    2    1    2    0    0  0.34724672290E+01  0.25242620678E+02  0.12410577304E+04  0.13845046404E+04  0.61317172251E+03 0.  0.
   -5000001    2    3    3    0    0 -0.15320578552E+03 -0.64573081421E+02  0.11382916085E+04  0.11534704200E+04  0.84525310631E+02 0.  0.
     200001    1    1    2    0    0 -0.34724672290E+01 -0.25242620678E+02  0.20651836231E+03  0.64735468014E+03  0.61300000000E+03 0. -1.
         13    1    4    4    0    0 -0.14009859905E+03 -0.60935116875E+02  0.89253824737E+03  0.90551932067E+03  0.10566000000E+00 0.  1.
    -200003    1    4    4    0    0 -0.13107186471E+02 -0.36379645464E+01  0.24575336115E+03  0.24795109929E+03  0.30000000000E+02 0. -1.
    -200000    1    3    3    0    0  0.15667825275E+03  0.89815702100E+02  0.10276612189E+03  0.23103422049E+03  0.10100000000E+03 0. -1.
<mgrwt>
<rscale>  0 0.14258246E+04</rscale>
<asrwt>0</asrwt>
<pdfrwt beam="1">  1        2 0.24853111E+00 0.14258246E+04</pdfrwt>
<pdfrwt beam="2">  1       -2 0.41734515E-01 0.14258246E+04</pdfrwt>
<totfact> 0.57850390E+01</totfact>
</mgrwt>
</event>
<event>
 8    2  0.4306980E-052  0.1700607E+04  0.7818608E-02  0.8761018E-01
         -2   -1    0    0    0  501 -0.00000000000E+00  0.00000000000E+00  0.45826098785E+03  0.45826098786E+03  0.25500000000E-02 0. -1.
          2   -1    0    0  501    0  0.00000000000E+00 -0.00000000000E+00 -0.15777384390E+04  0.15777384390E+04  0.25500000000E-02 0.  1.
    -200001    2    1    2    0    0  0.35284643176E+03  0.42897766913E+03 -0.79527393854E+03  0.11475179343E+04  0.61303697054E+03 0.  0.
   -5000001    2    3    3    0    0 -0.36365298193E+02  0.38561678570E+03 -0.28329362779E+03  0.49506810826E+03  0.12171446889E+03 0.  0.
     200001    1    1    2    0    0 -0.35284643176E+03 -0.42897766913E+03 -0.32420351264E+03  0.88848149256E+03  0.61300000000E+03 0. -1.
         13    1    4    4    0    0  0.35677909145E+02  0.20062778246E+03 -0.16358763421E+03  0.26131464851E+03  0.10566000000E+00 0.  1.
    -200003    1    4    4    0    0 -0.72043207338E+02  0.18498900324E+03 -0.11970599358E+03  0.23375345975E+03  0.30000000000E+02 0.  1.
    -200000    1    3    3    0    0  0.38921172995E+03  0.43360883435E+02 -0.51198031074E+03  0.65244982606E+03  0.10100000000E+03 0.  1.
<mgrwt>
<rscale>  0 0.17006069E+04</rscale>
<asrwt>0</asrwt>
<pdfrwt beam="1">  1        2 0.22539120E+00 0.17006069E+04</pdfrwt>
<pdfrwt beam="2">  1       -2 0.65465856E-01 0.17006069E+04</pdfrwt>
<totfact> 0.27261943E+01</totfact>
</mgrwt>
</event>
<event>
 8    2  0.4306980E-052  0.2715680E+04  0.7818608E-02  0.8329935E-01
         -2   -1    0    0    0  501 -0.00000000000E+00  0.00000000000E+00  0.10444997600E+04  0.10444997600E+04  0.25500000000E-02 0. -1.
          2   -1    0    0  501    0  0.00000000000E+00 -0.00000000000E+00 -0.17651791918E+04  0.17651791918E+04  0.25500000000E-02 0.  1.
    -200001    2    1    2    0    0  0.16254033560E+03  0.11259407421E+04  0.71586394469E+02  0.12938900302E+04  0.61226210314E+03 0.  0.
   -5000001    2    3    3    0    0 -0.54229938893E+02  0.53940930195E+03  0.29451263715E+03  0.62239498787E+03  0.82064280770E+02 0.  0.
     200001    1    1    2    0    0 -0.16254033560E+03 -0.11259407421E+04 -0.79226582629E+03  0.15157889216E+04  0.61300000000E+03 0.  1.
         13    1    4    4    0    0 -0.27976907190E+02  0.42880809632E+03  0.21534897286E+03  0.48066025640E+03  0.10566000000E+00 0.  1.
    -200003    1    4    4    0    0 -0.26253031703E+02  0.11060120563E+03  0.79163664291E+02  0.14173473147E+03  0.30000000000E+02 0.  1.
    -200000    1    3    3    0    0  0.21677027449E+03  0.58653144016E+03 -0.22292624268E+03  0.67149504233E+03  0.10100000000E+03 0.  1.
<mgrwt>
<rscale>  0 0.27156798E+04</rscale>
<asrwt>0</asrwt>
<pdfrwt beam="1">  1        2 0.25216845E+00 0.27156798E+04</pdfrwt>
<pdfrwt beam="2">  1       -2 0.14921425E+00 0.27156798E+04</pdfrwt>
<totfact> 0.28442314E+00</totfact>
</mgrwt>
</event>
<event>
 8    2  0.4306980E-052  0.1414118E+04  0.7818608E-02  0.8943662E-01
         -2   -1    0    0    0  501 -0.00000000000E+00  0.00000000000E+00  0.21358507219E+03  0.21358507221E+03  0.25500000000E-02 0. -1.
          2   -1    0    0  501    0  0.00000000000E+00 -0.00000000000E+00 -0.23406727755E+04  0.23406727755E+04  0.25500000000E-02 0.  1.
    -200001    2    1    2    0    0 -0.55062104549E+01 -0.26416315456E+03 -0.14842599658E+04  0.16275383698E+04  0.61322182660E+03 0.  0.
   -5000001    2    3    3    0    0 -0.48743526742E+02 -0.40241057456E+03 -0.13256645478E+04  0.13901877405E+04  0.10452396104E+03 0.  0.
     200001    1    1    2    0    0  0.55062104549E+01  0.26416315456E+03 -0.64282773754E+03  0.92671947790E+03  0.61300000000E+03 0. -1.
         13    1    4    4    0    0 -0.56289216438E+01 -0.54664129235E+02 -0.90015190315E+02  0.10546372569E+03  0.10566000000E+00 0.  1.
    -200003    1    4    4    0    0 -0.43114605098E+02 -0.34774644533E+03 -0.12356493575E+04  0.12847240148E+04  0.30000000000E+02 0.  1.
    -200000    1    3    3    0    0  0.43237316287E+02  0.13824742000E+03 -0.15859541792E+03  0.23735062933E+03  0.10100000000E+03 0.  1.
<mgrwt>
<rscale>  0 0.14141185E+04</rscale>
<asrwt>0</asrwt>
<pdfrwt beam="1">  1        2 0.33438181E+00 0.14141185E+04</pdfrwt>
<pdfrwt beam="2">  1       -2 0.30512155E-01 0.14141185E+04</pdfrwt>
<totfact> 0.51744362E+01</totfact>
</mgrwt>
</event>
<event>
 8    2  0.4306980E-052  0.1279427E+04  0.7818608E-02  0.9046041E-01
          2   -1    0    0  501    0  0.00000000000E+00  0.00000000000E+00  0.27886038396E+04  0.27886038396E+04  0.25500000000E-02 0.  1.
         -2   -1    0    0    0  501 -0.00000000000E+00 -0.00000000000E+00 -0.14675201133E+03  0.14675201135E+03  0.25500000000E-02 0. -1.
    -200001    2    1    2    0    0 -0.20189320908E+02  0.13962180091E+03  0.15903666534E+04  0.17100836653E+04  0.61255056450E+03 0.  0.
   -5000001    2    3    3    0    0  0.19708106951E+03 -0.13167719502E+03  0.52644362409E+03  0.58627639532E+03  0.10196710601E+03 0.  0.
     200001    1    1    2    0    0  0.20189320908E+02 -0.13962180091E+03  0.10514851748E+04  0.12252721856E+04  0.61300000000E+03 0.  1.
         13    1    4    4    0    0  0.11704256140E+03 -0.34694605621E+02  0.32228774910E+03  0.34463325612E+03  0.10566000000E+00 0.  1.
    -200003    1    4    4    0    0  0.80038508116E+02 -0.96982589402E+02  0.20415587499E+03  0.24164313920E+03  0.30000000000E+02 0.  1.
    -200000    1    3    3    0    0 -0.21727039042E+03  0.27129899593E+03  0.10639230293E+04  0.11238072700E+04  0.10100000000E+03 0.  1.
<mgrwt>
<rscale>  0 0.12794268E+04</rscale>
<asrwt>0</asrwt>
<pdfrwt beam="1">  1        2 0.39837193E+00 0.12794268E+04</pdfrwt>
<pdfrwt beam="2">  1       -2 0.20964575E-01 0.12794268E+04</pdfrwt>
<totfact> 0.60010552E+01</totfact>
</mgrwt>
</event>
<event>
 8    2  0.4306980E-052  0.1466733E+04  0.7818608E-02  0.8906881E-01
          2   -1    0    0  501    0  0.00000000000E+00  0.00000000000E+00  0.15960952522E+04  0.15960952522E+04  0.25500000000E-02 0.  1.
         -2   -1    0    0    0  501 -0.00000000000E+00 -0.00000000000E+00 -0.33696398126E+03  0.33696398126E+03  0.25500000000E-02 0. -1.
    -200001    2    1    2    0    0  0.35983204058E+03  0.17964274746E+03  0.65908324337E+03  0.98565369753E+03  0.61267599563E+03 0.  0.
   -5000001    2    3    3    0    0  0.33246832069E+03 -0.14042723519E+02  0.62504597414E+03  0.76289290535E+03  0.28388506989E+03 0.  0.
     200001    1    1    2    0    0 -0.35983204058E+03 -0.17964274746E+03  0.60004802761E+03  0.94740553596E+03  0.61300000000E+03 0. -1.
         13    1    4    4    0    0  0.73661136564E+02  0.94621991792E+02  0.34504452673E+03  0.36528758665E+03  0.10566000000E+00 0.  1.
    -200003    1    4    4    0    0  0.25880718413E+03 -0.10866471531E+03  0.28000144740E+03  0.39760531870E+03  0.30000000000E+02 0.  1.
    -200000    1    3    3    0    0  0.27363719890E+02  0.19368547098E+03  0.34037269229E+02  0.22276079218E+03  0.10100000000E+03 0. -1.
<mgrwt>
<rscale>  0 0.14667333E+04</rscale>
<asrwt>0</asrwt>
<pdfrwt beam="1">  1        2 0.22801361E+00 0.14667333E+04</pdfrwt>
<pdfrwt beam="2">  1       -2 0.48137711E-01 0.14667333E+04</pdfrwt>
<totfact> 0.51538816E+01</totfact>
</mgrwt>
</event>
<event>
 8    2  0.4306980E-052  0.1588538E+04  0.7818608E-02  0.8827621E-01
         -2   -1    0    0    0  501 -0.00000000000E+00  0.00000000000E+00  0.56983195278E+03  0.56983195278E+03  0.25500000000E-02 0. -1.
          2   -1    0    0  501    0  0.00000000000E+00 -0.00000000000E+00 -0.11071035923E+04  0.11071035923E+04  0.25500000000E-02 0.  1.
    -200001    2    1    2    0    0  0.12927105644E+03  0.44117866799E+03 -0.48870764156E+03  0.90916143437E+03  0.61350609753E+03 0.  0.
   -5000001    2    3    3    0    0 -0.62117770375E+02  0.51866402529E+03 -0.27950672210E+03  0.59835653040E+03  0.83878133307E+02 0.  0.
     200001    1    1    2    0    0 -0.12927105644E+03 -0.44117866799E+03 -0.48563997910E+02  0.76777411067E+03  0.61300000000E+03 0.  1.
         13    1    4    4    0    0 -0.69519398310E+01  0.35084083465E+01  0.18802401204E+01  0.80115456366E+01  0.10566000000E+00 0.  1.
    -200003    1    4    4    0    0 -0.55165830544E+02  0.51515561694E+03 -0.28138696222E+03  0.59034498476E+03  0.30000000000E+02 0.  1.
    -200000    1    3    3    0    0  0.19138882682E+03 -0.77485357301E+02 -0.20920091947E+03  0.31080490397E+03  0.10100000000E+03 0.  1.
<mgrwt>
<rscale>  0 0.15885377E+04</rscale>
<asrwt>0</asrwt>
<pdfrwt beam="1">  1        2 0.15815766E+00 0.15885377E+04</pdfrwt>
<pdfrwt beam="2">  1       -2 0.81404565E-01 0.15885377E+04</pdfrwt>
<totfact> 0.30938989E+01</totfact>
</mgrwt>
</event>
<event>
 8    2  0.4306980E-052  0.1702872E+04  0.7818608E-02  0.8759728E-01
         -2   -1    0    0    0  501 -0.00000000000E+00  0.00000000000E+00  0.41759565686E+03  0.41759565686E+03  0.25500000000E-02 0. -1.
          2   -1    0    0  501    0  0.00000000000E+00 -0.00000000000E+00 -0.17359923832E+04  0.17359923832E+04  0.25500000000E-02 0.  1.
    -200001    2    1    2    0    0  0.50652369261E+01  0.27427846823E+03 -0.13209422240E+04  0.14820005072E+04  0.61333743532E+03 0.  0.
   -5000001    2    3    3    0    0 -0.26488594558E+03  0.14670382616E+03 -0.45426714775E+03  0.55978815750E+03  0.12376414252E+03 0.  0.
     200001    1    1    2    0    0 -0.50652369261E+01 -0.27427846823E+03  0.25454975964E+01  0.67158753288E+03  0.61300000000E+03 0. -1.
         13    1    4    4    0    0 -0.15361341508E+03  0.65782933164E+02 -0.33846789065E+03  0.37747185293E+03  0.10566000000E+00 0.  1.
    -200003    1    4    4    0    0 -0.11127253050E+03  0.80920892993E+02 -0.11579925710E+03  0.18231630457E+03  0.30000000000E+02 0.  1.
    -200000    1    3    3    0    0  0.26995118251E+03  0.12757464207E+03 -0.86667507623E+03  0.92221234973E+03  0.10100000000E+03 0.  1.
<mgrwt>
<rscale>  0 0.17028716E+04</rscale>
<asrwt>0</asrwt>
<pdfrwt beam="1">  1        2 0.24799891E+00 0.17028716E+04</pdfrwt>
<pdfrwt beam="2">  1       -2 0.59656523E-01 0.17028716E+04</pdfrwt>
<totfact> 0.27464252E+01</totfact>
</mgrwt>
</event>
<event>
 8    2  0.4306980E-052  0.1649977E+04  0.7818608E-02  0.8790420E-01
          2   -1    0    0  501    0  0.00000000000E+00  0.00000000000E+00  0.16382678099E+04  0.16382678099E+04  0.25500000000E-02 0.  1.
         -2   -1    0    0    0  501 -0.00000000000E+00 -0.00000000000E+00 -0.41544224513E+03  0.41544224514E+03  0.25500000000E-02 0. -1.
    -200001    2    1    2    0    0 -0.46969609339E+03  0.25466372090E+03  0.78537589261E+03  0.11303470460E+04  0.61269986188E+03 0.  0.
   -5000001    2    3    3    0    0 -0.52188526587E+03  0.34495279726E+03  0.49040374189E+03  0.80158361014E+03  0.10336242509E+03 0.  0.
     200001    1    1    2    0    0  0.46969609339E+03 -0.25466372090E+03  0.43744967220E+03  0.92336300911E+03  0.61300000000E+03 0. -1.
         13    1    4    4    0    0 -0.44360957775E+03  0.26481312017E+03  0.37874847419E+03  0.64059805179E+03  0.10566000000E+00 0.  1.
    -200003    1    4    4    0    0 -0.78275688122E+02  0.80139677089E+02  0.11165526770E+03  0.16098555836E+03  0.30000000000E+02 0. -1.
    -200000    1    3    3    0    0  0.52189172478E+02 -0.90289076364E+02  0.29497215071E+03  0.32876343582E+03  0.10100000000E+03 0.  1.
<mgrwt>
<rscale>  0 0.16499766E+04</rscale>
<asrwt>0</asrwt>
<pdfrwt beam="1">  1        2 0.23403826E+00 0.16499766E+04</pdfrwt>
<pdfrwt beam="2">  1       -2 0.59348892E-01 0.16499766E+04</pdfrwt>
<totfact> 0.31347539E+01</totfact>
</mgrwt>
</event>
<event>
 8    2  0.4306980E-052  0.1314944E+04  0.7818608E-02  0.9017797E-01
         -2   -1    0    0    0  501 -0.00000000000E+00  0.00000000000E+00  0.81293373863E+03  0.81293373864E+03  0.25500000000E-02 0. -1.
          2   -1    0    0  501    0  0.00000000000E+00 -0.00000000000E+00 -0.53174037755E+03  0.53174037755E+03  0.25500000000E-02 0.  1.
    -200001    2    1    2    0    0 -0.19089089879E+03  0.13606923417E+03  0.13728496130E+03  0.67278662616E+03  0.61550021285E+03 0.  0.
   -5000001    2    3    3    0    0  0.12570557606E+03  0.14108476230E+03  0.22246687992E+03  0.32968978462E+03  0.15328744051E+03 0.  0.
     200001    1    1    2    0    0  0.19089089879E+03 -0.13606923417E+03  0.14390839978E+03  0.67188749003E+03  0.61300000000E+03 0. -1.
         13    1    4    4    0    0  0.60965372713E+02 -0.22389966844E+02  0.60121820943E+02  0.88502722008E+02  0.10566000000E+00 0.  1.
    -200003    1    4    4    0    0  0.64740203352E+02  0.16347472915E+03  0.16234505898E+03  0.24118706262E+03  0.30000000000E+02 0.  1.
    -200000    1    3    3    0    0 -0.31659647485E+03 -0.50155281366E+01 -0.85181918619E+02  0.34309684154E+03  0.10100000000E+03 0. -1.
<mgrwt>
<rscale>  0 0.13149444E+04</rscale>
<asrwt>0</asrwt>
<pdfrwt beam="1">  1        2 0.75962911E-01 0.13149444E+04</pdfrwt>
<pdfrwt beam="2">  1       -2 0.11613339E+00 0.13149444E+04</pdfrwt>
<totfact> 0.35293948E+01</totfact>
</mgrwt>
</event>
<event>
 8    2  0.4306980E-052  0.1396376E+04  0.7818608E-02  0.8956446E-01
         -2   -1    0    0    0  501 -0.00000000000E+00  0.00000000000E+00  0.23440804759E+03  0.23440804760E+03  0.25500000000E-02 0.  1.
          2   -1    0    0  501    0  0.00000000000E+00 -0.00000000000E+00 -0.20795624263E+04  0.20795624263E+04  0.25500000000E-02 0. -1.
    -200001    2    1    2    0    0  0.92794009820E+02 -0.30584922317E+03 -0.10849888674E+04  0.12864613109E+04  0.61288448040E+03 0.  0.
   -5000001    2    3    3    0    0 -0.12632193887E+03  0.22439010339E+02 -0.73163373731E+03  0.74716008593E+03  0.80619644057E+02 0.  0.
     200001    1    1    2    0    0 -0.92794009820E+02  0.30584922317E+03 -0.76016551125E+03  0.10275091630E+04  0.61300000000E+03 0.  1.
         13    1    4    4    0    0 -0.10626235170E+03  0.32116846032E+02 -0.60616991700E+03  0.61625088935E+03  0.10566000000E+00 0.  1.
    -200003    1    4    4    0    0 -0.20059587173E+02 -0.96778356928E+01 -0.12546382031E+03  0.13090919658E+03  0.30000000000E+02 0. -1.
    -200000    1    3    3    0    0  0.21911594869E+03 -0.32828823351E+03 -0.35335513013E+03  0.53930122494E+03  0.10100000000E+03 0. -1.
<mgrwt>
<rscale>  0 0.13963755E+04</rscale>
<asrwt>0</asrwt>
<pdfrwt beam="1">  1        2 0.29708034E+00 0.13963755E+04</pdfrwt>
<pdfrwt beam="2">  1       -2 0.33486865E-01 0.13963755E+04</pdfrwt>
<totfact> 0.59305238E+01</totfact>
</mgrwt>
</event>
<event>
 8    2  0.4306980E-052  0.1349987E+04  0.7818608E-02  0.8990838E-01
         -2   -1    0    0    0  501 -0.00000000000E+00  0.00000000000E+00  0.20365643360E+03  0.20365643362E+03  0.25500000000E-02 0. -1.
          2   -1    0    0  501    0  0.00000000000E+00 -0.00000000000E+00 -0.22371798613E+04  0.22371798613E+04  0.25500000000E-02 0.  1.
    -200001    2    1    2    0    0  0.96838480376E+02  0.23736562879E+03 -0.79913948010E+03  0.10389829277E+04  0.61248794474E+03 0.  0.
   -5000001    2    3    3    0    0  0.37867951311E+02  0.11137642332E+01 -0.77003177507E+03  0.77376466800E+03  0.65784531752E+02 0.  0.
     200001    1    1    2    0    0 -0.96838480376E+02 -0.23736562879E+03 -0.12343839476E+04  0.14018533672E+04  0.61300000000E+03 0.  1.
         13    1    4    4    0    0  0.37734056053E+02 -0.15692841636E+02 -0.46826916523E+03  0.47004908950E+03  0.10566000000E+00 0.  1.
    -200003    1    4    4    0    0  0.13389525810E+00  0.16806605870E+02 -0.30176260984E+03  0.30371557850E+03  0.30000000000E+02 0.  1.
    -200000    1    3    3    0    0  0.58970529065E+02  0.23625186455E+03 -0.29107705027E+02  0.26521825973E+03  0.10100000000E+03 0. -1.
<mgrwt>
<rscale>  0 0.13499868E+04</rscale>
<asrwt>0</asrwt>
<pdfrwt beam="1">  1        2 0.31959711E+00 0.13499868E+04</pdfrwt>
<pdfrwt beam="2">  1       -2 0.29093777E-01 0.13499868E+04</pdfrwt>
<totfact> 0.64278153E+01</totfact>
</mgrwt>
</event>
<event>
 8    2  0.4306980E-052  0.1520874E+04  0.7818608E-02  0.8870689E-01
          2   -1    0    0  501    0  0.00000000000E+00  0.00000000000E+00  0.78020209187E+03  0.78020209188E+03  0.25500000000E-02 0.  1.
         -2   -1    0    0    0  501 -0.00000000000E+00 -0.00000000000E+00 -0.74117271985E+03  0.74117271985E+03  0.25500000000E-02 0. -1.
    -200001    2    1    2    0    0 -0.16601405199E+03  0.23603568636E+02  0.43854599148E+03  0.77070822587E+03  0.61118801434E+03 0.  0.
   -5000001    2    3    3    0    0  0.64749186273E+02 -0.61271894552E+02  0.26352084523E+03  0.45244682669E+03  0.35681674979E+03 0.  0.
     200001    1    1    2    0    0  0.16601405199E+03 -0.23603568636E+02 -0.39951661945E+03  0.75066658586E+03  0.61300000000E+03 0. -1.
         13    1    4    4    0    0 -0.26276226802E+02  0.69826360110E+02 -0.56495394960E+02  0.93583660310E+02  0.10566000000E+00 0.  1.
    -200003    1    4    4    0    0  0.91025413076E+02 -0.13109825466E+03  0.32001624019E+03  0.35886316638E+03  0.30000000000E+02 0.  1.
    -200000    1    3    3    0    0 -0.23076323826E+03  0.84875463188E+02  0.17502514625E+03  0.31826139917E+03  0.10100000000E+03 0.  1.
<mgrwt>
<rscale>  0 0.15208741E+04</rscale>
<asrwt>0</asrwt>
<pdfrwt beam="1">  1        2 0.11145744E+00 0.15208741E+04</pdfrwt>
<pdfrwt beam="2">  1       -2 0.10588182E+00 0.15208741E+04</pdfrwt>
<totfact> 0.27345162E+01</totfact>
</mgrwt>
</event>
<event>
 8    2  0.4306980E-052  0.1347799E+04  0.7818608E-02  0.8992496E-01
          2   -1    0    0  501    0  0.00000000000E+00  0.00000000000E+00  0.80701710866E+03  0.80701710867E+03  0.25500000000E-02 0.  1.
         -2   -1    0    0    0  501 -0.00000000000E+00 -0.00000000000E+00 -0.56273991821E+03  0.56273991822E+03  0.25500000000E-02 0. -1.
    -200001    2    1    2    0    0 -0.25748127336E+03 -0.39138569885E+02  0.24996325410E+02  0.66855696160E+03  0.61523585789E+03 0.  0.
   -5000001    2    3    3    0    0 -0.20472772293E+03  0.23740848553E+03 -0.10774861577E+03  0.34132091477E+03  0.81326337184E+02 0.  0.
     200001    1    1    2    0    0  0.25748127336E+03  0.39138569885E+02  0.21928086504E+03  0.70120006528E+03  0.61300000000E+03 0.  1.
         13    1    4    4    0    0 -0.46883184482E+02  0.25701879888E+02  0.26505487507E+01  0.53531824083E+02  0.10566000000E+00 0.  1.
    -200003    1    4    4    0    0 -0.15784453845E+03  0.21170660564E+03 -0.11039916452E+03  0.28778909068E+03  0.30000000000E+02 0.  1.
    -200000    1    3    3    0    0 -0.52753550426E+02 -0.27654705541E+03  0.13274494118E+03  0.32723604683E+03  0.10100000000E+03 0. -1.
<mgrwt>
<rscale>  0 0.13477993E+04</rscale>
<asrwt>0</asrwt>
<pdfrwt beam="1">  1        2 0.11528816E+00 0.13477993E+04</pdfrwt>
<pdfrwt beam="2">  1       -2 0.80391416E-01 0.13477993E+04</pdfrwt>
<totfact> 0.50281723E+01</totfact>
</mgrwt>
</event>
<event>
 8    2  0.4306980E-052  0.1391582E+04  0.7818608E-02  0.8959934E-01
         -2   -1    0    0    0  501 -0.00000000000E+00  0.00000000000E+00  0.72147907154E+03  0.72147907154E+03  0.25500000000E-02 0. -1.
          2   -1    0    0  501    0  0.00000000000E+00 -0.00000000000E+00 -0.67101795275E+03  0.67101795275E+03  0.25500000000E-02 0.  1.
    -200001    2    1    2    0    0  0.21144838808E+03 -0.24865956370E+03 -0.17875500207E+02  0.69465686141E+03  0.61293280394E+03 0.  0.
   -5000001    2    3    3    0    0  0.86023109553E+02 -0.13097192336E+03 -0.19229046537E+03  0.42969750366E+03  0.35087134608E+03 0.  0.
     200001    1    1    2    0    0 -0.21144838808E+03  0.24865956370E+03  0.68336618998E+02  0.69784016289E+03  0.61300000000E+03 0. -1.
         13    1    4    4    0    0  0.14840242572E+03  0.52037747359E+02 -0.27529697262E+01  0.15728571809E+03  0.10566000000E+00 0.  1.
    -200003    1    4    4    0    0 -0.62379316167E+02 -0.18300967072E+03 -0.18953749564E+03  0.27241178557E+03  0.30000000000E+02 0.  1.
    -200000    1    3    3    0    0  0.12542527853E+03 -0.11768764033E+03  0.17441496516E+03  0.26495935774E+03  0.10100000000E+03 0. -1.
<mgrwt>
<rscale>  0 0.13915824E+04</rscale>
<asrwt>0</asrwt>
<pdfrwt beam="1">  1        2 0.95859708E-01 0.13915824E+04</pdfrwt>
<pdfrwt beam="2">  1       -2 0.10306844E+00 0.13915824E+04</pdfrwt>
<totfact> 0.35552504E+01</totfact>
</mgrwt>
</event>
<event>
 8    2  0.4306980E-052  0.1468368E+04  0.7818608E-02  0.8905765E-01
          2   -1    0    0  501    0  0.00000000000E+00  0.00000000000E+00  0.12785563658E+04  0.12785563658E+04  0.25500000000E-02 0.  1.
         -2   -1    0    0    0  501 -0.00000000000E+00 -0.00000000000E+00 -0.42158970907E+03  0.42158970908E+03  0.25500000000E-02 0. -1.
    -200001    2    1    2    0    0  0.18789075867E+02 -0.40254063610E+03  0.44328505640E+03  0.85795045656E+03  0.61415417575E+03 0.  0.
   -5000001    2    3    3    0    0 -0.23774731442E+03 -0.48662859049E+02  0.27330033172E+03  0.37822531936E+03  0.97311158254E+02 0.  0.
     200001    1    1    2    0    0 -0.18789075867E+02  0.40254063610E+03  0.41368160034E+03  0.84219561834E+03  0.61300000000E+03 0.  1.
         13    1    4    4    0    0 -0.20221128034E+03 -0.54074256094E+02  0.24959315931E+03  0.32574558079E+03  0.10566000000E+00 0.  1.
    -200003    1    4    4    0    0 -0.35536034081E+02  0.54113970446E+01  0.23707172412E+02  0.52479738566E+02  0.30000000000E+02 0.  1.
    -200000    1    3    3    0    0  0.25653639029E+03 -0.35387777706E+03  0.16998472468E+03  0.47972513720E+03  0.10100000000E+03 0. -1.
<mgrwt>
<rscale>  0 0.14683681E+04</rscale>
<asrwt>0</asrwt>
<pdfrwt beam="1">  1        2 0.18265091E+00 0.14683681E+04</pdfrwt>
<pdfrwt beam="2">  1       -2 0.60227101E-01 0.14683681E+04</pdfrwt>
<totfact> 0.48084624E+01</totfact>
</mgrwt>
</event>
<event>
 8    2  0.4306980E-052  0.1252825E+04  0.7818608E-02  0.9067835E-01
         -2   -1    0    0    0  501 -0.00000000000E+00  0.00000000000E+00  0.40585306210E+03  0.40585306211E+03  0.25500000000E-02 0. -1.
          2   -1    0    0  501    0  0.00000000000E+00 -0.00000000000E+00 -0.96683488753E+03  0.96683488753E+03  0.25500000000E-02 0.  1.
    -200001    2    1    2    0    0  0.10408098566E+03 -0.74195399877E+02 -0.25974284705E+03  0.67781261476E+03  0.61288317418E+03 0.  0.
   -5000001    2    3    3    0    0  0.91714120341E+02 -0.17598046193E+03 -0.41428858566E+03  0.46662898959E+03  0.82018161774E+02 0.  0.
     200001    1    1    2    0    0 -0.10408098566E+03  0.74195399877E+02 -0.30123897838E+03  0.69487533489E+03  0.61300000000E+03 0. -1.
         13    1    4    4    0    0  0.40826489381E+02 -0.37233598183E+02 -0.59914331159E+02  0.81503872982E+02  0.10566000000E+00 0.  1.
    -200003    1    4    4    0    0  0.50887630961E+02 -0.13874686375E+03 -0.35437425450E+03  0.38512511661E+03  0.30000000000E+02 0.  1.
    -200000    1    3    3    0    0  0.12366865317E+02  0.10178506206E+03  0.15454573862E+03  0.21118362517E+03  0.10100000000E+03 0. -1.
<mgrwt>
<rscale>  0 0.12528254E+04</rscale>
<asrwt>0</asrwt>
<pdfrwt beam="1">  1        2 0.13811927E+00 0.12528254E+04</pdfrwt>
<pdfrwt beam="2">  1       -2 0.57979009E-01 0.12528254E+04</pdfrwt>
<totfact> 0.80703312E+01</totfact>
</mgrwt>
</event>
<event>
 8    2  0.4306980E-052  0.1455134E+04  0.7818608E-02  0.8914849E-01
          2   -1    0    0  501    0  0.00000000000E+00  0.00000000000E+00  0.15090447271E+04  0.15090447271E+04  0.25500000000E-02 0.  1.
         -2   -1    0    0    0  501 -0.00000000000E+00 -0.00000000000E+00 -0.35078729418E+03  0.35078729419E+03  0.25500000000E-02 0. -1.
    -200001    2    1    2    0    0 -0.20383737547E+03  0.28537735497E+03  0.80180665662E+03  0.10687466490E+04  0.61346195868E+03 0.  0.
   -5000001    2    3    3    0    0 -0.84077296527E+02 -0.16796949307E+03  0.35718337766E+03  0.41471553250E+03  0.95531488174E+02 0.  0.
     200001    1    1    2    0    0  0.20383737547E+03 -0.28537735497E+03  0.35645077632E+03  0.79108537232E+03  0.61300000000E+03 0. -1.
         13    1    4    4    0    0 -0.33102621755E+02 -0.11683685846E+03  0.14827823121E+03  0.19165875945E+03  0.10566000000E+00 0.  1.
    -200003    1    4    4    0    0 -0.50974674772E+02 -0.51132634609E+02  0.20890514645E+03  0.22305677305E+03  0.30000000000E+02 0. -1.
    -200000    1    3    3    0    0 -0.11976007894E+03  0.45334684804E+03  0.44462327896E+03  0.65403111648E+03  0.10100000000E+03 0.  1.
<mgrwt>
<rscale>  0 0.14551340E+04</rscale>
<asrwt>0</asrwt>
<pdfrwt beam="1">  1        2 0.21557782E+00 0.14551340E+04</pdfrwt>
<pdfrwt beam="2">  1       -2 0.50112470E-01 0.14551340E+04</pdfrwt>
<totfact> 0.52848304E+01</totfact>
</mgrwt>
</event>
<event>
 8    2  0.4306980E-052  0.2763968E+04  0.7818608E-02  0.8314543E-01
         -2   -1    0    0    0  501 -0.00000000000E+00  0.00000000000E+00  0.75162334404E+03  0.75162334404E+03  0.25500000000E-02 0.  1.
          2   -1    0    0  501    0  0.00000000000E+00 -0.00000000000E+00 -0.25410061905E+04  0.25410061905E+04  0.25500000000E-02 0. -1.
    -200001    2    1    2    0    0 -0.11569381005E+04 -0.31583103261E+03 -0.52434230539E+03  0.14448331226E+04  0.61184384386E+03 0.  0.
   -5000001    2    3    3    0    0 -0.67352266713E+03 -0.12874822885E+02 -0.25474446938E+03  0.80580500157E+03  0.36142552714E+03 0.  0.
     200001    1    1    2    0    0  0.11569381005E+04  0.31583103261E+03 -0.12650405411E+04  0.18477964120E+04  0.61300000000E+03 0. -1.
         13    1    4    4    0    0  0.73608750701E+01 -0.42687313788E+02 -0.96091282589E+02  0.10540367638E+03  0.10566000000E+00 0.  1.
    -200003    1    4    4    0    0 -0.68088354220E+03  0.29812490903E+02 -0.15865318679E+03  0.70040132519E+03  0.30000000000E+02 0.  1.
    -200000    1    3    3    0    0 -0.48341543338E+03 -0.30295620973E+03 -0.26959783601E+03  0.63902812100E+03  0.10100000000E+03 0. -1.
<mgrwt>
<rscale>  0 0.27639679E+04</rscale>
<asrwt>0</asrwt>
<pdfrwt beam="1">  1        2 0.36300088E+00 0.27639679E+04</pdfrwt>
<pdfrwt beam="2">  1       -2 0.10737476E+00 0.27639679E+04</pdfrwt>
<totfact> 0.25656124E+00</totfact>
</mgrwt>
</event>
<event>
 8    2  0.4306980E-052  0.1405814E+04  0.7818608E-02  0.8949621E-01
         -2   -1    0    0    0  501 -0.00000000000E+00  0.00000000000E+00  0.49758699499E+03  0.49758699500E+03  0.25500000000E-02 0. -1.
          2   -1    0    0  501    0  0.00000000000E+00 -0.00000000000E+00 -0.99294858652E+03  0.99294858653E+03  0.25500000000E-02 0.  1.
    -200001    2    1    2    0    0  0.23430518601E+03  0.25314093723E+03 -0.21470992616E+03  0.73322876684E+03  0.61036449589E+03 0.  0.
   -5000001    2    3    3    0    0  0.10523710340E+02 -0.67999735024E+02  0.92817183336E+02  0.22530810050E+03  0.19342698412E+03 0.  0.
     200001    1    1    2    0    0 -0.23430518601E+03 -0.25314093723E+03 -0.28065166537E+03  0.75730681468E+03  0.61300000000E+03 0.  1.
         13    1    4    4    0    0 -0.32855343813E+02 -0.26041231968E+02 -0.51275377871E+02  0.66232883972E+02  0.10566000000E+00 0.  1.
    -200003    1    4    4    0    0  0.43379054153E+02 -0.41958503056E+02  0.14409256121E+03  0.15907521653E+03  0.30000000000E+02 0.  1.
    -200000    1    3    3    0    0  0.22378147567E+03  0.32114067225E+03 -0.30752710950E+03  0.50792066635E+03  0.10100000000E+03 0.  1.
<mgrwt>
<rscale>  0 0.14058141E+04</rscale>
<asrwt>0</asrwt>
<pdfrwt beam="1">  1        2 0.14184980E+00 0.14058141E+04</pdfrwt>
<pdfrwt beam="2">  1       -2 0.71083857E-01 0.14058141E+04</pdfrwt>
<totfact> 0.49690227E+01</totfact>
</mgrwt>
</event>
<event>
 8    2  0.4306980E-052  0.1645934E+04  0.7818608E-02  0.8792816E-01
         -2   -1    0    0    0  501 -0.00000000000E+00  0.00000000000E+00  0.52308353586E+03  0.52308353587E+03  0.25500000000E-02 0. -1.
          2   -1    0    0  501    0  0.00000000000E+00 -0.00000000000E+00 -0.12947731638E+04  0.12947731638E+04  0.25500000000E-02 0.  1.
    -200001    2    1    2    0    0 -0.21873722167E+03 -0.57608624292E+02  0.16615621557E+03  0.67483939801E+03  0.61370644399E+03 0.  0.
   -5000001    2    3    3    0    0 -0.20591993080E+03  0.13172417636E+02 -0.18571346350E+03  0.30176097477E+03  0.11829482188E+03 0.  0.
     200001    1    1    2    0    0  0.21873722167E+03  0.57608624292E+02 -0.93784584352E+03  0.11430173017E+04  0.61300000000E+03 0.  1.
         13    1    4    4    0    0 -0.46650797423E+02 -0.31519307703E+02 -0.75591526101E+01  0.56805946964E+02  0.10566000000E+00 0.  1.
    -200003    1    4    4    0    0 -0.15926913337E+03  0.44691725339E+02 -0.17815431089E+03  0.24495502780E+03  0.30000000000E+02 0.  1.
    -200000    1    3    3    0    0 -0.12817290871E+02 -0.70781041928E+02  0.35186967906E+03  0.37307842324E+03  0.10100000000E+03 0. -1.
<mgrwt>
<rscale>  0 0.16459338E+04</rscale>
<asrwt>0</asrwt>
<pdfrwt beam="1">  1        2 0.18496759E+00 0.16459338E+04</pdfrwt>
<pdfrwt beam="2">  1       -2 0.74726220E-01 0.16459338E+04</pdfrwt>
<totfact> 0.29143571E+01</totfact>
</mgrwt>
</event>
<event>
 8    2  0.4306980E-052  0.1271422E+04  0.7818608E-02  0.9052539E-01
         -2   -1    0    0    0  501 -0.00000000000E+00  0.00000000000E+00  0.39276423248E+03  0.39276423249E+03  0.25500000000E-02 0. -1.
          2   -1    0    0  501    0  0.00000000000E+00 -0.00000000000E+00 -0.10289348066E+04  0.10289348066E+04  0.25500000000E-02 0.  1.
    -200001    2    1    2    0    0 -0.28597403588E+02  0.10351921676E+03 -0.46376213311E+03  0.77592221211E+03  0.61273642246E+03 0.  0.
   -5000001    2    3    3    0    0  0.93603753007E+02  0.10492818662E+02  0.11392514680E+03  0.16969566470E+03  0.83342172541E+02 0.  0.
     200001    1    1    2    0    0  0.28597403588E+02 -0.10351921676E+03 -0.17240844101E+03  0.64577682698E+03  0.61300000000E+03 0. -1.
         13    1    4    4    0    0  0.25562530584E+02  0.35775054483E+02  0.23263682886E+02  0.49744422789E+02  0.10566000000E+00 0.  1.
    -200003    1    4    4    0    0  0.68041222422E+02 -0.25282235820E+02  0.90661463916E+02  0.11995124191E+03  0.30000000000E+02 0.  1.
    -200000    1    3    3    0    0 -0.12220115659E+03  0.93026398098E+02 -0.57768727991E+03  0.60622654741E+03  0.10100000000E+03 0.  1.
<mgrwt>
<rscale>  0 0.12714225E+04</rscale>
<asrwt>0</asrwt>
<pdfrwt beam="1">  1        2 0.14699069E+00 0.12714225E+04</pdfrwt>
<pdfrwt beam="2">  1       -2 0.56109176E-01 0.12714225E+04</pdfrwt>
<totfact> 0.79003789E+01</totfact>
</mgrwt>
</event>
<event>
 8    2  0.4306980E-052  0.1326282E+04  0.7818608E-02  0.9008979E-01
          2   -1    0    0  501    0  0.00000000000E+00  0.00000000000E+00  0.82430122903E+03  0.82430122904E+03  0.25500000000E-02 0. -1.
         -2   -1    0    0    0  501 -0.00000000000E+00 -0.00000000000E+00 -0.53348906040E+03  0.53348906040E+03  0.25500000000E-02 0.  1.
    -200001    2    1    2    0    0 -0.16463293303E+03  0.18660610648E+03  0.19242661740E+03  0.68892964753E+03  0.61291941929E+03 0.  0.
   -5000001    2    3    3    0    0 -0.12893827519E+03  0.56538034386E+02  0.38998560073E+03  0.42927148018E+03  0.11119175679E+03 0.  0.
     200001    1    1    2    0    0  0.16463293303E+03 -0.18660610648E+03  0.98385551230E+02  0.66886064191E+03  0.61300000000E+03 0. -1.
         13    1    4    4    0    0  0.39554279248E+01 -0.14366656719E+02  0.10020096608E+03  0.10130296641E+03  0.10566000000E+00 0.  1.
    -200003    1    4    4    0    0 -0.13289370311E+03  0.70904691105E+02  0.28978463465E+03  0.32796851378E+03  0.30000000000E+02 0.  1.
    -200000    1    3    3    0    0 -0.35694657835E+02  0.13006807209E+03 -0.19755898333E+03  0.25965816734E+03  0.10100000000E+03 0.  1.
<mgrwt>
<rscale>  0 0.13262816E+04</rscale>
<asrwt>0</asrwt>
<pdfrwt beam="1">  1        2 0.11775732E+00 0.13262816E+04</pdfrwt>
<pdfrwt beam="2">  1       -2 0.76212723E-01 0.13262816E+04</pdfrwt>
<totfact> 0.55201232E+01</totfact>
</mgrwt>
</event>
<event>
 8    2  0.4306980E-052  0.1427403E+04  0.7818608E-02  0.8934218E-01
          2   -1    0    0  501    0  0.00000000000E+00  0.00000000000E+00  0.72844795908E+03  0.72844795909E+03  0.25500000000E-02 0.  1.
         -2   -1    0    0    0  501 -0.00000000000E+00 -0.00000000000E+00 -0.69925354373E+03  0.69925354373E+03  0.25500000000E-02 0. -1.
    -200001    2    1    2    0    0  0.16355894149E+02  0.27126433053E+03 -0.23384899754E+03  0.70741497001E+03  0.60983500543E+03 0.  0.
   -5000001    2    3    3    0    0  0.26444095188E+03  0.19637165648E+03 -0.26120248855E+03  0.42794346526E+03  0.80112576623E+02 0.  0.
     200001    1    1    2    0    0 -0.16355894149E+02 -0.27126433053E+03  0.26304341289E+03  0.72028653282E+03  0.61300000000E+03 0.  1.
         13    1    4    4    0    0  0.95431486834E+02  0.90079192393E+02 -0.14257233795E+03  0.19377386896E+03  0.10566000000E+00 0.  1.
    -200003    1    4    4    0    0  0.16900946505E+03  0.10629246409E+03 -0.11863015060E+03  0.23416959629E+03  0.30000000000E+02 0.  1.
    -200000    1    3    3    0    0 -0.24808505773E+03  0.74892674050E+02  0.27353491013E+02  0.27947150475E+03  0.10100000000E+03 0. -1.
<mgrwt>
<rscale>  0 0.14274030E+04</rscale>
<asrwt>0</asrwt>
<pdfrwt beam="1">  1        2 0.10406399E+00 0.14274030E+04</pdfrwt>
<pdfrwt beam="2">  1       -2 0.99893364E-01 0.14274030E+04</pdfrwt>
<totfact> 0.34518688E+01</totfact>
</mgrwt>
</event>
<event>
 8    2  0.4306980E-052  0.1272101E+04  0.7818608E-02  0.9051987E-01
         -2   -1    0    0    0  501 -0.00000000000E+00  0.00000000000E+00  0.19106050226E+03  0.19106050227E+03  0.25500000000E-02 0. -1.
          2   -1    0    0  501    0  0.00000000000E+00 -0.00000000000E+00 -0.21174445502E+04  0.21174445502E+04  0.25500000000E-02 0.  1.
    -200001    2    1    2    0    0 -0.16625189454E+03  0.79197428306E+01 -0.90476953071E+03  0.11055222444E+04  0.61308165390E+03 0.  0.
   -5000001    2    3    3    0    0  0.26145686202E+01  0.92994711907E+02  0.31026881131E+02  0.14548601738E+03  0.10746469880E+03 0.  0.
     200001    1    1    2    0    0  0.16625189454E+03 -0.79197428306E+01 -0.10216145173E+04  0.12029828081E+04  0.61300000000E+03 0. -1.
         13    1    4    4    0    0 -0.86384844357E+01  0.45095978651E+02 -0.35083182436E+02  0.57785046143E+02  0.10566000000E+00 0.  1.
    -200003    1    4    4    0    0  0.11253053056E+02  0.47898733255E+02  0.66110063567E+02  0.87700971234E+02  0.30000000000E+02 0.  1.
    -200000    1    3    3    0    0 -0.16886646316E+03 -0.85074969076E+02 -0.93579641184E+03  0.96003622700E+03  0.10100000000E+03 0.  1.
<mgrwt>
<rscale>  0 0.12721007E+04</rscale>
<asrwt>0</asrwt>
<pdfrwt beam="1">  1        2 0.30249206E+00 0.12721007E+04</pdfrwt>
<pdfrwt beam="2">  1       -2 0.27294359E-01 0.12721007E+04</pdfrwt>
<totfact> 0.83828586E+01</totfact>
</mgrwt>
</event>
<event>
 8    2  0.4306980E-052  0.1270799E+04  0.7818608E-02  0.9053048E-01
          2   -1    0    0  501    0  0.00000000000E+00  0.00000000000E+00  0.96942759048E+03  0.96942759048E+03  0.25500000000E-02 0.  1.
         -2   -1    0    0    0  501 -0.00000000000E+00 -0.00000000000E+00 -0.41646504714E+03  0.41646504714E+03  0.25500000000E-02 0. -1.
    -200001    2    1    2    0    0  0.57645931755E+01 -0.13927456061E+02  0.45853453623E+03  0.76547918428E+03  0.61276198975E+03 0.  0.
   -5000001    2    3    3    0    0 -0.18452915222E+03 -0.21255624297E+03  0.34570681858E+03  0.45147886836E+03  0.71335823565E+02 0.  0.
     200001    1    1    2    0    0 -0.57645931755E+01  0.13927456061E+02  0.94428007114E+02  0.62041345335E+03  0.61300000000E+03 0. -1.
         13    1    4    4    0    0 -0.44779041800E+02 -0.85382978946E+02  0.14561256569E+03  0.17463804319E+03  0.10566000000E+00 0.  1.
    -200003    1    4    4    0    0 -0.13975011042E+03 -0.12717326403E+03  0.20009425289E+03  0.27684082517E+03  0.30000000000E+02 0.  1.
    -200000    1    3    3    0    0  0.19029374539E+03  0.19862878691E+03  0.11282771765E+03  0.31400031592E+03  0.10100000000E+03 0. -1.
<mgrwt>
<rscale>  0 0.12707993E+04</rscale>
<asrwt>0</asrwt>
<pdfrwt beam="1">  1        2 0.13848966E+00 0.12707993E+04</pdfrwt>
<pdfrwt beam="2">  1       -2 0.59495006E-01 0.12707993E+04</pdfrwt>
<totfact> 0.76060009E+01</totfact>
</mgrwt>
</event>
<event>
 8    2  0.4306980E-052  0.1500305E+04  0.7818608E-02  0.8884250E-01
          2   -1    0    0  501    0  0.00000000000E+00  0.00000000000E+00  0.13158369084E+04  0.13158369084E+04  0.25500000000E-02 0.  1.
         -2   -1    0    0    0  501 -0.00000000000E+00 -0.00000000000E+00 -0.42765858189E+03  0.42765858190E+03  0.25500000000E-02 0. -1.
    -200001    2    1    2    0    0  0.37632988526E+03  0.39529218613E+02  0.68683924001E+03  0.99550273000E+03  0.61326242519E+03 0.  0.
   -5000001    2    3    3    0    0  0.11089184721E+03 -0.19394114260E+02  0.68677728871E+03  0.70545046740E+03  0.11543043023E+03 0.  0.
     200001    1    1    2    0    0 -0.37632988526E+03 -0.39529218613E+02  0.20133908646E+03  0.74799276026E+03  0.61300000000E+03 0. -1.
         13    1    4    4    0    0  0.88036966470E+02 -0.10973288484E+01  0.62261279272E+03  0.62880713451E+03  0.10566000000E+00 0.  1.
    -200003    1    4    4    0    0  0.22854880740E+02 -0.18296785412E+02  0.64164495990E+02  0.76643332885E+02  0.30000000000E+02 0.  1.
    -200000    1    3    3    0    0  0.26543803805E+03  0.58923332873E+02  0.61951305290E-01  0.29005226260E+03  0.10100000000E+03 0. -1.
<mgrwt>
<rscale>  0 0.15003052E+04</rscale>
<asrwt>0</asrwt>
<pdfrwt beam="1">  1        2 0.18797670E+00 0.15003052E+04</pdfrwt>
<pdfrwt beam="2">  1       -2 0.61094082E-01 0.15003052E+04</pdfrwt>
<totfact> 0.44376672E+01</totfact>
</mgrwt>
</event>
<event>
 8    2  0.4306980E-052  0.1746341E+04  0.7818608E-02  0.8735367E-01
          2   -1    0    0  501    0  0.00000000000E+00  0.00000000000E+00  0.22805511671E+04  0.22805511671E+04  0.25500000000E-02 0.  1.
         -2   -1    0    0    0  501 -0.00000000000E+00 -0.00000000000E+00 -0.33431687682E+03  0.33431687683E+03  0.25500000000E-02 0. -1.
    -200001    2    1    2    0    0 -0.34960605447E+03 -0.11183467328E+03  0.22154264953E+03  0.74803606350E+03  0.61298076582E+03 0.  0.
   -5000001    2    3    3    0    0 -0.15591015766E+03  0.24042032412E+03  0.99942454666E+02  0.31607623779E+03  0.88350349968E+02 0.  0.
     200001    1    1    2    0    0  0.34960605447E+03  0.11183467328E+03  0.17246916407E+04  0.18668319804E+04  0.61300000000E+03 0.  1.
         13    1    4    4    0    0 -0.35316584252E+01  0.13204716522E+02 -0.12736272664E+02  0.18683173046E+02  0.10566000000E+00 0.  1.
    -200003    1    4    4    0    0 -0.15237849923E+03  0.22721560760E+03  0.11267872733E+03  0.29739306474E+03  0.30000000000E+02 0.  1.
    -200000    1    3    3    0    0 -0.19369589681E+03 -0.35225499740E+03  0.12160019487E+03  0.43195982571E+03  0.10100000000E+03 0.  1.
<mgrwt>
<rscale>  0 0.17463410E+04</rscale>
<asrwt>0</asrwt>
<pdfrwt beam="1">  1        2 0.32579303E+00 0.17463410E+04</pdfrwt>
<pdfrwt beam="2">  1       -2 0.47759552E-01 0.17463410E+04</pdfrwt>
<totfact> 0.22684835E+01</totfact>
</mgrwt>
</event>
<event>
 8    2  0.4306980E-052  0.2396999E+04  0.7818608E-02  0.8440628E-01
         -2   -1    0    0    0  501 -0.00000000000E+00  0.00000000000E+00  0.12211654634E+04  0.12211654634E+04  0.25500000000E-02 0. -1.
          2   -1    0    0  501    0  0.00000000000E+00 -0.00000000000E+00 -0.11762545466E+04  0.11762545466E+04  0.25500000000E-02 0.  1.
    -200001    2    1    2    0    0 -0.50225196604E+02 -0.43478686032E+03 -0.91010866345E+03  0.11811167654E+04  0.61251681599E+03 0.  0.
   -5000001    2    3    3    0    0  0.16072941797E+03 -0.10277724988E+03 -0.68667773746E+03  0.71759264569E+03  0.83760259884E+02 0.  0.
     200001    1    1    2    0    0  0.50225196604E+02  0.43478686032E+03  0.95501958019E+03  0.12163032446E+04  0.61300000000E+03 0. -1.
         13    1    4    4    0    0  0.92341256784E+02 -0.94682729730E+02 -0.40354122124E+03  0.42466134204E+03  0.10566000000E+00 0.  1.
    -200003    1    4    4    0    0  0.68388161189E+02 -0.80945201517E+01 -0.28313651621E+03  0.29293130365E+03  0.30000000000E+02 0.  1.
    -200000    1    3    3    0    0 -0.21095461458E+03 -0.33200961044E+03 -0.22343092599E+03  0.46352411968E+03  0.10100000000E+03 0.  1.
<mgrwt>
<rscale>  0 0.23969993E+04</rscale>
<asrwt>0</asrwt>
<pdfrwt beam="1">  1        2 0.16803636E+00 0.23969993E+04</pdfrwt>
<pdfrwt beam="2">  1       -2 0.17445221E+00 0.23969993E+04</pdfrwt>
<totfact> 0.39527254E+00</totfact>
</mgrwt>
</event>
<event>
 8    2  0.4306980E-052  0.3079691E+04  0.7818608E-02  0.8221334E-01
          2   -1    0    0  501    0  0.00000000000E+00  0.00000000000E+00  0.24799043072E+04  0.24799043072E+04  0.25500000000E-02 0.  1.
         -2   -1    0    0    0  501 -0.00000000000E+00 -0.00000000000E+00 -0.95613540671E+03  0.95613540671E+03  0.25500000000E-02 0. -1.
    -200001    2    1    2    0    0  0.13937460942E+04  0.15611433382E+03  0.57339556263E+03  0.16344075812E+04  0.61286687778E+03 0.  0.
   -5000001    2    3    3    0    0  0.12970473216E+04 -0.79844893995E+01  0.40697731009E+03  0.13620565004E+04  0.84686911293E+02 0.  0.
     200001    1    1    2    0    0 -0.13937460942E+04 -0.15611433382E+03  0.95037333782E+03  0.18016321327E+04  0.61300000000E+03 0. -1.
         13    1    4    4    0    0  0.84095775107E+03 -0.37082094618E+02  0.25740499297E+03  0.88025130639E+03  0.10566000000E+00 0.  1.
    -200003    1    4    4    0    0  0.45608957051E+03  0.29097605219E+02  0.14957231711E+03  0.48180519404E+03  0.30000000000E+02 0.  1.
    -200000    1    3    3    0    0  0.96698772610E+02  0.16409882322E+03  0.16641825255E+03  0.27235108075E+03  0.10100000000E+03 0.  1.
<mgrwt>
<rscale>  0 0.30796911E+04</rscale>
<asrwt>0</asrwt>
<pdfrwt beam="1">  1        2 0.35427204E+00 0.30796911E+04</pdfrwt>
<pdfrwt beam="2">  1       -2 0.13659077E+00 0.30796911E+04</pdfrwt>
<totfact> 0.14824504E+00</totfact>
</mgrwt>
</event>
<event>
 8    2  0.4306980E-052  0.1531825E+04  0.7818608E-02  0.8863561E-01
         -2   -1    0    0    0  501 -0.00000000000E+00  0.00000000000E+00  0.11616834273E+04  0.11616834273E+04  0.25500000000E-02 0. -1.
          2   -1    0    0  501    0  0.00000000000E+00 -0.00000000000E+00 -0.50497591502E+03  0.50497591503E+03  0.25500000000E-02 0.  1.
    -200001    2    1    2    0    0  0.31106913554E+03 -0.59528342166E+02  0.68920332854E+03  0.97591148050E+03  0.61408009176E+03 0.  0.
   -5000001    2    3    3    0    0 -0.50198340790E+02 -0.10053162985E+03 -0.48979245080E+02  0.14686988260E+03  0.80903114575E+02 0.  0.
     200001    1    1    2    0    0 -0.31106913554E+03  0.59528342166E+02 -0.32495816221E+02  0.69074786187E+03  0.61300000000E+03 0.  1.
         13    1    4    4    0    0 -0.31483277203E+02 -0.76311703089E+02 -0.60667334032E+02  0.10244612904E+03  0.10566000000E+00 0.  1.
    -200003    1    4    4    0    0 -0.18715063586E+02 -0.24219926759E+02  0.11688088952E+02  0.44423753563E+02  0.30000000000E+02 0. -1.
    -200000    1    3    3    0    0  0.36126747633E+03  0.41003287682E+02  0.73818257362E+03  0.82904159790E+03  0.10100000000E+03 0. -1.
<mgrwt>
<rscale>  0 0.15318253E+04</rscale>
<asrwt>0</asrwt>
<pdfrwt beam="1">  1        2 0.72139417E-01 0.15318253E+04</pdfrwt>
<pdfrwt beam="2">  1       -2 0.16595477E+00 0.15318253E+04</pdfrwt>
<totfact> 0.14596596E+01</totfact>
</mgrwt>
</event>
<event>
 8    2  0.4306980E-052  0.1262970E+04  0.7818608E-02  0.9059457E-01
         -2   -1    0    0    0  501 -0.00000000000E+00  0.00000000000E+00  0.35454709368E+03  0.35454709369E+03  0.25500000000E-02 0. -1.
          2   -1    0    0  501    0  0.00000000000E+00 -0.00000000000E+00 -0.11247401117E+04  0.11247401117E+04  0.25500000000E-02 0.  1.
    -200001    2    1    2    0    0 -0.83725095808E+02 -0.45133974476E+02 -0.52760158963E+03  0.81320420124E+03  0.61146599923E+03 0.  0.
   -5000001    2    3    3    0    0  0.20514698093E+03  0.12781559509E+03 -0.13554777135E+03  0.28664382791E+03  0.73276023578E+02 0.  0.
     200001    1    1    2    0    0  0.83725095808E+02  0.45133974476E+02 -0.24259142841E+03  0.66608300418E+03  0.61300000000E+03 0. -1.
         13    1    4    4    0    0  0.44732639590E+02  0.14548810231E+02 -0.16270341162E+01  0.47067348851E+02  0.10566000000E+00 0.  1.
    -200003    1    4    4    0    0  0.16041434134E+03  0.11326678486E+03 -0.13392073723E+03  0.23957647906E+03  0.30000000000E+02 0.  1.
    -200000    1    3    3    0    0 -0.28887207673E+03 -0.17294956957E+03 -0.39205381828E+03  0.52656037333E+03  0.10100000000E+03 0.  1.
<mgrwt>
<rscale>  0 0.12629701E+04</rscale>
<asrwt>0</asrwt>
<pdfrwt beam="1">  1        2 0.16067716E+00 0.12629701E+04</pdfrwt>
<pdfrwt beam="2">  1       -2 0.50649585E-01 0.12629701E+04</pdfrwt>
<totfact> 0.85587260E+01</totfact>
</mgrwt>
</event>
<event>
 8    2  0.4306980E-052  0.1274729E+04  0.7818608E-02  0.9049849E-01
          2   -1    0    0  501    0  0.00000000000E+00  0.00000000000E+00  0.13747931281E+04  0.13747931281E+04  0.25500000000E-02 0. -1.
         -2   -1    0    0    0  501 -0.00000000000E+00 -0.00000000000E+00 -0.29548680223E+03  0.29548680224E+03  0.25500000000E-02 0.  1.
    -200001    2    1    2    0    0 -0.10645729813E+03 -0.11196706392E+03  0.64672420174E+03  0.90427335474E+03  0.61285261462E+03 0.  0.
   -5000001    2    3    3    0    0 -0.27397077754E+02 -0.10653128487E+03 -0.83752802656E+02  0.16260110900E+03  0.85586647157E+02 0.  0.
     200001    1    1    2    0    0  0.10645729813E+03  0.11196706392E+03  0.43258212411E+03  0.76600657558E+03  0.61300000000E+03 0.  1.
         13    1    4    4    0    0 -0.48085248311E+02 -0.53535060234E+02 -0.27106640677E+02  0.76895870579E+02  0.10566000000E+00 0.  1.
    -200003    1    4    4    0    0  0.20688170557E+02 -0.52996224634E+02 -0.56646161979E+02  0.85705238425E+02  0.30000000000E+02 0.  1.
    -200000    1    3    3    0    0 -0.79060220375E+02 -0.54357790516E+01  0.73047700440E+03  0.74167224573E+03  0.10100000000E+03 0. -1.
<mgrwt>
<rscale>  0 0.12747286E+04</rscale>
<asrwt>0</asrwt>
<pdfrwt beam="1">  1        2 0.19639902E+00 0.12747286E+04</pdfrwt>
<pdfrwt beam="2">  1       -2 0.42212401E-01 0.12747286E+04</pdfrwt>
<totfact> 0.89167560E+01</totfact>
</mgrwt>
</event>
<event>
 8    2  0.4306980E-052  0.1517213E+04  0.7818608E-02  0.8873086E-01
         -2   -1    0    0    0  501 -0.00000000000E+00  0.00000000000E+00  0.83558846344E+03  0.83558846344E+03  0.25500000000E-02 0. -1.
          2   -1    0    0  501    0  0.00000000000E+00 -0.00000000000E+00 -0.68871681180E+03  0.68871681181E+03  0.25500000000E-02 0.  1.
    -200001    2    1    2    0    0 -0.30139090117E+03  0.14582027232E+03  0.37195870583E+03  0.79045705587E+03  0.61185705128E+03 0.  0.
   -5000001    2    3    3    0    0 -0.38084616873E+03 -0.10821372280E+03  0.15623785062E+03  0.43326957346E+03  0.80982981450E+02 0.  0.
     200001    1    1    2    0    0  0.30139090117E+03 -0.14582027232E+03 -0.22508705419E+03  0.73384821938E+03  0.61300000000E+03 0.  1.
         13    1    4    4    0    0 -0.11554103109E+03  0.87165870982E-01  0.35520296126E+02  0.12087778979E+03  0.10566000000E+00 0.  1.
    -200003    1    4    4    0    0 -0.26530513764E+03 -0.10830088867E+03  0.12071755449E+03  0.31239178367E+03  0.30000000000E+02 0.  1.
    -200000    1    3    3    0    0  0.79455267556E+02  0.25403399511E+03  0.21572085521E+03  0.35718748241E+03  0.10100000000E+03 0. -1.
<mgrwt>
<rscale>  0 0.15172130E+04</rscale>
<asrwt>0</asrwt>
<pdfrwt beam="1">  1        2 0.98388116E-01 0.15172130E+04</pdfrwt>
<pdfrwt beam="2">  1       -2 0.11936978E+00 0.15172130E+04</pdfrwt>
<totfact> 0.23887144E+01</totfact>
</mgrwt>
</event>
<event>
 8    2  0.4306980E-052  0.1558422E+04  0.7818608E-02  0.8846506E-01
         -2   -1    0    0    0  501 -0.00000000000E+00  0.00000000000E+00  0.61162537379E+03  0.61162537379E+03  0.25500000000E-02 0. -1.
          2   -1    0    0  501    0  0.00000000000E+00 -0.00000000000E+00 -0.99271547744E+03  0.99271547745E+03  0.25500000000E-02 0.  1.
    -200001    2    1    2    0    0 -0.73209188489E+02 -0.42146764588E+03 -0.41746309948E+03  0.85595154304E+03  0.61268510901E+03 0.  0.
   -5000001    2    3    3    0    0 -0.11689958970E+02 -0.32129521234E+03 -0.55509834066E+03  0.64867493641E+03  0.96321008647E+02 0.  0.
     200001    1    1    2    0    0  0.73209188489E+02  0.42146764588E+03  0.36372995824E+02  0.74838930820E+03  0.61300000000E+03 0. -1.
         13    1    4    4    0    0  0.33689404851E+01 -0.28229227211E+02 -0.11782954692E+03  0.12121077642E+03  0.10566000000E+00 0.  1.
    -200003    1    4    4    0    0 -0.15058899455E+02 -0.29306598513E+03 -0.43726879374E+03  0.52746415999E+03  0.30000000000E+02 0.  1.
    -200000    1    3    3    0    0 -0.61519229519E+02 -0.10017243354E+03  0.13763524118E+03  0.20727660663E+03  0.10100000000E+03 0. -1.
<mgrwt>
<rscale>  0 0.15584222E+04</rscale>
<asrwt>0</asrwt>
<pdfrwt beam="1">  1        2 0.14181650E+00 0.15584222E+04</pdfrwt>
<pdfrwt beam="2">  1       -2 0.87375054E-01 0.15584222E+04</pdfrwt>
<totfact> 0.30957227E+01</totfact>
</mgrwt>
</event>
<event>
 8    2  0.4306980E-052  0.1485262E+04  0.7818608E-02  0.8894313E-01
         -2   -1    0    0    0  501 -0.00000000000E+00  0.00000000000E+00  0.24792539110E+03  0.24792539111E+03  0.25500000000E-02 0. -1.
          2   -1    0    0  501    0  0.00000000000E+00 -0.00000000000E+00 -0.22244622160E+04  0.22244622160E+04  0.25500000000E-02 0.  1.
    -200001    2    1    2    0    0  0.24385026253E+03  0.14409801188E+03 -0.47414606090E+03  0.82521603277E+03  0.61313932031E+03 0.  0.
   -5000001    2    3    3    0    0 -0.66857357210E+02  0.78257878631E+02  0.57582972299E+02  0.19767247822E+03  0.15863293531E+03 0.  0.
     200001    1    1    2    0    0 -0.24385026253E+03 -0.14409801188E+03 -0.15023907640E+04  0.16471715743E+04  0.61300000000E+03 0.  1.
         13    1    4    4    0    0  0.25136003476E+02  0.51062810963E+02 -0.30017497255E+02  0.64345090253E+02  0.10566000000E+00 0.  1.
    -200003    1    4    4    0    0 -0.91993360686E+02  0.27195067669E+02  0.87600469555E+02  0.13332738797E+03  0.30000000000E+02 0.  1.
    -200000    1    3    3    0    0  0.31070761974E+03  0.65840133245E+02 -0.53172903320E+03  0.62754355455E+03  0.10100000000E+03 0.  1.
<mgrwt>
<rscale>  0 0.14852618E+04</rscale>
<asrwt>0</asrwt>
<pdfrwt beam="1">  1        2 0.31778030E+00 0.14852618E+04</pdfrwt>
<pdfrwt beam="2">  1       -2 0.35417914E-01 0.14852618E+04</pdfrwt>
<totfact> 0.44575210E+01</totfact>
</mgrwt>
</event>
<event>
 8    2  0.4306980E-052  0.1350584E+04  0.7818608E-02  0.8990386E-01
         -2   -1    0    0    0  501 -0.00000000000E+00  0.00000000000E+00  0.36148648451E+03  0.36148648452E+03  0.25500000000E-02 0. -1.
          2   -1    0    0  501    0  0.00000000000E+00 -0.00000000000E+00 -0.12615116839E+04  0.12615116839E+04  0.25500000000E-02 0.  1.
    -200001    2    1    2    0    0 -0.27268560743E+03  0.30893830403E+02 -0.53324893077E+03  0.85774938503E+03  0.61324360257E+03 0.  0.
   -5000001    2    3    3    0    0 -0.39619510444E+03  0.44642147405E+02 -0.51429176173E+03  0.69649186945E+03  0.24827691378E+03 0.  0.
     200001    1    1    2    0    0  0.27268560743E+03 -0.30893830403E+02 -0.36677626861E+03  0.76524878338E+03  0.61300000000E+03 0.  1.
         13    1    4    4    0    0 -0.11442582641E+03  0.12704883529E+03 -0.14819117634E+03  0.22626381109E+03  0.10566000000E+00 0.  1.
    -200003    1    4    4    0    0 -0.28176927803E+03 -0.82406687884E+02 -0.36610058539E+03  0.47022805836E+03  0.30000000000E+02 0.  1.
    -200000    1    3    3    0    0  0.12350949701E+03 -0.13748317002E+02 -0.18957169045E+02  0.16125751558E+03  0.10100000000E+03 0. -1.
<mgrwt>
<rscale>  0 0.13505842E+04</rscale>
<asrwt>0</asrwt>
<pdfrwt beam="1">  1        2 0.18021595E+00 0.13505842E+04</pdfrwt>
<pdfrwt beam="2">  1       -2 0.51640927E-01 0.13505842E+04</pdfrwt>
<totfact> 0.68283297E+01</totfact>
</mgrwt>
</event>
<event>
 8    2  0.4306980E-052  0.1467005E+04  0.7818608E-02  0.8906696E-01
         -2   -1    0    0    0  501 -0.00000000000E+00  0.00000000000E+00  0.63784657023E+03  0.63784657023E+03  0.25500000000E-02 0. -1.
          2   -1    0    0  501    0  0.00000000000E+00 -0.00000000000E+00 -0.84350363983E+03  0.84350363984E+03  0.25500000000E-02 0.  1.
    -200001    2    1    2    0    0  0.21255744058E+03  0.28963455168E+03  0.81047322898E+02  0.71516664998E+03  0.61304635194E+03 0.  0.
   -5000001    2    3    3    0    0  0.20732530447E+03  0.29984634141E+03 -0.18821656114E+03  0.42735474067E+03  0.11964526799E+03 0.  0.
     200001    1    1    2    0    0 -0.21255744058E+03 -0.28963455168E+03 -0.28670439250E+03  0.76618356009E+03  0.61300000000E+03 0.  1.
         13    1    4    4    0    0  0.76525282655E+02  0.56013643304E+02 -0.93975639398E+02  0.13351059541E+03  0.10566000000E+00 0.  1.
    -200003    1    4    4    0    0  0.13080002182E+03  0.24383269810E+03 -0.94240921738E+02  0.29384414526E+03  0.30000000000E+02 0.  1.
    -200000    1    3    3    0    0  0.52321361067E+01 -0.10211789732E+02  0.26926388404E+03  0.28781190931E+03  0.10100000000E+03 0. -1.
<mgrwt>
<rscale>  0 0.14670050E+04</rscale>
<asrwt>0</asrwt>
<pdfrwt beam="1">  1        2 0.12050052E+00 0.14670050E+04</pdfrwt>
<pdfrwt beam="2">  1       -2 0.91120939E-01 0.14670050E+04</pdfrwt>
<totfact> 0.35353323E+01</totfact>
</mgrwt>
</event>
<event>
 8    2  0.4306980E-052  0.1903849E+04  0.7818608E-02  0.8652943E-01
          2   -1    0    0  501    0  0.00000000000E+00  0.00000000000E+00  0.10280625049E+04  0.10280625050E+04  0.25500000000E-02 0.  1.
         -2   -1    0    0    0  501 -0.00000000000E+00 -0.00000000000E+00 -0.88142521907E+03  0.88142521907E+03  0.25500000000E-02 0. -1.
    -200001    2    1    2    0    0  0.32413013325E+03 -0.28396199466E+03  0.66210604841E+03  0.99999786545E+03  0.61312034207E+03 0.  0.
   -5000001    2    3    3    0    0  0.56383321688E+02 -0.36806257122E+03  0.15747453268E+03  0.41381084005E+03  0.88272575571E+02 0.  0.
     200001    1    1    2    0    0 -0.32413013325E+03  0.28396199466E+03 -0.51546876253E+03  0.90948985857E+03  0.61300000000E+03 0. -1.
         13    1    4    4    0    0  0.45068012646E+02 -0.30197325923E+03  0.10251076013E+03  0.32206744970E+03  0.10566000000E+00 0.  1.
    -200003    1    4    4    0    0  0.11315309041E+02 -0.66089311996E+02  0.54963772551E+02  0.91743390344E+02  0.30000000000E+02 0.  1.
    -200000    1    3    3    0    0  0.26774681157E+03  0.84100576558E+02  0.50463151573E+03  0.58618702540E+03  0.10100000000E+03 0.  1.
<mgrwt>
<rscale>  0 0.19038490E+04</rscale>
<asrwt>0</asrwt>
<pdfrwt beam="1">  1        2 0.14686607E+00 0.19038490E+04</pdfrwt>
<pdfrwt beam="2">  1       -2 0.12591789E+00 0.19038490E+04</pdfrwt>
<totfact> 0.11938843E+01</totfact>
</mgrwt>
</event>
<event>
 8    2  0.4306980E-052  0.1841612E+04  0.7818608E-02  0.8684478E-01
         -2   -1    0    0    0  501 -0.00000000000E+00  0.00000000000E+00  0.57473110265E+03  0.57473110265E+03  0.25500000000E-02 0. -1.
          2   -1    0    0  501    0  0.00000000000E+00 -0.00000000000E+00 -0.14752700367E+04  0.14752700367E+04  0.25500000000E-02 0.  1.
    -200001    2    1    2    0    0 -0.15320053948E+02 -0.46617901372E+03 -0.10118639022E+04  0.12717210963E+04  0.61306477080E+03 0.  0.
   -5000001    2    3    3    0    0 -0.25132819982E+03 -0.43973221325E+03 -0.65640385206E+03  0.83245793434E+03  0.74765714348E+02 0.  0.
     200001    1    1    2    0    0  0.15320053948E+02  0.46617901372E+03  0.11132496819E+03  0.77828004306E+03  0.61300000000E+03 0. -1.
         13    1    4    4    0    0 -0.10701359290E+02 -0.27577714350E+02 -0.17343360349E+02  0.34290709115E+02  0.10566000000E+00 0.  1.
    -200003    1    4    4    0    0 -0.24062684053E+03 -0.41215449890E+03 -0.63906049171E+03  0.79816722522E+03  0.30000000000E+02 0.  1.
    -200000    1    3    3    0    0  0.23600814587E+03 -0.26446800468E+02 -0.35546005016E+03  0.43926316193E+03  0.10100000000E+03 0.  1.
<mgrwt>
<rscale>  0 0.18416119E+04</rscale>
<asrwt>0</asrwt>
<pdfrwt beam="1">  1        2 0.21075286E+00 0.18416119E+04</pdfrwt>
<pdfrwt beam="2">  1       -2 0.82104444E-01 0.18416119E+04</pdfrwt>
<totfact> 0.18546451E+01</totfact>
</mgrwt>
</event>
<event>
 8    2  0.4306980E-052  0.1446905E+04  0.7818608E-02  0.8920549E-01
          2   -1    0    0  501    0  0.00000000000E+00  0.00000000000E+00  0.29454742197E+04  0.29454742197E+04  0.25500000000E-02 0.  1.
         -2   -1    0    0    0  501 -0.00000000000E+00 -0.00000000000E+00 -0.17769074138E+03  0.17769074140E+03  0.25500000000E-02 0. -1.
    -200001    2    1    2    0    0 -0.24107868057E+03 -0.23719066054E+03  0.17780390114E+04  0.19108360250E+04  0.61277503901E+03 0.  0.
   -5000001    2    3    3    0    0 -0.10533462459E+03  0.96313241678E+02  0.17474873688E+03  0.26450920261E+03  0.13804482447E+03 0.  0.
     200001    1    1    2    0    0  0.24107868057E+03  0.23719066054E+03  0.98974446689E+03  0.12123289361E+04  0.61300000000E+03 0. -1.
         13    1    4    4    0    0 -0.11674225728E+03  0.58575200308E+02  0.68971415828E+02  0.14770536920E+03  0.10566000000E+00 0.  1.
    -200003    1    4    4    0    0  0.11407632683E+02  0.37738041370E+02  0.10577732106E+03  0.11680383341E+03  0.30000000000E+02 0.  1.
    -200000    1    3    3    0    0 -0.13574405597E+03 -0.33350390221E+03  0.16032902745E+04  0.16463268223E+04  0.10100000000E+03 0.  1.
<mgrwt>
<rscale>  0 0.14469050E+04</rscale>
<asrwt>0</asrwt>
<pdfrwt beam="1">  1        2 0.42078204E+00 0.14469050E+04</pdfrwt>
<pdfrwt beam="2">  1       -2 0.25384391E-01 0.14469050E+04</pdfrwt>
<totfact> 0.34466173E+01</totfact>
</mgrwt>
</event>
<event>
 8    2  0.4306980E-052  0.1557548E+04  0.7818608E-02  0.8847061E-01
         -2   -1    0    0    0  501 -0.00000000000E+00  0.00000000000E+00  0.11114464790E+04  0.11114464790E+04  0.25500000000E-02 0. -1.
          2   -1    0    0  501    0  0.00000000000E+00 -0.00000000000E+00 -0.54567510855E+03  0.54567510855E+03  0.25500000000E-02 0.  1.
    -200001    2    1    2    0    0  0.38856443764E+02 -0.53572541090E+02 -0.22360037500E+03  0.65549461462E+03  0.61261425197E+03 0.  0.
   -5000001    2    3    3    0    0 -0.10844094334E+03  0.84618860623E+01  0.16642170890E+03  0.22206294027E+03  0.98917756445E+02 0.  0.
     200001    1    1    2    0    0 -0.38856443764E+02  0.53572541090E+02  0.78937174546E+03  0.10016269729E+04  0.61300000000E+03 0. -1.
         13    1    4    4    0    0 -0.36014690385E+02  0.34665664981E+02  0.11322061665E+03  0.12376463732E+03  0.10566000000E+00 0.  1.
    -200003    1    4    4    0    0 -0.72426252953E+02 -0.26203778918E+02  0.53201092251E+02  0.98298302951E+02  0.30000000000E+02 0.  1.
    -200000    1    3    3    0    0  0.14729738710E+03 -0.62034427152E+02 -0.39002208390E+03  0.43343167435E+03  0.10100000000E+03 0.  1.
<mgrwt>
<rscale>  0 0.15575477E+04</rscale>
<asrwt>0</asrwt>
<pdfrwt beam="1">  1        2 0.77953588E-01 0.15575477E+04</pdfrwt>
<pdfrwt beam="2">  1       -2 0.15877807E+00 0.15575477E+04</pdfrwt>
<totfact> 0.15034858E+01</totfact>
</mgrwt>
</event>
<event>
 8    2  0.4306980E-052  0.1579593E+04  0.7818608E-02  0.8833184E-01
          2   -1    0    0  501    0  0.00000000000E+00  0.00000000000E+00  0.15447230814E+04  0.15447230815E+04  0.25500000000E-02 0.  1.
         -2   -1    0    0    0  501 -0.00000000000E+00 -0.00000000000E+00 -0.40381237212E+03  0.40381237213E+03  0.25500000000E-02 0. -1.
    -200001    2    1    2    0    0  0.24038053216E+03 -0.43318916423E+03  0.63242695040E+03  0.10105800254E+04  0.61308440513E+03 0.  0.
   -5000001    2    3    3    0    0  0.12372228434E+03 -0.51400604118E+03  0.64212882690E+03  0.83612189058E+03  0.85211334696E+02 0.  0.
     200001    1    1    2    0    0 -0.24038053216E+03  0.43318916423E+03  0.50848375892E+03  0.93795542822E+03  0.61300000000E+03 0. -1.
         13    1    4    4    0    0  0.36378587808E+02 -0.89519243789E+02  0.78433085559E+02  0.12445423550E+03  0.10566000000E+00 0.  1.
    -200003    1    4    4    0    0  0.87343696537E+02 -0.42448679739E+03  0.56369574134E+03  0.71166765508E+03  0.30000000000E+02 0.  1.
    -200000    1    3    3    0    0  0.11665824781E+03  0.80816876953E+02 -0.97018764964E+01  0.17445813478E+03  0.10100000000E+03 0. -1.
<mgrwt>
<rscale>  0 0.15795927E+04</rscale>
<asrwt>0</asrwt>
<pdfrwt beam="1">  1        2 0.22067472E+00 0.15795927E+04</pdfrwt>
<pdfrwt beam="2">  1       -2 0.57687482E-01 0.15795927E+04</pdfrwt>
<totfact> 0.37467932E+01</totfact>
</mgrwt>
</event>
<event>
 8    2  0.4306980E-052  0.1762130E+04  0.7818608E-02  0.8726702E-01
         -2   -1    0    0    0  501 -0.00000000000E+00  0.00000000000E+00  0.36638223121E+03  0.36638223122E+03  0.25500000000E-02 0. -1.
          2   -1    0    0  501    0  0.00000000000E+00 -0.00000000000E+00 -0.21187587614E+04  0.21187587614E+04  0.25500000000E-02 0.  1.
    -200001    2    1    2    0    0  0.21808927398E+03  0.48019707300E+02 -0.40869675943E+02  0.65350414656E+03  0.61280381481E+03 0.  0.
   -5000001    2    3    3    0    0  0.81443564220E+02  0.31520411920E+03 -0.41679276275E+02  0.33686363208E+03  0.75850205238E+02 0.  0.
     200001    1    1    2    0    0 -0.21808927398E+03 -0.48019707300E+02 -0.17115068543E+04  0.18316368461E+04  0.61300000000E+03 0.  1.
         13    1    4    4    0    0  0.59053505992E+02  0.10317060293E+03 -0.11157594885E+02  0.11939846300E+03  0.10566000000E+00 0.  1.
    -200003    1    4    4    0    0  0.22390058228E+02  0.21203351626E+03 -0.30521681390E+02  0.21746516908E+03  0.30000000000E+02 0.  1.
    -200000    1    3    3    0    0  0.13664570976E+03 -0.26718441190E+03  0.80960033191E+00  0.31664051448E+03  0.10100000000E+03 0. -1.
<mgrwt>
<rscale>  0 0.17621300E+04</rscale>
<asrwt>0</asrwt>
<pdfrwt beam="1">  1        2 0.30267982E+00 0.17621300E+04</pdfrwt>
<pdfrwt beam="2">  1       -2 0.52340320E-01 0.17621300E+04</pdfrwt>
<totfact> 0.22788149E+01</totfact>
</mgrwt>
</event>
<event>
 8    2  0.4306980E-052  0.1707287E+04  0.7818608E-02  0.8757219E-01
          2   -1    0    0  501    0  0.00000000000E+00  0.00000000000E+00  0.23024109573E+04  0.23024109573E+04  0.25500000000E-02 0.  1.
         -2   -1    0    0    0  501 -0.00000000000E+00 -0.00000000000E+00 -0.31649758505E+03  0.31649758506E+03  0.25500000000E-02 0. -1.
    -200001    2    1    2    0    0 -0.49049495182E+02  0.31757530356E+03  0.22497404430E+03  0.72683659787E+03  0.61189720786E+03 0.  0.
   -5000001    2    3    3    0    0 -0.13095616415E+03  0.20672472280E+03  0.40242070492E+03  0.48049360317E+03  0.95115987077E+02 0.  0.
     200001    1    1    2    0    0  0.49049495182E+02 -0.31757530356E+03  0.17609393280E+04  0.18920719445E+04  0.61300000000E+03 0.  1.
         13    1    4    4    0    0 -0.37538064692E+02  0.70186424808E+01  0.81238359951E+02  0.89766641548E+02  0.10566000000E+00 0.  1.
    -200003    1    4    4    0    0 -0.93418099460E+02  0.19970608032E+03  0.32118234496E+03  0.39072696162E+03  0.30000000000E+02 0.  1.
    -200000    1    3    3    0    0  0.81906668969E+02  0.11085058076E+03 -0.17744666061E+03  0.24634299470E+03  0.10100000000E+03 0. -1.
<mgrwt>
<rscale>  0 0.17072873E+04</rscale>
<asrwt>0</asrwt>
<pdfrwt beam="1">  1        2 0.32891585E+00 0.17072873E+04</pdfrwt>
<pdfrwt beam="2">  1       -2 0.45213940E-01 0.17072873E+04</pdfrwt>
<totfact> 0.24750841E+01</totfact>
</mgrwt>
</event>
<event>
 8    2  0.4306980E-052  0.2098411E+04  0.7818608E-02  0.8561944E-01
          2   -1    0    0  501    0  0.00000000000E+00  0.00000000000E+00  0.81644170105E+03  0.81644170106E+03  0.25500000000E-02 0.  1.
         -2   -1    0    0    0  501 -0.00000000000E+00 -0.00000000000E+00 -0.13483286710E+04  0.13483286710E+04  0.25500000000E-02 0. -1.
    -200001    2    1    2    0    0  0.30824436610E+02 -0.54492459696E+03 -0.94131060314E+03  0.12475519282E+04  0.61026813754E+03 0.  0.
   -5000001    2    3    3    0    0  0.13892712739E+03 -0.62019451069E+03 -0.66250786006E+03  0.92307739728E+03  0.95985618226E+02 0.  0.
     200001    1    1    2    0    0 -0.30824436610E+02  0.54492459696E+03  0.40942363323E+03  0.91721844384E+03  0.61300000000E+03 0.  1.
         13    1    4    4    0    0  0.11368856830E+02 -0.14099790641E+03 -0.19498011210E+03  0.24088776597E+03  0.10566000000E+00 0.  1.
    -200003    1    4    4    0    0  0.12755827057E+03 -0.47919660428E+03 -0.46752774796E+03  0.68218963130E+03  0.30000000000E+02 0.  1.
    -200000    1    3    3    0    0 -0.10810269078E+03  0.75269913725E+02 -0.27880274308E+03  0.32447453092E+03  0.10100000000E+03 0. -1.
<mgrwt>
<rscale>  0 0.20984106E+04</rscale>
<asrwt>0</asrwt>
<pdfrwt beam="1">  1        2 0.11663453E+00 0.20984106E+04</pdfrwt>
<pdfrwt beam="2">  1       -2 0.19261838E+00 0.20984106E+04</pdfrwt>
<totfact> 0.50971886E+00</totfact>
</mgrwt>
</event>
<event>
 8    2  0.4306980E-052  0.2058522E+04  0.7818608E-02  0.8579738E-01
         -2   -1    0    0    0  501 -0.00000000000E+00  0.00000000000E+00  0.71055993847E+03  0.71055993847E+03  0.25500000000E-02 0. -1.
          2   -1    0    0  501    0  0.00000000000E+00 -0.00000000000E+00 -0.14909057235E+04  0.14909057235E+04  0.25500000000E-02 0.  1.
    -200001    2    1    2    0    0 -0.60370215359E+03 -0.56469395924E+03 -0.37527297036E+03  0.10954871165E+04  0.61312858545E+03 0.  0.
   -5000001    2    3    3    0    0  0.10324068434E+03 -0.14730380743E+03 -0.12102568954E+03  0.23014013712E+03  0.77202426107E+02 0.  0.
     200001    1    1    2    0    0  0.60370215359E+03  0.56469395924E+03 -0.40507281467E+03  0.11059785455E+04  0.61300000000E+03 0. -1.
         13    1    4    4    0    0  0.65180503429E+02 -0.10141265013E+03 -0.10858922597E+03  0.16224874358E+03  0.10566000000E+00 0.  1.
    -200003    1    4    4    0    0  0.38060180911E+02 -0.45891157308E+02 -0.12436463566E+02  0.67891393535E+02  0.30000000000E+02 0.  1.
    -200000    1    3    3    0    0 -0.70694283793E+03 -0.41739015180E+03 -0.25424728082E+03  0.86534697938E+03  0.10100000000E+03 0.  1.
<mgrwt>
<rscale>  0 0.20585217E+04</rscale>
<asrwt>0</asrwt>
<pdfrwt beam="1">  1        2 0.21298653E+00 0.20585217E+04</pdfrwt>
<pdfrwt beam="2">  1       -2 0.10150856E+00 0.20585217E+04</pdfrwt>
<totfact> 0.10943383E+01</totfact>
</mgrwt>
</event>
<event>
 8    2  0.4306980E-052  0.1337775E+04  0.7818608E-02  0.9000134E-01
         -2   -1    0    0    0  501 -0.00000000000E+00  0.00000000000E+00  0.42326351668E+03  0.42326351669E+03  0.25500000000E-02 0. -1.
          2   -1    0    0  501    0  0.00000000000E+00 -0.00000000000E+00 -0.10570496689E+04  0.10570496689E+04  0.25500000000E-02 0.  1.
    -200001    2    1    2    0    0  0.25478024263E+03 -0.78086973559E+02 -0.34539130178E+03  0.75233575653E+03  0.61294648358E+03 0.  0.
   -5000001    2    3    3    0    0  0.15291463075E+03  0.35691746577E+02  0.14775199122E+03  0.22630010425E+03  0.68733552232E+02 0.  0.
     200001    1    1    2    0    0 -0.25478024263E+03  0.78086973559E+02 -0.28839485045E+03  0.72797742907E+03  0.61300000000E+03 0. -1.
         13    1    4    4    0    0  0.95764534246E+02  0.74451179285E+01  0.58033544217E+02  0.11222379079E+03  0.10566000000E+00 0.  1.
    -200003    1    4    4    0    0  0.57150096506E+02  0.28246628649E+02  0.89718447000E+02  0.11407631346E+03  0.30000000000E+02 0.  1.
    -200000    1    3    3    0    0  0.10186561188E+03 -0.11377872014E+03 -0.49314329300E+03  0.52603565228E+03  0.10100000000E+03 0.  1.
<mgrwt>
<rscale>  0 0.13377751E+04</rscale>
<asrwt>0</asrwt>
<pdfrwt beam="1">  1        2 0.15100709E+00 0.13377751E+04</pdfrwt>
<pdfrwt beam="2">  1       -2 0.60466217E-01 0.13377751E+04</pdfrwt>
<totfact> 0.64626985E+01</totfact>
</mgrwt>
</event>
<event>
 8    2  0.4306980E-052  0.1423941E+04  0.7818608E-02  0.8936669E-01
         -2   -1    0    0    0  501 -0.00000000000E+00  0.00000000000E+00  0.15349671603E+04  0.15349671603E+04  0.25500000000E-02 0. -1.
          2   -1    0    0  501    0  0.00000000000E+00 -0.00000000000E+00 -0.33023630932E+03  0.33023630933E+03  0.25500000000E-02 0.  1.
    -200001    2    1    2    0    0  0.25922361570E+03 -0.21002399412E+03  0.78557377592E+03  0.10510974479E+04  0.61349223837E+03 0.  0.
   -5000001    2    3    3    0    0  0.18998409515E+03 -0.39489183842E+03  0.63184405066E+03  0.78127517401E+03  0.13831295207E+03 0.  0.
     200001    1    1    2    0    0 -0.25922361570E+03  0.21002399412E+03  0.41915707507E+03  0.81410602173E+03  0.61300000000E+03 0.  1.
         13    1    4    4    0    0  0.17072926788E+03 -0.25269035314E+03  0.35493096019E+03  0.46794967159E+03  0.10566000000E+00 0.  1.
    -200003    1    4    4    0    0  0.19254827265E+02 -0.14220148528E+03  0.27691309048E+03  0.31332550242E+03  0.30000000000E+02 0.  1.
    -200000    1    3    3    0    0  0.69239520549E+02  0.18486784430E+03  0.15372972526E+03  0.26982227390E+03  0.10100000000E+03 0. -1.
<mgrwt>
<rscale>  0 0.14239409E+04</rscale>
<asrwt>0</asrwt>
<pdfrwt beam="1">  1        2 0.47176616E-01 0.14239409E+04</pdfrwt>
<pdfrwt beam="2">  1       -2 0.21928102E+00 0.14239409E+04</pdfrwt>
<totfact> 0.10412878E+01</totfact>
</mgrwt>
</event>
<event>
 8    2  0.4306980E-052  0.1314676E+04  0.7818608E-02  0.9018008E-01
         -2   -1    0    0    0  501 -0.00000000000E+00  0.00000000000E+00  0.13678718141E+04  0.13678718141E+04  0.25500000000E-02 0. -1.
          2   -1    0    0  501    0  0.00000000000E+00 -0.00000000000E+00 -0.31588700358E+03  0.31588700359E+03  0.25500000000E-02 0.  1.
    -200001    2    1    2    0    0 -0.21000521703E+03 -0.99862230860E+02  0.46102396849E+03  0.80110465375E+03  0.61249564114E+03 0.  0.
   -5000001    2    3    3    0    0  0.10392405494E+03 -0.10866073435E+03 -0.64020285085E+02  0.18102282877E+03  0.77867215508E+02 0.  0.
     200001    1    1    2    0    0  0.21000521703E+03  0.99862230860E+02  0.59096084207E+03  0.88265416398E+03  0.61300000000E+03 0. -1.
         13    1    4    4    0    0  0.69348507674E+02 -0.95088631710E+02 -0.27367565389E+02  0.12083070055E+03  0.10566000000E+00 0.  1.
    -200003    1    4    4    0    0  0.34575547263E+02 -0.13572102642E+02 -0.36652719696E+02  0.60192128221E+02  0.30000000000E+02 0. -1.
    -200000    1    3    3    0    0 -0.31392927196E+03  0.87985034925E+01  0.52504425357E+03  0.62008182498E+03  0.10100000000E+03 0. -1.
<mgrwt>
<rscale>  0 0.13146755E+04</rscale>
<asrwt>0</asrwt>
<pdfrwt beam="1">  1        2 0.45126715E-01 0.13146755E+04</pdfrwt>
<pdfrwt beam="2">  1       -2 0.19541026E+00 0.13146755E+04</pdfrwt>
<totfact> 0.15732949E+01</totfact>
</mgrwt>
</event>
<event>
 8    2  0.4306980E-052  0.1535990E+04  0.7818608E-02  0.8860867E-01
         -2   -1    0    0    0  501 -0.00000000000E+00  0.00000000000E+00  0.10285330637E+04  0.10285330637E+04  0.25500000000E-02 0. -1.
          2   -1    0    0  501    0  0.00000000000E+00 -0.00000000000E+00 -0.57345383513E+03  0.57345383513E+03  0.25500000000E-02 0.  1.
    -200001    2    1    2    0    0  0.32532957090E+03 -0.27794433768E+03  0.45057134404E+02  0.74935596915E+03  0.61352411411E+03 0.  0.
   -5000001    2    3    3    0    0 -0.12185609086E+03 -0.32027176817E+02 -0.14046408824E+03  0.19702509898E+03  0.56692879697E+02 0.  0.
     200001    1    1    2    0    0 -0.32532957090E+03  0.27794433768E+03  0.41002209417E+03  0.85263092969E+03  0.61300000000E+03 0. -1.
         13    1    4    4    0    0 -0.77219869039E+02 -0.21786434539E+02 -0.62235496001E+02  0.10154223274E+03  0.10566000000E+00 0.  1.
    -200003    1    4    4    0    0 -0.44636221825E+02 -0.10240742277E+02 -0.78228592235E+02  0.95482866234E+02  0.30000000000E+02 0.  1.
    -200000    1    3    3    0    0  0.44718566177E+03 -0.24591716086E+03  0.18552122264E+03  0.55233087017E+03  0.10100000000E+03 0. -1.
<mgrwt>
<rscale>  0 0.15359899E+04</rscale>
<asrwt>0</asrwt>
<pdfrwt beam="1">  1        2 0.81921977E-01 0.15359899E+04</pdfrwt>
<pdfrwt beam="2">  1       -2 0.14693329E+00 0.15359899E+04</pdfrwt>
<totfact> 0.17482417E+01</totfact>
</mgrwt>
</event>
<event>
 8    2  0.4306980E-052  0.1219712E+04  0.7818608E-02  0.9095776E-01
         -2   -1    0    0    0  501 -0.00000000000E+00  0.00000000000E+00  0.29428351660E+03  0.29428351661E+03  0.25500000000E-02 0. -1.
          2   -1    0    0  501    0  0.00000000000E+00 -0.00000000000E+00 -0.12638299238E+04  0.12638299238E+04  0.25500000000E-02 0.  1.
    -200001    2    1    2    0    0 -0.29555174802E+02 -0.17788781901E+02 -0.55230305905E+03  0.81578537231E+03  0.59939732693E+03 0.  0.
   -5000001    2    3    3    0    0  0.18420029439E+03  0.17068342996E+03 -0.37659569925E+03  0.46608943076E+03  0.11114159914E+03 0.  0.
     200001    1    1    2    0    0  0.29555174802E+02  0.17788781901E+02 -0.41724334817E+03  0.74232806812E+03  0.61300000000E+03 0.  1.
         13    1    4    4    0    0  0.32596088233E+02  0.27463586829E+02 -0.15313735400E+03  0.15895852895E+03  0.10566000000E+00 0.  1.
    -200003    1    4    4    0    0  0.15160420615E+03  0.14321984313E+03 -0.22345834524E+03  0.30713090181E+03  0.30000000000E+02 0.  1.
    -200000    1    3    3    0    0 -0.21375546919E+03 -0.18847221186E+03 -0.17570735980E+03  0.34969594155E+03  0.10100000000E+03 0.  1.
<mgrwt>
<rscale>  0 0.12197120E+04</rscale>
<asrwt>0</asrwt>
<pdfrwt beam="1">  1        2 0.18054713E+00 0.12197120E+04</pdfrwt>
<pdfrwt beam="2">  1       -2 0.42040503E-01 0.12197120E+04</pdfrwt>
<totfact> 0.10387205E+02</totfact>
</mgrwt>
</event>
<event>
 8    2  0.4306980E-052  0.1318567E+04  0.7818608E-02  0.9014970E-01
         -2   -1    0    0    0  501 -0.00000000000E+00  0.00000000000E+00  0.81561946387E+03  0.81561946388E+03  0.25500000000E-02 0. -1.
          2   -1    0    0  501    0  0.00000000000E+00 -0.00000000000E+00 -0.53291343612E+03  0.53291343613E+03  0.25500000000E-02 0.  1.
    -200001    2    1    2    0    0  0.46091862932E+02 -0.19886937147E+02 -0.10107898136E+03  0.62356401563E+03  0.61326598717E+03 0.  0.
   -5000001    2    3    3    0    0  0.22336077477E+03 -0.19664617539E+03  0.61053390620E+02  0.30867355618E+03  0.54700034541E+02 0.  0.
     200001    1    1    2    0    0 -0.46091862932E+02  0.19886937147E+02  0.38378500911E+03  0.72496888438E+03  0.61300000000E+03 0. -1.
         13    1    4    4    0    0  0.14624327818E+03 -0.12371798187E+03  0.48973725126E+02  0.19771614089E+03  0.10566000000E+00 0.  1.
    -200003    1    4    4    0    0  0.77117496589E+02 -0.72928193519E+02  0.12079665494E+02  0.11095741529E+03  0.30000000000E+02 0.  1.
    -200000    1    3    3    0    0 -0.17726891184E+03  0.17675923824E+03 -0.16213237198E+03  0.31489045945E+03  0.10100000000E+03 0.  1.
<mgrwt>
<rscale>  0 0.13185668E+04</rscale>
<asrwt>0</asrwt>
<pdfrwt beam="1">  1        2 0.76130491E-01 0.13185668E+04</pdfrwt>
<pdfrwt beam="2">  1       -2 0.11651707E+00 0.13185668E+04</pdfrwt>
<totfact> 0.34911813E+01</totfact>
</mgrwt>
</event>
<event>
 8    2  0.4306980E-052  0.1504479E+04  0.7818608E-02  0.8881480E-01
         -2   -1    0    0    0  501 -0.00000000000E+00  0.00000000000E+00  0.19707576730E+03  0.19707576732E+03  0.25500000000E-02 0. -1.
          2   -1    0    0  501    0  0.00000000000E+00 -0.00000000000E+00 -0.28713023920E+04  0.28713023920E+04  0.25500000000E-02 0.  1.
    -200001    2    1    2    0    0  0.37568143193E+01 -0.38129014674E+03 -0.90915394675E+03  0.11613787235E+04  0.61387568036E+03 0.  0.
   -5000001    2    3    3    0    0 -0.28973631055E+03 -0.19990349405E+03 -0.51734019992E+03  0.62962845853E+03  0.69875437456E+02 0.  0.
     200001    1    1    2    0    0 -0.37568143193E+01  0.38129014674E+03 -0.17650726779E+04  0.19069994358E+04  0.61300000000E+03 0.  1.
         13    1    4    4    0    0 -0.14213595450E+03 -0.90912768267E+02 -0.19826066667E+03  0.26033644407E+03  0.10566000000E+00 0.  1.
    -200003    1    4    4    0    0 -0.14760035605E+03 -0.10899072578E+03 -0.31907953325E+03  0.36929201447E+03  0.30000000000E+02 0.  1.
    -200000    1    3    3    0    0  0.29349312487E+03 -0.18138665269E+03 -0.39181374684E+03  0.53175026500E+03  0.10100000000E+03 0.  1.
<mgrwt>
<rscale>  0 0.15044788E+04</rscale>
<asrwt>0</asrwt>
<pdfrwt beam="1">  1        2 0.41018603E+00 0.15044788E+04</pdfrwt>
<pdfrwt beam="2">  1       -2 0.28153683E-01 0.15044788E+04</pdfrwt>
<totfact> 0.31161837E+01</totfact>
</mgrwt>
</event>
<event>
 8    2  0.4306980E-052  0.1723670E+04  0.7818608E-02  0.8747979E-01
          2   -1    0    0  501    0  0.00000000000E+00  0.00000000000E+00  0.66197628858E+03  0.66197628859E+03  0.25500000000E-02 0.  1.
         -2   -1    0    0    0  501 -0.00000000000E+00 -0.00000000000E+00 -0.11220333832E+04  0.11220333832E+04  0.25500000000E-02 0. -1.
    -200001    2    1    2    0    0 -0.37850622090E+03 -0.19889073317E+03 -0.67296707133E+03  0.10068841084E+04  0.61490360685E+03 0.  0.
   -5000001    2    3    3    0    0 -0.32449300907E+03 -0.19049484570E+03 -0.76799552843E+03  0.85782262569E+03  0.66772196836E+02 0.  0.
     200001    1    1    2    0    0  0.37850622090E+03  0.19889073317E+03  0.21290997674E+03  0.77712556334E+03  0.61300000000E+03 0.  1.
         13    1    4    4    0    0 -0.24100645457E+03 -0.12905979051E+03 -0.57581242748E+03  0.63741705616E+03  0.10566000000E+00 0.  1.
    -200003    1    4    4    0    0 -0.83486554493E+02 -0.61435055192E+02 -0.19218310095E+03  0.22040556953E+03  0.30000000000E+02 0. -1.
    -200000    1    3    3    0    0 -0.54013211830E+02 -0.83958874656E+01  0.95028457102E+02  0.14906148274E+03  0.10100000000E+03 0.  1.
<mgrwt>
<rscale>  0 0.17236699E+04</rscale>
<asrwt>0</asrwt>
<pdfrwt beam="1">  1        2 0.94568042E-01 0.17236699E+04</pdfrwt>
<pdfrwt beam="2">  1       -2 0.16029048E+00 0.17236699E+04</pdfrwt>
<totfact> 0.11500407E+01</totfact>
</mgrwt>
</event>
<event>
 8    2  0.4306980E-052  0.1268576E+04  0.7818608E-02  0.9054863E-01
         -2   -1    0    0    0  501 -0.00000000000E+00  0.00000000000E+00  0.23345268537E+03  0.23345268538E+03  0.25500000000E-02 0. -1.
          2   -1    0    0  501    0  0.00000000000E+00 -0.00000000000E+00 -0.17233523227E+04  0.17233523227E+04  0.25500000000E-02 0.  1.
    -200001    2    1    2    0    0 -0.15878860571E+03  0.21929277826E+02 -0.80325622592E+03  0.10224908805E+04  0.61202313822E+03 0.  0.
   -5000001    2    3    3    0    0 -0.64208609168E+02  0.17706465917E+03 -0.76757974077E+03  0.81157342300E+03  0.18438580059E+03 0.  0.
     200001    1    1    2    0    0  0.15878860571E+03 -0.21929277826E+02 -0.68664341137E+03  0.93431412753E+03  0.61300000000E+03 0.  1.
         13    1    4    4    0    0  0.36441973481E+00  0.16806124155E+03 -0.35467786407E+03  0.39248071563E+03  0.10566000000E+00 0.  1.
    -200003    1    4    4    0    0 -0.64573028903E+02  0.90034176157E+01 -0.41290187670E+03  0.41909270737E+03  0.30000000000E+02 0.  1.
    -200000    1    3    3    0    0 -0.94579996538E+02 -0.15513538134E+03 -0.35676485150E+02  0.21091745751E+03  0.10100000000E+03 0.  1.
<mgrwt>
<rscale>  0 0.12685759E+04</rscale>
<asrwt>0</asrwt>
<pdfrwt beam="1">  1        2 0.24619318E+00 0.12685759E+04</pdfrwt>
<pdfrwt beam="2">  1       -2 0.33350385E-01 0.12685759E+04</pdfrwt>
<totfact> 0.92010442E+01</totfact>
</mgrwt>
</event>
<event>
 8    2  0.4306980E-052  0.1451462E+04  0.7818608E-02  0.8917388E-01
          2   -1    0    0  501    0  0.00000000000E+00  0.00000000000E+00  0.38050936768E+04  0.38050936768E+04  0.25500000000E-02 0. -1.
         -2   -1    0    0    0  501 -0.00000000000E+00 -0.00000000000E+00 -0.13841588575E+03  0.13841588577E+03  0.25500000000E-02 0.  1.
    -200001    2    1    2    0    0  0.23938969119E+03 -0.30436519832E+03  0.16943349369E+04  0.18421169452E+04  0.61047388400E+03 0.  0.
   -5000001    2    3    3    0    0  0.15137286769E+03 -0.46788143453E+03  0.11087757148E+04  0.12195696592E+04  0.12704245729E+03 0.  0.
     200001    1    1    2    0    0 -0.23938969119E+03  0.30436519832E+03  0.19723428541E+04  0.21013926174E+04  0.61300000000E+03 0.  1.
         13    1    4    4    0    0  0.82510494554E+02 -0.14614541234E+03  0.49263055440E+03  0.52043379748E+03  0.10566000000E+00 0.  1.
    -200003    1    4    4    0    0  0.68862373139E+02 -0.32173602219E+03  0.61614516042E+03  0.69913586171E+03  0.30000000000E+02 0.  1.
    -200000    1    3    3    0    0  0.88016823495E+02  0.16351623621E+03  0.58555922208E+03  0.62254728599E+03  0.10100000000E+03 0.  1.
<mgrwt>
<rscale>  0 0.14514619E+04</rscale>
<asrwt>0</asrwt>
<pdfrwt beam="1">  1        2 0.54358481E+00 0.14514619E+04</pdfrwt>
<pdfrwt beam="2">  1       -2 0.19773698E-01 0.14514619E+04</pdfrwt>
<totfact> 0.16576378E+01</totfact>
</mgrwt>
</event>
<event>
 8    2  0.4306980E-052  0.1375491E+04  0.7818608E-02  0.8971753E-01
          2   -1    0    0  501    0  0.00000000000E+00  0.00000000000E+00  0.10670431915E+04  0.10670431915E+04  0.25500000000E-02 0.  1.
         -2   -1    0    0    0  501 -0.00000000000E+00 -0.00000000000E+00 -0.44327552283E+03  0.44327552283E+03  0.25500000000E-02 0. -1.
    -200001    2    1    2    0    0 -0.53656534978E+02 -0.48757649943E+02 -0.19437526756E+02  0.61883778038E+03  0.61426871058E+03 0.  0.
   -5000001    2    3    3    0    0 -0.29031237820E+03  0.88026170535E+02 -0.79926931557E+02  0.32122096337E+03  0.69026873623E+02 0.  0.
     200001    1    1    2    0    0  0.53656534978E+02  0.48757649943E+02  0.64320519541E+03  0.89148093394E+03  0.61300000000E+03 0.  1.
         13    1    4    4    0    0 -0.90334583622E+02 -0.58101660399E+00 -0.22375417556E+02  0.93066347588E+02  0.10566000000E+00 0.  1.
    -200003    1    4    4    0    0 -0.19997779458E+03  0.88607187139E+02 -0.57551514000E+02  0.22815461578E+03  0.30000000000E+02 0.  1.
    -200000    1    3    3    0    0  0.23665584322E+03 -0.13678382048E+03  0.60489404800E+02  0.29761681701E+03  0.10100000000E+03 0.  1.
<mgrwt>
<rscale>  0 0.13754914E+04</rscale>
<asrwt>0</asrwt>
<pdfrwt beam="1">  1        2 0.15243474E+00 0.13754914E+04</pdfrwt>
<pdfrwt beam="2">  1       -2 0.63325075E-01 0.13754914E+04</pdfrwt>
<totfact> 0.57622887E+01</totfact>
</mgrwt>
</event>
<event>
 8    2  0.4306980E-052  0.1288283E+04  0.7818608E-02  0.9038909E-01
          2   -1    0    0  501    0  0.00000000000E+00  0.00000000000E+00  0.19503577397E+04  0.19503577397E+04  0.25500000000E-02 0. -1.
         -2   -1    0    0    0  501 -0.00000000000E+00 -0.00000000000E+00 -0.21273968262E+03  0.21273968264E+03  0.25500000000E-02 0.  1.
    -200001    2    1    2    0    0  0.36159254222E+02 -0.19351420612E+03  0.83060292403E+03  0.10508021867E+04  0.61280402948E+03 0.  0.
   -5000001    2    3    3    0    0 -0.15522716377E+03 -0.22538076787E+03  0.11995095799E+03  0.30724892326E+03  0.71566092682E+02 0.  0.
     200001    1    1    2    0    0 -0.36159254222E+02  0.19351420612E+03  0.90701513306E+03  0.11122952356E+04  0.61300000000E+03 0.  1.
         13    1    4    4    0    0 -0.11828902130E+03 -0.18626005726E+03  0.85234311576E+02  0.23653752455E+03  0.10566000000E+00 0.  1.
    -200003    1    4    4    0    0 -0.36938142475E+02 -0.39120710618E+02  0.34716646414E+02  0.70711398706E+02  0.30000000000E+02 0.  1.
    -200000    1    3    3    0    0  0.19138641799E+03  0.31866561755E+02  0.71065196604E+03  0.74355326345E+03  0.10100000000E+03 0. -1.
<mgrwt>
<rscale>  0 0.12882833E+04</rscale>
<asrwt>0</asrwt>
<pdfrwt beam="1">  1        2 0.27862254E+00 0.12882833E+04</pdfrwt>
<pdfrwt beam="2">  1       -2 0.30391382E-01 0.12882833E+04</pdfrwt>
<totfact> 0.83594048E+01</totfact>
</mgrwt>
</event>
<event>
 8    2  0.4306980E-052  0.1758971E+04  0.7818608E-02  0.8728428E-01
         -2   -1    0    0    0  501 -0.00000000000E+00  0.00000000000E+00  0.61425643658E+03  0.61425643659E+03  0.25500000000E-02 0.  1.
          2   -1    0    0  501    0  0.00000000000E+00 -0.00000000000E+00 -0.12592376390E+04  0.12592376390E+04  0.25500000000E-02 0. -1.
    -200001    2    1    2    0    0 -0.28956735704E+03  0.93564389702E+02 -0.91085795528E+03  0.11392849794E+04  0.61294738779E+03 0.  0.
   -5000001    2    3    3    0    0 -0.21864849237E+03 -0.20409529048E+03 -0.23823852426E+03  0.39346417678E+03  0.92706057819E+02 0.  0.
     200001    1    1    2    0    0  0.28956735704E+03 -0.93564389702E+02  0.26587675286E+03  0.73420909624E+03  0.61300000000E+03 0.  1.
         13    1    4    4    0    0  0.62279220169E+01  0.10278685170E+01 -0.10052515463E+02  0.11870457342E+02  0.10566000000E+00 0.  1.
    -200003    1    4    4    0    0 -0.22487641439E+03 -0.20512315899E+03 -0.22818600880E+03  0.38159371944E+03  0.30000000000E+02 0.  1.
    -200000    1    3    3    0    0 -0.70918864669E+02  0.29765968018E+03 -0.67261943102E+03  0.74582080257E+03  0.10100000000E+03 0. -1.
<mgrwt>
<rscale>  0 0.17589711E+04</rscale>
<asrwt>0</asrwt>
<pdfrwt beam="1">  1        2 0.17989109E+00 0.17589711E+04</pdfrwt>
<pdfrwt beam="2">  1       -2 0.87750920E-01 0.17589711E+04</pdfrwt>
<totfact> 0.21054841E+01</totfact>
</mgrwt>
</event>
<event>
 8    2  0.4306980E-052  0.1423279E+04  0.7818608E-02  0.8937138E-01
         -2   -1    0    0    0  501 -0.00000000000E+00  0.00000000000E+00  0.22823694275E+03  0.22823694277E+03  0.25500000000E-02 0. -1.
          2   -1    0    0  501    0  0.00000000000E+00 -0.00000000000E+00 -0.22188820472E+04  0.22188820472E+04  0.25500000000E-02 0.  1.
    -200001    2    1    2    0    0 -0.13792148975E+03 -0.32740977099E+03 -0.87548677865E+03  0.11259200696E+04  0.61237195245E+03 0.  0.
   -5000001    2    3    3    0    0 -0.18409479441E+03 -0.65535609254E+02 -0.11610438779E+02  0.21641834823E+03  0.92283745886E+02 0.  0.
     200001    1    1    2    0    0  0.13792148975E+03  0.32740977099E+03 -0.11151583258E+04  0.13211989203E+04  0.61300000000E+03 0.  1.
         13    1    4    4    0    0 -0.10293754494E+03 -0.77346396001E+02 -0.54102889637E+01  0.12887158540E+03  0.10566000000E+00 0.  1.
    -200003    1    4    4    0    0 -0.81157249473E+02  0.11810786747E+02 -0.62001498156E+01  0.87546762837E+02  0.30000000000E+02 0.  1.
    -200000    1    3    3    0    0  0.46173304658E+02 -0.26187416174E+03 -0.86387633987E+03  0.90950172141E+03  0.10100000000E+03 0.  1.
<mgrwt>
<rscale>  0 0.14232791E+04</rscale>
<asrwt>0</asrwt>
<pdfrwt beam="1">  1        2 0.31698314E+00 0.14232791E+04</pdfrwt>
<pdfrwt beam="2">  1       -2 0.32605279E-01 0.14232791E+04</pdfrwt>
<totfact> 0.52773990E+01</totfact>
</mgrwt>
</event>
<event>
 8    2  0.4306980E-052  0.1516115E+04  0.7818608E-02  0.8873807E-01
         -2   -1    0    0    0  501 -0.00000000000E+00  0.00000000000E+00  0.20410937724E+03  0.20410937725E+03  0.25500000000E-02 0. -1.
          2   -1    0    0  501    0  0.00000000000E+00 -0.00000000000E+00 -0.28154072473E+04  0.28154072473E+04  0.25500000000E-02 0.  1.
    -200001    2    1    2    0    0  0.39269275219E+03 -0.70418667949E+01 -0.17256499647E+04  0.18730444715E+04  0.61332748672E+03 0.  0.
   -5000001    2    3    3    0    0  0.48165082638E+03  0.14786409188E+02 -0.16395333245E+04  0.17117773381E+04  0.99528772566E+02 0.  0.
     200001    1    1    2    0    0 -0.39269275219E+03  0.70418667949E+01 -0.88564790537E+03  0.11464721531E+04  0.61300000000E+03 0. -1.
         13    1    4    4    0    0  0.32750142166E+03  0.25417256665E+02 -0.97462963760E+03  0.10284970393E+04  0.10566000000E+00 0.  1.
    -200003    1    4    4    0    0  0.15414940472E+03 -0.10630847476E+02 -0.66490368693E+03  0.68328029885E+03  0.30000000000E+02 0.  1.
    -200000    1    3    3    0    0 -0.88958074186E+02 -0.21828275983E+02 -0.86116640196E+02  0.16126713340E+03  0.10100000000E+03 0. -1.
<mgrwt>
<rscale>  0 0.15161148E+04</rscale>
<asrwt>0</asrwt>
<pdfrwt beam="1">  1        2 0.40220101E+00 0.15161148E+04</pdfrwt>
<pdfrwt beam="2">  1       -2 0.29158484E-01 0.15161148E+04</pdfrwt>
<totfact> 0.31294152E+01</totfact>
</mgrwt>
</event>
<event>
 8    2  0.4306980E-052  0.1549070E+04  0.7818608E-02  0.8852462E-01
          2   -1    0    0  501    0  0.00000000000E+00  0.00000000000E+00  0.25468481414E+04  0.25468481414E+04  0.25500000000E-02 0.  1.
         -2   -1    0    0    0  501 -0.00000000000E+00 -0.00000000000E+00 -0.23554774806E+03  0.23554774808E+03  0.25500000000E-02 0. -1.
    -200001    2    1    2    0    0 -0.41573019071E+03 -0.19485258563E+03  0.94411736691E+03  0.12153102028E+04  0.61222721679E+03 0.  0.
   -5000001    2    3    3    0    0 -0.32964359949E+03 -0.21689211903E+03  0.18314846744E+03  0.44254160344E+03  0.81194923917E+02 0.  0.
     200001    1    1    2    0    0  0.41573019071E+03  0.19485258563E+03  0.13671830265E+04  0.15670856867E+04  0.61300000000E+03 0.  1.
         13    1    4    4    0    0 -0.12516108623E+03 -0.82249630355E+02  0.31664816350E+02  0.15307831642E+03  0.10566000000E+00 0.  1.
    -200003    1    4    4    0    0 -0.20448251326E+03 -0.13464248868E+03  0.15148365109E+03  0.28946328702E+03  0.30000000000E+02 0.  1.
    -200000    1    3    3    0    0 -0.86086591225E+02  0.22039533400E+02  0.76096889948E+03  0.77276859938E+03  0.10100000000E+03 0.  1.
<mgrwt>
<rscale>  0 0.15490698E+04</rscale>
<asrwt>0</asrwt>
<pdfrwt beam="1">  1        2 0.36383546E+00 0.15490698E+04</pdfrwt>
<pdfrwt beam="2">  1       -2 0.33649678E-01 0.15490698E+04</pdfrwt>
<totfact> 0.33204022E+01</totfact>
</mgrwt>
</event>
<event>
 8    2  0.4306980E-052  0.1817221E+04  0.7818608E-02  0.8697195E-01
         -2   -1    0    0    0  501 -0.00000000000E+00  0.00000000000E+00  0.52708980191E+03  0.52708980192E+03  0.25500000000E-02 0. -1.
          2   -1    0    0  501    0  0.00000000000E+00 -0.00000000000E+00 -0.15662857246E+04  0.15662857246E+04  0.25500000000E-02 0.  1.
    -200001    2    1    2    0    0  0.66540857272E+03 -0.83999989202E+02 -0.50209497072E+03  0.10378799086E+04  0.61259348529E+03 0.  0.
   -5000001    2    3    3    0    0 -0.95158194257E+02  0.19658547831E+02  0.51237661418E+01  0.11231049124E+03  0.56087904461E+02 0.  0.
     200001    1    1    2    0    0 -0.66540857272E+03  0.83999989202E+02 -0.53710095197E+03  0.10554956179E+04  0.61300000000E+03 0.  1.
         13    1    4    4    0    0 -0.68733783422E+02  0.34181420485E+01 -0.30466767342E+00  0.68819478820E+02  0.10566000000E+00 0.  1.
    -200003    1    4    4    0    0 -0.26424410834E+02  0.16240405782E+02  0.54284338152E+01  0.43491012423E+02  0.30000000000E+02 0. -1.
    -200000    1    3    3    0    0  0.76056676698E+03 -0.10365853703E+03 -0.50721873687E+03  0.92556941736E+03  0.10100000000E+03 0.  1.
<mgrwt>
<rscale>  0 0.18172212E+04</rscale>
<asrwt>0</asrwt>
<pdfrwt beam="1">  1        2 0.22375510E+00 0.18172212E+04</pdfrwt>
<pdfrwt beam="2">  1       -2 0.75298544E-01 0.18172212E+04</pdfrwt>
<totfact> 0.20179038E+01</totfact>
</mgrwt>
</event>
<event>
 8    2  0.4306980E-052  0.1334451E+04  0.7818608E-02  0.9002683E-01
         -2   -1    0    0    0  501 -0.00000000000E+00  0.00000000000E+00  0.11366032258E+04  0.11366032258E+04  0.25500000000E-02 0. -1.
          2   -1    0    0  501    0  0.00000000000E+00 -0.00000000000E+00 -0.39168446344E+03  0.39168446344E+03  0.25500000000E-02 0.  1.
    -200001    2    1    2    0    0  0.38982831794E+01 -0.18423353676E+03  0.14934534673E+03  0.65396859068E+03  0.60943719309E+03 0.  0.
   -5000001    2    3    3    0    0 -0.20598556324E+03 -0.14497844982E+03 -0.11447963718E+03  0.29985446646E+03  0.11557815777E+03 0.  0.
     200001    1    1    2    0    0 -0.38982831794E+01  0.18423353676E+03  0.59557341559E+03  0.87431909852E+03  0.61300000000E+03 0.  1.
         13    1    4    4    0    0 -0.57303869436E+02 -0.64300753313E+02 -0.92934724241E+02  0.12670909384E+03  0.10566000000E+00 0.  1.
    -200003    1    4    4    0    0 -0.14868169380E+03 -0.80677696505E+02 -0.21544912939E+02  0.17314537262E+03  0.30000000000E+02 0.  1.
    -200000    1    3    3    0    0  0.20988384642E+03 -0.39255086946E+02  0.26382498391E+03  0.35411412422E+03  0.10100000000E+03 0. -1.
<mgrwt>
<rscale>  0 0.13344509E+04</rscale>
<asrwt>0</asrwt>
<pdfrwt beam="1">  1        2 0.55954923E-01 0.13344509E+04</pdfrwt>
<pdfrwt beam="2">  1       -2 0.16237189E+00 0.13344509E+04</pdfrwt>
<totfact> 0.20958157E+01</totfact>
</mgrwt>
</event>
<event>
 8    2  0.4306980E-052  0.1988281E+04  0.7818608E-02  0.8612119E-01
          2   -1    0    0  501    0  0.00000000000E+00  0.00000000000E+00  0.30404159103E+04  0.30404159104E+04  0.25500000000E-02 0.  1.
         -2   -1    0    0    0  501 -0.00000000000E+00 -0.00000000000E+00 -0.32505929575E+03  0.32505929576E+03  0.25500000000E-02 0. -1.
    -200001    2    1    2    0    0 -0.41568539036E+03  0.57828547599E+03  0.80796120546E+03  0.12391792055E+04  0.61282571605E+03 0.  0.
   -5000001    2    3    3    0    0 -0.49364423848E+03  0.54920541871E+03  0.81817169111E+03  0.11079218790E+04  0.11302542961E+03 0.  0.
     200001    1    1    2    0    0  0.41568539036E+03 -0.57828547599E+03  0.19073954091E+04  0.21262960006E+04  0.61300000000E+03 0. -1.
         13    1    4    4    0    0 -0.37185972345E+03  0.36036608215E+03  0.60990584182E+03  0.80008031731E+03  0.10566000000E+00 0.  1.
    -200003    1    4    4    0    0 -0.12178451502E+03  0.18883933657E+03  0.20826584929E+03  0.30784156171E+03  0.30000000000E+02 0.  1.
    -200000    1    3    3    0    0  0.77958848118E+02  0.29080057274E+02 -0.10210485655E+02  0.13125732646E+03  0.10100000000E+03 0. -1.
<mgrwt>
<rscale>  0 0.19882811E+04</rscale>
<asrwt>0</asrwt>
<pdfrwt beam="1">  1        2 0.43434508E+00 0.19882811E+04</pdfrwt>
<pdfrwt beam="2">  1       -2 0.46437048E-01 0.19882811E+04</pdfrwt>
<totfact> 0.91952581E+00</totfact>
</mgrwt>
</event>
<event>
 8    2  0.4306980E-052  0.1250545E+04  0.7818608E-02  0.9069730E-01
         -2   -1    0    0    0  501 -0.00000000000E+00  0.00000000000E+00  0.17890810914E+03  0.17890810916E+03  0.25500000000E-02 0. -1.
          2   -1    0    0  501    0  0.00000000000E+00 -0.00000000000E+00 -0.21852864397E+04  0.21852864397E+04  0.25500000000E-02 0.  1.
    -200001    2    1    2    0    0  0.12549872964E+02 -0.60235619619E+02 -0.80254453857E+03  0.10118740883E+04  0.61320926697E+03 0.  0.
   -5000001    2    3    3    0    0 -0.19367903912E+03  0.78042912843E+02 -0.68164954259E+03  0.71781981314E+03  0.83767050650E+02 0.  0.
     200001    1    1    2    0    0 -0.12549872964E+02  0.60235619619E+02 -0.12038337920E+04  0.13523204605E+04  0.61300000000E+03 0.  1.
         13    1    4    4    0    0 -0.16606573649E+03  0.73165282953E+02 -0.50989386687E+03  0.54122338651E+03  0.10566000000E+00 0.  1.
    -200003    1    4    4    0    0 -0.27613302627E+02  0.48776298901E+01 -0.17175567572E+03  0.17659642663E+03  0.30000000000E+02 0.  1.
    -200000    1    3    3    0    0  0.20622891208E+03 -0.13827853246E+03 -0.12089499598E+03  0.29405427521E+03  0.10100000000E+03 0. -1.
<mgrwt>
<rscale>  0 0.12505446E+04</rscale>
<asrwt>0</asrwt>
<pdfrwt beam="1">  1        2 0.31218376E+00 0.12505446E+04</pdfrwt>
<pdfrwt beam="2">  1       -2 0.25558303E-01 0.12505446E+04</pdfrwt>
<totfact> 0.87373401E+01</totfact>
</mgrwt>
</event>
<event>
 8    2  0.4306980E-052  0.1475906E+04  0.7818608E-02  0.8900635E-01
          2   -1    0    0  501    0  0.00000000000E+00  0.00000000000E+00  0.25342532601E+04  0.25342532601E+04  0.25500000000E-02 0.  1.
         -2   -1    0    0    0  501 -0.00000000000E+00 -0.00000000000E+00 -0.21488570297E+03  0.21488570298E+03  0.25500000000E-02 0. -1.
    -200001    2    1    2    0    0  0.14252196643E+03 -0.31436414834E+03  0.77520897438E+03  0.10522794941E+04  0.62225866899E+03 0.  0.
   -5000001    2    3    3    0    0  0.12949954015E+03 -0.36778148237E+03  0.83381622364E+03  0.92321050162E+03  0.70956224663E+02 0.  0.
     200001    1    1    2    0    0 -0.14252196643E+03  0.31436414834E+03  0.15441585827E+04  0.16968594689E+04  0.61300000000E+03 0.  1.
         13    1    4    4    0    0  0.76244066709E+02 -0.27339447611E+03  0.59117521841E+03  0.65577880974E+03  0.10566000000E+00 0.  1.
    -200003    1    4    4    0    0  0.53255473439E+02 -0.94387006252E+02  0.24264100524E+03  0.26743169188E+03  0.30000000000E+02 0.  1.
    -200000    1    3    3    0    0  0.13022426287E+02  0.53417334030E+02 -0.58607249263E+02  0.12906899251E+03  0.10100000000E+03 0. -1.
<mgrwt>
<rscale>  0 0.14759062E+04</rscale>
<asrwt>0</asrwt>
<pdfrwt beam="1">  1        2 0.36203616E+00 0.14759062E+04</pdfrwt>
<pdfrwt beam="2">  1       -2 0.30697959E-01 0.14759062E+04</pdfrwt>
<totfact> 0.40326235E+01</totfact>
</mgrwt>
</event>
<event>
 8    2  0.4306980E-052  0.1497319E+04  0.7818608E-02  0.8886238E-01
         -2   -1    0    0    0  501 -0.00000000000E+00  0.00000000000E+00  0.56566805441E+03  0.56566805441E+03  0.25500000000E-02 0. -1.
          2   -1    0    0  501    0  0.00000000000E+00 -0.00000000000E+00 -0.99084759339E+03  0.99084759339E+03  0.25500000000E-02 0.  1.
    -200001    2    1    2    0    0 -0.21554150253E+03  0.83539783201E+02  0.16187106169E+03  0.67683704602E+03  0.61519843267E+03 0.  0.
   -5000001    2    3    3    0    0  0.18836096631E+02  0.36617129455E+02  0.14739834187E+03  0.41694273280E+03  0.38783934631E+03 0.  0.
     200001    1    1    2    0    0  0.21554150253E+03 -0.83539783201E+02 -0.58705060067E+03  0.87967860179E+03  0.61300000000E+03 0. -1.
         13    1    4    4    0    0 -0.14090450243E+03  0.13787801586E+03  0.57227914286E+02  0.20527900867E+03  0.10566000000E+00 0.  1.
    -200003    1    4    4    0    0  0.15974059906E+03 -0.10126088640E+03  0.90170427586E+02  0.21166372414E+03  0.30000000000E+02 0.  1.
    -200000    1    3    3    0    0 -0.23437759916E+03  0.46922653746E+02  0.14472719819E+02  0.25989431322E+03  0.10100000000E+03 0. -1.
<mgrwt>
<rscale>  0 0.14973187E+04</rscale>
<asrwt>0</asrwt>
<pdfrwt beam="1">  1        2 0.14154966E+00 0.14973187E+04</pdfrwt>
<pdfrwt beam="2">  1       -2 0.80809721E-01 0.14973187E+04</pdfrwt>
<totfact> 0.37235666E+01</totfact>
</mgrwt>
</event>
<event>
 8    2  0.4306980E-052  0.1303433E+04  0.7818608E-02  0.9026847E-01
          2   -1    0    0  501    0  0.00000000000E+00  0.00000000000E+00  0.15986192177E+04  0.15986192177E+04  0.25500000000E-02 0.  1.
         -2   -1    0    0    0  501 -0.00000000000E+00 -0.00000000000E+00 -0.26568821727E+03  0.26568821728E+03  0.25500000000E-02 0. -1.
    -200001    2    1    2    0    0  0.19548277484E+03 -0.98728576700E+02  0.71216653538E+03  0.96481959837E+03  0.61297213327E+03 0.  0.
   -5000001    2    3    3    0    0  0.37050438758E+03  0.61105198529E+01  0.32219201898E+03  0.51326126933E+03  0.14939408900E+03 0.  0.
     200001    1    1    2    0    0 -0.19548277484E+03  0.98728576700E+02  0.62076446500E+03  0.89948783656E+03  0.61300000000E+03 0.  1.
         13    1    4    4    0    0 -0.76781925929E+01  0.57855542202E+00  0.39164567094E+02  0.39914456624E+02  0.10566000000E+00 0.  1.
    -200003    1    4    4    0    0  0.37818258017E+03  0.55319644309E+01  0.28302745189E+03  0.47334681271E+03  0.30000000000E+02 0.  1.
    -200000    1    3    3    0    0 -0.17502161273E+03 -0.10483909655E+03  0.38997451639E+03  0.45155832904E+03  0.10100000000E+03 0.  1.
<mgrwt>
<rscale>  0 0.13034328E+04</rscale>
<asrwt>0</asrwt>
<pdfrwt beam="1">  1        2 0.22837418E+00 0.13034328E+04</pdfrwt>
<pdfrwt beam="2">  1       -2 0.37955459E-01 0.13034328E+04</pdfrwt>
<totfact> 0.83214933E+01</totfact>
</mgrwt>
</event>
<event>
 8    2  0.4306980E-052  0.1682875E+04  0.7818608E-02  0.8771192E-01
          2   -1    0    0  501    0  0.00000000000E+00  0.00000000000E+00  0.76472968456E+03  0.76472968456E+03  0.25500000000E-02 0.  1.
         -2   -1    0    0    0  501 -0.00000000000E+00 -0.00000000000E+00 -0.92583945374E+03  0.92583945375E+03  0.25500000000E-02 0. -1.
    -200001    2    1    2    0    0  0.18751656029E+03  0.83890066908E+02  0.46044563254E+03  0.79374132812E+03  0.61303761038E+03 0.  0.
   -5000001    2    3    3    0    0  0.15766367076E+03  0.32057614182E+03  0.18325015471E+03  0.41433412471E+03  0.10229981388E+03 0.  0.
     200001    1    1    2    0    0 -0.18751656029E+03 -0.83890066908E+02 -0.62155540173E+03  0.89682781019E+03  0.61300000000E+03 0. -1.
         13    1    4    4    0    0  0.13642912219E+03  0.20017922505E+03  0.93200250359E+02  0.25955909800E+03  0.10566000000E+00 0.  1.
    -200003    1    4    4    0    0  0.21234548569E+02  0.12039691677E+03  0.90049904348E+02  0.15477502671E+03  0.30000000000E+02 0.  1.
    -200000    1    3    3    0    0  0.29852889525E+02 -0.23668607491E+03  0.27719547784E+03  0.37940720341E+03  0.10100000000E+03 0.  1.
<mgrwt>
<rscale>  0 0.16828748E+04</rscale>
<asrwt>0</asrwt>
<pdfrwt beam="1">  1        2 0.10924710E+00 0.16828748E+04</pdfrwt>
<pdfrwt beam="2">  1       -2 0.13226278E+00 0.16828748E+04</pdfrwt>
<totfact> 0.15991458E+01</totfact>
</mgrwt>
</event>
<event>
 8    2  0.4306980E-052  0.1355041E+04  0.7818608E-02  0.8987021E-01
         -2   -1    0    0    0  501 -0.00000000000E+00  0.00000000000E+00  0.63274817017E+03  0.63274817018E+03  0.25500000000E-02 0. -1.
          2   -1    0    0  501    0  0.00000000000E+00 -0.00000000000E+00 -0.72546042493E+03  0.72546042494E+03  0.25500000000E-02 0.  1.
    -200001    2    1    2    0    0  0.10890041160E+03  0.50394218814E+02  0.21681223102E+03  0.66109075412E+03  0.61289033663E+03 0.  0.
   -5000001    2    3    3    0    0  0.21411671754E+03 -0.21625713495E+03  0.14066260817E+03  0.34776475686E+03  0.92418827255E+02 0.  0.
     200001    1    1    2    0    0 -0.10890041160E+03 -0.50394218814E+02 -0.30952448578E+03  0.69711784099E+03  0.61300000000E+03 0.  1.
         13    1    4    4    0    0  0.16166074035E+02  0.74746970919E+01  0.75284702850E+01  0.19336547654E+02  0.10566000000E+00 0.  1.
    -200003    1    4    4    0    0  0.19795064350E+03 -0.22373183204E+03  0.13313413788E+03  0.32842820921E+03  0.30000000000E+02 0.  1.
    -200000    1    3    3    0    0 -0.10521630594E+03  0.26665135377E+03  0.76149622852E+02  0.31332599726E+03  0.10100000000E+03 0. -1.
<mgrwt>
<rscale>  0 0.13550406E+04</rscale>
<asrwt>0</asrwt>
<pdfrwt beam="1">  1        2 0.10363720E+00 0.13550406E+04</pdfrwt>
<pdfrwt beam="2">  1       -2 0.90392596E-01 0.13550406E+04</pdfrwt>
<totfact> 0.44056561E+01</totfact>
</mgrwt>
</event>
<event>
 8    2  0.4306980E-052  0.1386639E+04  0.7818608E-02  0.8963547E-01
          2   -1    0    0  501    0  0.00000000000E+00  0.00000000000E+00  0.31877946711E+04  0.31877946711E+04  0.25500000000E-02 0.  1.
         -2   -1    0    0    0  501 -0.00000000000E+00 -0.00000000000E+00 -0.15079132546E+03  0.15079132549E+03  0.25500000000E-02 0. -1.
    -200001    2    1    2    0    0 -0.93146534695E+02 -0.29275826094E+03  0.12725181960E+04  0.14455565410E+04  0.61314556014E+03 0.  0.
   -5000001    2    3    3    0    0 -0.19535073402E+03  0.61491364131E+02  0.83250544530E+03  0.86267515002E+03  0.95916634877E+02 0.  0.
     200001    1    1    2    0    0  0.93146534695E+02  0.29275826094E+03  0.17644851497E+04  0.18930294556E+04  0.61300000000E+03 0.  1.
         13    1    4    4    0    0 -0.39860215965E+02 -0.10011761197E+02  0.75251875331E+02  0.85743385074E+02  0.10566000000E+00 0.  1.
    -200003    1    4    4    0    0 -0.15549051806E+03  0.71503125329E+02  0.75725356997E+03  0.77693176494E+03  0.30000000000E+02 0.  1.
    -200000    1    3    3    0    0  0.10220419933E+03 -0.35424962507E+03  0.44001275066E+03  0.58288139099E+03  0.10100000000E+03 0.  1.
<mgrwt>
<rscale>  0 0.13866388E+04</rscale>
<asrwt>0</asrwt>
<pdfrwt beam="1">  1        2 0.45539920E+00 0.13866388E+04</pdfrwt>
<pdfrwt beam="2">  1       -2 0.21541620E-01 0.13866388E+04</pdfrwt>
<totfact> 0.34011916E+01</totfact>
</mgrwt>
</event>
<event>
 8    2  0.4306980E-052  0.1427714E+04  0.7818608E-02  0.8933999E-01
          2   -1    0    0  501    0  0.00000000000E+00  0.00000000000E+00  0.13725281199E+04  0.13725281199E+04  0.25500000000E-02 0.  1.
         -2   -1    0    0    0  501 -0.00000000000E+00 -0.00000000000E+00 -0.37127955190E+03  0.37127955191E+03  0.25500000000E-02 0. -1.
    -200001    2    1    2    0    0  0.18489530421E+03  0.28110640046E+03  0.67944449238E+03  0.97404540660E+03  0.61148389513E+03 0.  0.
   -5000001    2    3    3    0    0  0.21889987153E+03  0.39733531599E+03  0.26755133061E+03  0.53299841578E+03  0.81921240339E+02 0.  0.
     200001    1    1    2    0    0 -0.18489530421E+03 -0.28110640046E+03  0.32180407566E+03  0.76976226525E+03  0.61300000000E+03 0.  1.
         13    1    4    4    0    0  0.71505086240E+02  0.14799161589E+03  0.13657398544E+03  0.21369829292E+03  0.10566000000E+00 0.  1.
    -200003    1    4    4    0    0  0.14739478529E+03  0.24934370010E+03  0.13097734517E+03  0.31930012286E+03  0.30000000000E+02 0.  1.
    -200000    1    3    3    0    0 -0.34004567316E+02 -0.11622891554E+03  0.41189316176E+03  0.44104699082E+03  0.10100000000E+03 0.  1.
<mgrwt>
<rscale>  0 0.14277137E+04</rscale>
<asrwt>0</asrwt>
<pdfrwt beam="1">  1        2 0.19607545E+00 0.14277137E+04</pdfrwt>
<pdfrwt beam="2">  1       -2 0.53039935E-01 0.14277137E+04</pdfrwt>
<totfact> 0.55816034E+01</totfact>
</mgrwt>
</event>
<event>
 8    2  0.4306980E-052  0.1268222E+04  0.7818608E-02  0.9055152E-01
         -2   -1    0    0    0  501 -0.00000000000E+00  0.00000000000E+00  0.20347146892E+04  0.20347146892E+04  0.25500000000E-02 0. -1.
          2   -1    0    0  501    0  0.00000000000E+00 -0.00000000000E+00 -0.19761811535E+03  0.19761811536E+03  0.25500000000E-02 0.  1.
    -200001    2    1    2    0    0  0.43422515991E+02 -0.75968175905E+02  0.67317824841E+03  0.91395063427E+03  0.61194781566E+03 0.  0.
   -5000001    2    3    3    0    0 -0.81665203672E+02 -0.30950043093E+03  0.32756485409E+03  0.46692281625E+03  0.90876072009E+02 0.  0.
     200001    1    1    2    0    0 -0.43422515991E+02  0.75968175905E+02  0.11639183254E+04  0.13183821703E+04  0.61300000000E+03 0. -1.
         13    1    4    4    0    0 -0.28848926863E+02 -0.58675175822E+02  0.26935523079E+02  0.70714711386E+02  0.10566000000E+00 0.  1.
    -200003    1    4    4    0    0 -0.52816276809E+02 -0.25082525511E+03  0.30062933101E+03  0.39620810486E+03  0.30000000000E+02 0.  1.
    -200000    1    3    3    0    0  0.12508771966E+03  0.23353225502E+03  0.34561339433E+03  0.44702781802E+03  0.10100000000E+03 0.  1.
<mgrwt>
<rscale>  0 0.12682216E+04</rscale>
<asrwt>0</asrwt>
<pdfrwt beam="1">  1        2 0.28231159E-01 0.12682216E+04</pdfrwt>
<pdfrwt beam="2">  1       -2 0.29067353E+00 0.12682216E+04</pdfrwt>
<totfact> 0.68442762E+00</totfact>
</mgrwt>
</event>
<event>
 8    2  0.4306980E-052  0.1736017E+04  0.7818608E-02  0.8741085E-01
          2   -1    0    0  501    0  0.00000000000E+00  0.00000000000E+00  0.91200204591E+03  0.91200204591E+03  0.25500000000E-02 0.  1.
         -2   -1    0    0    0  501 -0.00000000000E+00 -0.00000000000E+00 -0.82613711976E+03  0.82613711976E+03  0.25500000000E-02 0. -1.
    -200001    2    1    2    0    0  0.24367428378E+03 -0.53403256036E+03 -0.13721886485E+03  0.86058386262E+03  0.61417231755E+03 0.  0.
   -5000001    2    3    3    0    0 -0.10860186385E+03 -0.20054276799E+02 -0.21581701335E+02  0.21883226446E+03  0.18768391324E+03 0.  0.
     200001    1    1    2    0    0 -0.24367428378E+03  0.53403256036E+03  0.22308379100E+03  0.87755530305E+03  0.61300000000E+03 0. -1.
         13    1    4    4    0    0 -0.77760696141E+02  0.64302661052E+02 -0.59142952153E+02  0.11695921527E+03  0.10566000000E+00 0.  1.
    -200003    1    4    4    0    0 -0.30841167705E+02 -0.84356937851E+02  0.37561250818E+02  0.10187304919E+03  0.30000000000E+02 0.  1.
    -200000    1    3    3    0    0  0.35227614763E+03 -0.51397828356E+03 -0.11563716351E+03  0.64175159816E+03  0.10100000000E+03 0. -1.
<mgrwt>
<rscale>  0 0.17360170E+04</rscale>
<asrwt>0</asrwt>
<pdfrwt beam="1">  1        2 0.13028601E+00 0.17360170E+04</pdfrwt>
<pdfrwt beam="2">  1       -2 0.11801959E+00 0.17360170E+04</pdfrwt>
<totfact> 0.16817921E+01</totfact>
</mgrwt>
</event>
<event>
 8    2  0.4306980E-052  0.1699088E+04  0.7818608E-02  0.8761885E-01
         -2   -1    0    0    0  501 -0.00000000000E+00  0.00000000000E+00  0.10729775395E+04  0.10729775395E+04  0.25500000000E-02 0. -1.
          2   -1    0    0  501    0  0.00000000000E+00 -0.00000000000E+00 -0.67263741949E+03  0.67263741949E+03  0.25500000000E-02 0.  1.
    -200001    2    1    2    0    0 -0.53393161606E+03 -0.19201679742E+03  0.35771352529E+03  0.90923021039E+03  0.61382993425E+03 0.  0.
   -5000001    2    3    3    0    0 -0.64240191828E+02  0.12633502335E+03  0.28388599700E+03  0.32818854259E+03  0.83839846249E+02 0.  0.
     200001    1    1    2    0    0  0.53393161606E+03  0.19201679742E+03  0.42626594717E+02  0.83638474861E+03  0.61300000000E+03 0. -1.
         13    1    4    4    0    0  0.80198975345E+00  0.58461087603E+02  0.61308906770E+02  0.84717974272E+02  0.10566000000E+00 0.  1.
    -200003    1    4    4    0    0 -0.65042181582E+02  0.67873935749E+02  0.22257709023E+03  0.24347056831E+03  0.30000000000E+02 0.  1.
    -200000    1    3    3    0    0 -0.46969142424E+03 -0.31835182077E+03  0.73827528290E+02  0.58104166780E+03  0.10100000000E+03 0. -1.
<mgrwt>
<rscale>  0 0.16990878E+04</rscale>
<asrwt>0</asrwt>
<pdfrwt beam="1">  1        2 0.96091060E-01 0.16990878E+04</pdfrwt>
<pdfrwt beam="2">  1       -2 0.15328250E+00 0.16990878E+04</pdfrwt>
<totfact> 0.12750893E+01</totfact>
</mgrwt>
</event>
<event>
 8    2  0.4306980E-052  0.2100730E+04  0.7818608E-02  0.8560922E-01
          2   -1    0    0  501    0  0.00000000000E+00  0.00000000000E+00  0.26602984917E+04  0.26602984917E+04  0.25500000000E-02 0.  1.
         -2   -1    0    0    0  501 -0.00000000000E+00 -0.00000000000E+00 -0.41471533363E+03  0.41471533363E+03  0.25500000000E-02 0. -1.
    -200001    2    1    2    0    0  0.29617563552E+03 -0.76559836979E+03  0.14609824522E+04  0.17845766364E+04  0.61350075358E+03 0.  0.
   -5000001    2    3    3    0    0  0.20634541639E+03 -0.25652259393E+03  0.15531744734E+03  0.37667404078E+03  0.96837758564E+02 0.  0.
     200001    1    1    2    0    0 -0.29617563552E+03  0.76559836979E+03  0.78460070583E+03  0.12904371889E+04  0.61300000000E+03 0. -1.
         13    1    4    4    0    0  0.36858128665E+02 -0.12141459015E+02 -0.20650968545E+01  0.38861452170E+02  0.10566000000E+00 0.  1.
    -200003    1    4    4    0    0  0.16948728773E+03 -0.24438113492E+03  0.15738254420E+03  0.33781258861E+03  0.30000000000E+02 0.  1.
    -200000    1    3    3    0    0  0.89830219121E+02 -0.50907577586E+03  0.13056650049E+04  0.14079025956E+04  0.10100000000E+03 0.  1.
<mgrwt>
<rscale>  0 0.21007299E+04</rscale>
<asrwt>0</asrwt>
<pdfrwt beam="1">  1        2 0.38004265E+00 0.21007299E+04</pdfrwt>
<pdfrwt beam="2">  1       -2 0.59245046E-01 0.21007299E+04</pdfrwt>
<totfact> 0.89144806E+00</totfact>
</mgrwt>
</event>
<event>
 8    2  0.4306980E-052  0.1335173E+04  0.7818608E-02  0.9002129E-01
          2   -1    0    0  501    0  0.00000000000E+00  0.00000000000E+00  0.59127203085E+03  0.59127203086E+03  0.25500000000E-02 0.  1.
         -2   -1    0    0    0  501 -0.00000000000E+00 -0.00000000000E+00 -0.75375024480E+03  0.75375024480E+03  0.25500000000E-02 0. -1.
    -200001    2    1    2    0    0  0.79073051742E+02 -0.29920266319E+02 -0.33470797967E+03  0.70269847721E+03  0.61205224318E+03 0.  0.
   -5000001    2    3    3    0    0  0.98917872401E+02 -0.22647981570E+03  0.20174246857E+02  0.28416309273E+03  0.13879413041E+03 0.  0.
     200001    1    1    2    0    0 -0.79073051742E+02  0.29920266319E+02  0.17222976573E+03  0.64232379845E+03  0.61300000000E+03 0.  1.
         13    1    4    4    0    0  0.11602138827E+03 -0.10750066060E+03  0.25241217198E+02  0.16017017442E+03  0.10566000000E+00 0.  1.
    -200003    1    4    4    0    0 -0.17103515864E+02 -0.11897915510E+03 -0.50669703403E+01  0.12399291831E+03  0.30000000000E+02 0.  1.
    -200000    1    3    3    0    0 -0.19844820659E+02  0.19655954938E+03 -0.35488222653E+03  0.41853538448E+03  0.10100000000E+03 0. -1.
<mgrwt>
<rscale>  0 0.13351726E+04</rscale>
<asrwt>0</asrwt>
<pdfrwt beam="1">  1        2 0.84467433E-01 0.13351726E+04</pdfrwt>
<pdfrwt beam="2">  1       -2 0.10767861E+00 0.13351726E+04</pdfrwt>
<totfact> 0.37407041E+01</totfact>
</mgrwt>
</event>
<event>
 8    2  0.4306980E-052  0.1703844E+04  0.7818608E-02  0.8759175E-01
          2   -1    0    0  501    0  0.00000000000E+00  0.00000000000E+00  0.57535197479E+03  0.57535197480E+03  0.25500000000E-02 0.  1.
         -2   -1    0    0    0  501 -0.00000000000E+00 -0.00000000000E+00 -0.12614384804E+04  0.12614384804E+04  0.25500000000E-02 0. -1.
    -200001    2    1    2    0    0  0.53869298283E+03  0.45336602396E+02 -0.84476701344E+02  0.82192647720E+03  0.61333619132E+03 0.  0.
   -5000001    2    3    3    0    0 -0.10708753311E+03 -0.57726767670E+02 -0.74224602980E+02  0.16014053104E+03  0.73045044618E+02 0.  0.
     200001    1    1    2    0    0 -0.53869298283E+03 -0.45336602396E+02 -0.60160980430E+03  0.10148639780E+04  0.61300000000E+03 0.  1.
         13    1    4    4    0    0 -0.51772492665E+02 -0.58796265911E+02 -0.33672907208E+02  0.85271728760E+02  0.10566000000E+00 0.  1.
    -200003    1    4    4    0    0 -0.55315040440E+02  0.10694982415E+01 -0.40551695772E+02  0.74868802283E+02  0.30000000000E+02 0.  1.
    -200000    1    3    3    0    0  0.64578051594E+03  0.10306337007E+03 -0.10252098364E+02  0.66178594616E+03  0.10100000000E+03 0.  1.
<mgrwt>
<rscale>  0 0.17038440E+04</rscale>
<asrwt>0</asrwt>
<pdfrwt beam="1">  1        2 0.82193140E-01 0.17038440E+04</pdfrwt>
<pdfrwt beam="2">  1       -2 0.18020550E+00 0.17038440E+04</pdfrwt>
<totfact> 0.98215839E+00</totfact>
</mgrwt>
</event>
<event>
 8    2  0.4306980E-052  0.1321559E+04  0.7818608E-02  0.9012641E-01
         -2   -1    0    0    0  501 -0.00000000000E+00  0.00000000000E+00  0.14552614272E+03  0.14552614274E+03  0.25500000000E-02 0. -1.
          2   -1    0    0  501    0  0.00000000000E+00 -0.00000000000E+00 -0.30003519371E+04  0.30003519371E+04  0.25500000000E-02 0.  1.
    -200001    2    1    2    0    0  0.17714704562E+03 -0.10803663643E+02 -0.18358625275E+04  0.19435665836E+04  0.61283117559E+03 0.  0.
   -5000001    2    3    3    0    0 -0.15275314626E+03  0.36363268738E+02 -0.12539017393E+04  0.12653791352E+04  0.65260806529E+02 0.  0.
     200001    1    1    2    0    0 -0.17714704562E+03  0.10803663643E+02 -0.10189632668E+04  0.12023114963E+04  0.61300000000E+03 0.  1.
         13    1    4    4    0    0 -0.81351062760E+02  0.14851294479E+02 -0.45590133025E+03  0.46334068507E+03  0.10566000000E+00 0.  1.
    -200003    1    4    4    0    0 -0.71402083503E+02  0.21511974260E+02 -0.79800040910E+03  0.80203845013E+03  0.30000000000E+02 0.  1.
    -200000    1    3    3    0    0  0.32990019188E+03 -0.47166932382E+02 -0.58196078820E+03  0.67818744836E+03  0.10100000000E+03 0. -1.
<mgrwt>
<rscale>  0 0.13215591E+04</rscale>
<asrwt>0</asrwt>
<pdfrwt beam="1">  1        2 0.42862167E+00 0.13215591E+04</pdfrwt>
<pdfrwt beam="2">  1       -2 0.20789451E-01 0.13215591E+04</pdfrwt>
<totfact> 0.46473113E+01</totfact>
</mgrwt>
</event>
<event>
 8    2  0.4306980E-052  0.1491635E+04  0.7818608E-02  0.8890035E-01
         -2   -1    0    0    0  501 -0.00000000000E+00  0.00000000000E+00  0.25696078182E+03  0.25696078184E+03  0.25500000000E-02 0. -1.
          2   -1    0    0  501    0  0.00000000000E+00 -0.00000000000E+00 -0.21647028130E+04  0.21647028130E+04  0.25500000000E-02 0.  1.
    -200001    2    1    2    0    0 -0.12637460923E+03  0.25700040096E+03 -0.44300627436E+03  0.80820780516E+03  0.61231164389E+03 0.  0.
   -5000001    2    3    3    0    0  0.16303420413E+03  0.31291223216E+03 -0.23877438573E+03  0.43565544849E+03  0.91039803220E+02 0.  0.
     200001    1    1    2    0    0  0.12637460923E+03 -0.25700040096E+03 -0.14647357568E+04  0.16134557897E+04  0.61300000000E+03 0.  1.
         13    1    4    4    0    0  0.19302865069E+02  0.12054262568E+03 -0.88658011653E+02  0.15087537705E+03  0.10566000000E+00 0.  1.
    -200003    1    4    4    0    0  0.14373133906E+03  0.19236960648E+03 -0.15011637407E+03  0.28478007144E+03  0.30000000000E+02 0.  1.
    -200000    1    3    3    0    0 -0.28940881337E+03 -0.55911831198E+02 -0.20423188864E+03  0.37255235667E+03  0.10100000000E+03 0.  1.
<mgrwt>
<rscale>  0 0.14916350E+04</rscale>
<asrwt>0</asrwt>
<pdfrwt beam="1">  1        2 0.30924325E+00 0.14916350E+04</pdfrwt>
<pdfrwt beam="2">  1       -2 0.36708684E-01 0.14916350E+04</pdfrwt>
<totfact> 0.44651781E+01</totfact>
</mgrwt>
</event>
<event>
 8    2  0.4306980E-052  0.1625495E+04  0.7818608E-02  0.8805037E-01
         -2   -1    0    0    0  501 -0.00000000000E+00  0.00000000000E+00  0.45383068348E+03  0.45383068349E+03  0.25500000000E-02 0. -1.
          2   -1    0    0  501    0  0.00000000000E+00 -0.00000000000E+00 -0.14555166143E+04  0.14555166143E+04  0.25500000000E-02 0.  1.
    -200001    2    1    2    0    0 -0.14742438402E+03  0.49527136154E+03 -0.34032366743E+03  0.87002217350E+03  0.61162955553E+03 0.  0.
   -5000001    2    3    3    0    0 -0.37173144568E+03  0.29318117155E+03 -0.22499333361E+03  0.53141297590E+03  0.87397275265E+02 0.  0.
     200001    1    1    2    0    0  0.14742438402E+03 -0.49527136154E+03 -0.66136226342E+03  0.10393251243E+04  0.61300000000E+03 0.  1.
         13    1    4    4    0    0 -0.17891102376E+03  0.10174608166E+03 -0.12220073252E+03  0.23936259054E+03  0.10566000000E+00 0.  1.
    -200003    1    4    4    0    0 -0.19282042192E+03  0.19143508988E+03 -0.10279260109E+03  0.29205038536E+03  0.30000000000E+02 0.  1.
    -200000    1    3    3    0    0  0.22430706166E+03  0.20209019000E+03 -0.11533033382E+03  0.33860919760E+03  0.10100000000E+03 0.  1.
<mgrwt>
<rscale>  0 0.16254945E+04</rscale>
<asrwt>0</asrwt>
<pdfrwt beam="1">  1        2 0.20793094E+00 0.16254945E+04</pdfrwt>
<pdfrwt beam="2">  1       -2 0.64832956E-01 0.16254945E+04</pdfrwt>
<totfact> 0.32514058E+01</totfact>
</mgrwt>
</event>
<event>
 8    2  0.4306980E-052  0.1645927E+04  0.7818608E-02  0.8792820E-01
          2   -1    0    0  501    0  0.00000000000E+00  0.00000000000E+00  0.17494542465E+04  0.17494542465E+04  0.25500000000E-02 0.  1.
         -2   -1    0    0    0  501 -0.00000000000E+00 -0.00000000000E+00 -0.38713150492E+03  0.38713150493E+03  0.25500000000E-02 0. -1.
    -200001    2    1    2    0    0 -0.24516239508E+03 -0.39118553183E+03  0.29560789023E+03  0.82251562607E+03  0.61320242178E+03 0.  0.
   -5000001    2    3    3    0    0 -0.14555263289E+03 -0.44801445318E+03 -0.12079459694E+02  0.47896921533E+03  0.85808371899E+02 0.  0.
     200001    1    1    2    0    0  0.24516239508E+03  0.39118553183E+03  0.10667148513E+04  0.13140701253E+04  0.61300000000E+03 0. -1.
         13    1    4    4    0    0 -0.12175265025E+02 -0.26252394733E+01  0.30572793211E+01  0.12825251717E+02  0.10566000000E+00 0.  1.
    -200003    1    4    4    0    0 -0.13337736787E+03 -0.44538921371E+03 -0.15136739015E+02  0.46614396362E+03  0.30000000000E+02 0.  1.
    -200000    1    3    3    0    0 -0.99609762189E+02  0.56828921351E+02  0.30768734992E+03  0.34354641073E+03  0.10100000000E+03 0.  1.
<mgrwt>
<rscale>  0 0.16459269E+04</rscale>
<asrwt>0</asrwt>
<pdfrwt beam="1">  1        2 0.24992204E+00 0.16459269E+04</pdfrwt>
<pdfrwt beam="2">  1       -2 0.55304499E-01 0.16459269E+04</pdfrwt>
<totfact> 0.31813781E+01</totfact>
</mgrwt>
</event>
<event>
 8    2  0.4306980E-052  0.1495873E+04  0.7818608E-02  0.8887202E-01
          2   -1    0    0  501    0  0.00000000000E+00  0.00000000000E+00  0.38195115214E+04  0.38195115214E+04  0.25500000000E-02 0.  1.
         -2   -1    0    0    0  501 -0.00000000000E+00 -0.00000000000E+00 -0.14646093092E+03  0.14646093095E+03  0.25500000000E-02 0. -1.
    -200001    2    1    2    0    0 -0.99641673476E+02  0.21015437457E+03  0.87477203110E+03  0.10919116979E+04  0.61069773655E+03 0.  0.
   -5000001    2    3    3    0    0 -0.15505190363E+03  0.32324890846E+03  0.65059851183E+03  0.81565921569E+03  0.33688363406E+03 0.  0.
     200001    1    1    2    0    0  0.99641673476E+02 -0.21015437457E+03  0.27982785593E+04  0.28740607544E+04  0.61300000000E+03 0.  1.
         13    1    4    4    0    0 -0.11220936925E+03  0.39070296737E+03  0.54397391406E+03  0.67907833245E+03  0.10566000000E+00 0.  1.
    -200003    1    4    4    0    0 -0.42842534384E+02 -0.67454058912E+02  0.10662459777E+03  0.13658088324E+03  0.30000000000E+02 0.  1.
    -200000    1    3    3    0    0  0.55410230159E+02 -0.11309453389E+03  0.22417351927E+03  0.27625248224E+03  0.10100000000E+03 0.  1.
<mgrwt>
<rscale>  0 0.14958733E+04</rscale>
<asrwt>0</asrwt>
<pdfrwt beam="1">  1        2 0.54564454E+00 0.14958733E+04</pdfrwt>
<pdfrwt beam="2">  1       -2 0.20922989E-01 0.14958733E+04</pdfrwt>
<totfact> 0.14616914E+01</totfact>
</mgrwt>
</event>
<event>
 8    2  0.4306980E-052  0.1521462E+04  0.7818608E-02  0.8870305E-01
         -2   -1    0    0    0  501 -0.00000000000E+00  0.00000000000E+00  0.44598907501E+03  0.44598907501E+03  0.25500000000E-02 0. -1.
          2   -1    0    0  501    0  0.00000000000E+00 -0.00000000000E+00 -0.12975913333E+04  0.12975913333E+04  0.25500000000E-02 0.  1.
    -200001    2    1    2    0    0 -0.22864315644E+03 -0.15687447996E+02  0.19435765513E+02  0.65408509949E+03  0.61231183182E+03 0.  0.
   -5000001    2    3    3    0    0 -0.69253018330E+02 -0.13699918479E+03  0.26216914529E+03  0.32356694981E+03  0.11134699405E+03 0.  0.
     200001    1    1    2    0    0  0.22864315644E+03  0.15687447996E+02 -0.87103802377E+03  0.10894953088E+04  0.61300000000E+03 0. -1.
         13    1    4    4    0    0  0.20846686160E+02 -0.35887142671E+02  0.11046845636E+03  0.11800746734E+03  0.10566000000E+00 0.  1.
    -200003    1    4    4    0    0 -0.90099704490E+02 -0.10111204212E+03  0.15170068893E+03  0.20555948247E+03  0.30000000000E+02 0.  1.
    -200000    1    3    3    0    0 -0.15939013811E+03  0.12131173680E+03 -0.24273337978E+03  0.33051814968E+03  0.10100000000E+03 0.  1.
<mgrwt>
<rscale>  0 0.15214619E+04</rscale>
<asrwt>0</asrwt>
<pdfrwt beam="1">  1        2 0.18537019E+00 0.15214619E+04</pdfrwt>
<pdfrwt beam="2">  1       -2 0.63712726E-01 0.15214619E+04</pdfrwt>
<totfact> 0.41471054E+01</totfact>
</mgrwt>
</event>
<event>
 8    2  0.4306980E-052  0.1409851E+04  0.7818608E-02  0.8946719E-01
          2   -1    0    0  501    0  0.00000000000E+00  0.00000000000E+00  0.75443016172E+03  0.75443016172E+03  0.25500000000E-02 0.  1.
         -2   -1    0    0    0  501 -0.00000000000E+00 -0.00000000000E+00 -0.65866928228E+03  0.65866928228E+03  0.25500000000E-02 0. -1.
    -200001    2    1    2    0    0  0.13041807722E+03  0.32220592158E+03  0.28304054234E+02  0.70518352101E+03  0.61290875997E+03 0.  0.
   -5000001    2    3    3    0    0 -0.10081302920E+03  0.10582596943E+03 -0.18637887386E+03  0.30948430711E+03  0.19920102676E+03 0.  0.
     200001    1    1    2    0    0 -0.13041807722E+03 -0.32220592158E+03  0.67456825207E+02  0.70791592300E+03  0.61300000000E+03 0. -1.
         13    1    4    4    0    0 -0.14050059908E+03  0.12179747786E+02 -0.10594005468E+03  0.17638614160E+03  0.10566000000E+00 0.  1.
    -200003    1    4    4    0    0  0.39687569881E+02  0.93646221643E+02 -0.80438819175E+02  0.13309816551E+03  0.30000000000E+02 0.  1.
    -200000    1    3    3    0    0  0.23123110642E+03  0.21637995215E+03  0.21468292809E+03  0.39569921390E+03  0.10100000000E+03 0.  1.
<mgrwt>
<rscale>  0 0.14098510E+04</rscale>
<asrwt>0</asrwt>
<pdfrwt beam="1">  1        2 0.10777574E+00 0.14098510E+04</pdfrwt>
<pdfrwt beam="2">  1       -2 0.94095611E-01 0.14098510E+04</pdfrwt>
<totfact> 0.38057672E+01</totfact>
</mgrwt>
</event>
<event>
 8    2  0.4306980E-052  0.1902983E+04  0.7818608E-02  0.8653373E-01
          2   -1    0    0  501    0  0.00000000000E+00  0.00000000000E+00  0.21416748787E+04  0.21416748787E+04  0.25500000000E-02 0.  1.
         -2   -1    0    0    0  501 -0.00000000000E+00 -0.00000000000E+00 -0.42272332055E+03  0.42272332055E+03  0.25500000000E-02 0. -1.
    -200001    2    1    2    0    0  0.20096808144E+03 -0.65009593648E+03  0.12071024069E+04  0.15152216412E+04  0.61301509338E+03 0.  0.
   -5000001    2    3    3    0    0 -0.11840888495E+03 -0.39296026563E+01  0.69011097515E+02  0.16430143400E+03  0.90533550799E+02 0.  0.
     200001    1    1    2    0    0 -0.20096808144E+03  0.65009593648E+03  0.51184915123E+03  0.10491765581E+04  0.61300000000E+03 0. -1.
         13    1    4    4    0    0 -0.34097085159E+02 -0.29222810933E+02 -0.53591395839E+01  0.45225163751E+02  0.10566000000E+00 0.  1.
    -200003    1    4    4    0    0 -0.84311799793E+02  0.25293208277E+02  0.74370237099E+02  0.11907627024E+03  0.30000000000E+02 0.  1.
    -200000    1    3    3    0    0  0.31937696639E+03 -0.64616633383E+03  0.11380913094E+04  0.13509202072E+04  0.10100000000E+03 0.  1.
<mgrwt>
<rscale>  0 0.19029828E+04</rscale>
<asrwt>0</asrwt>
<pdfrwt beam="1">  1        2 0.30595355E+00 0.19029828E+04</pdfrwt>
<pdfrwt beam="2">  1       -2 0.60389046E-01 0.19029828E+04</pdfrwt>
<totfact> 0.16269724E+01</totfact>
</mgrwt>
</event>
<event>
 8    2  0.4306980E-052  0.1386813E+04  0.7818608E-02  0.8963420E-01
          2   -1    0    0  501    0  0.00000000000E+00  0.00000000000E+00  0.30311256571E+03  0.30311256572E+03  0.25500000000E-02 0.  1.
         -2   -1    0    0    0  501 -0.00000000000E+00 -0.00000000000E+00 -0.15862505101E+04  0.15862505101E+04  0.25500000000E-02 0. -1.
    -200001    2    1    2    0    0  0.67724053213E+02  0.27661656173E+03 -0.85218661384E+03  0.10877451376E+04  0.61307763778E+03 0.  0.
   -5000001    2    3    3    0    0  0.24919260425E+03  0.36319392299E+03 -0.60921397484E+03  0.75659082643E+03  0.85330134120E+02 0.  0.
     200001    1    1    2    0    0 -0.67724053213E+02 -0.27661656173E+03 -0.43095133058E+03  0.80161793826E+03  0.61300000000E+03 0.  1.
         13    1    4    4    0    0  0.18104123996E+02  0.72338149140E+02 -0.80587186950E+02  0.10979468562E+03  0.10566000000E+00 0.  1.
    -200003    1    4    4    0    0  0.23108848026E+03  0.29085577386E+03 -0.52862678789E+03  0.64679614081E+03  0.30000000000E+02 0.  1.
    -200000    1    3    3    0    0 -0.18146855104E+03 -0.86577361260E+02 -0.24297263900E+03  0.33115431116E+03  0.10100000000E+03 0.  1.
<mgrwt>
<rscale>  0 0.13868128E+04</rscale>
<asrwt>0</asrwt>
<pdfrwt beam="1">  1        2 0.43301796E-01 0.13868128E+04</pdfrwt>
<pdfrwt beam="2">  1       -2 0.22660721E+00 0.13868128E+04</pdfrwt>
<totfact> 0.10330608E+01</totfact>
</mgrwt>
</event>
<event>
 8    2  0.4306980E-052  0.1569875E+04  0.7818608E-02  0.8839272E-01
          2   -1    0    0  501    0  0.00000000000E+00  0.00000000000E+00  0.57292018748E+03  0.57292018749E+03  0.25500000000E-02 0.  1.
         -2   -1    0    0    0  501 -0.00000000000E+00 -0.00000000000E+00 -0.10754143838E+04  0.10754143838E+04  0.25500000000E-02 0. -1.
    -200001    2    1    2    0    0  0.32813918303E+03 -0.13796284200E+03 -0.60472099927E+03  0.93214438118E+03  0.61359318053E+03 0.  0.
   -5000001    2    3    3    0    0  0.27689592061E+03 -0.35961066379E+03 -0.40352459714E+03  0.61209029031E+03  0.76362573531E+02 0.  0.
     200001    1    1    2    0    0 -0.32813918303E+03  0.13796284200E+03  0.10222680292E+03  0.71619019014E+03  0.61300000000E+03 0.  1.
         13    1    4    4    0    0  0.59051915759E+00 -0.20895226176E+02 -0.10037450425E+02  0.23188806888E+02  0.10566000000E+00 0.  1.
    -200003    1    4    4    0    0  0.27630540145E+03 -0.33871543762E+03 -0.39348714672E+03  0.58890148343E+03  0.30000000000E+02 0.  1.
    -200000    1    3    3    0    0  0.51243262421E+02  0.22164782180E+03 -0.20119640212E+03  0.32005409086E+03  0.10100000000E+03 0.  1.
<mgrwt>
<rscale>  0 0.15698747E+04</rscale>
<asrwt>0</asrwt>
<pdfrwt beam="1">  1        2 0.81845742E-01 0.15698747E+04</pdfrwt>
<pdfrwt beam="2">  1       -2 0.15363063E+00 0.15698747E+04</pdfrwt>
<totfact> 0.15508716E+01</totfact>
</mgrwt>
</event>
<event>
 8    2  0.4306980E-052  0.2295969E+04  0.7818608E-02  0.8479512E-01
         -2   -1    0    0    0  501 -0.00000000000E+00  0.00000000000E+00  0.29404768246E+03  0.29404768247E+03  0.25500000000E-02 0. -1.
          2   -1    0    0  501    0  0.00000000000E+00 -0.00000000000E+00 -0.44818188151E+04  0.44818188151E+04  0.25500000000E-02 0.  1.
    -200001    2    1    2    0    0 -0.86884043441E+03  0.68503197580E+02 -0.12074969903E+04  0.16108421134E+04  0.61415547242E+03 0.  0.
   -5000001    2    3    3    0    0 -0.19407776792E+02 -0.74855472555E+02 -0.37132611294E+02  0.15411930941E+03  0.12803877202E+03 0.  0.
     200001    1    1    2    0    0  0.86884043441E+03 -0.68503197580E+02 -0.29802741423E+04  0.31650243841E+04  0.61300000000E+03 0.  1.
         13    1    4    4    0    0 -0.45430004795E+02 -0.88561850949E+01  0.27265645942E+02  0.53719121016E+02  0.10566000000E+00 0.  1.
    -200003    1    4    4    0    0  0.26022228003E+02 -0.65999287460E+02 -0.64398257235E+02  0.10040018840E+03  0.30000000000E+02 0.  1.
    -200000    1    3    3    0    0 -0.84943265762E+03  0.14335867014E+03 -0.11703643790E+04  0.14567228040E+04  0.10100000000E+03 0. -1.
<mgrwt>
<rscale>  0 0.22959690E+04</rscale>
<asrwt>0</asrwt>
<pdfrwt beam="1">  1        2 0.64025979E+00 0.22959690E+04</pdfrwt>
<pdfrwt beam="2">  1       -2 0.42006814E-01 0.22959690E+04</pdfrwt>
<totfact> 0.12349417E+00</totfact>
</mgrwt>
</event>
<event>
 8    2  0.4306980E-052  0.1532603E+04  0.7818608E-02  0.8863057E-01
          2   -1    0    0  501    0  0.00000000000E+00  0.00000000000E+00  0.22062913203E+04  0.22062913203E+04  0.25500000000E-02 0.  1.
         -2   -1    0    0    0  501 -0.00000000000E+00 -0.00000000000E+00 -0.26615631269E+03  0.26615631270E+03  0.25500000000E-02 0. -1.
    -200001    2    1    2    0    0  0.35340036052E+03  0.28983935722E+03  0.89403654851E+03  0.11766893014E+04  0.61351258676E+03 0.  0.
   -5000001    2    3    3    0    0 -0.15805349689E+03  0.14308678885E+03  0.21833657953E+03  0.31072578445E+03  0.58522766012E+02 0.  0.
     200001    1    1    2    0    0 -0.35340036052E+03 -0.28983935722E+03  0.10460984591E+04  0.12957583316E+04  0.61300000000E+03 0. -1.
         13    1    4    4    0    0 -0.11809537616E+03  0.99956555968E+02  0.14475747503E+03  0.21187866502E+03  0.10566000000E+00 0.  1.
    -200003    1    4    4    0    0 -0.39958120730E+02  0.43130232879E+02  0.73579104501E+02  0.98847119430E+02  0.30000000000E+02 0. -1.
    -200000    1    3    3    0    0  0.51145385741E+03  0.14675256837E+03  0.67569996898E+03  0.86596351694E+03  0.10100000000E+03 0.  1.
<mgrwt>
<rscale>  0 0.15326035E+04</rscale>
<asrwt>0</asrwt>
<pdfrwt beam="1">  1        2 0.31518446E+00 0.15326035E+04</pdfrwt>
<pdfrwt beam="2">  1       -2 0.38022332E-01 0.15326035E+04</pdfrwt>
<totfact> 0.39580870E+01</totfact>
</mgrwt>
</event>
<event>
 8    2  0.4306980E-052  0.1314616E+04  0.7818608E-02  0.9018054E-01
         -2   -1    0    0    0  501 -0.00000000000E+00  0.00000000000E+00  0.12295977116E+04  0.12295977116E+04  0.25500000000E-02 0. -1.
          2   -1    0    0  501    0  0.00000000000E+00 -0.00000000000E+00 -0.35137833895E+03  0.35137833896E+03  0.25500000000E-02 0.  1.
    -200001    2    1    2    0    0  0.24120684106E+03 -0.31468805171E+01  0.45949169341E+03  0.80040413690E+03  0.60936321109E+03 0.  0.
   -5000001    2    3    3    0    0  0.23812922146E+03 -0.25658407409E+03  0.17170724121E+03  0.40384295151E+03  0.10518954135E+03 0.  0.
     200001    1    1    2    0    0 -0.24120684106E+03  0.31468805171E+01  0.41872767923E+03  0.78057191365E+03  0.61300000000E+03 0.  1.
         13    1    4    4    0    0  0.16742522511E+03 -0.20621597680E+03  0.16284615582E+03  0.31156879934E+03  0.10566000000E+00 0.  1.
    -200003    1    4    4    0    0  0.70703996347E+02 -0.50368097291E+02  0.88610853833E+01  0.92274152168E+02  0.30000000000E+02 0. -1.
    -200000    1    3    3    0    0  0.30776195970E+01  0.25343719358E+03  0.28778445221E+03  0.39656118539E+03  0.10100000000E+03 0.  1.
<mgrwt>
<rscale>  0 0.13146163E+04</rscale>
<asrwt>0</asrwt>
<pdfrwt beam="1">  1        2 0.50196905E-01 0.13146163E+04</pdfrwt>
<pdfrwt beam="2">  1       -2 0.17565682E+00 0.13146163E+04</pdfrwt>
<totfact> 0.19038976E+01</totfact>
</mgrwt>
</event>
<event>
 8    2  0.4306980E-052  0.1380479E+04  0.7818608E-02  0.8968071E-01
          2   -1    0    0  501    0  0.00000000000E+00  0.00000000000E+00  0.14364924334E+04  0.14364924335E+04  0.25500000000E-02 0.  1.
         -2   -1    0    0    0  501 -0.00000000000E+00 -0.00000000000E+00 -0.33166261162E+03  0.33166261163E+03  0.25500000000E-02 0. -1.
    -200001    2    1    2    0    0  0.23530845993E+03 -0.48720389743E+02  0.81819160446E+03  0.10500504459E+04  0.61271909523E+03 0.  0.
   -5000001    2    3    3    0    0  0.16496762396E+03 -0.27231368185E+03  0.30695548005E+03  0.47864413830E+03  0.18305596444E+03 0.  0.
     200001    1    1    2    0    0 -0.23530845993E+03  0.48720389743E+02  0.28663821737E+03  0.71810459917E+03  0.61300000000E+03 0. -1.
         13    1    4    4    0    0 -0.37707840458E+02 -0.32792341576E+02  0.60911684319E+02  0.78787456798E+02  0.10566000000E+00 0.  1.
    -200003    1    4    4    0    0  0.20267546441E+03 -0.23952134028E+03  0.24604379574E+03  0.39985668150E+03  0.30000000000E+02 0.  1.
    -200000    1    3    3    0    0  0.70340835971E+02  0.22359329211E+03  0.51123612440E+03  0.57140630761E+03  0.10100000000E+03 0. -1.
<mgrwt>
<rscale>  0 0.13804794E+04</rscale>
<asrwt>0</asrwt>
<pdfrwt beam="1">  1        2 0.20521320E+00 0.13804794E+04</pdfrwt>
<pdfrwt beam="2">  1       -2 0.47380374E-01 0.13804794E+04</pdfrwt>
<totfact> 0.65094962E+01</totfact>
</mgrwt>
</event>
<event>
 8    2  0.4306980E-052  0.1677629E+04  0.7818608E-02  0.8774227E-01
          2   -1    0    0  501    0  0.00000000000E+00  0.00000000000E+00  0.16121779661E+04  0.16121779661E+04  0.25500000000E-02 0.  1.
         -2   -1    0    0    0  501 -0.00000000000E+00 -0.00000000000E+00 -0.43643440967E+03  0.43643440967E+03  0.25500000000E-02 0. -1.
    -200001    2    1    2    0    0  0.47260037580E+03  0.76900296282E+02  0.20424810898E+03  0.80408950527E+03  0.61284408432E+03 0.  0.
   -5000001    2    3    3    0    0  0.54147121151E+03 -0.83961429528E+02  0.20118639486E+03  0.60202500830E+03  0.14736875720E+03 0.  0.
     200001    1    1    2    0    0 -0.47260037580E+03 -0.76900296282E+02  0.97149544743E+03  0.12445228705E+04  0.61300000000E+03 0.  1.
         13    1    4    4    0    0  0.28052189448E+03  0.27565284960E+02  0.10747758078E+03  0.30166839369E+03  0.10566000000E+00 0.  1.
    -200003    1    4    4    0    0  0.26094931703E+03 -0.11152671449E+03  0.93708814081E+02  0.30035661461E+03  0.30000000000E+02 0.  1.
    -200000    1    3    3    0    0 -0.68870835708E+02  0.16086172581E+03  0.30617141184E+01  0.20206449697E+03  0.10100000000E+03 0. -1.
<mgrwt>
<rscale>  0 0.16776292E+04</rscale>
<asrwt>0</asrwt>
<pdfrwt beam="1">  1        2 0.23031114E+00 0.16776292E+04</pdfrwt>
<pdfrwt beam="2">  1       -2 0.62347772E-01 0.16776292E+04</pdfrwt>
<totfact> 0.29079549E+01</totfact>
</mgrwt>
</event>
<event>
 8    2  0.4306980E-052  0.1547295E+04  0.7818608E-02  0.8853597E-01
         -2   -1    0    0    0  501 -0.00000000000E+00  0.00000000000E+00  0.41493954116E+03  0.41493954117E+03  0.25500000000E-02 0. -1.
          2   -1    0    0  501    0  0.00000000000E+00 -0.00000000000E+00 -0.14424522621E+04  0.14424522621E+04  0.25500000000E-02 0.  1.
    -200001    2    1    2    0    0  0.29793522002E+03  0.26220507998E+02 -0.95189581660E+03  0.11711412465E+04  0.61319920358E+03 0.  0.
   -5000001    2    3    3    0    0  0.40959830802E+03  0.25105470032E+02 -0.33398577809E+03  0.53515091308E+03  0.80243013722E+02 0.  0.
     200001    1    1    2    0    0 -0.29793522002E+03 -0.26220507998E+02 -0.75616904286E+02  0.68625055671E+03  0.61300000000E+03 0. -1.
         13    1    4    4    0    0  0.12939777977E+03  0.40043193460E+02 -0.12057088874E+03  0.18134109608E+03  0.10566000000E+00 0.  1.
    -200003    1    4    4    0    0  0.28020052825E+03 -0.14937723428E+02 -0.21341488934E+03  0.35380981700E+03  0.30000000000E+02 0.  1.
    -200000    1    3    3    0    0 -0.11166308800E+03  0.11150379656E+01 -0.61791003851E+03  0.63599033344E+03  0.10100000000E+03 0.  1.
<mgrwt>
<rscale>  0 0.15472950E+04</rscale>
<asrwt>0</asrwt>
<pdfrwt beam="1">  1        2 0.20606461E+00 0.15472950E+04</pdfrwt>
<pdfrwt beam="2">  1       -2 0.59277078E-01 0.15472950E+04</pdfrwt>
<totfact> 0.40217861E+01</totfact>
</mgrwt>
</event>
<event>
 8    2  0.4306980E-052  0.2000494E+04  0.7818608E-02  0.8606390E-01
          2   -1    0    0  501    0  0.00000000000E+00  0.00000000000E+00  0.18823942071E+04  0.18823942071E+04  0.25500000000E-02 0.  1.
         -2   -1    0    0    0  501 -0.00000000000E+00 -0.00000000000E+00 -0.53150076831E+03  0.53150076831E+03  0.25500000000E-02 0. -1.
    -200001    2    1    2    0    0 -0.19748241277E+03 -0.70378990285E+03  0.31365537908E+03  0.10046571235E+04  0.61370734746E+03 0.  0.
   -5000001    2    3    3    0    0  0.10629522911E+03 -0.37238278728E+03  0.35983808065E+03  0.54157465369E+03  0.11769471200E+03 0.  0.
     200001    1    1    2    0    0  0.19748241277E+03  0.70378990285E+03  0.10372380597E+04  0.14092378519E+04  0.61300000000E+03 0.  1.
         13    1    4    4    0    0  0.27603211074E+02 -0.16007216943E+03  0.82167652406E+02  0.18203453231E+03  0.10566000000E+00 0.  1.
    -200003    1    4    4    0    0  0.78692018032E+02 -0.21231061785E+03  0.27767042825E+03  0.35954012137E+03  0.30000000000E+02 0.  1.
    -200000    1    3    3    0    0 -0.30377764187E+03 -0.33140711557E+03 -0.46182701575E+02  0.46308246984E+03  0.10100000000E+03 0. -1.
<mgrwt>
<rscale>  0 0.20004939E+04</rscale>
<asrwt>0</asrwt>
<pdfrwt beam="1">  1        2 0.26891346E+00 0.20004939E+04</pdfrwt>
<pdfrwt beam="2">  1       -2 0.75928681E-01 0.20004939E+04</pdfrwt>
<totfact> 0.13367863E+01</totfact>
</mgrwt>
</event>
<event>
 8    2  0.4306980E-052  0.1900149E+04  0.7818608E-02  0.8654782E-01
         -2   -1    0    0    0  501 -0.00000000000E+00  0.00000000000E+00  0.74667799086E+03  0.74667799087E+03  0.25500000000E-02 0. -1.
          2   -1    0    0  501    0  0.00000000000E+00 -0.00000000000E+00 -0.12088765918E+04  0.12088765918E+04  0.25500000000E-02 0.  1.
    -200001    2    1    2    0    0  0.33835618889E+03 -0.12874807171E+03  0.41629047259E+03  0.82481454674E+03  0.61315601800E+03 0.  0.
   -5000001    2    3    3    0    0 -0.83320670434E+02 -0.25654298247E+02  0.35625727388E+03  0.37509831981E+03  0.78606788449E+02 0.  0.
     200001    1    1    2    0    0 -0.33835618889E+03  0.12874807171E+03 -0.87848907352E+03  0.11307400359E+04  0.61300000000E+03 0.  1.
         13    1    4    4    0    0 -0.24223223565E+02  0.24277353038E+02  0.11173707135E+03  0.11688172958E+03  0.10566000000E+00 0.  1.
    -200003    1    4    4    0    0 -0.59097446869E+02 -0.49931651285E+02  0.24452020253E+03  0.25821659023E+03  0.30000000000E+02 0.  1.
    -200000    1    3    3    0    0  0.42167685932E+03 -0.10309377347E+03  0.60033198710E+02  0.44971622693E+03  0.10100000000E+03 0.  1.
<mgrwt>
<rscale>  0 0.19001490E+04</rscale>
<asrwt>0</asrwt>
<pdfrwt beam="1">  1        2 0.17269665E+00 0.19001490E+04</pdfrwt>
<pdfrwt beam="2">  1       -2 0.10666829E+00 0.19001490E+04</pdfrwt>
<totfact> 0.14053390E+01</totfact>
</mgrwt>
</event>
<event>
 8    2  0.4306980E-052  0.1794668E+04  0.7818608E-02  0.8709140E-01
         -2   -1    0    0    0  501 -0.00000000000E+00  0.00000000000E+00  0.23549200886E+03  0.23549200887E+03  0.25500000000E-02 0. -1.
          2   -1    0    0  501    0  0.00000000000E+00 -0.00000000000E+00 -0.34192604949E+04  0.34192604949E+04  0.25500000000E-02 0.  1.
    -200001    2    1    2    0    0 -0.60446854855E+03  0.33487580809E+02 -0.21050561411E+04  0.22742116795E+04  0.61177917740E+03 0.  0.
   -5000001    2    3    3    0    0 -0.27527118331E+03  0.14456243073E+03 -0.16999312333E+04  0.17310397744E+04  0.10029946181E+03 0.  0.
     200001    1    1    2    0    0  0.60446854855E+03 -0.33487580809E+02 -0.10787123449E+04  0.13805408242E+04  0.61300000000E+03 0.  1.
         13    1    4    4    0    0 -0.59200364282E+01  0.33090941825E+02 -0.18300362060E+03  0.18606556258E+03  0.10566000000E+00 0.  1.
    -200003    1    4    4    0    0 -0.26935114688E+03  0.11147148891E+03 -0.15169276127E+04  0.15449742118E+04  0.30000000000E+02 0.  1.
    -200000    1    3    3    0    0 -0.32919736524E+03 -0.11107484992E+03 -0.40512490785E+03  0.54317190513E+03  0.10100000000E+03 0. -1.
<mgrwt>
<rscale>  0 0.17946682E+04</rscale>
<asrwt>0</asrwt>
<pdfrwt beam="1">  1        2 0.48846575E+00 0.17946682E+04</pdfrwt>
<pdfrwt beam="2">  1       -2 0.33641718E-01 0.17946682E+04</pdfrwt>
<totfact> 0.10582490E+01</totfact>
</mgrwt>
</event>
<event>
 8    2  0.4306980E-052  0.1443506E+04  0.7818608E-02  0.8922915E-01
          2   -1    0    0  501    0  0.00000000000E+00  0.00000000000E+00  0.13412648074E+04  0.13412648074E+04  0.25500000000E-02 0.  1.
         -2   -1    0    0    0  501 -0.00000000000E+00 -0.00000000000E+00 -0.38838538023E+03  0.38838538024E+03  0.25500000000E-02 0. -1.
    -200001    2    1    2    0    0 -0.11164416387E+00  0.23016908521E+03  0.11172933726E+03  0.66368569762E+03  0.61238667537E+03 0.  0.
   -5000001    2    3    3    0    0 -0.19746153228E+03  0.36844376207E+01 -0.14322055266E+03  0.25693919142E+03  0.80628714319E+02 0.  0.
     200001    1    1    2    0    0  0.11164416387E+00 -0.23016908521E+03  0.84115008996E+03  0.10659644901E+04  0.61300000000E+03 0.  1.
         13    1    4    4    0    0 -0.10623451347E+03 -0.31671844845E+02 -0.69982989090E+02  0.13109732085E+03  0.10566000000E+00 0.  1.
    -200003    1    4    4    0    0 -0.91227018802E+02  0.35356282466E+02 -0.73237563575E+02  0.12584187057E+03  0.30000000000E+02 0.  1.
    -200000    1    3    3    0    0  0.19734988811E+03  0.22648464759E+03  0.25494988992E+03  0.40674650620E+03  0.10100000000E+03 0. -1.
<mgrwt>
<rscale>  0 0.14435063E+04</rscale>
<asrwt>0</asrwt>
<pdfrwt beam="1">  1        2 0.19160926E+00 0.14435063E+04</pdfrwt>
<pdfrwt beam="2">  1       -2 0.55483625E-01 0.14435063E+04</pdfrwt>
<totfact> 0.52824699E+01</totfact>
</mgrwt>
</event>
<event>
 8    2  0.4306980E-052  0.1273685E+04  0.7818608E-02  0.9050698E-01
          2   -1    0    0  501    0  0.00000000000E+00  0.00000000000E+00  0.31796908607E+03  0.31796908608E+03  0.25500000000E-02 0.  1.
         -2   -1    0    0    0  501 -0.00000000000E+00 -0.00000000000E+00 -0.12754953505E+04  0.12754953505E+04  0.25500000000E-02 0. -1.
    -200001    2    1    2    0    0 -0.23969253958E+02 -0.17007215648E+03 -0.50501663296E+03  0.81241832391E+03  0.61276640730E+03 0.  0.
   -5000001    2    3    3    0    0  0.12829814765E+03  0.10397060813E+03 -0.44017173746E+03  0.47672403010E+03  0.79021138767E+02 0.  0.
     200001    1    1    2    0    0  0.23969253958E+02  0.17007215648E+03 -0.45250963150E+03  0.78104611269E+03  0.61300000000E+03 0. -1.
         13    1    4    4    0    0  0.63116313557E+02  0.83802027660E+02 -0.20934615692E+03  0.23416292076E+03  0.10566000000E+00 0.  1.
    -200003    1    4    4    0    0  0.65181834090E+02  0.20168580468E+02 -0.23082558053E+03  0.24256110934E+03  0.30000000000E+02 0.  1.
    -200000    1    3    3    0    0 -0.15226740161E+03 -0.27404276461E+03 -0.64844895502E+02  0.33569429382E+03  0.10100000000E+03 0. -1.
<mgrwt>
<rscale>  0 0.12736846E+04</rscale>
<asrwt>0</asrwt>
<pdfrwt beam="1">  1        2 0.45424156E-01 0.12736846E+04</pdfrwt>
<pdfrwt beam="2">  1       -2 0.18221362E+00 0.12736846E+04</pdfrwt>
<totfact> 0.19219676E+01</totfact>
</mgrwt>
</event>
<event>
 8    2  0.4306980E-052  0.1627763E+04  0.7818608E-02  0.8803671E-01
         -2   -1    0    0    0  501 -0.00000000000E+00  0.00000000000E+00  0.71184259955E+03  0.71184259955E+03  0.25500000000E-02 0. -1.
          2   -1    0    0  501    0  0.00000000000E+00 -0.00000000000E+00 -0.93054766571E+03  0.93054766572E+03  0.25500000000E-02 0.  1.
    -200001    2    1    2    0    0 -0.47034498041E+03 -0.10625155592E+03  0.12497810391E+03  0.79009869830E+03  0.61328837660E+03 0.  0.
   -5000001    2    3    3    0    0 -0.40011771447E+03 -0.58889688455E+02  0.34364428458E+03  0.53477358410E+03  0.65796740749E+02 0.  0.
     200001    1    1    2    0    0  0.47034498041E+03  0.10625155592E+03 -0.34368317008E+03  0.85229156697E+03  0.61300000000E+03 0. -1.
         13    1    4    4    0    0 -0.10130708995E+03 -0.39731071977E+02  0.90416790500E+02  0.14148106489E+03  0.10566000000E+00 0.  1.
    -200003    1    4    4    0    0 -0.29881062451E+03 -0.19158616479E+02  0.25322749408E+03  0.39329251921E+03  0.30000000000E+02 0.  1.
    -200000    1    3    3    0    0 -0.70227265942E+02 -0.47361867465E+02 -0.21866618067E+03  0.25532511420E+03  0.10100000000E+03 0.  1.
<mgrwt>
<rscale>  0 0.16277635E+04</rscale>
<asrwt>0</asrwt>
<pdfrwt beam="1">  1        2 0.13293538E+00 0.16277635E+04</pdfrwt>
<pdfrwt beam="2">  1       -2 0.10169180E+00 0.16277635E+04</pdfrwt>
<totfact> 0.23655384E+01</totfact>
</mgrwt>
</event>
<event>
 8    2  0.4306980E-052  0.1472869E+04  0.7818608E-02  0.8902698E-01
         -2   -1    0    0    0  501 -0.00000000000E+00  0.00000000000E+00  0.55449737940E+03  0.55449737940E+03  0.25500000000E-02 0. -1.
          2   -1    0    0  501    0  0.00000000000E+00 -0.00000000000E+00 -0.97806672787E+03  0.97806672787E+03  0.25500000000E-02 0.  1.
    -200001    2    1    2    0    0  0.14311084301E+03 -0.33789524485E+03 -0.25787149980E+02  0.71485169614E+03  0.61293887174E+03 0.  0.
   -5000001    2    3    3    0    0 -0.15916619780E-01 -0.48044154568E+03 -0.36383311235E+02  0.48875880409E+03  0.82081326545E+02 0.  0.
     200001    1    1    2    0    0 -0.14311084301E+03  0.33789524485E+03 -0.39778219849E+03  0.81771241113E+03  0.61300000000E+03 0.  1.
         13    1    4    4    0    0 -0.35883193865E+01 -0.51950363432E+02  0.19455059088E+02  0.55589808282E+02  0.10566000000E+00 0.  1.
    -200003    1    4    4    0    0  0.35724027667E+01 -0.42849118225E+03 -0.55838370323E+02  0.43316899581E+03  0.30000000000E+02 0. -1.
    -200000    1    3    3    0    0  0.14312675963E+03  0.14254630083E+03  0.10596161255E+02  0.22609289205E+03  0.10100000000E+03 0. -1.
<mgrwt>
<rscale>  0 0.14728685E+04</rscale>
<asrwt>0</asrwt>
<pdfrwt beam="1">  1        2 0.13972382E+00 0.14728685E+04</pdfrwt>
<pdfrwt beam="2">  1       -2 0.79213911E-01 0.14728685E+04</pdfrwt>
<totfact> 0.39736188E+01</totfact>
</mgrwt>
</event>
<event>
 8    2  0.4306980E-052  0.1302511E+04  0.7818608E-02  0.9027576E-01
         -2   -1    0    0    0  501 -0.00000000000E+00  0.00000000000E+00  0.17158252840E+03  0.17158252842E+03  0.25500000000E-02 0. -1.
          2   -1    0    0  501    0  0.00000000000E+00 -0.00000000000E+00 -0.24718927623E+04  0.24718927623E+04  0.25500000000E-02 0.  1.
    -200001    2    1    2    0    0 -0.15819691531E+03 -0.10541466428E+02 -0.14375766856E+04  0.15733278421E+04  0.61935158435E+03 0.  0.
   -5000001    2    3    3    0    0  0.13891509104E+03  0.20105459172E+03 -0.50323047458E+03  0.56523445441E+03  0.80800535478E+02 0.  0.
     200001    1    1    2    0    0  0.15819691531E+03  0.10541466428E+02 -0.86273354825E+03  0.10701474486E+04  0.61300000000E+03 0. -1.
         13    1    4    4    0    0  0.11414087142E+03  0.17776873869E+03 -0.43020642250E+03  0.47927804051E+03  0.10566000000E+00 0.  1.
    -200003    1    4    4    0    0  0.24774219622E+02  0.23285853026E+02 -0.73024052075E+02  0.85956413900E+02  0.30000000000E+02 0. -1.
    -200000    1    3    3    0    0 -0.29711200635E+03 -0.21159605815E+03 -0.93434621103E+03  0.10080933876E+04  0.10100000000E+03 0. -1.
<mgrwt>
<rscale>  0 0.13025108E+04</rscale>
<asrwt>0</asrwt>
<pdfrwt beam="1">  1        2 0.35312752E+00 0.13025108E+04</pdfrwt>
<pdfrwt beam="2">  1       -2 0.24511791E-01 0.13025108E+04</pdfrwt>
<totfact> 0.66694193E+01</totfact>
</mgrwt>
</event>
<event>
 8    2  0.4306980E-052  0.1392351E+04  0.7818608E-02  0.8959374E-01
         -2   -1    0    0    0  501 -0.00000000000E+00  0.00000000000E+00  0.10584966805E+03  0.10584966808E+03  0.25500000000E-02 0. -1.
          2   -1    0    0  501    0  0.00000000000E+00 -0.00000000000E+00 -0.45787625181E+04  0.45787625181E+04  0.25500000000E-02 0.  1.
    -200001    2    1    2    0    0  0.64949149916E+02  0.30665107386E+03 -0.25808731840E+04  0.26711980780E+04  0.61330213333E+03 0.  0.
   -5000001    2    3    3    0    0  0.11223669790E+03  0.46900971845E+03 -0.18954520463E+04  0.19580364009E+04  0.92741010502E+02 0.  0.
     200001    1    1    2    0    0 -0.64949149916E+02 -0.30665107386E+03 -0.18920396660E+04  0.20134141082E+04  0.61300000000E+03 0. -1.
         13    1    4    4    0    0  0.48700546562E+02  0.31787272342E+03 -0.11452563512E+04  0.11895490459E+04  0.10566000000E+00 0.  1.
    -200003    1    4    4    0    0  0.63536151339E+02  0.15113699502E+03 -0.75019569519E+03  0.76848735505E+03  0.30000000000E+02 0.  1.
    -200000    1    3    3    0    0 -0.47287547985E+02 -0.16235864459E+03 -0.68542113769E+03  0.71316167709E+03  0.10100000000E+03 0. -1.
<mgrwt>
<rscale>  0 0.13923512E+04</rscale>
<asrwt>0</asrwt>
<pdfrwt beam="1">  1        2 0.65410881E+00 0.13923512E+04</pdfrwt>
<pdfrwt beam="2">  1       -2 0.15121384E-01 0.13923512E+04</pdfrwt>
<totfact> 0.73334690E+00</totfact>
</mgrwt>
</event>
<event>
 8    2  0.4306980E-052  0.1574388E+04  0.7818608E-02  0.8836439E-01
         -2   -1    0    0    0  501 -0.00000000000E+00  0.00000000000E+00  0.62630823624E+03  0.62630823625E+03  0.25500000000E-02 0. -1.
          2   -1    0    0  501    0  0.00000000000E+00 -0.00000000000E+00 -0.98940770609E+03  0.98940770610E+03  0.25500000000E-02 0.  1.
    -200001    2    1    2    0    0 -0.34700130441E+02  0.33539362386E+03  0.18500548112E+03  0.72696343503E+03  0.61689206985E+03 0.  0.
   -5000001    2    3    3    0    0 -0.15641015227E+03  0.45021683475E+03  0.39714662117E+02  0.48343084735E+03  0.70489685453E+02 0.  0.
     200001    1    1    2    0    0  0.34700130441E+02 -0.33539362386E+03 -0.54810495097E+03  0.88875250731E+03  0.61300000000E+03 0.  1.
         13    1    4    4    0    0 -0.86170932502E+02  0.27194337401E+03  0.48136870087E+02  0.28930226010E+03  0.10566000000E+00 0.  1.
    -200003    1    4    4    0    0 -0.70239219772E+02  0.17827346074E+03 -0.84222079699E+01  0.19412858725E+03  0.30000000000E+02 0.  1.
    -200000    1    3    3    0    0  0.12171002183E+03 -0.11482321089E+03  0.14529081901E+03  0.24353258768E+03  0.10100000000E+03 0.  1.
<mgrwt>
<rscale>  0 0.15743877E+04</rscale>
<asrwt>0</asrwt>
<pdfrwt beam="1">  1        2 0.14134396E+00 0.15743877E+04</pdfrwt>
<pdfrwt beam="2">  1       -2 0.89472606E-01 0.15743877E+04</pdfrwt>
<totfact> 0.29418973E+01</totfact>
</mgrwt>
</event>
<event>
 8    2  0.4306980E-052  0.1444857E+04  0.7818608E-02  0.8921974E-01
         -2   -1    0    0    0  501 -0.00000000000E+00  0.00000000000E+00  0.22626675319E+04  0.22626675319E+04  0.25500000000E-02 0. -1.
          2   -1    0    0  501    0  0.00000000000E+00 -0.00000000000E+00 -0.23065821262E+03  0.23065821263E+03  0.25500000000E-02 0.  1.
    -200001    2    1    2    0    0 -0.11191396494E+03 -0.30336627743E+03  0.66469343019E+03  0.96039470420E+03  0.61317599260E+03 0.  0.
   -5000001    2    3    3    0    0 -0.23595763174E+03 -0.41471552910E+03  0.37194809461E+03  0.60870404664E+03  0.67158448836E+02 0.  0.
     200001    1    1    2    0    0  0.11191396494E+03  0.30336627743E+03  0.13673158891E+04  0.15329310404E+04  0.61300000000E+03 0.  1.
         13    1    4    4    0    0 -0.16256516755E+03 -0.31139645954E+03  0.28129041322E+03  0.45002166220E+03  0.10566000000E+00 0.  1.
    -200003    1    4    4    0    0 -0.73392464193E+02 -0.10331906957E+03  0.90657681388E+02  0.15868238444E+03  0.30000000000E+02 0. -1.
    -200000    1    3    3    0    0  0.12404366680E+03  0.11134925167E+03  0.29274533558E+03  0.35169065757E+03  0.10100000000E+03 0.  1.
<mgrwt>
<rscale>  0 0.14448569E+04</rscale>
<asrwt>0</asrwt>
<pdfrwt beam="1">  1        2 0.32951174E-01 0.14448569E+04</pdfrwt>
<pdfrwt beam="2">  1       -2 0.32323821E+00 0.14448569E+04</pdfrwt>
<totfact> 0.35806131E+00</totfact>
</mgrwt>
</event>
<event>
 8    2  0.4306980E-052  0.1601972E+04  0.7818608E-02  0.8819338E-01
          2   -1    0    0  501    0  0.00000000000E+00  0.00000000000E+00  0.12368303321E+04  0.12368303321E+04  0.25500000000E-02 0.  1.
         -2   -1    0    0    0  501 -0.00000000000E+00 -0.00000000000E+00 -0.51872775561E+03  0.51872775561E+03  0.25500000000E-02 0. -1.
    -200001    2    1    2    0    0 -0.40995338894E+03  0.88238666795E+02  0.68742599927E+03  0.10122157064E+04  0.61333374965E+03 0.  0.
   -5000001    2    3    3    0    0 -0.46223101327E+03  0.15273628808E+03  0.71932575802E+03  0.87763677880E+03  0.12582084896E+03 0.  0.
     200001    1    1    2    0    0  0.40995338894E+03 -0.88238666795E+02  0.30676577231E+02  0.74334238129E+03  0.61300000000E+03 0. -1.
         13    1    4    4    0    0 -0.42028553798E+03  0.12101237324E+03  0.58609909000E+03  0.73129753342E+03  0.10566000000E+00 0.  1.
    -200003    1    4    4    0    0 -0.41945475289E+02  0.31723914833E+02  0.13322666801E+03  0.14633924538E+03  0.30000000000E+02 0.  1.
    -200000    1    3    3    0    0  0.52277624326E+02 -0.64497621281E+02 -0.31899758745E+02  0.13457892764E+03  0.10100000000E+03 0. -1.
<mgrwt>
<rscale>  0 0.16019716E+04</rscale>
<asrwt>0</asrwt>
<pdfrwt beam="1">  1        2 0.17669004E+00 0.16019716E+04</pdfrwt>
<pdfrwt beam="2">  1       -2 0.74103966E-01 0.16019716E+04</pdfrwt>
<totfact> 0.32095548E+01</totfact>
</mgrwt>
</event>
<event>
 8    2  0.4306980E-052  0.1723531E+04  0.7818608E-02  0.8748056E-01
         -2   -1    0    0    0  501 -0.00000000000E+00  0.00000000000E+00  0.56033883429E+03  0.56033883429E+03  0.25500000000E-02 0.  1.
          2   -1    0    0  501    0  0.00000000000E+00 -0.00000000000E+00 -0.13253405788E+04  0.13253405788E+04  0.25500000000E-02 0. -1.
    -200001    2    1    2    0    0  0.28554960118E+03  0.11093644752E+03  0.18920068889E+03  0.71089570789E+03  0.61296846305E+03 0.  0.
   -5000001    2    3    3    0    0  0.14960386085E+03  0.22180559173E+03 -0.91501210264E+02  0.36482090725E+03  0.23052719401E+03 0.  0.
     200001    1    1    2    0    0 -0.28554960118E+03 -0.11093644752E+03 -0.95420243344E+03  0.11747837052E+04  0.61300000000E+03 0. -1.
         13    1    4    4    0    0  0.16144087426E+03  0.25725500125E+03 -0.67091385419E+02  0.31103787023E+03  0.10566000000E+00 0.  1.
    -200003    1    4    4    0    0 -0.11837013417E+02 -0.35449409521E+02 -0.24409824845E+02  0.53783037019E+02  0.30000000000E+02 0.  1.
    -200000    1    3    3    0    0  0.13594574033E+03 -0.11086914421E+03  0.28070189915E+03  0.34607480064E+03  0.10100000000E+03 0.  1.
<mgrwt>
<rscale>  0 0.17235310E+04</rscale>
<asrwt>0</asrwt>
<pdfrwt beam="1">  1        2 0.18933437E+00 0.17235310E+04</pdfrwt>
<pdfrwt beam="2">  1       -2 0.80048405E-01 0.17235310E+04</pdfrwt>
<totfact> 0.23899592E+01</totfact>
</mgrwt>
</event>
<event>
 8    2  0.4306980E-052  0.1733666E+04  0.7818608E-02  0.8742393E-01
         -2   -1    0    0    0  501 -0.00000000000E+00  0.00000000000E+00  0.20139039678E+03  0.20139039680E+03  0.25500000000E-02 0. -1.
          2   -1    0    0  501    0  0.00000000000E+00 -0.00000000000E+00 -0.37310601638E+04  0.37310601638E+04  0.25500000000E-02 0.  1.
    -200001    2    1    2    0    0 -0.31322705697E+03  0.14369458816E+03 -0.61363604765E+03  0.93282042067E+03  0.61224620403E+03 0.  0.
   -5000001    2    3    3    0    0 -0.12359549763E+03 -0.20946305682E+03 -0.30627195340E+03  0.41769506026E+03  0.14668345073E+03 0.  0.
     200001    1    1    2    0    0  0.31322705697E+03 -0.14369458816E+03 -0.29160337194E+04  0.29996301399E+04  0.61300000000E+03 0.  1.
         13    1    4    4    0    0 -0.76632706315E+02 -0.15298438575E+03 -0.10354861345E+03  0.19999780116E+03  0.10566000000E+00 0.  1.
    -200003    1    4    4    0    0 -0.46962791315E+02 -0.56478671069E+02 -0.20272333996E+03  0.21769725909E+03  0.30000000000E+02 0. -1.
    -200000    1    3    3    0    0 -0.18963155934E+03  0.35315764498E+03 -0.30736409425E+03  0.51512536041E+03  0.10100000000E+03 0.  1.
<mgrwt>
<rscale>  0 0.17336663E+04</rscale>
<asrwt>0</asrwt>
<pdfrwt beam="1">  1        2 0.53300855E+00 0.17336663E+04</pdfrwt>
<pdfrwt beam="2">  1       -2 0.28770059E-01 0.17336663E+04</pdfrwt>
<totfact> 0.91519617E+00</totfact>
</mgrwt>
</event>
<event>
 8    2  0.4306980E-052  0.1646339E+04  0.7818608E-02  0.8792575E-01
          2   -1    0    0  501    0  0.00000000000E+00  0.00000000000E+00  0.28558144987E+04  0.28558144987E+04  0.25500000000E-02 0.  1.
         -2   -1    0    0    0  501 -0.00000000000E+00 -0.00000000000E+00 -0.23727326478E+03  0.23727326480E+03  0.25500000000E-02 0. -1.
    -200001    2    1    2    0    0 -0.19630747026E+03 -0.81657997269E+02  0.35782771405E+03  0.74111002757E+03  0.61318736828E+03 0.  0.
   -5000001    2    3    3    0    0 -0.15518438735E+03  0.23672387227E+03  0.21051557708E+03  0.37374101894E+03  0.12347127304E+03 0.  0.
     200001    1    1    2    0    0  0.19630747026E+03  0.81657997269E+02  0.22607135199E+04  0.23519777360E+04  0.61300000000E+03 0.  1.
         13    1    4    4    0    0  0.10630460810E+01  0.22429543482E+02 -0.12705216349E+02  0.25800158416E+02  0.10566000000E+00 0.  1.
    -200003    1    4    4    0    0 -0.15624743343E+03  0.21429432879E+03  0.22322079343E+03  0.34794086053E+03  0.30000000000E+02 0.  1.
    -200000    1    3    3    0    0 -0.41123082908E+02 -0.31838186954E+03  0.14731213696E+03  0.36736900862E+03  0.10100000000E+03 0. -1.
<mgrwt>
<rscale>  0 0.16463395E+04</rscale>
<asrwt>0</asrwt>
<pdfrwt beam="1">  1        2 0.40797349E+00 0.16463395E+04</pdfrwt>
<pdfrwt beam="2">  1       -2 0.33896181E-01 0.16463395E+04</pdfrwt>
<totfact> 0.22173096E+01</totfact>
</mgrwt>
</event>
<event>
 8    2  0.4306980E-052  0.2208442E+04  0.7818608E-02  0.8514923E-01
          2   -1    0    0  501    0  0.00000000000E+00  0.00000000000E+00  0.20904233867E+04  0.20904233867E+04  0.25500000000E-02 0.  1.
         -2   -1    0    0    0  501 -0.00000000000E+00 -0.00000000000E+00 -0.58328086708E+03  0.58328086708E+03  0.25500000000E-02 0. -1.
    -200001    2    1    2    0    0 -0.64144128152E+03  0.32960115507E+03  0.14423370776E+04  0.17249932417E+04  0.61252069307E+03 0.  0.
   -5000001    2    3    3    0    0  0.15067269211E+02  0.21565568255E+03  0.50438029328E+03  0.57002528668E+03  0.15425612202E+03 0.  0.
     200001    1    1    2    0    0  0.64144128152E+03 -0.32960115507E+03  0.64805441983E+02  0.94871101205E+03  0.61300000000E+03 0. -1.
         13    1    4    4    0    0 -0.50808537822E+02  0.71999107767E+02  0.28279185150E+03  0.29620368241E+03  0.10566000000E+00 0.  1.
    -200003    1    4    4    0    0  0.65875807033E+02  0.14365657478E+03  0.22158844178E+03  0.27382160426E+03  0.30000000000E+02 0.  1.
    -200000    1    3    3    0    0 -0.65650855073E+03  0.11394547252E+03  0.93795678435E+03  0.11549679551E+04  0.10100000000E+03 0.  1.
<mgrwt>
<rscale>  0 0.22084420E+04</rscale>
<asrwt>0</asrwt>
<pdfrwt beam="1">  1        2 0.29863192E+00 0.22084420E+04</pdfrwt>
<pdfrwt beam="2">  1       -2 0.83325836E-01 0.22084420E+04</pdfrwt>
<totfact> 0.83357600E+00</totfact>
</mgrwt>
</event>
<event>
 8    2  0.4306980E-052  0.1389523E+04  0.7818608E-02  0.8961438E-01
          2   -1    0    0  501    0  0.00000000000E+00  0.00000000000E+00  0.16446673142E+04  0.16446673142E+04  0.25500000000E-02 0.  1.
         -2   -1    0    0    0  501 -0.00000000000E+00 -0.00000000000E+00 -0.29348994481E+03  0.29348994482E+03  0.25500000000E-02 0. -1.
    -200001    2    1    2    0    0  0.17512533578E+03  0.26013983597E+03  0.54883208926E+03  0.88086422205E+03  0.61348471701E+03 0.  0.
   -5000001    2    3    3    0    0  0.24102803922E+03  0.40507823138E+03  0.28116261987E+03  0.55345278421E+03  0.71236762393E+02 0.  0.
     200001    1    1    2    0    0 -0.17512533578E+03 -0.26013983597E+03  0.80234528013E+03  0.10572930370E+04  0.61300000000E+03 0. -1.
         13    1    4    4    0    0  0.99943308393E+02  0.19829390078E+03  0.16022546159E+03  0.27382721867E+03  0.10566000000E+00 0.  1.
    -200003    1    4    4    0    0  0.14108473083E+03  0.20678433060E+03  0.12093715828E+03  0.27962556554E+03  0.30000000000E+02 0.  1.
    -200000    1    3    3    0    0 -0.65902703444E+02 -0.14493839541E+03  0.26766946939E+03  0.32741143784E+03  0.10100000000E+03 0. -1.
<mgrwt>
<rscale>  0 0.13895227E+04</rscale>
<asrwt>0</asrwt>
<pdfrwt beam="1">  1        2 0.23495247E+00 0.13895227E+04</pdfrwt>
<pdfrwt beam="2">  1       -2 0.41927135E-01 0.13895227E+04</pdfrwt>
<totfact> 0.64412440E+01</totfact>
</mgrwt>
</event>
<event>
 8    2  0.4306980E-052  0.1363694E+04  0.7818608E-02  0.8980526E-01
          2   -1    0    0  501    0  0.00000000000E+00  0.00000000000E+00  0.34344397012E+03  0.34344397013E+03  0.25500000000E-02 0.  1.
         -2   -1    0    0    0  501 -0.00000000000E+00 -0.00000000000E+00 -0.13536869464E+04  0.13536869464E+04  0.25500000000E-02 0. -1.
    -200001    2    1    2    0    0 -0.84904811439E+02  0.28475062048E+03 -0.49516815413E+03  0.84310350753E+03  0.61428029489E+03 0.  0.
   -5000001    2    3    3    0    0  0.21834845192E+03 -0.30795974278E+02 -0.18227382391E+03  0.29571328376E+03  0.74820858214E+02 0.  0.
     200001    1    1    2    0    0  0.84904811439E+02 -0.28475062048E+03 -0.51507482211E+03  0.85402740895E+03  0.61300000000E+03 0. -1.
         13    1    4    4    0    0  0.83760957737E+02 -0.38316532410E+02 -0.95160949590E+02  0.13243742744E+03  0.10566000000E+00 0.  1.
    -200003    1    4    4    0    0  0.13458749418E+03  0.75205581311E+01 -0.87112874325E+02  0.16327585632E+03  0.30000000000E+02 0.  1.
    -200000    1    3    3    0    0 -0.30325326336E+03  0.31554659476E+03 -0.31289433021E+03  0.54739022377E+03  0.10100000000E+03 0.  1.
<mgrwt>
<rscale>  0 0.13636944E+04</rscale>
<asrwt>0</asrwt>
<pdfrwt beam="1">  1        2 0.49063425E-01 0.13636944E+04</pdfrwt>
<pdfrwt beam="2">  1       -2 0.19338385E+00 0.13636944E+04</pdfrwt>
<totfact> 0.14734104E+01</totfact>
</mgrwt>
</event>
<event>
 8    2  0.4306980E-052  0.2029089E+04  0.7818608E-02  0.8593140E-01
          2   -1    0    0  501    0  0.00000000000E+00  0.00000000000E+00  0.76203441265E+03  0.76203441266E+03  0.25500000000E-02 0.  1.
         -2   -1    0    0    0  501 -0.00000000000E+00 -0.00000000000E+00 -0.13507267854E+04  0.13507267854E+04  0.25500000000E-02 0. -1.
    -200001    2    1    2    0    0  0.40740145738E+03 -0.48199885172E+03 -0.82037057091E+03  0.12029575775E+04  0.61302546364E+03 0.  0.
   -5000001    2    3    3    0    0  0.26921330733E+02  0.12440054945E+03 -0.14321804571E+03  0.21239112191E+03  0.91642377210E+02 0.  0.
     200001    1    1    2    0    0 -0.40740145738E+03  0.48199885172E+03  0.23167819816E+03  0.90980362059E+03  0.61300000000E+03 0.  1.
         13    1    4    4    0    0 -0.53282492894E+01  0.10733115334E+03 -0.82595592074E+02  0.13553748453E+03  0.10566000000E+00 0.  1.
    -200003    1    4    4    0    0  0.32249580022E+02  0.17069396105E+02 -0.60622453634E+02  0.76853637387E+02  0.30000000000E+02 0.  1.
    -200000    1    3    3    0    0  0.38048012664E+03 -0.60639940117E+03 -0.67715252521E+03  0.99056645557E+03  0.10100000000E+03 0.  1.
<mgrwt>
<rscale>  0 0.20290888E+04</rscale>
<asrwt>0</asrwt>
<pdfrwt beam="1">  1        2 0.10886206E+00 0.20290888E+04</pdfrwt>
<pdfrwt beam="2">  1       -2 0.19296097E+00 0.20290888E+04</pdfrwt>
<totfact> 0.55708296E+00</totfact>
</mgrwt>
</event>
<event>
 8    2  0.4306980E-052  0.1760505E+04  0.7818608E-02  0.8727589E-01
          2   -1    0    0  501    0  0.00000000000E+00  0.00000000000E+00  0.29082340187E+04  0.29082340187E+04  0.25500000000E-02 0.  1.
         -2   -1    0    0    0  501 -0.00000000000E+00 -0.00000000000E+00 -0.26643136759E+03  0.26643136760E+03  0.25500000000E-02 0. -1.
    -200001    2    1    2    0    0 -0.34815761646E+03  0.38708136273E+03  0.67486302467E+03  0.10496556919E+04  0.61261020412E+03 0.  0.
   -5000001    2    3    3    0    0 -0.52053093454E+02 -0.12764141286E+03  0.10855039673E+03  0.22289791793E+03  0.13747159115E+03 0.  0.
     200001    1    1    2    0    0  0.34815761646E+03 -0.38708136273E+03  0.19669396264E+04  0.21250096944E+04  0.61300000000E+03 0.  1.
         13    1    4    4    0    0  0.27523822593E+02 -0.57404467584E+02 -0.59180985610E+01  0.63936443155E+02  0.10566000000E+00 0.  1.
    -200003    1    4    4    0    0 -0.79576916047E+02 -0.70236945273E+02  0.11446849529E+03  0.15896147477E+03  0.30000000000E+02 0.  1.
    -200000    1    3    3    0    0 -0.29610452301E+03  0.51472277558E+03  0.56631262794E+03  0.82675777397E+03  0.10100000000E+03 0. -1.
<mgrwt>
<rscale>  0 0.17605053E+04</rscale>
<asrwt>0</asrwt>
<pdfrwt beam="1">  1        2 0.41546202E+00 0.17605053E+04</pdfrwt>
<pdfrwt beam="2">  1       -2 0.38061623E-01 0.17605053E+04</pdfrwt>
<totfact> 0.16449799E+01</totfact>
</mgrwt>
</event>
<event>
 8    2  0.4306980E-052  0.1402566E+04  0.7818608E-02  0.8951963E-01
         -2   -1    0    0    0  501 -0.00000000000E+00  0.00000000000E+00  0.26149172562E+03  0.26149172563E+03  0.25500000000E-02 0. -1.
          2   -1    0    0  501    0  0.00000000000E+00 -0.00000000000E+00 -0.18807405352E+04  0.18807405352E+04  0.25500000000E-02 0.  1.
    -200001    2    1    2    0    0 -0.21601291123E+03  0.25620757581E+03 -0.71416703250E+03  0.99888370378E+03  0.61272359481E+03 0.  0.
   -5000001    2    3    3    0    0 -0.78252718387E+01 -0.50145677684E+02  0.75694716751E+02  0.12065993272E+03  0.79077843611E+02 0.  0.
     200001    1    1    2    0    0  0.21601291123E+03 -0.25620757581E+03 -0.90508177706E+03  0.11433485570E+04  0.61300000000E+03 0.  1.
         13    1    4    4    0    0  0.72168082293E+01 -0.45521858272E+02  0.73443886914E+02  0.86708347872E+02  0.10566000000E+00 0.  1.
    -200003    1    4    4    0    0 -0.15042080068E+02 -0.46238194121E+01  0.22508298370E+01  0.33951584848E+02  0.30000000000E+02 0. -1.
    -200000    1    3    3    0    0 -0.20818763939E+03  0.30635325349E+03 -0.78986174925E+03  0.87822377106E+03  0.10100000000E+03 0.  1.
<mgrwt>
<rscale>  0 0.14025663E+04</rscale>
<asrwt>0</asrwt>
<pdfrwt beam="1">  1        2 0.26867721E+00 0.14025663E+04</pdfrwt>
<pdfrwt beam="2">  1       -2 0.37355962E-01 0.14025663E+04</pdfrwt>
<totfact> 0.60835753E+01</totfact>
</mgrwt>
</event>
<event>
 8    2  0.4306980E-052  0.2669180E+04  0.7818608E-02  0.8345075E-01
         -2   -1    0    0    0  501 -0.00000000000E+00  0.00000000000E+00  0.69776315997E+03  0.69776315997E+03  0.25500000000E-02 0. -1.
          2   -1    0    0  501    0  0.00000000000E+00 -0.00000000000E+00 -0.25526288913E+04  0.25526288913E+04  0.25500000000E-02 0.  1.
    -200001    2    1    2    0    0  0.10731554513E+04 -0.50324206137E+03 -0.95187349667E+03  0.16391567578E+04  0.61307138899E+03 0.  0.
   -5000001    2    3    3    0    0  0.62220597400E+03 -0.46140334878E+03 -0.29542243973E+03  0.83526939062E+03  0.10181951026E+03 0.  0.
     200001    1    1    2    0    0 -0.10731554513E+04  0.50324206137E+03 -0.90299223466E+03  0.16112352935E+04  0.61300000000E+03 0.  1.
         13    1    4    4    0    0  0.53886064186E+03 -0.36905795587E+03 -0.24010001088E+03  0.69586104398E+03  0.10566000000E+00 0.  1.
    -200003    1    4    4    0    0  0.83345332142E+02 -0.92345392905E+02 -0.55322428845E+02  0.13940834664E+03  0.30000000000E+02 0. -1.
    -200000    1    3    3    0    0  0.45094947732E+03 -0.41838712591E+02 -0.65645105695E+03  0.80388736719E+03  0.10100000000E+03 0.  1.
<mgrwt>
<rscale>  0 0.26691800E+04</rscale>
<asrwt>0</asrwt>
<pdfrwt beam="1">  1        2 0.36466126E+00 0.26691800E+04</pdfrwt>
<pdfrwt beam="2">  1       -2 0.99680453E-01 0.26691800E+04</pdfrwt>
<totfact> 0.30447046E+00</totfact>
</mgrwt>
</event>
<event>
 8    2  0.4306980E-052  0.1687389E+04  0.7818608E-02  0.8768590E-01
         -2   -1    0    0    0  501 -0.00000000000E+00  0.00000000000E+00  0.52650219411E+03  0.52650219412E+03  0.25500000000E-02 0.  1.
          2   -1    0    0  501    0  0.00000000000E+00 -0.00000000000E+00 -0.13519793229E+04  0.13519793229E+04  0.25500000000E-02 0. -1.
    -200001    2    1    2    0    0  0.15328833156E+03 -0.83403238382E+01 -0.10347671602E+04  0.12127952615E+04  0.61364680131E+03 0.  0.
   -5000001    2    3    3    0    0 -0.21032896225E+03 -0.22941630507E+02 -0.57520653045E+03  0.61796107704E+03  0.79049030986E+02 0.  0.
     200001    1    1    2    0    0 -0.15328833156E+03  0.83403238382E+01  0.20929003143E+03  0.66568625557E+03  0.61300000000E+03 0.  1.
         13    1    4    4    0    0 -0.50884130581E+02 -0.12508002414E+02 -0.23678933794E+03  0.24251772429E+03  0.10566000000E+00 0.  1.
    -200003    1    4    4    0    0 -0.15944483167E+03 -0.10433628093E+02 -0.33841719251E+03  0.37544335275E+03  0.30000000000E+02 0.  1.
    -200000    1    3    3    0    0  0.36361729381E+03  0.14601306669E+02 -0.45956062976E+03  0.59483418441E+03  0.10100000000E+03 0.  1.
<mgrwt>
<rscale>  0 0.16873886E+04</rscale>
<asrwt>0</asrwt>
<pdfrwt beam="1">  1        2 0.19313990E+00 0.16873886E+04</pdfrwt>
<pdfrwt beam="2">  1       -2 0.75214600E-01 0.16873886E+04</pdfrwt>
<totfact> 0.26629364E+01</totfact>
</mgrwt>
</event>
<event>
 8    2  0.4306980E-052  0.2816947E+04  0.7818608E-02  0.8298026E-01
         -2   -1    0    0    0  501 -0.00000000000E+00  0.00000000000E+00  0.10366439783E+04  0.10366439783E+04  0.25500000000E-02 0. -1.
          2   -1    0    0  501    0  0.00000000000E+00 -0.00000000000E+00 -0.19136733426E+04  0.19136733426E+04  0.25500000000E-02 0.  1.
    -200001    2    1    2    0    0 -0.33594245018E+03  0.10851245248E+04 -0.10288521329E+04  0.16506359303E+04  0.61295162867E+03 0.  0.
   -5000001    2    3    3    0    0  0.57805368461E+02  0.73028453651E+03 -0.71735580980E+03  0.10275952244E+04  0.68524612234E+02 0.  0.
     200001    1    1    2    0    0  0.33594245018E+03 -0.10851245248E+04  0.15182276863E+03  0.12996813906E+04  0.61300000000E+03 0. -1.
         13    1    4    4    0    0  0.11114198030E+02  0.12021566566E+03 -0.88541246576E+02  0.14971604849E+03  0.10566000000E+00 0.  1.
    -200003    1    4    4    0    0  0.46691170430E+02  0.61006887086E+03 -0.62881456322E+03  0.87787917591E+03  0.30000000000E+02 0.  1.
    -200000    1    3    3    0    0 -0.39374781864E+03  0.35483998824E+03 -0.31149632310E+03  0.62304070593E+03  0.10100000000E+03 0. -1.
<mgrwt>
<rscale>  0 0.28169472E+04</rscale>
<asrwt>0</asrwt>
<pdfrwt beam="1">  1        2 0.27338190E+00 0.28169472E+04</pdfrwt>
<pdfrwt beam="2">  1       -2 0.14809200E+00 0.28169472E+04</pdfrwt>
<totfact> 0.24120494E+00</totfact>
</mgrwt>
</event>
<event>
 8    2  0.4306980E-052  0.1275102E+04  0.7818608E-02  0.9049546E-01
         -2   -1    0    0    0  501 -0.00000000000E+00  0.00000000000E+00  0.16045467308E+03  0.16045467310E+03  0.25500000000E-02 0. -1.
          2   -1    0    0  501    0  0.00000000000E+00 -0.00000000000E+00 -0.25332472837E+04  0.25332472837E+04  0.25500000000E-02 0.  1.
    -200001    2    1    2    0    0  0.10550561003E+03  0.12545300202E+03 -0.10685658785E+04  0.12433067492E+04  0.61409180622E+03 0.  0.
   -5000001    2    3    3    0    0  0.28797103781E+03 -0.88723926790E+02 -0.64718555030E+03  0.72665621920E+03  0.13557606931E+03 0.  0.
     200001    1    1    2    0    0 -0.10550561003E+03 -0.12545300202E+03 -0.13042267321E+04  0.14503952076E+04  0.61300000000E+03 0.  1.
         13    1    4    4    0    0  0.46344705305E+02 -0.72841958329E+02 -0.17667362377E+03  0.19664018690E+03  0.10566000000E+00 0.  1.
    -200003    1    4    4    0    0  0.24162633250E+03 -0.15881968461E+02 -0.47051192653E+03  0.53001603229E+03  0.30000000000E+02 0.  1.
    -200000    1    3    3    0    0 -0.18246542778E+03  0.21417692881E+03 -0.42138032820E+03  0.51665053002E+03  0.10100000000E+03 0.  1.
<mgrwt>
<rscale>  0 0.12751021E+04</rscale>
<asrwt>0</asrwt>
<pdfrwt beam="1">  1        2 0.36189244E+00 0.12751021E+04</pdfrwt>
<pdfrwt beam="2">  1       -2 0.22922098E-01 0.12751021E+04</pdfrwt>
<totfact> 0.70026651E+01</totfact>
</mgrwt>
</event>
<event>
 8    2  0.4306980E-052  0.1513621E+04  0.7818608E-02  0.8875445E-01
         -2   -1    0    0    0  501 -0.00000000000E+00  0.00000000000E+00  0.64947112800E+03  0.64947112801E+03  0.25500000000E-02 0. -1.
          2   -1    0    0  501    0  0.00000000000E+00 -0.00000000000E+00 -0.88188999251E+03  0.88188999251E+03  0.25500000000E-02 0.  1.
    -200001    2    1    2    0    0  0.33898902584E+03  0.15946125563E+02 -0.40560731645E+03  0.80960556741E+03  0.61300574308E+03 0.  0.
   -5000001    2    3    3    0    0  0.37120699279E+03 -0.91217999279E+02 -0.32303675738E+02  0.40701550888E+03  0.13602478494E+03 0.  0.
     200001    1    1    2    0    0 -0.33898902584E+03 -0.15946125563E+02  0.17318845195E+03  0.72175555311E+03  0.61300000000E+03 0. -1.
         13    1    4    4    0    0  0.23715808018E+03 -0.59634525799E+02 -0.81442833127E+02  0.25774634409E+03  0.10566000000E+00 0.  1.
    -200003    1    4    4    0    0  0.13404891261E+03 -0.31583473479E+02  0.49139157389E+02  0.14926916479E+03  0.30000000000E+02 0. -1.
    -200000    1    3    3    0    0 -0.32217966949E+02  0.10716412484E+03 -0.37330364072E+03  0.40259005852E+03  0.10100000000E+03 0. -1.
<mgrwt>
<rscale>  0 0.15136209E+04</rscale>
<asrwt>0</asrwt>
<pdfrwt beam="1">  1        2 0.12598428E+00 0.15136209E+04</pdfrwt>
<pdfrwt beam="2">  1       -2 0.92781590E-01 0.15136209E+04</pdfrwt>
<totfact> 0.31842456E+01</totfact>
</mgrwt>
</event>
<event>
 8    2  0.4306980E-052  0.1709685E+04  0.7818608E-02  0.8755860E-01
         -2   -1    0    0    0  501 -0.00000000000E+00  0.00000000000E+00  0.19945447230E+03  0.19945447232E+03  0.25500000000E-02 0. -1.
          2   -1    0    0  501    0  0.00000000000E+00 -0.00000000000E+00 -0.36637725343E+04  0.36637725343E+04  0.25500000000E-02 0.  1.
    -200001    2    1    2    0    0  0.53309329543E+03 -0.25566638968E+02 -0.11351428029E+04  0.13963122326E+04  0.61343015358E+03 0.  0.
   -5000001    2    3    3    0    0  0.46154027439E+03 -0.26321224866E+03 -0.67283259954E+03  0.86196497216E+03  0.89329689881E+02 0.  0.
     200001    1    1    2    0    0 -0.53309329543E+03  0.25566638968E+02 -0.23291752591E+04  0.24669147740E+04  0.61300000000E+03 0. -1.
         13    1    4    4    0    0  0.11613423631E+03 -0.10637053384E+03 -0.17653514761E+03  0.23657244306E+03  0.10566000000E+00 0.  1.
    -200003    1    4    4    0    0  0.34540603809E+03 -0.15684171482E+03 -0.49629745194E+03  0.62539252910E+03  0.30000000000E+02 0.  1.
    -200000    1    3    3    0    0  0.71553021036E+02  0.23764560969E+03 -0.46231020339E+03  0.53434726049E+03  0.10100000000E+03 0.  1.
<mgrwt>
<rscale>  0 0.17096851E+04</rscale>
<asrwt>0</asrwt>
<pdfrwt beam="1">  1        2 0.52339604E+00 0.17096851E+04</pdfrwt>
<pdfrwt beam="2">  1       -2 0.28493498E-01 0.17096851E+04</pdfrwt>
<totfact> 0.10303971E+01</totfact>
</mgrwt>
</event>
<event>
 8    2  0.4306980E-052  0.1689352E+04  0.7818608E-02  0.8767461E-01
         -2   -1    0    0    0  501 -0.00000000000E+00  0.00000000000E+00  0.20190053335E+04  0.20190053335E+04  0.25500000000E-02 0. -1.
          2   -1    0    0  501    0  0.00000000000E+00 -0.00000000000E+00 -0.35338054585E+03  0.35338054586E+03  0.25500000000E-02 0.  1.
    -200001    2    1    2    0    0  0.20193725258E+03 -0.38649223153E+03  0.29365669536E+03  0.80770688823E+03  0.61318941899E+03 0.  0.
   -5000001    2    3    3    0    0  0.14059985777E+03 -0.23713052398E+03 -0.13283202015E+03  0.34062571741E+03  0.14960724707E+03 0.  0.
     200001    1    1    2    0    0 -0.20193725258E+03  0.38649223153E+03  0.13719680922E+04  0.15646789911E+04  0.61300000000E+03 0. -1.
         13    1    4    4    0    0  0.15282738735E+03 -0.14463338352E+03 -0.11875116648E+03  0.24161307219E+03  0.10566000000E+00 0.  1.
    -200003    1    4    4    0    0 -0.12227529580E+02 -0.92497140453E+02 -0.14080853674E+02  0.99012645212E+02  0.30000000000E+02 0. -1.
    -200000    1    3    3    0    0  0.61337394815E+02 -0.14936170755E+03  0.42648871551E+03  0.46708117083E+03  0.10100000000E+03 0. -1.
<mgrwt>
<rscale>  0 0.16893516E+04</rscale>
<asrwt>0</asrwt>
<pdfrwt beam="1">  1        2 0.50482936E-01 0.16893516E+04</pdfrwt>
<pdfrwt beam="2">  1       -2 0.28842933E+00 0.16893516E+04</pdfrwt>
<totfact> 0.35543645E+00</totfact>
</mgrwt>
</event>
<event>
 8    2  0.4306980E-052  0.1382482E+04  0.7818608E-02  0.8966597E-01
         -2   -1    0    0    0  501 -0.00000000000E+00  0.00000000000E+00  0.38860764307E+03  0.38860764308E+03  0.25500000000E-02 0. -1.
          2   -1    0    0  501    0  0.00000000000E+00 -0.00000000000E+00 -0.12295549434E+04  0.12295549434E+04  0.25500000000E-02 0.  1.
    -200001    2    1    2    0    0 -0.30326853482E+03  0.77851005884E+02 -0.49340026616E+03  0.84706562483E+03  0.61322407552E+03 0.  0.
   -5000001    2    3    3    0    0 -0.34549210806E+03 -0.74853681927E+02 -0.30548345848E+03  0.58133027072E+03  0.34591454121E+03 0.  0.
     200001    1    1    2    0    0  0.30326853482E+03 -0.77851005884E+02 -0.34754703420E+03  0.77109696168E+03  0.61300000000E+03 0.  1.
         13    1    4    4    0    0 -0.32123095428E+03 -0.14842523963E+03 -0.11264714542E+03  0.37136069835E+03  0.10566000000E+00 0.  1.
    -200003    1    4    4    0    0 -0.24261153782E+02  0.73571557707E+02 -0.19283631306E+03  0.20996957237E+03  0.30000000000E+02 0.  1.
    -200000    1    3    3    0    0  0.42223573242E+02  0.15270468781E+03 -0.18791680768E+03  0.26573535411E+03  0.10100000000E+03 0. -1.
<mgrwt>
<rscale>  0 0.13824825E+04</rscale>
<asrwt>0</asrwt>
<pdfrwt beam="1">  1        2 0.17565070E+00 0.13824825E+04</pdfrwt>
<pdfrwt beam="2">  1       -2 0.55515378E-01 0.13824825E+04</pdfrwt>
<totfact> 0.61151876E+01</totfact>
</mgrwt>
</event>
<event>
 8    2  0.4306980E-052  0.2031479E+04  0.7818608E-02  0.8592043E-01
          2   -1    0    0  501    0  0.00000000000E+00  0.00000000000E+00  0.19464382736E+04  0.19464382736E+04  0.25500000000E-02 0. -1.
         -2   -1    0    0    0  501 -0.00000000000E+00 -0.00000000000E+00 -0.53005894909E+03  0.53005894910E+03  0.25500000000E-02 0.  1.
    -200001    2    1    2    0    0  0.12356185398E+03 -0.79019688697E+03  0.86395038878E+03  0.13273125635E+04  0.61291901173E+03 0.  0.
   -5000001    2    3    3    0    0 -0.12524997916E+02 -0.68326739915E+03  0.88534444462E+03  0.11257877455E+04  0.12865476292E+03 0.  0.
     200001    1    1    2    0    0 -0.12356185398E+03  0.79019688697E+03  0.55242893570E+03  0.11491846592E+04  0.61300000000E+03 0.  1.
         13    1    4    4    0    0  0.51784704678E+02 -0.39740788780E+03  0.50166413822E+03  0.64209158511E+03  0.10566000000E+00 0.  1.
    -200003    1    4    4    0    0 -0.64309702594E+02 -0.28585951135E+03  0.38368030640E+03  0.48369616042E+03  0.30000000000E+02 0.  1.
    -200000    1    3    3    0    0  0.13608685189E+03 -0.10692948782E+03 -0.21394055847E+02  0.20152481795E+03  0.10100000000E+03 0.  1.
<mgrwt>
<rscale>  0 0.20314793E+04</rscale>
<asrwt>0</asrwt>
<pdfrwt beam="1">  1        2 0.27806261E+00 0.20314793E+04</pdfrwt>
<pdfrwt beam="2">  1       -2 0.75722707E-01 0.20314793E+04</pdfrwt>
<totfact> 0.12433296E+01</totfact>
</mgrwt>
</event>
<event>
 8    2  0.4306980E-052  0.1376505E+04  0.7818608E-02  0.8971003E-01
         -2   -1    0    0    0  501 -0.00000000000E+00  0.00000000000E+00  0.31910924978E+03  0.31910924979E+03  0.25500000000E-02 0. -1.
          2   -1    0    0  501    0  0.00000000000E+00 -0.00000000000E+00 -0.14844179097E+04  0.14844179097E+04  0.25500000000E-02 0.  1.
    -200001    2    1    2    0    0 -0.98648146565E+02 -0.14774777377E+02 -0.97112598553E+03  0.11528155015E+04  0.61314610800E+03 0.  0.
   -5000001    2    3    3    0    0 -0.25759910129E+03  0.18407945558E+03 -0.62359268348E+03  0.71033521036E+03  0.12436130120E+03 0.  0.
     200001    1    1    2    0    0  0.98648146565E+02  0.14774777377E+02 -0.19418267438E+03  0.65071165803E+03  0.61300000000E+03 0. -1.
         13    1    4    4    0    0 -0.76401936831E+01  0.17935843804E+02 -0.22217078581E+01  0.19621778775E+02  0.10566000000E+00 0.  1.
    -200003    1    4    4    0    0 -0.24995890761E+03  0.16614361178E+03 -0.62137097563E+03  0.69071343159E+03  0.30000000000E+02 0.  1.
    -200000    1    3    3    0    0  0.15895095473E+03 -0.19885423296E+03 -0.34753330205E+03  0.44248029109E+03  0.10100000000E+03 0. -1.
<mgrwt>
<rscale>  0 0.13765050E+04</rscale>
<asrwt>0</asrwt>
<pdfrwt beam="1">  1        2 0.21205970E+00 0.13765050E+04</pdfrwt>
<pdfrwt beam="2">  1       -2 0.45587037E-01 0.13765050E+04</pdfrwt>
<totfact> 0.66325302E+01</totfact>
</mgrwt>
</event>
<event>
 8    2  0.4306980E-052  0.1455295E+04  0.7818608E-02  0.8914738E-01
          2   -1    0    0  501    0  0.00000000000E+00  0.00000000000E+00  0.36622091728E+03  0.36622091728E+03  0.25500000000E-02 0.  1.
         -2   -1    0    0    0  501 -0.00000000000E+00 -0.00000000000E+00 -0.14457683661E+04  0.14457683661E+04  0.25500000000E-02 0. -1.
    -200001    2    1    2    0    0 -0.25636333728E+03  0.24967641257E+03 -0.33927610869E+03  0.78640109669E+03  0.61258300274E+03 0.  0.
   -5000001    2    3    3    0    0 -0.36215748154E+03  0.19459020525E+02 -0.28817467005E+02  0.37314812724E+03  0.82899840435E+02 0.  0.
     200001    1    1    2    0    0  0.25636333728E+03 -0.24967641257E+03 -0.74027134016E+03  0.10255881867E+04  0.61300000000E+03 0. -1.
         13    1    4    4    0    0 -0.29938412465E+03  0.32833194282E+02 -0.24233671481E+02  0.30215253554E+03  0.10566000000E+00 0.  1.
    -200003    1    4    4    0    0 -0.62773356894E+02 -0.13374173756E+02 -0.45837955240E+01  0.70995591699E+02  0.30000000000E+02 0.  1.
    -200000    1    3    3    0    0  0.10579414426E+03  0.23021739204E+03 -0.31045864169E+03  0.41325296945E+03  0.10100000000E+03 0.  1.
<mgrwt>
<rscale>  0 0.14552946E+04</rscale>
<asrwt>0</asrwt>
<pdfrwt beam="1">  1        2 0.52317275E-01 0.14552946E+04</pdfrwt>
<pdfrwt beam="2">  1       -2 0.20653834E+00 0.14552946E+04</pdfrwt>
<totfact> 0.11168624E+01</totfact>
</mgrwt>
</event>
<event>
 8    2  0.4306980E-052  0.1392074E+04  0.7818608E-02  0.8959576E-01
          2   -1    0    0  501    0  0.00000000000E+00  0.00000000000E+00  0.59096532643E+03  0.59096532643E+03  0.25500000000E-02 0.  1.
         -2   -1    0    0    0  501 -0.00000000000E+00 -0.00000000000E+00 -0.81979007506E+03  0.81979007507E+03  0.25500000000E-02 0. -1.
    -200001    2    1    2    0    0  0.15538095218E+03  0.27353797206E+03 -0.12751232542E+02  0.68865912896E+03  0.61247248061E+03 0.  0.
   -5000001    2    3    3    0    0  0.45490341856E+02 -0.16256124172E+03 -0.10845360623E+03  0.21789547825E+03  0.84974856438E+02 0.  0.
     200001    1    1    2    0    0 -0.15538095218E+03 -0.27353797206E+03 -0.21607351609E+03  0.72209627254E+03  0.61300000000E+03 0.  1.
         13    1    4    4    0    0  0.19863009481E+02 -0.69829482432E+02 -0.39357818230E+01  0.72706239794E+02  0.10566000000E+00 0.  1.
    -200003    1    4    4    0    0  0.25627332376E+02 -0.92731759286E+02 -0.10451782441E+03  0.14518923846E+03  0.30000000000E+02 0. -1.
    -200000    1    3    3    0    0  0.10989061033E+03  0.43609921378E+03  0.95702373686E+02  0.47076365071E+03  0.10100000000E+03 0. -1.
<mgrwt>
<rscale>  0 0.13920740E+04</rscale>
<asrwt>0</asrwt>
<pdfrwt beam="1">  1        2 0.84423618E-01 0.13920740E+04</pdfrwt>
<pdfrwt beam="2">  1       -2 0.11711287E+00 0.13920740E+04</pdfrwt>
<totfact> 0.30389170E+01</totfact>
</mgrwt>
</event>
<event>
 8    2  0.4306980E-052  0.1690100E+04  0.7818608E-02  0.8767031E-01
          2   -1    0    0  501    0  0.00000000000E+00  0.00000000000E+00  0.25719370043E+04  0.25719370043E+04  0.25500000000E-02 0.  1.
         -2   -1    0    0    0  501 -0.00000000000E+00 -0.00000000000E+00 -0.27765424331E+03  0.27765424332E+03  0.25500000000E-02 0. -1.
    -200001    2    1    2    0    0 -0.19054266296E+03  0.52282690703E+03  0.85969200546E+03  0.11932476489E+04  0.61246642869E+03 0.  0.
   -5000001    2    3    3    0    0 -0.26119678842E+03  0.68506676303E+02  0.15950951050E+03  0.34953241038E+03  0.15431362541E+03 0.  0.
     200001    1    1    2    0    0  0.19054266296E+03 -0.52282690703E+03  0.14345907555E+04  0.16563435987E+04  0.61300000000E+03 0.  1.
         13    1    4    4    0    0 -0.19657780265E+03  0.10028533661E+03  0.71609723828E+02  0.23200850188E+03  0.10566000000E+00 0.  1.
    -200003    1    4    4    0    0 -0.64618985772E+02 -0.31778660306E+02  0.87899786671E+02  0.11752390850E+03  0.30000000000E+02 0.  1.
    -200000    1    3    3    0    0  0.70654125463E+02  0.45432023072E+03  0.70018249496E+03  0.84371523853E+03  0.10100000000E+03 0.  1.
<mgrwt>
<rscale>  0 0.16900997E+04</rscale>
<asrwt>0</asrwt>
<pdfrwt beam="1">  1        2 0.36741960E+00 0.16900997E+04</pdfrwt>
<pdfrwt beam="2">  1       -2 0.39664889E-01 0.16900997E+04</pdfrwt>
<totfact> 0.23193814E+01</totfact>
</mgrwt>
</event>
<event>
 8    2  0.4306980E-052  0.1534862E+04  0.7818608E-02  0.8861595E-01
         -2   -1    0    0    0  501 -0.00000000000E+00  0.00000000000E+00  0.55783550608E+03  0.55783550609E+03  0.25500000000E-02 0. -1.
          2   -1    0    0  501    0  0.00000000000E+00 -0.00000000000E+00 -0.10557783503E+04  0.10557783503E+04  0.25500000000E-02 0.  1.
    -200001    2    1    2    0    0 -0.36612219997E+03  0.29109718398E+02 -0.54354594006E+03  0.89755416381E+03  0.61259158255E+03 0.  0.
   -5000001    2    3    3    0    0 -0.66562684174E+02 -0.89234817546E+02 -0.16741782491E+03  0.39216847773E+03  0.33671047391E+03 0.  0.
     200001    1    1    2    0    0  0.36612219997E+03 -0.29109718398E+02  0.45603095816E+02  0.71605969260E+03  0.61300000000E+03 0. -1.
         13    1    4    4    0    0  0.10154723789E+03  0.36378847058E+02  0.19411957607E+02  0.10959971395E+03  0.10566000000E+00 0.  1.
    -200003    1    4    4    0    0 -0.16810992206E+03 -0.12561366460E+03 -0.18682978252E+03  0.28256876378E+03  0.30000000000E+02 0.  1.
    -200000    1    3    3    0    0 -0.29955951580E+03  0.11834453594E+03 -0.37612811514E+03  0.50538568608E+03  0.10100000000E+03 0.  1.
<mgrwt>
<rscale>  0 0.15348624E+04</rscale>
<asrwt>0</asrwt>
<pdfrwt beam="1">  1        2 0.15082548E+00 0.15348624E+04</pdfrwt>
<pdfrwt beam="2">  1       -2 0.79690786E-01 0.15348624E+04</pdfrwt>
<totfact> 0.34965997E+01</totfact>
</mgrwt>
</event>
<event>
 8    2  0.4306980E-052  0.1366290E+04  0.7818608E-02  0.8978588E-01
          2   -1    0    0  501    0  0.00000000000E+00  0.00000000000E+00  0.11381477446E+04  0.11381477446E+04  0.25500000000E-02 0.  1.
         -2   -1    0    0    0  501 -0.00000000000E+00 -0.00000000000E+00 -0.41004077822E+03  0.41004077823E+03  0.25500000000E-02 0. -1.
    -200001    2    1    2    0    0 -0.24049443236E+03  0.36446706676E+02  0.16332407265E+03  0.67990593550E+03  0.61354005085E+03 0.  0.
   -5000001    2    3    3    0    0 -0.42409465726E+03  0.44700034927E+02  0.18152845848E+03  0.46940757523E+03  0.74407788630E+02 0.  0.
     200001    1    1    2    0    0  0.24049443236E+03 -0.36446706676E+02  0.56478289374E+03  0.86828258734E+03  0.61300000000E+03 0.  1.
         13    1    4    4    0    0 -0.21079276591E+03  0.13373992997E+01  0.11340871657E+03  0.23936776507E+03  0.10566000000E+00 0.  1.
    -200003    1    4    4    0    0 -0.21330189135E+03  0.43362635627E+02  0.68119741918E+02  0.23003981016E+03  0.30000000000E+02 0.  1.
    -200000    1    3    3    0    0  0.18360022490E+03 -0.82533282508E+01 -0.18204385831E+02  0.21049836027E+03  0.10100000000E+03 0. -1.
<mgrwt>
<rscale>  0 0.13662898E+04</rscale>
<asrwt>0</asrwt>
<pdfrwt beam="1">  1        2 0.16259253E+00 0.13662898E+04</pdfrwt>
<pdfrwt beam="2">  1       -2 0.58577255E-01 0.13662898E+04</pdfrwt>
<totfact> 0.61742667E+01</totfact>
</mgrwt>
</event>
<event>
 8    2  0.4306980E-052  0.1473715E+04  0.7818608E-02  0.8902123E-01
          2   -1    0    0  501    0  0.00000000000E+00  0.00000000000E+00  0.94641013370E+03  0.94641013371E+03  0.25500000000E-02 0.  1.
         -2   -1    0    0    0  501 -0.00000000000E+00 -0.00000000000E+00 -0.57370389393E+03  0.57370389394E+03  0.25500000000E-02 0. -1.
    -200001    2    1    2    0    0  0.10192523909E+03 -0.19573615521E+03 -0.16906918724E+03  0.67277052580E+03  0.61264540600E+03 0.  0.
   -5000001    2    3    3    0    0  0.51207712904E+02 -0.40244776692E+03 -0.78639687441E+02  0.42042066487E+03  0.77349208484E+02 0.  0.
     200001    1    1    2    0    0 -0.10192523909E+03  0.19573615521E+03  0.54177542701E+03  0.84734350185E+03  0.61300000000E+03 0.  1.
         13    1    4    4    0    0  0.21645594384E+02 -0.69871573911E+02 -0.38879884942E+02  0.82838549083E+02  0.10566000000E+00 0.  1.
    -200003    1    4    4    0    0  0.29562118521E+02 -0.33257619301E+03 -0.39759802499E+02  0.33758211579E+03  0.30000000000E+02 0.  1.
    -200000    1    3    3    0    0  0.50717526187E+02  0.20671161170E+03 -0.90429499796E+02  0.25234986093E+03  0.10100000000E+03 0.  1.
<mgrwt>
<rscale>  0 0.14737153E+04</rscale>
<asrwt>0</asrwt>
<pdfrwt beam="1">  1        2 0.13520145E+00 0.14737153E+04</pdfrwt>
<pdfrwt beam="2">  1       -2 0.81957698E-01 0.14737153E+04</pdfrwt>
<totfact> 0.38533279E+01</totfact>
</mgrwt>
</event>
<event>
 8    2  0.4306980E-052  0.1450649E+04  0.7818608E-02  0.8917951E-01
         -2   -1    0    0    0  501 -0.00000000000E+00  0.00000000000E+00  0.11960654944E+03  0.11960654947E+03  0.25500000000E-02 0. -1.
          2   -1    0    0  501    0  0.00000000000E+00 -0.00000000000E+00 -0.43985516183E+04  0.43985516183E+04  0.25500000000E-02 0.  1.
    -200001    2    1    2    0    0  0.37511116742E+02 -0.18855310817E+03 -0.31856591918E+04  0.32500878355E+04  0.61456252252E+03 0.  0.
   -5000001    2    3    3    0    0  0.21143069082E+03 -0.13704690603E+02 -0.25645126755E+04  0.25741854890E+04  0.69389577011E+02 0.  0.
     200001    1    1    2    0    0 -0.37511116742E+02  0.18855310817E+03 -0.10932858771E+04  0.12680703323E+04  0.61300000000E+03 0. -1.
         13    1    4    4    0    0  0.76319249105E+02  0.22336069702E+02 -0.99246646898E+03  0.99564714182E+03  0.10566000000E+00 0.  1.
    -200003    1    4    4    0    0  0.13511144172E+03 -0.36040760305E+02 -0.15720462065E+04  0.15785383472E+04  0.30000000000E+02 0.  1.
    -200000    1    3    3    0    0 -0.17391957408E+03 -0.17484841757E+03 -0.62114651625E+03  0.67590234651E+03  0.10100000000E+03 0. -1.
<mgrwt>
<rscale>  0 0.14506489E+04</rscale>
<asrwt>0</asrwt>
<pdfrwt beam="1">  1        2 0.62836442E+00 0.14506489E+04</pdfrwt>
<pdfrwt beam="2">  1       -2 0.17086653E-01 0.14506489E+04</pdfrwt>
<totfact> 0.81888490E+00</totfact>
</mgrwt>
</event>
<event>
 8    2  0.4306980E-052  0.1328395E+04  0.7818608E-02  0.9007346E-01
         -2   -1    0    0    0  501 -0.00000000000E+00  0.00000000000E+00  0.30324980442E+03  0.30324980443E+03  0.25500000000E-02 0. -1.
          2   -1    0    0  501    0  0.00000000000E+00 -0.00000000000E+00 -0.14547693504E+04  0.14547693504E+04  0.25500000000E-02 0.  1.
    -200001    2    1    2    0    0 -0.22277248957E+03 -0.78072256331E+01 -0.41092095592E+03  0.77113324122E+03  0.61327148052E+03 0.  0.
   -5000001    2    3    3    0    0  0.14054978803E+03 -0.11225393864E+03 -0.33427151588E+02  0.22742857363E+03  0.13509697252E+03 0.  0.
     200001    1    1    2    0    0  0.22277248957E+03  0.78072256331E+01 -0.74059859002E+03  0.98688591358E+03  0.61300000000E+03 0. -1.
         13    1    4    4    0    0 -0.50814008322E+00  0.88771256965E+01 -0.38011520795E+02  0.39037782264E+02  0.10566000000E+00 0.  1.
    -200003    1    4    4    0    0  0.14105792811E+03 -0.12113106433E+03  0.45843692066E+01  0.18839079136E+03  0.30000000000E+02 0.  1.
    -200000    1    3    3    0    0 -0.36332227760E+03  0.10444671301E+03 -0.37749380433E+03  0.54370466759E+03  0.10100000000E+03 0.  1.
<mgrwt>
<rscale>  0 0.13283953E+04</rscale>
<asrwt>0</asrwt>
<pdfrwt beam="1">  1        2 0.20782419E+00 0.13283953E+04</pdfrwt>
<pdfrwt beam="2">  1       -2 0.43321402E-01 0.13283953E+04</pdfrwt>
<totfact> 0.76406392E+01</totfact>
</mgrwt>
</event>
<event>
 8    2  0.4306980E-052  0.2230695E+04  0.7818608E-02  0.8505760E-01
         -2   -1    0    0    0  501 -0.00000000000E+00  0.00000000000E+00  0.18540316604E+04  0.18540316604E+04  0.25500000000E-02 0. -1.
          2   -1    0    0  501    0  0.00000000000E+00 -0.00000000000E+00 -0.67097020534E+03  0.67097020534E+03  0.25500000000E-02 0.  1.
    -200001    2    1    2    0    0 -0.35445564830E+03 -0.64640243377E+03  0.12365341988E+04  0.15647397935E+04  0.61312224192E+03 0.  0.
   -5000001    2    3    3    0    0  0.17207797567E+02 -0.47860724484E+03  0.91362177768E+03  0.10348696451E+04  0.83002570128E+02 0.  0.
     200001    1    1    2    0    0  0.35445564830E+03  0.64640243377E+03 -0.53472743791E+02  0.96026207221E+03  0.61300000000E+03 0.  1.
         13    1    4    4    0    0  0.36309287502E+02 -0.34900705853E+03  0.63382986826E+03  0.72447539939E+03  0.10566000000E+00 0.  1.
    -200003    1    4    4    0    0 -0.19101489935E+02 -0.12960018631E+03  0.27979190942E+03  0.31039424574E+03  0.30000000000E+02 0. -1.
    -200000    1    3    3    0    0 -0.37166344586E+03 -0.16779518893E+03  0.32291242116E+03  0.52987014839E+03  0.10100000000E+03 0.  1.
<mgrwt>
<rscale>  0 0.22306950E+04</rscale>
<asrwt>0</asrwt>
<pdfrwt beam="1">  1        2 0.95852887E-01 0.22306950E+04</pdfrwt>
<pdfrwt beam="2">  1       -2 0.26486166E+00 0.22306950E+04</pdfrwt>
<totfact> 0.22616270E+00</totfact>
</mgrwt>
</event>
<event>
 8    2  0.4306980E-052  0.1446723E+04  0.7818608E-02  0.8920675E-01
          2   -1    0    0  501    0  0.00000000000E+00  0.00000000000E+00  0.15207730510E+04  0.15207730510E+04  0.25500000000E-02 0. -1.
         -2   -1    0    0    0  501 -0.00000000000E+00 -0.00000000000E+00 -0.34406970861E+03  0.34406970862E+03  0.25500000000E-02 0.  1.
    -200001    2    1    2    0    0 -0.23174681415E+03 -0.16735681955E+03  0.25815585733E+03  0.72413535927E+03  0.61319872876E+03 0.  0.
   -5000001    2    3    3    0    0  0.12829837133E+03 -0.15766942734E+03 -0.63068933137E+02  0.23107071121E+03  0.89977012879E+02 0.  0.
     200001    1    1    2    0    0  0.23174681415E+03  0.16735681955E+03  0.91854748506E+03  0.11407074004E+04  0.61300000000E+03 0.  1.
         13    1    4    4    0    0  0.31318869710E+02  0.27795954264E+01 -0.15227080592E+01  0.31479001803E+02  0.10566000000E+00 0.  1.
    -200003    1    4    4    0    0  0.96979501621E+02 -0.16044902276E+03 -0.61546225078E+02  0.19959170940E+03  0.30000000000E+02 0.  1.
    -200000    1    3    3    0    0 -0.36004518548E+03 -0.96873922120E+01  0.32122479047E+03  0.49306464806E+03  0.10100000000E+03 0. -1.
<mgrwt>
<rscale>  0 0.14467231E+04</rscale>
<asrwt>0</asrwt>
<pdfrwt beam="1">  1        2 0.21725329E+00 0.14467231E+04</pdfrwt>
<pdfrwt beam="2">  1       -2 0.49152815E-01 0.14467231E+04</pdfrwt>
<totfact> 0.54220433E+01</totfact>
</mgrwt>
</event>
<event>
 8    2  0.4306980E-052  0.1573778E+04  0.7818608E-02  0.8836821E-01
         -2   -1    0    0    0  501 -0.00000000000E+00  0.00000000000E+00  0.41178810357E+03  0.41178810358E+03  0.25500000000E-02 0. -1.
          2   -1    0    0  501    0  0.00000000000E+00 -0.00000000000E+00 -0.15036712012E+04  0.15036712012E+04  0.25500000000E-02 0.  1.
    -200001    2    1    2    0    0 -0.18319026991E+03 -0.43269077905E+03 -0.36214658483E+03  0.85288490108E+03  0.61276628525E+03 0.  0.
   -5000001    2    3    3    0    0  0.51390627452E+02 -0.47338959160E+03 -0.13432629723E+03  0.50822902316E+03  0.11625181214E+03 0.  0.
     200001    1    1    2    0    0  0.18319026991E+03  0.43269077905E+03 -0.72973651278E+03  0.10625744037E+04  0.61300000000E+03 0. -1.
         13    1    4    4    0    0  0.55341457347E+01 -0.31685622930E+03 -0.12940802320E+03  0.34230825939E+03  0.10566000000E+00 0.  1.
    -200003    1    4    4    0    0  0.45856481718E+02 -0.15653336230E+03 -0.49182740247E+01  0.16592076376E+03  0.30000000000E+02 0.  1.
    -200000    1    3    3    0    0 -0.23458089736E+03  0.40698812550E+02 -0.22782028760E+03  0.34465587793E+03  0.10100000000E+03 0.  1.
<mgrwt>
<rscale>  0 0.15737775E+04</rscale>
<asrwt>0</asrwt>
<pdfrwt beam="1">  1        2 0.21481017E+00 0.15737775E+04</pdfrwt>
<pdfrwt beam="2">  1       -2 0.58826873E-01 0.15737775E+04</pdfrwt>
<totfact> 0.37826019E+01</totfact>
</mgrwt>
</event>
<event>
 8    2  0.4306980E-052  0.1718924E+04  0.7818608E-02  0.8750644E-01
          2   -1    0    0  501    0  0.00000000000E+00  0.00000000000E+00  0.23691438297E+04  0.23691438297E+04  0.25500000000E-02 0.  1.
         -2   -1    0    0    0  501 -0.00000000000E+00 -0.00000000000E+00 -0.31178978653E+03  0.31178978654E+03  0.25500000000E-02 0. -1.
    -200001    2    1    2    0    0  0.36561202314E+03 -0.38218073793E+03  0.57849749122E+03  0.99495616410E+03  0.61281657389E+03 0.  0.
   -5000001    2    3    3    0    0  0.25645587240E+03  0.31027488400E+02  0.97063578513E+00  0.26942575654E+03  0.76530886760E+02 0.  0.
     200001    1    1    2    0    0 -0.36561202314E+03  0.38218073793E+03  0.14788565520E+04  0.16859774522E+04  0.61300000000E+03 0. -1.
         13    1    4    4    0    0  0.96963511065E+02 -0.20265886208E+02 -0.41608496526E+01  0.99146116695E+02  0.10566000000E+00 0.  1.
    -200003    1    4    4    0    0  0.15949236134E+03  0.51293374607E+02  0.51314854378E+01  0.17027963985E+03  0.30000000000E+02 0.  1.
    -200000    1    3    3    0    0  0.10915615074E+03 -0.41320822633E+03  0.57752685543E+03  0.72553040756E+03  0.10100000000E+03 0.  1.
<mgrwt>
<rscale>  0 0.17189239E+04</rscale>
<asrwt>0</asrwt>
<pdfrwt beam="1">  1        2 0.33844910E+00 0.17189239E+04</pdfrwt>
<pdfrwt beam="2">  1       -2 0.44541401E-01 0.17189239E+04</pdfrwt>
<totfact> 0.23521690E+01</totfact>
</mgrwt>
</event>
<event>
 8    2  0.4306980E-052  0.1299311E+04  0.7818608E-02  0.9030112E-01
          2   -1    0    0  501    0  0.00000000000E+00  0.00000000000E+00  0.13123584174E+04  0.13123584174E+04  0.25500000000E-02 0.  1.
         -2   -1    0    0    0  501 -0.00000000000E+00 -0.00000000000E+00 -0.32159813253E+03  0.32159813254E+03  0.25500000000E-02 0. -1.
    -200001    2    1    2    0    0  0.66876045416E+02 -0.20857443237E+03  0.47891323366E+03  0.80586712053E+03  0.60999035344E+03 0.  0.
   -5000001    2    3    3    0    0  0.14282567033E+03  0.11402283706E+03 -0.19892219854E+02  0.19854082913E+03  0.74982537583E+02 0.  0.
     200001    1    1    2    0    0 -0.66876045416E+02  0.20857443237E+03  0.51184705123E+03  0.82808942943E+03  0.61300000000E+03 0.  1.
         13    1    4    4    0    0 -0.72817729145E+01  0.52341245355E+01 -0.47164683218E+01  0.10132942016E+02  0.10566000000E+00 0.  1.
    -200003    1    4    4    0    0  0.15010744325E+03  0.10878871252E+03 -0.15175751532E+02  0.18840788711E+03  0.30000000000E+02 0.  1.
    -200000    1    3    3    0    0 -0.75949624919E+02 -0.32259726943E+03  0.49880545352E+03  0.60732629140E+03  0.10100000000E+03 0.  1.
<mgrwt>
<rscale>  0 0.12993106E+04</rscale>
<asrwt>0</asrwt>
<pdfrwt beam="1">  1        2 0.18747978E+00 0.12993106E+04</pdfrwt>
<pdfrwt beam="2">  1       -2 0.45942590E-01 0.12993106E+04</pdfrwt>
<totfact> 0.81386030E+01</totfact>
</mgrwt>
</event>
<event>
 8    2  0.4306980E-052  0.1546855E+04  0.7818608E-02  0.8853879E-01
          2   -1    0    0  501    0  0.00000000000E+00  0.00000000000E+00  0.22118694799E+04  0.22118694799E+04  0.25500000000E-02 0.  1.
         -2   -1    0    0    0  501 -0.00000000000E+00 -0.00000000000E+00 -0.27044553139E+03  0.27044553140E+03  0.25500000000E-02 0. -1.
    -200001    2    1    2    0    0  0.35133366898E+03 -0.31425632652E+03  0.95570056220E+03  0.12294734491E+04  0.61322835201E+03 0.  0.
   -5000001    2    3    3    0    0  0.46774052462E+03 -0.18618747540E+03  0.87594405967E+03  0.10138017394E+04  0.84077326049E+02 0.  0.
     200001    1    1    2    0    0 -0.35133366898E+03  0.31425632652E+03  0.98572338633E+03  0.12528415622E+04  0.61300000000E+03 0.  1.
         13    1    4    4    0    0  0.18409803898E+03 -0.43798986062E+02  0.28002482033E+03  0.33797093115E+03  0.10566000000E+00 0.  1.
    -200003    1    4    4    0    0  0.28364248564E+03 -0.14238848934E+03  0.59591923934E+03  0.67583080825E+03  0.30000000000E+02 0.  1.
    -200000    1    3    3    0    0 -0.11640685564E+03 -0.12806885112E+03  0.79756502531E+02  0.21567170970E+03  0.10100000000E+03 0.  1.
<mgrwt>
<rscale>  0 0.15468552E+04</rscale>
<asrwt>0</asrwt>
<pdfrwt beam="1">  1        2 0.31598136E+00 0.15468552E+04</pdfrwt>
<pdfrwt beam="2">  1       -2 0.38635075E-01 0.15468552E+04</pdfrwt>
<totfact> 0.38075499E+01</totfact>
</mgrwt>
</event>
<event>
 8    2  0.4306980E-052  0.1600194E+04  0.7818608E-02  0.8820429E-01
          2   -1    0    0  501    0  0.00000000000E+00  0.00000000000E+00  0.99819917363E+03  0.99819917363E+03  0.25500000000E-02 0.  1.
         -2   -1    0    0    0  501 -0.00000000000E+00 -0.00000000000E+00 -0.64131013469E+03  0.64131013469E+03  0.25500000000E-02 0. -1.
    -200001    2    1    2    0    0 -0.43931501994E+03  0.11092810901E+03 -0.70867383319E+02  0.76541132245E+03  0.61280467884E+03 0.  0.
   -5000001    2    3    3    0    0  0.75518321610E+02 -0.11974877156E+03  0.69445824536E+02  0.17536557075E+03  0.76730539358E+02 0.  0.
     200001    1    1    2    0    0  0.43931501994E+03 -0.11092810901E+03  0.42775642226E+03  0.87409798587E+03  0.61300000000E+03 0.  1.
         13    1    4    4    0    0  0.10702673451E+02 -0.77106290401E+02  0.33721363506E+02  0.84835539482E+02  0.10566000000E+00 0.  1.
    -200003    1    4    4    0    0  0.64815648159E+02 -0.42642481161E+02  0.35724461029E+02  0.90530031269E+02  0.30000000000E+02 0.  1.
    -200000    1    3    3    0    0 -0.51483334155E+03  0.23067688057E+03 -0.14031320785E+03  0.59004575170E+03  0.10100000000E+03 0.  1.
<mgrwt>
<rscale>  0 0.16001940E+04</rscale>
<asrwt>0</asrwt>
<pdfrwt beam="1">  1        2 0.14259988E+00 0.16001940E+04</pdfrwt>
<pdfrwt beam="2">  1       -2 0.91615735E-01 0.16001940E+04</pdfrwt>
<totfact> 0.27452329E+01</totfact>
</mgrwt>
</event>
<event>
 8    2  0.4306980E-052  0.1448340E+04  0.7818608E-02  0.8919552E-01
          2   -1    0    0  501    0  0.00000000000E+00  0.00000000000E+00  0.10212383985E+04  0.10212383985E+04  0.25500000000E-02 0.  1.
         -2   -1    0    0    0  501 -0.00000000000E+00 -0.00000000000E+00 -0.51351628097E+03  0.51351628097E+03  0.25500000000E-02 0. -1.
    -200001    2    1    2    0    0  0.16276848487E+02  0.34987095978E+03  0.75078674274E+02  0.70673054135E+03  0.60922625226E+03 0.  0.
   -5000001    2    3    3    0    0 -0.19400474361E+03  0.24248529536E+02 -0.14045545783E+03  0.25186322315E+03  0.74037259624E+02 0.  0.
     200001    1    1    2    0    0 -0.16276848487E+02 -0.34987095978E+03  0.43264344321E+03  0.82802413808E+03  0.61300000000E+03 0.  1.
         13    1    4    4    0    0 -0.15513284161E+03  0.23625091889E+02 -0.12423767840E+03  0.20014833352E+03  0.10566000000E+00 0.  1.
    -200003    1    4    4    0    0 -0.38871902009E+02  0.62343764694E+00 -0.16217779431E+02  0.51714889635E+02  0.30000000000E+02 0. -1.
    -200000    1    3    3    0    0  0.21028159210E+03  0.32562243024E+03  0.21553413211E+03  0.45486731819E+03  0.10100000000E+03 0.  1.
<mgrwt>
<rscale>  0 0.14483405E+04</rscale>
<asrwt>0</asrwt>
<pdfrwt beam="1">  1        2 0.14589120E+00 0.14483405E+04</pdfrwt>
<pdfrwt beam="2">  1       -2 0.73359470E-01 0.14483405E+04</pdfrwt>
<totfact> 0.44403193E+01</totfact>
</mgrwt>
</event>
<event>
 8    2  0.4306980E-052  0.2692271E+04  0.7818608E-02  0.8337517E-01
         -2   -1    0    0    0  501 -0.00000000000E+00  0.00000000000E+00  0.90511292338E+03  0.90511292339E+03  0.25500000000E-02 0. -1.
          2   -1    0    0  501    0  0.00000000000E+00 -0.00000000000E+00 -0.20020494230E+04  0.20020494230E+04  0.25500000000E-02 0.  1.
    -200001    2    1    2    0    0  0.52724020070E+03  0.79420011959E+03 -0.13325464439E+04  0.17495712678E+04  0.61366402596E+03 0.  0.
   -5000001    2    3    3    0    0  0.35587367216E+03  0.38518934996E+03 -0.28887814392E+03  0.61110703156E+03  0.12241044128E+03 0.  0.
     200001    1    1    2    0    0 -0.52724020070E+03 -0.79420011959E+03  0.23560994437E+03  0.11575910785E+04  0.61300000000E+03 0. -1.
         13    1    4    4    0    0  0.13718679119E+03  0.71333666955E+02 -0.90331840163E+02  0.17907696734E+03  0.10566000000E+00 0.  1.
    -200003    1    4    4    0    0  0.21868688097E+03  0.31385568300E+03 -0.19854630375E+03  0.43203006423E+03  0.30000000000E+02 0.  1.
    -200000    1    3    3    0    0  0.17136652854E+03  0.40901076963E+03 -0.10436683000E+04  0.11384642363E+04  0.10100000000E+03 0.  1.
<mgrwt>
<rscale>  0 0.26922710E+04</rscale>
<asrwt>0</asrwt>
<pdfrwt beam="1">  1        2 0.28600706E+00 0.26922710E+04</pdfrwt>
<pdfrwt beam="2">  1       -2 0.12930185E+00 0.26922710E+04</pdfrwt>
<totfact> 0.31146287E+00</totfact>
</mgrwt>
</event>
<event>
 8    2  0.4306980E-052  0.1891773E+04  0.7818608E-02  0.8658962E-01
          2   -1    0    0  501    0  0.00000000000E+00  0.00000000000E+00  0.32655025614E+04  0.32655025614E+04  0.25500000000E-02 0.  1.
         -2   -1    0    0    0  501 -0.00000000000E+00 -0.00000000000E+00 -0.27398583119E+03  0.27398583120E+03  0.25500000000E-02 0. -1.
    -200001    2    1    2    0    0  0.51395053529E+02  0.30764262152E+03  0.27909474317E+03  0.74122331047E+03  0.61174560580E+03 0.  0.
   -5000001    2    3    3    0    0  0.23482528800E+03  0.36664734267E+03  0.28243145901E+03  0.52364495284E+03  0.69737492260E+02 0.  0.
     200001    1    1    2    0    0 -0.51395053529E+02 -0.30764262152E+03  0.27124219871E+04  0.27982650822E+04  0.61300000000E+03 0.  1.
         13    1    4    4    0    0  0.95217068145E+02  0.18095143834E+03  0.10552157268E+03  0.23009677653E+03  0.10566000000E+00 0.  1.
    -200003    1    4    4    0    0  0.13960821985E+03  0.18569590433E+03  0.17690988633E+03  0.29354817631E+03  0.30000000000E+02 0. -1.
    -200000    1    3    3    0    0 -0.18343023447E+03 -0.59004721151E+02 -0.33367158385E+01  0.21757835763E+03  0.10100000000E+03 0. -1.
<mgrwt>
<rscale>  0 0.18917732E+04</rscale>
<asrwt>0</asrwt>
<pdfrwt beam="1">  1        2 0.46650035E+00 0.18917732E+04</pdfrwt>
<pdfrwt beam="2">  1       -2 0.39140835E-01 0.18917732E+04</pdfrwt>
<totfact> 0.96658453E+00</totfact>
</mgrwt>
</event>
<event>
 8    2  0.4306980E-052  0.1515513E+04  0.7818608E-02  0.8874202E-01
         -2   -1    0    0    0  501 -0.00000000000E+00  0.00000000000E+00  0.58503757970E+03  0.58503757971E+03  0.25500000000E-02 0. -1.
          2   -1    0    0  501    0  0.00000000000E+00 -0.00000000000E+00 -0.98146656395E+03  0.98146656395E+03  0.25500000000E-02 0.  1.
    -200001    2    1    2    0    0 -0.41376661614E+03  0.19100180966E+02 -0.30545416304E+02  0.74115124045E+03  0.61384404307E+03 0.  0.
   -5000001    2    3    3    0    0  0.17130277792E+02  0.22594264071E+03 -0.70210965486E+02  0.25101830731E+03  0.82079763802E+02 0.  0.
     200001    1    1    2    0    0  0.41376661614E+03 -0.19100180966E+02 -0.36588356794E+03  0.82535290321E+03  0.61300000000E+03 0. -1.
         13    1    4    4    0    0  0.15432820029E+01  0.10817366306E+02 -0.26835339521E+02  0.28974881266E+02  0.10566000000E+00 0.  1.
    -200003    1    4    4    0    0  0.15586995789E+02  0.21512527440E+03 -0.43375625965E+02  0.22204342605E+03  0.30000000000E+02 0.  1.
    -200000    1    3    3    0    0 -0.43089689393E+03 -0.20684245974E+03  0.39665549182E+02  0.49013293313E+03  0.10100000000E+03 0.  1.
<mgrwt>
<rscale>  0 0.15155129E+04</rscale>
<asrwt>0</asrwt>
<pdfrwt beam="1">  1        2 0.14020951E+00 0.15155129E+04</pdfrwt>
<pdfrwt beam="2">  1       -2 0.83576797E-01 0.15155129E+04</pdfrwt>
<totfact> 0.34926413E+01</totfact>
</mgrwt>
</event>
<event>
 8    2  0.4306980E-052  0.1323965E+04  0.7818608E-02  0.9010773E-01
         -2   -1    0    0    0  501 -0.00000000000E+00  0.00000000000E+00  0.46355990812E+03  0.46355990813E+03  0.25500000000E-02 0. -1.
          2   -1    0    0  501    0  0.00000000000E+00 -0.00000000000E+00 -0.94533878651E+03  0.94533878652E+03  0.25500000000E-02 0.  1.
    -200001    2    1    2    0    0  0.23321169988E+03 -0.52939527696E+02 -0.31691557359E+03  0.73056308463E+03  0.61326719241E+03 0.  0.
   -5000001    2    3    3    0    0 -0.38345046299E+02 -0.19701777688E+03 -0.88297071933E+02  0.33436991510E+03  0.25242923807E+03 0.  0.
     200001    1    1    2    0    0 -0.23321169988E+03  0.52939527696E+02 -0.16486330480E+03  0.67833561002E+03  0.61300000000E+03 0. -1.
         13    1    4    4    0    0  0.51360021568E+02 -0.17902372865E+03 -0.13235413500E+03  0.22848408140E+03  0.10566000000E+00 0.  1.
    -200003    1    4    4    0    0 -0.89705067866E+02 -0.17994048227E+02  0.44057063071E+02  0.10588583370E+03  0.30000000000E+02 0.  1.
    -200000    1    3    3    0    0  0.27155674618E+03  0.14407824918E+03 -0.22861850166E+03  0.39619316953E+03  0.10100000000E+03 0.  1.
<mgrwt>
<rscale>  0 0.13239655E+04</rscale>
<asrwt>0</asrwt>
<pdfrwt beam="1">  1        2 0.13504840E+00 0.13239655E+04</pdfrwt>
<pdfrwt beam="2">  1       -2 0.66222845E-01 0.13239655E+04</pdfrwt>
<totfact> 0.62457852E+01</totfact>
</mgrwt>
</event>
<event>
 8    2  0.4306980E-052  0.1618200E+04  0.7818608E-02  0.8809444E-01
         -2   -1    0    0    0  501 -0.00000000000E+00  0.00000000000E+00  0.25384881819E+03  0.25384881820E+03  0.25500000000E-02 0. -1.
          2   -1    0    0  501    0  0.00000000000E+00 -0.00000000000E+00 -0.25788698519E+04  0.25788698519E+04  0.25500000000E-02 0.  1.
    -200001    2    1    2    0    0 -0.15219383271E+03 -0.50568302119E+03 -0.11699641202E+04  0.14224691340E+04  0.61296338713E+03 0.  0.
   -5000001    2    3    3    0    0  0.16691822412E+03 -0.34784608045E+03 -0.36213126008E+03  0.53390853698E+03  0.71138506465E+02 0.  0.
     200001    1    1    2    0    0  0.15219383271E+03  0.50568302119E+03 -0.11550569136E+04  0.14102495361E+04  0.61300000000E+03 0. -1.
         13    1    4    4    0    0  0.17665113126E+02 -0.83629043624E+02 -0.10209879596E+03  0.13315422810E+03  0.10566000000E+00 0.  1.
    -200003    1    4    4    0    0  0.14925311100E+03 -0.26421703683E+03 -0.26003246412E+03  0.40075430888E+03  0.30000000000E+02 0.  1.
    -200000    1    3    3    0    0 -0.31911205683E+03 -0.15783694074E+03 -0.80783286008E+03  0.88856059698E+03  0.10100000000E+03 0.  1.
<mgrwt>
<rscale>  0 0.16182003E+04</rscale>
<asrwt>0</asrwt>
<pdfrwt beam="1">  1        2 0.36840996E+00 0.16182003E+04</pdfrwt>
<pdfrwt beam="2">  1       -2 0.36264118E-01 0.16182003E+04</pdfrwt>
<totfact> 0.27523888E+01</totfact>
</mgrwt>
</event>
<event>
 8    2  0.4306980E-052  0.2074161E+04  0.7818608E-02  0.8572712E-01
          2   -1    0    0  501    0  0.00000000000E+00  0.00000000000E+00  0.24256765235E+04  0.24256765235E+04  0.25500000000E-02 0.  1.
         -2   -1    0    0    0  501 -0.00000000000E+00 -0.00000000000E+00 -0.44339611954E+03  0.44339611955E+03  0.25500000000E-02 0. -1.
    -200001    2    1    2    0    0 -0.29408297684E+03  0.51721737095E+03  0.18047866974E+04  0.19965638339E+04  0.61238346964E+03 0.  0.
   -5000001    2    3    3    0    0 -0.32730323500E+03  0.54133503622E+03  0.16862362218E+04  0.18355034024E+04  0.35427265722E+03 0.  0.
     200001    1    1    2    0    0  0.29408297684E+03 -0.51721737095E+03  0.17749370657E+03  0.87250880910E+03  0.61300000000E+03 0. -1.
         13    1    4    4    0    0 -0.86244063433E+02  0.51001918290E+02  0.70427305394E+03  0.71136473051E+03  0.10566000000E+00 0.  1.
    -200003    1    4    4    0    0 -0.24105917157E+03  0.49033311793E+03  0.98196316785E+03  0.11241386719E+04  0.30000000000E+02 0.  1.
    -200000    1    3    3    0    0  0.33220258156E+02 -0.24117665269E+02  0.11855047560E+03  0.16106043150E+03  0.10100000000E+03 0.  1.
<mgrwt>
<rscale>  0 0.20741606E+04</rscale>
<asrwt>0</asrwt>
<pdfrwt beam="1">  1        2 0.34652521E+00 0.20741606E+04</pdfrwt>
<pdfrwt beam="2">  1       -2 0.63342305E-01 0.20741606E+04</pdfrwt>
<totfact> 0.10320356E+01</totfact>
</mgrwt>
</event>
<event>
 8    2  0.4306980E-052  0.1433670E+04  0.7818608E-02  0.8929801E-01
         -2   -1    0    0    0  501 -0.00000000000E+00  0.00000000000E+00  0.71691469735E+03  0.71691469735E+03  0.25500000000E-02 0. -1.
          2   -1    0    0  501    0  0.00000000000E+00 -0.00000000000E+00 -0.71675525725E+03  0.71675525725E+03  0.25500000000E-02 0.  1.
    -200001    2    1    2    0    0 -0.21527026543E+03 -0.24482235303E+02  0.30140107472E+03  0.71711138097E+03  0.61356781032E+03 0.  0.
   -5000001    2    3    3    0    0  0.64759233452E+02  0.46350978006E+02  0.38462988802E+03  0.39999641804E+03  0.75596376964E+02 0.  0.
     200001    1    1    2    0    0  0.21527026543E+03  0.24482235303E+02 -0.30124163461E+03  0.71655857363E+03  0.61300000000E+03 0.  1.
         13    1    4    4    0    0  0.21660449912E+02 -0.16947416238E+02  0.90909897713E+02  0.94979001225E+02  0.10566000000E+00 0.  1.
    -200003    1    4    4    0    0  0.43098783541E+02  0.63298394245E+02  0.29371999031E+03  0.30501741682E+03  0.30000000000E+02 0.  1.
    -200000    1    3    3    0    0 -0.28002949888E+03 -0.70833213309E+02 -0.83228813303E+02  0.31711496293E+03  0.10100000000E+03 0.  1.
<mgrwt>
<rscale>  0 0.14336699E+04</rscale>
<asrwt>0</asrwt>
<pdfrwt beam="1">  1        2 0.10239361E+00 0.14336699E+04</pdfrwt>
<pdfrwt beam="2">  1       -2 0.10241639E+00 0.14336699E+04</pdfrwt>
<totfact> 0.33176224E+01</totfact>
</mgrwt>
</event>
<event>
 8    2  0.4306980E-052  0.1529186E+04  0.7818608E-02  0.8865273E-01
          2   -1    0    0  501    0  0.00000000000E+00  0.00000000000E+00  0.16195564555E+04  0.16195564555E+04  0.25500000000E-02 0.  1.
         -2   -1    0    0    0  501 -0.00000000000E+00 -0.00000000000E+00 -0.36096457843E+03  0.36096457844E+03  0.25500000000E-02 0. -1.
    -200001    2    1    2    0    0 -0.22557582969E+03 -0.15726024745E+03  0.15787649563E+03  0.69096351630E+03  0.61391396190E+03 0.  0.
   -5000001    2    3    3    0    0  0.35667042905E+01  0.80474456380E+00  0.33228449563E+03  0.34729217178E+03  0.10092322602E+03 0.  0.
     200001    1    1    2    0    0  0.22557582969E+03  0.15726024745E+03  0.11007153814E+04  0.12895575176E+04  0.61300000000E+03 0.  1.
         13    1    4    4    0    0 -0.22249166820E+02  0.55282948081E+01  0.14739491057E+02  0.27255297252E+02  0.10566000000E+00 0.  1.
    -200003    1    4    4    0    0  0.25815871110E+02 -0.47235502443E+01  0.31754500457E+03  0.32003687453E+03  0.30000000000E+02 0.  1.
    -200000    1    3    3    0    0 -0.22914253398E+03 -0.15806499202E+03 -0.17440800000E+03  0.34367134452E+03  0.10100000000E+03 0. -1.
<mgrwt>
<rscale>  0 0.15291861E+04</rscale>
<asrwt>0</asrwt>
<pdfrwt beam="1">  1        2 0.23136521E+00 0.15291861E+04</pdfrwt>
<pdfrwt beam="2">  1       -2 0.51566368E-01 0.15291861E+04</pdfrwt>
<totfact> 0.43343541E+01</totfact>
</mgrwt>
</event>
<event>
 8    2  0.4306980E-052  0.1625452E+04  0.7818608E-02  0.8805063E-01
          2   -1    0    0  501    0  0.00000000000E+00  0.00000000000E+00  0.17438558084E+04  0.17438558084E+04  0.25500000000E-02 0.  1.
         -2   -1    0    0    0  501 -0.00000000000E+00 -0.00000000000E+00 -0.37877185058E+03  0.37877185059E+03  0.25500000000E-02 0. -1.
    -200001    2    1    2    0    0 -0.94120059871E+02 -0.52586570557E+02  0.84312787646E+00  0.62311241227E+03  0.61371364201E+03 0.  0.
   -5000001    2    3    3    0    0 -0.13014172006E+03 -0.40735137484E+02  0.24544262294E+03  0.35577754837E+03  0.21849339588E+03 0.  0.
     200001    1    1    2    0    0  0.94120059871E+02  0.52586570557E+02  0.13642408300E+04  0.14995152468E+04  0.61300000000E+03 0.  1.
         13    1    4    4    0    0  0.48791533482E+02 -0.57331659258E+02  0.75972570772E+02  0.10695501656E+03  0.10566000000E+00 0.  1.
    -200003    1    4    4    0    0 -0.17893325354E+03  0.16596521774E+02  0.16947005217E+03  0.24882253182E+03  0.30000000000E+02 0.  1.
    -200000    1    3    3    0    0  0.36021660186E+02 -0.11851433073E+02 -0.24459949507E+03  0.26733486390E+03  0.10100000000E+03 0. -1.
<mgrwt>
<rscale>  0 0.16254519E+04</rscale>
<asrwt>0</asrwt>
<pdfrwt beam="1">  1        2 0.24912225E+00 0.16254519E+04</pdfrwt>
<pdfrwt beam="2">  1       -2 0.54110265E-01 0.16254519E+04</pdfrwt>
<totfact> 0.33564158E+01</totfact>
</mgrwt>
</event>
<event>
 8    2  0.4306980E-052  0.1333668E+04  0.7818608E-02  0.9003284E-01
          2   -1    0    0  501    0  0.00000000000E+00  0.00000000000E+00  0.12344757118E+04  0.12344757118E+04  0.25500000000E-02 0.  1.
         -2   -1    0    0    0  501 -0.00000000000E+00 -0.00000000000E+00 -0.36020776702E+03  0.36020776702E+03  0.25500000000E-02 0. -1.
    -200001    2    1    2    0    0  0.18170262851E+03 -0.81335057695E+02  0.23461660657E+03  0.68663388144E+03  0.61383214175E+03 0.  0.
   -5000001    2    3    3    0    0  0.36022672217E+03 -0.79057925291E+02  0.28515588153E+03  0.47537277366E+03  0.93015860195E+02 0.  0.
     200001    1    1    2    0    0 -0.18170262851E+03  0.81335057695E+02  0.63965133821E+03  0.90804959737E+03  0.61300000000E+03 0.  1.
         13    1    4    4    0    0  0.24171584023E+03 -0.63075712896E+02  0.23265692974E+03  0.34137128042E+03  0.10566000000E+00 0.  1.
    -200003    1    4    4    0    0  0.11851088194E+03 -0.15982212394E+02  0.52498951792E+02  0.13400149324E+03  0.30000000000E+02 0.  1.
    -200000    1    3    3    0    0 -0.17852409366E+03 -0.22771324047E+01 -0.50539274961E+02  0.21126110779E+03  0.10100000000E+03 0. -1.
<mgrwt>
<rscale>  0 0.13336682E+04</rscale>
<asrwt>0</asrwt>
<pdfrwt beam="1">  1        2 0.17635367E+00 0.13336682E+04</pdfrwt>
<pdfrwt beam="2">  1       -2 0.51458253E-01 0.13336682E+04</pdfrwt>
<totfact> 0.71315173E+01</totfact>
</mgrwt>
</event>
<event>
 8    2  0.4306980E-052  0.1269104E+04  0.7818608E-02  0.9054431E-01
         -2   -1    0    0    0  501 -0.00000000000E+00  0.00000000000E+00  0.38355315070E+03  0.38355315071E+03  0.25500000000E-02 0. -1.
          2   -1    0    0  501    0  0.00000000000E+00 -0.00000000000E+00 -0.10498058605E+04  0.10498058605E+04  0.25500000000E-02 0.  1.
    -200001    2    1    2    0    0 -0.17491702224E+02 -0.11909954046E+03 -0.45640346325E+03  0.77434735242E+03  0.61385587946E+03 0.  0.
   -5000001    2    3    3    0    0  0.22547636222E+03 -0.97591024121E+02 -0.27566907385E+02  0.27076231664E+03  0.11040244481E+03 0.  0.
     200001    1    1    2    0    0  0.17491702224E+02  0.11909954046E+03 -0.20984924658E+03  0.65901165883E+03  0.61300000000E+03 0. -1.
         13    1    4    4    0    0  0.63411691300E+02 -0.43461519589E+02  0.37433503506E+02  0.85505699384E+02  0.10566000000E+00 0.  1.
    -200003    1    4    4    0    0  0.16206467092E+03 -0.54129504532E+02 -0.65000410891E+02  0.18525661726E+03  0.30000000000E+02 0.  1.
    -200000    1    3    3    0    0 -0.24296806444E+03 -0.21508516335E+02 -0.42883655587E+03  0.50358503578E+03  0.10100000000E+03 0.  1.
<mgrwt>
<rscale>  0 0.12691042E+04</rscale>
<asrwt>0</asrwt>
<pdfrwt beam="1">  1        2 0.14997226E+00 0.12691042E+04</pdfrwt>
<pdfrwt beam="2">  1       -2 0.54793308E-01 0.12691042E+04</pdfrwt>
<totfact> 0.80627087E+01</totfact>
</mgrwt>
</event>
<event>
 8    2  0.4306980E-052  0.1845362E+04  0.7818608E-02  0.8682542E-01
          2   -1    0    0  501    0  0.00000000000E+00  0.00000000000E+00  0.17249081425E+04  0.17249081425E+04  0.25500000000E-02 0.  1.
         -2   -1    0    0    0  501 -0.00000000000E+00 -0.00000000000E+00 -0.49355672908E+03  0.49355672909E+03  0.25500000000E-02 0. -1.
    -200001    2    1    2    0    0  0.68018808139E+03 -0.97743087816E+02  0.55767375520E+03  0.10774915483E+04  0.61463687013E+03 0.  0.
   -5000001    2    3    3    0    0  0.44211346234E+03 -0.18171540226E+03  0.31395439445E+02  0.48512279535E+03  0.76639754376E+02 0.  0.
     200001    1    1    2    0    0 -0.68018808139E+03  0.97743087816E+02  0.67367765821E+03  0.11409733233E+04  0.61300000000E+03 0. -1.
         13    1    4    4    0    0  0.29636998764E+03 -0.11242944934E+03  0.46154060464E+02  0.32032133728E+03  0.10566000000E+00 0.  1.
    -200003    1    4    4    0    0  0.14574347470E+03 -0.69285952915E+02 -0.14758621018E+02  0.16480145807E+03  0.30000000000E+02 0.  1.
    -200000    1    3    3    0    0  0.23807461905E+03  0.83972314441E+02  0.52627831575E+03  0.59236875294E+03  0.10100000000E+03 0.  1.
<mgrwt>
<rscale>  0 0.18453618E+04</rscale>
<asrwt>0</asrwt>
<pdfrwt beam="1">  1        2 0.24641545E+00 0.18453618E+04</pdfrwt>
<pdfrwt beam="2">  1       -2 0.70508103E-01 0.18453618E+04</pdfrwt>
<totfact> 0.19221148E+01</totfact>
</mgrwt>
</event>
<event>
 8    2  0.4306980E-052  0.1396310E+04  0.7818608E-02  0.8956494E-01
         -2   -1    0    0    0  501 -0.00000000000E+00  0.00000000000E+00  0.22445376017E+03  0.22445376018E+03  0.25500000000E-02 0. -1.
          2   -1    0    0  501    0  0.00000000000E+00 -0.00000000000E+00 -0.21715862368E+04  0.21715862368E+04  0.25500000000E-02 0.  1.
    -200001    2    1    2    0    0 -0.11661704062E+03 -0.13438601779E+03 -0.48777578367E+03  0.80319659814E+03  0.61281353133E+03 0.  0.
   -5000001    2    3    3    0    0  0.59313256036E+02 -0.32646580700E+03 -0.17717762149E+03  0.38544268367E+03  0.84119958110E+02 0.  0.
     200001    1    1    2    0    0  0.11661704062E+03  0.13438601779E+03 -0.14593566929E+04  0.15928433988E+04  0.61300000000E+03 0.  1.
         13    1    4    4    0    0  0.46626632608E+02 -0.28845867469E+03 -0.15356238390E+03  0.33009675367E+03  0.10566000000E+00 0.  1.
    -200003    1    4    4    0    0  0.12686623427E+02 -0.38007132316E+02 -0.23615237594E+02  0.55345929999E+02  0.30000000000E+02 0. -1.
    -200000    1    3    3    0    0 -0.17593029666E+03  0.19207978921E+03 -0.31059816218E+03  0.41775391447E+03  0.10100000000E+03 0. -1.
<mgrwt>
<rscale>  0 0.13963104E+04</rscale>
<asrwt>0</asrwt>
<pdfrwt beam="1">  1        2 0.31022659E+00 0.13963104E+04</pdfrwt>
<pdfrwt beam="2">  1       -2 0.32064824E-01 0.13963104E+04</pdfrwt>
<totfact> 0.57728748E+01</totfact>
</mgrwt>
</event>
<event>
 8    2  0.4306980E-052  0.1443869E+04  0.7818608E-02  0.8922662E-01
         -2   -1    0    0    0  501 -0.00000000000E+00  0.00000000000E+00  0.88821209672E+03  0.88821209673E+03  0.25500000000E-02 0. -1.
          2   -1    0    0  501    0  0.00000000000E+00 -0.00000000000E+00 -0.58678483788E+03  0.58678483788E+03  0.25500000000E-02 0.  1.
    -200001    2    1    2    0    0  0.10898484193E+03  0.25109971928E+03 -0.12057893044E+03  0.68203603483E+03  0.61294788485E+03 0.  0.
   -5000001    2    3    3    0    0  0.29551379453E+03  0.22327043674E+01 -0.17100098261E+03  0.35117167498E+03  0.82139037784E+02 0.  0.
     200001    1    1    2    0    0 -0.10898484193E+03 -0.25109971928E+03  0.42200618928E+03  0.79296089978E+03  0.61300000000E+03 0. -1.
         13    1    4    4    0    0  0.25138029263E+03 -0.11419872529E+02 -0.13978045683E+03  0.28785595754E+03  0.10566000000E+00 0.  1.
    -200003    1    4    4    0    0  0.44133501901E+02  0.13652576896E+02 -0.31220525776E+02  0.63315717446E+02  0.30000000000E+02 0. -1.
    -200000    1    3    3    0    0 -0.18652895261E+03  0.24886701491E+03  0.50422052173E+02  0.33086435985E+03  0.10100000000E+03 0.  1.
<mgrwt>
<rscale>  0 0.14438690E+04</rscale>
<asrwt>0</asrwt>
<pdfrwt beam="1">  1        2 0.83826406E-01 0.14438690E+04</pdfrwt>
<pdfrwt beam="2">  1       -2 0.12688744E+00 0.14438690E+04</pdfrwt>
<totfact> 0.24997468E+01</totfact>
</mgrwt>
</event>
<event>
 8    2  0.4306980E-052  0.1565231E+04  0.7818608E-02  0.8842197E-01
          2   -1    0    0  501    0  0.00000000000E+00  0.00000000000E+00  0.55088916355E+03  0.55088916356E+03  0.25500000000E-02 0.  1.
         -2   -1    0    0    0  501 -0.00000000000E+00 -0.00000000000E+00 -0.11118152129E+04  0.11118152129E+04  0.25500000000E-02 0. -1.
    -200001    2    1    2    0    0  0.16311467143E+03 -0.44170382802E+03 -0.15622656270E+03  0.79020260442E+03  0.61506483350E+03 0.  0.
   -5000001    2    3    3    0    0  0.18425081202E+03  0.35446188125E+02  0.11187740911E+03  0.23324693828E+03  0.81748306193E+02 0.  0.
     200001    1    1    2    0    0 -0.16311467143E+03  0.44170382802E+03 -0.40469948664E+03  0.87250177204E+03  0.61300000000E+03 0.  1.
         13    1    4    4    0    0  0.15554598510E+03  0.43598770092E+02  0.79970141891E+02  0.18025160469E+03  0.10566000000E+00 0.  1.
    -200003    1    4    4    0    0  0.28704826919E+02 -0.81525819671E+01  0.31907267217E+02  0.52995333591E+02  0.30000000000E+02 0. -1.
    -200000    1    3    3    0    0 -0.21136140593E+02 -0.47715001614E+03 -0.26810397181E+03  0.55695566614E+03  0.10100000000E+03 0. -1.
<mgrwt>
<rscale>  0 0.15652309E+04</rscale>
<asrwt>0</asrwt>
<pdfrwt beam="1">  1        2 0.78698452E-01 0.15652309E+04</pdfrwt>
<pdfrwt beam="2">  1       -2 0.15883074E+00 0.15652309E+04</pdfrwt>
<totfact> 0.14847287E+01</totfact>
</mgrwt>
</event>
<event>
 8    2  0.4306980E-052  0.1867452E+04  0.7818608E-02  0.8671229E-01
          2   -1    0    0  501    0  0.00000000000E+00  0.00000000000E+00  0.86654806717E+03  0.86654806718E+03  0.25500000000E-02 0.  1.
         -2   -1    0    0    0  501 -0.00000000000E+00 -0.00000000000E+00 -0.10061119660E+04  0.10061119660E+04  0.25500000000E-02 0. -1.
    -200001    2    1    2    0    0 -0.27751936066E+03  0.63480899707E+03  0.69593866764E+02  0.92423216076E+03  0.60775185923E+03 0.  0.
   -5000001    2    3    3    0    0 -0.42534074461E+02 -0.94006578251E+02  0.14720864530E+02  0.14989226515E+03  0.10772466317E+03 0.  0.
     200001    1    1    2    0    0  0.27751936066E+03 -0.63480899707E+03 -0.20915776560E+03  0.94842787243E+03  0.61300000000E+03 0. -1.
         13    1    4    4    0    0  0.89672201513E+01  0.79080758736E+01  0.28616457485E+02  0.31013892117E+02  0.10566000000E+00 0.  1.
    -200003    1    4    4    0    0 -0.51501294612E+02 -0.10191465412E+03 -0.13895592954E+02  0.11887837304E+03  0.30000000000E+02 0.  1.
    -200000    1    3    3    0    0 -0.23498528619E+03  0.72881557532E+03  0.54873002234E+02  0.77433989561E+03  0.10100000000E+03 0.  1.
<mgrwt>
<rscale>  0 0.18674521E+04</rscale>
<asrwt>0</asrwt>
<pdfrwt beam="1">  1        2 0.12379258E+00 0.18674521E+04</pdfrwt>
<pdfrwt beam="2">  1       -2 0.14373028E+00 0.18674521E+04</pdfrwt>
<totfact> 0.10808755E+01</totfact>
</mgrwt>
</event>
<event>
 8    2  0.4306980E-052  0.2334302E+04  0.7818608E-02  0.8464518E-01
         -2   -1    0    0    0  501 -0.00000000000E+00  0.00000000000E+00  0.10504493110E+04  0.10504493110E+04  0.25500000000E-02 0. -1.
          2   -1    0    0  501    0  0.00000000000E+00 -0.00000000000E+00 -0.12968178131E+04  0.12968178131E+04  0.25500000000E-02 0.  1.
    -200001    2    1    2    0    0  0.21597853329E+03  0.71338165557E+03 -0.78315081351E+03  0.12429735204E+04  0.61326818142E+03 0.  0.
   -5000001    2    3    3    0    0  0.35541801253E+03  0.55267287210E+03 -0.52258674817E+03  0.89173953342E+03  0.30055485178E+03 0.  0.
     200001    1    1    2    0    0 -0.21597853329E+03 -0.71338165557E+03  0.53678231140E+03  0.11042936037E+04  0.61300000000E+03 0. -1.
         13    1    4    4    0    0  0.24228838674E+03  0.54425225829E+03 -0.37808165716E+03  0.70559190305E+03  0.10566000000E+00 0.  1.
    -200003    1    4    4    0    0  0.11312962578E+03  0.84206138090E+01 -0.14450509100E+03  0.18614763037E+03  0.30000000000E+02 0.  1.
    -200000    1    3    3    0    0 -0.13943947923E+03  0.16070878347E+03 -0.26056406535E+03  0.35123398697E+03  0.10100000000E+03 0.  1.
<mgrwt>
<rscale>  0 0.23343019E+04</rscale>
<asrwt>0</asrwt>
<pdfrwt beam="1">  1        2 0.18525969E+00 0.23343019E+04</pdfrwt>
<pdfrwt beam="2">  1       -2 0.15006419E+00 0.23343019E+04</pdfrwt>
<totfact> 0.51277086E+00</totfact>
</mgrwt>
</event>
<event>
 8    2  0.4306980E-052  0.1343171E+04  0.7818608E-02  0.8996014E-01
          2   -1    0    0  501    0  0.00000000000E+00  0.00000000000E+00  0.38192926127E+04  0.38192926127E+04  0.25500000000E-02 0.  1.
         -2   -1    0    0    0  501 -0.00000000000E+00 -0.00000000000E+00 -0.11809170396E+03  0.11809170399E+03  0.25500000000E-02 0. -1.
    -200001    2    1    2    0    0  0.15132454808E+03 -0.22583074637E+03  0.17400256169E+04  0.18647347636E+04  0.61290125310E+03 0.  0.
   -5000001    2    3    3    0    0 -0.19828158695E+03 -0.71446750787E+02  0.49192878607E+03  0.55553440957E+03  0.14901115302E+03 0.  0.
     200001    1    1    2    0    0 -0.15132454808E+03  0.22583074637E+03  0.19611752918E+04  0.20726495531E+04  0.61300000000E+03 0. -1.
         13    1    4    4    0    0 -0.31483005072E+02  0.99017624028E+01  0.23429061288E+03  0.23660373403E+03  0.10566000000E+00 0.  1.
    -200003    1    4    4    0    0 -0.16679858188E+03 -0.81348513190E+02  0.25763817319E+03  0.31893067554E+03  0.30000000000E+02 0.  1.
    -200000    1    3    3    0    0  0.34960613503E+03 -0.15438399558E+03  0.12480968308E+04  0.13092003540E+04  0.10100000000E+03 0.  1.
<mgrwt>
<rscale>  0 0.13431705E+04</rscale>
<asrwt>0</asrwt>
<pdfrwt beam="1">  1        2 0.54561321E+00 0.13431705E+04</pdfrwt>
<pdfrwt beam="2">  1       -2 0.16870244E-01 0.13431705E+04</pdfrwt>
<totfact> 0.21633302E+01</totfact>
</mgrwt>
</event>
<event>
 8    2  0.4306980E-052  0.1322860E+04  0.7818608E-02  0.9011631E-01
          2   -1    0    0  501    0  0.00000000000E+00  0.00000000000E+00  0.76607580935E+03  0.76607580935E+03  0.25500000000E-02 0. -1.
         -2   -1    0    0    0  501 -0.00000000000E+00 -0.00000000000E+00 -0.57107875407E+03  0.57107875408E+03  0.25500000000E-02 0.  1.
    -200001    2    1    2    0    0 -0.21624847976E+03  0.12225390637E+03  0.94702361123E+02  0.66817216584E+03  0.61300577760E+03 0.  0.
   -5000001    2    3    3    0    0 -0.20172025227E+03  0.26151641201E+03 -0.12732612966E+03  0.38692002702E+03  0.15624746425E+03 0.  0.
     200001    1    1    2    0    0  0.21624847976E+03 -0.12225390637E+03  0.10029469415E+03  0.66898239760E+03  0.61300000000E+03 0.  1.
         13    1    4    4    0    0 -0.13857530914E+03  0.10409133719E+03 -0.10096298354E+01  0.17331806974E+03  0.10566000000E+00 0.  1.
    -200003    1    4    4    0    0 -0.63144943127E+02  0.15742507482E+03 -0.12631649982E+03  0.21360195727E+03  0.30000000000E+02 0.  1.
    -200000    1    3    3    0    0 -0.14528227488E+02 -0.13926250564E+03  0.22202849078E+03  0.28125213882E+03  0.10100000000E+03 0.  1.
<mgrwt>
<rscale>  0 0.13228600E+04</rscale>
<asrwt>0</asrwt>
<pdfrwt beam="1">  1        2 0.10943940E+00 0.13228600E+04</pdfrwt>
<pdfrwt beam="2">  1       -2 0.81582679E-01 0.13228600E+04</pdfrwt>
<totfact> 0.52098059E+01</totfact>
</mgrwt>
</event>
<event>
 8    2  0.4306980E-052  0.1890151E+04  0.7818608E-02  0.8659774E-01
         -2   -1    0    0    0  501 -0.00000000000E+00  0.00000000000E+00  0.68211635480E+03  0.68211635480E+03  0.25500000000E-02 0. -1.
          2   -1    0    0  501    0  0.00000000000E+00 -0.00000000000E+00 -0.13094069317E+04  0.13094069318E+04  0.25500000000E-02 0.  1.
    -200001    2    1    2    0    0 -0.34049584726E+03 -0.37935464473E+03 -0.84880194556E+03  0.11640671518E+04  0.61216029168E+03 0.  0.
   -5000001    2    3    3    0    0 -0.11181885519E+03 -0.15495588534E+03  0.15384132779E+02  0.23688510503E+03  0.13915135165E+03 0.  0.
     200001    1    1    2    0    0  0.34049584726E+03  0.37935464473E+03  0.22151136860E+03  0.82745613473E+03  0.61300000000E+03 0. -1.
         13    1    4    4    0    0 -0.12735179618E+03 -0.12034050293E+03  0.44040499225E+02  0.18066514155E+03  0.10566000000E+00 0.  1.
    -200003    1    4    4    0    0  0.15532940993E+02 -0.34615382412E+02 -0.28656366445E+02  0.56219963476E+02  0.30000000000E+02 0.  1.
    -200000    1    3    3    0    0 -0.22867699206E+03 -0.22439875938E+03 -0.86418607833E+03  0.92718204680E+03  0.10100000000E+03 0.  1.
<mgrwt>
<rscale>  0 0.18901512E+04</rscale>
<asrwt>0</asrwt>
<pdfrwt beam="1">  1        2 0.18705813E+00 0.18901512E+04</pdfrwt>
<pdfrwt beam="2">  1       -2 0.97445195E-01 0.18901512E+04</pdfrwt>
<totfact> 0.15322479E+01</totfact>
</mgrwt>
</event>
<event>
 8    2  0.4306980E-052  0.1255357E+04  0.7818608E-02  0.9065737E-01
         -2   -1    0    0    0  501 -0.00000000000E+00  0.00000000000E+00  0.18514932014E+03  0.18514932016E+03  0.25500000000E-02 0. -1.
          2   -1    0    0  501    0  0.00000000000E+00 -0.00000000000E+00 -0.21279048774E+04  0.21279048774E+04  0.25500000000E-02 0.  1.
    -200001    2    1    2    0    0  0.46769206041E+02  0.19836954482E+02 -0.12047911599E+04  0.13523558499E+04  0.61217950179E+03 0.  0.
   -5000001    2    3    3    0    0  0.49784199695E+01  0.15628048462E+03 -0.15886035238E+03  0.29191463945E+03  0.18849183173E+03 0.  0.
     200001    1    1    2    0    0 -0.46769206041E+02 -0.19836954482E+02 -0.73796439736E+03  0.96069834764E+03  0.61300000000E+03 0. -1.
         13    1    4    4    0    0  0.74199591574E+02  0.78270404794E+02 -0.10868930814E+02  0.10839732689E+03  0.10566000000E+00 0.  1.
    -200003    1    4    4    0    0 -0.69221171604E+02  0.78010079825E+02 -0.14799142156E+03  0.18351731256E+03  0.30000000000E+02 0.  1.
    -200000    1    3    3    0    0  0.41790786071E+02 -0.13644353014E+03 -0.10459308075E+04  0.10604412104E+04  0.10100000000E+03 0.  1.
<mgrwt>
<rscale>  0 0.12553567E+04</rscale>
<asrwt>0</asrwt>
<pdfrwt beam="1">  1        2 0.30398640E+00 0.12553567E+04</pdfrwt>
<pdfrwt beam="2">  1       -2 0.26449904E-01 0.12553567E+04</pdfrwt>
<totfact> 0.87813347E+01</totfact>
</mgrwt>
</event>
<event>
 8    2  0.4306980E-052  0.1815821E+04  0.7818608E-02  0.8697931E-01
          2   -1    0    0  501    0  0.00000000000E+00  0.00000000000E+00  0.34150391402E+03  0.34150391402E+03  0.25500000000E-02 0.  1.
         -2   -1    0    0    0  501 -0.00000000000E+00 -0.00000000000E+00 -0.24137382721E+04  0.24137382721E+04  0.25500000000E-02 0. -1.
    -200001    2    1    2    0    0 -0.63066426842E+03 -0.90533964473E+02 -0.72402520166E+03  0.11429857711E+04  0.61340864211E+03 0.  0.
   -5000001    2    3    3    0    0  0.19478360741E+02 -0.10764773904E+03  0.34322934285E+02  0.13885868017E+03  0.78334072934E+02 0.  0.
     200001    1    1    2    0    0  0.63066426842E+03  0.90533964473E+02 -0.13482091564E+04  0.16122564150E+04  0.61300000000E+03 0.  1.
         13    1    4    4    0    0 -0.78950663635E+00 -0.63685491846E+02  0.48635075597E+02  0.80136427015E+02  0.10566000000E+00 0.  1.
    -200003    1    4    4    0    0  0.20267867378E+02 -0.43962247197E+02 -0.14312141312E+02  0.58722253155E+02  0.30000000000E+02 0.  1.
    -200000    1    3    3    0    0 -0.65014262916E+03  0.17113774569E+02 -0.75834813595E+03  0.10041270910E+04  0.10100000000E+03 0. -1.
<mgrwt>
<rscale>  0 0.18158205E+04</rscale>
<asrwt>0</asrwt>
<pdfrwt beam="1">  1        2 0.48786275E-01 0.18158205E+04</pdfrwt>
<pdfrwt beam="2">  1       -2 0.34481974E+00 0.18158205E+04</pdfrwt>
<totfact> 0.16423239E+00</totfact>
</mgrwt>
</event>
<event>
 8    2  0.4306980E-052  0.1262697E+04  0.7818608E-02  0.9059681E-01
         -2   -1    0    0    0  501 -0.00000000000E+00  0.00000000000E+00  0.11671720207E+04  0.11671720207E+04  0.25500000000E-02 0. -1.
          2   -1    0    0  501    0  0.00000000000E+00 -0.00000000000E+00 -0.34150998615E+03  0.34150998616E+03  0.25500000000E-02 0.  1.
    -200001    2    1    2    0    0 -0.88480673421E+02  0.10779839205E+03  0.48267205772E+03  0.79253925075E+03  0.61294112750E+03 0.  0.
   -5000001    2    3    3    0    0 -0.28228068909E+03 -0.11741858266E+03  0.20790248795E+03  0.37542961500E+03  0.65226070955E+02 0.  0.
     200001    1    1    2    0    0  0.88480673421E+02 -0.10779839205E+03  0.34298997678E+03  0.71614275607E+03  0.61300000000E+03 0. -1.
         13    1    4    4    0    0 -0.13358660493E+03 -0.40766696511E+02  0.68228940204E+02  0.15544292846E+03  0.10566000000E+00 0.  1.
    -200003    1    4    4    0    0 -0.14869408415E+03 -0.76651886152E+02  0.13967354775E+03  0.21998668654E+03  0.30000000000E+02 0.  1.
    -200000    1    3    3    0    0  0.19380001567E+03  0.22521697471E+03  0.27476956977E+03  0.41710963576E+03  0.10100000000E+03 0.  1.
<mgrwt>
<rscale>  0 0.12626970E+04</rscale>
<asrwt>0</asrwt>
<pdfrwt beam="1">  1        2 0.48787141E-01 0.12626970E+04</pdfrwt>
<pdfrwt beam="2">  1       -2 0.16673886E+00 0.12626970E+04</pdfrwt>
<totfact> 0.22815574E+01</totfact>
</mgrwt>
</event>
<event>
 8    2  0.4306980E-052  0.1292446E+04  0.7818608E-02  0.9035577E-01
          2   -1    0    0  501    0  0.00000000000E+00  0.00000000000E+00  0.95785625743E+03  0.95785625743E+03  0.25500000000E-02 0.  1.
         -2   -1    0    0    0  501 -0.00000000000E+00 -0.00000000000E+00 -0.43597812091E+03  0.43597812092E+03  0.25500000000E-02 0. -1.
    -200001    2    1    2    0    0 -0.16097012340E+03  0.12614978356E+03  0.26312889871E+03  0.69774148471E+03  0.61300996209E+03 0.  0.
   -5000001    2    3    3    0    0 -0.42304571090E+02 -0.89534573412E+02 -0.15053437216E+03  0.20588829847E+03  0.99615649742E+02 0.  0.
     200001    1    1    2    0    0  0.16097012340E+03 -0.12614978356E+03  0.25874923780E+03  0.69609289364E+03  0.61300000000E+03 0.  1.
         13    1    4    4    0    0 -0.41204752154E+02 -0.63526090142E+02 -0.34433296731E+02  0.83180880114E+02  0.10566000000E+00 0.  1.
    -200003    1    4    4    0    0 -0.10998189366E+01 -0.26008483270E+02 -0.11610107543E+03  0.12270741835E+03  0.30000000000E+02 0.  1.
    -200000    1    3    3    0    0 -0.11866555231E+03  0.21568435697E+03  0.41366327087E+03  0.49185318624E+03  0.10100000000E+03 0.  1.
<mgrwt>
<rscale>  0 0.12924463E+04</rscale>
<asrwt>0</asrwt>
<pdfrwt beam="1">  1        2 0.13683661E+00 0.12924463E+04</pdfrwt>
<pdfrwt beam="2">  1       -2 0.62282588E-01 0.12924463E+04</pdfrwt>
<totfact> 0.70093274E+01</totfact>
</mgrwt>
</event>
<event>
 8    2  0.4306980E-052  0.3069801E+04  0.7818608E-02  0.8224075E-01
          2   -1    0    0  501    0  0.00000000000E+00  0.00000000000E+00  0.19861858429E+04  0.19861858429E+04  0.25500000000E-02 0.  1.
         -2   -1    0    0    0  501 -0.00000000000E+00 -0.00000000000E+00 -0.11861528544E+04  0.11861528544E+04  0.25500000000E-02 0. -1.
    -200001    2    1    2    0    0 -0.39301474202E+03 -0.66179750374E+03  0.16170793054E+04  0.18933663725E+04  0.61437302786E+03 0.  0.
   -5000001    2    3    3    0    0  0.10810377606E+03 -0.20897082198E+03  0.19791090002E+03  0.31843407696E+03  0.82923495982E+02 0.  0.
     200001    1    1    2    0    0  0.39301474202E+03  0.66179750374E+03 -0.81704631689E+03  0.12789723247E+04  0.61300000000E+03 0. -1.
         13    1    4    4    0    0  0.53507948064E+02 -0.62482017477E+02  0.10750830592E+03  0.13537041782E+03  0.10566000000E+00 0.  1.
    -200003    1    4    4    0    0  0.54595827992E+02 -0.14648880450E+03  0.90402594100E+02  0.18306365914E+03  0.30000000000E+02 0.  1.
    -200000    1    3    3    0    0 -0.50111851808E+03 -0.45282668176E+03  0.14191684054E+04  0.15749322956E+04  0.10100000000E+03 0.  1.
<mgrwt>
<rscale>  0 0.30698013E+04</rscale>
<asrwt>0</asrwt>
<pdfrwt beam="1">  1        2 0.28374083E+00 0.30698013E+04</pdfrwt>
<pdfrwt beam="2">  1       -2 0.16945041E+00 0.30698013E+04</pdfrwt>
<totfact> 0.15053675E+00</totfact>
</mgrwt>
</event>
<event>
 8    2  0.4306980E-052  0.1559083E+04  0.7818608E-02  0.8846087E-01
          2   -1    0    0  501    0  0.00000000000E+00  0.00000000000E+00  0.86528870971E+03  0.86528870972E+03  0.25500000000E-02 0.  1.
         -2   -1    0    0    0  501 -0.00000000000E+00 -0.00000000000E+00 -0.70229166193E+03  0.70229166194E+03  0.25500000000E-02 0. -1.
    -200001    2    1    2    0    0  0.16309494798E+03  0.16684119131E+03  0.50426466258E+03  0.82821001109E+03  0.61417670695E+03 0.  0.
   -5000001    2    3    3    0    0  0.36380277716E+03  0.65879611177E+02  0.18214795239E+03  0.42270162850E+03  0.93841389290E+02 0.  0.
     200001    1    1    2    0    0 -0.16309494798E+03 -0.16684119131E+03 -0.34126761480E+03  0.73937036057E+03  0.61300000000E+03 0. -1.
         13    1    4    4    0    0  0.12010490001E+03  0.58028575251E+02  0.87018036389E+02  0.15926284053E+03  0.10566000000E+00 0.  1.
    -200003    1    4    4    0    0  0.24369787715E+03  0.78510359256E+01  0.95129915996E+02  0.26343878798E+03  0.30000000000E+02 0.  1.
    -200000    1    3    3    0    0 -0.20070782918E+03  0.10096158014E+03  0.32211671020E+03  0.40550838258E+03  0.10100000000E+03 0.  1.
<mgrwt>
<rscale>  0 0.15590831E+04</rscale>
<asrwt>0</asrwt>
<pdfrwt beam="1">  1        2 0.12361267E+00 0.15590831E+04</pdfrwt>
<pdfrwt beam="2">  1       -2 0.10032738E+00 0.15590831E+04</pdfrwt>
<totfact> 0.27096001E+01</totfact>
</mgrwt>
</event>
<event>
 8    2  0.4306980E-052  0.1875436E+04  0.7818608E-02  0.8667181E-01
          2   -1    0    0  501    0  0.00000000000E+00  0.00000000000E+00  0.62746578477E+03  0.62746578477E+03  0.25500000000E-02 0.  1.
         -2   -1    0    0    0  501 -0.00000000000E+00 -0.00000000000E+00 -0.14013747528E+04  0.14013747528E+04  0.25500000000E-02 0. -1.
    -200001    2    1    2    0    0  0.53387858281E+03 -0.11557738368E+03 -0.87694393852E+03  0.12013324241E+04  0.61301260108E+03 0.  0.
   -5000001    2    3    3    0    0  0.56796458604E+03 -0.24493233995E+03 -0.79465631052E+03  0.10146058485E+04  0.12397884388E+03 0.  0.
     200001    1    1    2    0    0 -0.53387858281E+03  0.11557738368E+03  0.10303497045E+03  0.82750811352E+03  0.61300000000E+03 0.  1.
         13    1    4    4    0    0  0.56548065674E+02 -0.25594438925E+02 -0.31409458867E+02  0.69565252143E+02  0.10566000000E+00 0.  1.
    -200003    1    4    4    0    0  0.51141652037E+03 -0.21933790103E+03 -0.76324685165E+03  0.94504059631E+03  0.30000000000E+02 0.  1.
    -200000    1    3    3    0    0 -0.34086003233E+02  0.12935495627E+03 -0.82287628002E+02  0.18672657564E+03  0.10100000000E+03 0. -1.
<mgrwt>
<rscale>  0 0.18754356E+04</rscale>
<asrwt>0</asrwt>
<pdfrwt beam="1">  1        2 0.89637970E-01 0.18754356E+04</pdfrwt>
<pdfrwt beam="2">  1       -2 0.20019639E+00 0.18754356E+04</pdfrwt>
<totfact> 0.64158784E+00</totfact>
</mgrwt>
</event>
<event>
 8    2  0.4306980E-052  0.1281068E+04  0.7818608E-02  0.9044714E-01
         -2   -1    0    0    0  501 -0.00000000000E+00  0.00000000000E+00  0.12021518475E+03  0.12021518478E+03  0.25500000000E-02 0. -1.
          2   -1    0    0  501    0  0.00000000000E+00 -0.00000000000E+00 -0.34129142998E+04  0.34129142998E+04  0.25500000000E-02 0.  1.
    -200001    2    1    2    0    0 -0.17539254861E+03  0.37707287437E+02 -0.15237397341E+04  0.16523927468E+04  0.61354268520E+03 0.  0.
   -5000001    2    3    3    0    0 -0.10160051097E+03  0.30940191963E+03 -0.72221912770E+03  0.79688148411E+03  0.85833674125E+02 0.  0.
     200001    1    1    2    0    0  0.17539254861E+03 -0.37707287437E+02 -0.17689593809E+04  0.18807367378E+04  0.61300000000E+03 0.  1.
         13    1    4    4    0    0 -0.36485956310E+02  0.20485090008E+03 -0.40642242044E+03  0.45658987207E+03  0.10566000000E+00 0.  1.
    -200003    1    4    4    0    0 -0.65114554659E+02  0.10455101955E+03 -0.31579670726E+03  0.34029161205E+03  0.30000000000E+02 0.  1.
    -200000    1    3    3    0    0 -0.73792037645E+02 -0.27169463220E+03 -0.80152060643E+03  0.85551126264E+03  0.10100000000E+03 0.  1.
<mgrwt>
<rscale>  0 0.12810685E+04</rscale>
<asrwt>0</asrwt>
<pdfrwt beam="1">  1        2 0.48755912E+00 0.12810685E+04</pdfrwt>
<pdfrwt beam="2">  1       -2 0.17173600E-01 0.12810685E+04</pdfrwt>
<totfact> 0.37748208E+01</totfact>
</mgrwt>
</event>
<event>
 8    2  0.4306980E-052  0.1587975E+04  0.7818608E-02  0.8827969E-01
          2   -1    0    0  501    0  0.00000000000E+00  0.00000000000E+00  0.25666722118E+04  0.25666722118E+04  0.25500000000E-02 0.  1.
         -2   -1    0    0    0  501 -0.00000000000E+00 -0.00000000000E+00 -0.24561629453E+03  0.24561629455E+03  0.25500000000E-02 0. -1.
    -200001    2    1    2    0    0 -0.41951420190E+03  0.25401643925E+03  0.95304030658E+03  0.12350275171E+04  0.61358831891E+03 0.  0.
   -5000001    2    3    3    0    0  0.37963534137E+02  0.26346376072E+03  0.34796233493E+03  0.46972007392E+03  0.16942484522E+03 0.  0.
     200001    1    1    2    0    0  0.41951420190E+03 -0.25401643925E+03  0.13680156107E+04  0.15772609892E+04  0.61300000000E+03 0. -1.
         13    1    4    4    0    0 -0.84762263310E+01  0.13321865587E+01  0.11316732337E+03  0.11349218201E+03  0.10566000000E+00 0.  1.
    -200003    1    4    4    0    0  0.46439760468E+02  0.26213157416E+03  0.23479501156E+03  0.35622789192E+03  0.30000000000E+02 0.  1.
    -200000    1    3    3    0    0 -0.45747773604E+03 -0.94473214675E+01  0.60507797165E+03  0.76530744321E+03  0.10100000000E+03 0. -1.
<mgrwt>
<rscale>  0 0.15879755E+04</rscale>
<asrwt>0</asrwt>
<pdfrwt beam="1">  1        2 0.36666746E+00 0.15879755E+04</pdfrwt>
<pdfrwt beam="2">  1       -2 0.35088042E-01 0.15879755E+04</pdfrwt>
<totfact> 0.29833086E+01</totfact>
</mgrwt>
</event>
<event>
 8    2  0.4306980E-052  0.1761977E+04  0.7818608E-02  0.8726785E-01
         -2   -1    0    0    0  501 -0.00000000000E+00  0.00000000000E+00  0.30301566233E+03  0.30301566234E+03  0.25500000000E-02 0.  1.
          2   -1    0    0  501    0  0.00000000000E+00 -0.00000000000E+00 -0.25613868241E+04  0.25613868241E+04  0.25500000000E-02 0. -1.
    -200001    2    1    2    0    0  0.19158364126E+03 -0.56917645270E+02 -0.15229100113E+03  0.66183885444E+03  0.61228605265E+03 0.  0.
   -5000001    2    3    3    0    0 -0.82887778251E+02 -0.82287194254E+01  0.18535328929E+03  0.21249506792E+03  0.62130640032E+02 0.  0.
     200001    1    1    2    0    0 -0.19158364126E+03  0.56917645270E+02 -0.21060801606E+04  0.22025636320E+04  0.61300000000E+03 0. -1.
         13    1    4    4    0    0 -0.67494006868E+02 -0.15780219715E+02  0.12067006781E+03  0.13916081606E+03  0.10566000000E+00 0.  1.
    -200003    1    4    4    0    0 -0.15393771383E+02  0.75515002897E+01  0.64683221487E+02  0.73334251860E+02  0.30000000000E+02 0.  1.
    -200000    1    3    3    0    0  0.27447141951E+03 -0.48688925844E+02 -0.33764429042E+03  0.44934378652E+03  0.10100000000E+03 0. -1.
<mgrwt>
<rscale>  0 0.17619765E+04</rscale>
<asrwt>0</asrwt>
<pdfrwt beam="1">  1        2 0.36591239E+00 0.17619765E+04</pdfrwt>
<pdfrwt beam="2">  1       -2 0.43287953E-01 0.17619765E+04</pdfrwt>
<totfact> 0.19662668E+01</totfact>
</mgrwt>
</event>
<event>
 8    2  0.4306980E-052  0.2360716E+04  0.7818608E-02  0.8454359E-01
          2   -1    0    0  501    0  0.00000000000E+00  0.00000000000E+00  0.32505871376E+04  0.32505871376E+04  0.25500000000E-02 0.  1.
         -2   -1    0    0    0  501 -0.00000000000E+00 -0.00000000000E+00 -0.42861332828E+03  0.42861332828E+03  0.25500000000E-02 0. -1.
    -200001    2    1    2    0    0  0.10291444485E+03  0.80043439521E+03  0.46809477841E+03  0.11164281201E+04  0.61319851749E+03 0.  0.
   -5000001    2    3    3    0    0 -0.11593825148E+02  0.10876367462E+03  0.38107397674E+03  0.40277964255E+03  0.71064133047E+02 0.  0.
     200001    1    1    2    0    0 -0.10291444485E+03 -0.80043439521E+03  0.23538790309E+04  0.25627723458E+04  0.61300000000E+03 0.  1.
         13    1    4    4    0    0 -0.29320559812E+01  0.96631688118E+02  0.27146801661E+03  0.28816865775E+03  0.10566000000E+00 0.  1.
    -200003    1    4    4    0    0 -0.86617691666E+01  0.12131986499E+02  0.10960596013E+03  0.11461098481E+03  0.30000000000E+02 0.  1.
    -200000    1    3    3    0    0  0.11450826999E+03  0.69167072059E+03  0.87020801661E+02  0.71364847757E+03  0.10100000000E+03 0. -1.
<mgrwt>
<rscale>  0 0.23607160E+04</rscale>
<asrwt>0</asrwt>
<pdfrwt beam="1">  1        2 0.46436956E+00 0.23607160E+04</pdfrwt>
<pdfrwt beam="2">  1       -2 0.61230480E-01 0.23607160E+04</pdfrwt>
<totfact> 0.38131926E+00</totfact>
</mgrwt>
</event>
<event>
 8    2  0.4306980E-052  0.1316770E+04  0.7818608E-02  0.9016371E-01
         -2   -1    0    0    0  501 -0.00000000000E+00  0.00000000000E+00  0.15553603514E+03  0.15553603516E+03  0.25500000000E-02 0. -1.
          2   -1    0    0  501    0  0.00000000000E+00 -0.00000000000E+00 -0.27869474147E+04  0.27869474147E+04  0.25500000000E-02 0.  1.
    -200001    2    1    2    0    0 -0.18957305638E+03  0.11627801073E+03 -0.11463032551E+04  0.13205174635E+04  0.61668200828E+03 0.  0.
   -5000001    2    3    3    0    0  0.34361785398E+01 -0.24781368159E+02  0.51639227774E+02  0.94786047021E+02  0.75444425467E+02 0.  0.
     200001    1    1    2    0    0  0.18957305638E+03 -0.11627801073E+03 -0.14851081245E+04  0.16219659863E+04  0.61300000000E+03 0. -1.
         13    1    4    4    0    0  0.16095058146E+02  0.78963935283E+01  0.44667470069E+02  0.48131049998E+02  0.10566000000E+00 0.  1.
    -200003    1    4    4    0    0 -0.12658879606E+02 -0.32677761687E+02  0.69717577045E+01  0.46654997023E+02  0.30000000000E+02 0.  1.
    -200000    1    3    3    0    0 -0.19300923492E+03  0.14105937889E+03 -0.11979424829E+04  0.12257314165E+04  0.10100000000E+03 0.  1.
<mgrwt>
<rscale>  0 0.13167699E+04</rscale>
<asrwt>0</asrwt>
<pdfrwt beam="1">  1        2 0.39813531E+00 0.13167699E+04</pdfrwt>
<pdfrwt beam="2">  1       -2 0.22219435E-01 0.13167699E+04</pdfrwt>
<totfact> 0.54062891E+01</totfact>
</mgrwt>
</event>
<event>
 8    2  0.4306980E-052  0.1348693E+04  0.7818608E-02  0.8991818E-01
          2   -1    0    0  501    0  0.00000000000E+00  0.00000000000E+00  0.36712286093E+03  0.36712286094E+03  0.25500000000E-02 0.  1.
         -2   -1    0    0    0  501 -0.00000000000E+00 -0.00000000000E+00 -0.12386681529E+04  0.12386681529E+04  0.25500000000E-02 0. -1.
    -200001    2    1    2    0    0  0.33544508019E+02 -0.11542190237E+03 -0.13303631965E+03  0.63852065258E+03  0.61283155260E+03 0.  0.
   -5000001    2    3    3    0    0 -0.65415779974E+02 -0.14696157528E+03  0.16925127734E+03  0.30330925532E+03  0.19358094070E+03 0.  0.
     200001    1    1    2    0    0 -0.33544508019E+02  0.11542190237E+03 -0.73850897228E+03  0.96727036123E+03  0.61300000000E+03 0. -1.
         13    1    4    4    0    0  0.16805835797E+02 -0.13247129333E+03  0.27887887662E+02  0.13641416758E+03  0.10566000000E+00 0.  1.
    -200003    1    4    4    0    0 -0.82221615771E+02 -0.14490281946E+02  0.14136338967E+03  0.16689508774E+03  0.30000000000E+02 0.  1.
    -200000    1    3    3    0    0  0.98960287993E+02  0.31539672908E+02 -0.30228759698E+03  0.33521139727E+03  0.10100000000E+03 0. -1.
<mgrwt>
<rscale>  0 0.13486933E+04</rscale>
<asrwt>0</asrwt>
<pdfrwt beam="1">  1        2 0.52446124E-01 0.13486933E+04</pdfrwt>
<pdfrwt beam="2">  1       -2 0.17695259E+00 0.13486933E+04</pdfrwt>
<totfact> 0.17713983E+01</totfact>
</mgrwt>
</event>
<event>
 8    2  0.4306980E-052  0.1292634E+04  0.7818608E-02  0.9035427E-01
         -2   -1    0    0    0  501 -0.00000000000E+00  0.00000000000E+00  0.13451578680E+03  0.13451578682E+03  0.25500000000E-02 0. -1.
          2   -1    0    0  501    0  0.00000000000E+00 -0.00000000000E+00 -0.31054036399E+04  0.31054036399E+04  0.25500000000E-02 0.  1.
    -200001    2    1    2    0    0 -0.19953830021E+03 -0.14312658487E+02 -0.16278436723E+04  0.17501016335E+04  0.61070477372E+03 0.  0.
   -5000001    2    3    3    0    0 -0.17926737423E+03 -0.13269100379E+02 -0.16344605262E+04  0.16468699416E+04  0.91687145563E+02 0.  0.
     200001    1    1    2    0    0  0.19953830021E+03  0.14312658487E+02 -0.13430441808E+04  0.14898177932E+04  0.61300000000E+03 0.  1.
         13    1    4    4    0    0 -0.35080413880E+02  0.11126255510E+02 -0.13272654694E+03  0.13773444169E+03  0.10566000000E+00 0.  1.
    -200003    1    4    4    0    0 -0.14418696035E+03 -0.24395355889E+02 -0.15017339792E+04  0.15091355000E+04  0.30000000000E+02 0.  1.
    -200000    1    3    3    0    0 -0.20270925986E+02 -0.10435581080E+01  0.66168538107E+01  0.10323169188E+03  0.10100000000E+03 0. -1.
<mgrwt>
<rscale>  0 0.12926342E+04</rscale>
<asrwt>0</asrwt>
<pdfrwt beam="1">  1        2 0.44362905E+00 0.12926342E+04</pdfrwt>
<pdfrwt beam="2">  1       -2 0.19216543E-01 0.12926342E+04</pdfrwt>
<totfact> 0.46733659E+01</totfact>
</mgrwt>
</event>
<event>
 8    2  0.4306980E-052  0.1519232E+04  0.7818608E-02  0.8871764E-01
          2   -1    0    0  501    0  0.00000000000E+00  0.00000000000E+00  0.14031848510E+04  0.14031848510E+04  0.25500000000E-02 0.  1.
         -2   -1    0    0    0  501 -0.00000000000E+00 -0.00000000000E+00 -0.41121918770E+03  0.41121918770E+03  0.25500000000E-02 0. -1.
    -200001    2    1    2    0    0  0.43067943789E+03 -0.74839662723E+02  0.61615042826E+03  0.97292210532E+03  0.61306632547E+03 0.  0.
   -5000001    2    3    3    0    0  0.23668586015E+03 -0.97353198256E+02  0.41439454448E+02  0.35758961722E+03  0.24628289496E+03 0.  0.
     200001    1    1    2    0    0 -0.43067943789E+03  0.74839662723E+02  0.37581523505E+03  0.84148193340E+03  0.61300000000E+03 0. -1.
         13    1    4    4    0    0  0.24444984219E+03 -0.15480939489E+03  0.41510658132E+02  0.29230945930E+03  0.10566000000E+00 0.  1.
    -200003    1    4    4    0    0 -0.77639820325E+01  0.57456196634E+02 -0.71203683356E-01  0.65280157924E+02  0.30000000000E+02 0.  1.
    -200000    1    3    3    0    0  0.19399357774E+03  0.22513535533E+02  0.57471097381E+03  0.61533248810E+03  0.10100000000E+03 0.  1.
<mgrwt>
<rscale>  0 0.15192321E+04</rscale>
<asrwt>0</asrwt>
<pdfrwt beam="1">  1        2 0.20045498E+00 0.15192321E+04</pdfrwt>
<pdfrwt beam="2">  1       -2 0.58745598E-01 0.15192321E+04</pdfrwt>
<totfact> 0.43127123E+01</totfact>
</mgrwt>
</event>
<event>
 8    2  0.4306980E-052  0.1234950E+04  0.7818608E-02  0.9082803E-01
         -2   -1    0    0    0  501 -0.00000000000E+00  0.00000000000E+00  0.31769274832E+03  0.31769274833E+03  0.25500000000E-02 0. -1.
          2   -1    0    0  501    0  0.00000000000E+00 -0.00000000000E+00 -0.12001387211E+04  0.12001387211E+04  0.25500000000E-02 0.  1.
    -200001    2    1    2    0    0 -0.10527836972E+02 -0.64391140311E+02 -0.44731556980E+03  0.76326899893E+03  0.61500511498E+03 0.  0.
   -5000001    2    3    3    0    0  0.60974316986E+02 -0.24760159448E+03 -0.46346992639E+03  0.54159222574E+03  0.11616087724E+03 0.  0.
     200001    1    1    2    0    0  0.10527836972E+02  0.64391140311E+02 -0.43513040302E+03  0.75456247053E+03  0.61300000000E+03 0. -1.
         13    1    4    4    0    0  0.31797267082E+02 -0.12955310449E+03 -0.13382454077E+03  0.18895526442E+03  0.10566000000E+00 0.  1.
    -200003    1    4    4    0    0  0.29177049904E+02 -0.11804848998E+03 -0.32964538562E+03  0.35263696132E+03  0.30000000000E+02 0.  1.
    -200000    1    3    3    0    0 -0.71502153958E+02  0.18321045417E+03  0.16154356587E+02  0.22167677319E+03  0.10100000000E+03 0. -1.
<mgrwt>
<rscale>  0 0.12349500E+04</rscale>
<asrwt>0</asrwt>
<pdfrwt beam="1">  1        2 0.17144839E+00 0.12349500E+04</pdfrwt>
<pdfrwt beam="2">  1       -2 0.45384679E-01 0.12349500E+04</pdfrwt>
<totfact> 0.96829624E+01</totfact>
</mgrwt>
</event>
<event>
 8    2  0.4306980E-052  0.2365537E+04  0.7818608E-02  0.8452520E-01
          2   -1    0    0  501    0  0.00000000000E+00  0.00000000000E+00  0.25565253322E+04  0.25565253322E+04  0.25500000000E-02 0.  1.
         -2   -1    0    0    0  501 -0.00000000000E+00 -0.00000000000E+00 -0.54720425248E+03  0.54720425249E+03  0.25500000000E-02 0. -1.
    -200001    2    1    2    0    0  0.84482852440E+03 -0.51332800696E+02  0.17313627147E+04  0.20223415208E+04  0.61308896969E+03 0.  0.
   -5000001    2    3    3    0    0  0.98715083292E+02  0.13456508243E+03  0.81685570186E+02  0.19946495582E+03  0.72534868476E+02 0.  0.
     200001    1    1    2    0    0 -0.84482852440E+03  0.51332800696E+02  0.27795836500E+03  0.10813880639E+04  0.61300000000E+03 0.  1.
         13    1    4    4    0    0 -0.27789684220E+01  0.94405090055E+01 -0.79682120068E+01  0.12662916030E+02  0.10566000000E+00 0.  1.
    -200003    1    4    4    0    0  0.10149405171E+03  0.12512457342E+03  0.89653782192E+02  0.18680203979E+03  0.30000000000E+02 0.  1.
    -200000    1    3    3    0    0  0.74611344111E+03 -0.18589788312E+03  0.16496771445E+04  0.18228765650E+04  0.10100000000E+03 0.  1.
<mgrwt>
<rscale>  0 0.23655372E+04</rscale>
<asrwt>0</asrwt>
<pdfrwt beam="1">  1        2 0.36521790E+00 0.23655372E+04</pdfrwt>
<pdfrwt beam="2">  1       -2 0.78172036E-01 0.23655372E+04</pdfrwt>
<totfact> 0.54283298E+00</totfact>
</mgrwt>
</event>
<event>
 8    2  0.4306980E-052  0.1348707E+04  0.7818608E-02  0.8991807E-01
          2   -1    0    0  501    0  0.00000000000E+00  0.00000000000E+00  0.12347475463E+04  0.12347475463E+04  0.25500000000E-02 0.  1.
         -2   -1    0    0    0  501 -0.00000000000E+00 -0.00000000000E+00 -0.36829603820E+03  0.36829603821E+03  0.25500000000E-02 0. -1.
    -200001    2    1    2    0    0 -0.17015292547E+03 -0.11948629325E+03  0.20774249500E+03  0.67952013799E+03  0.61266767614E+03 0.  0.
   -5000001    2    3    3    0    0  0.86649411781E+02 -0.72198882999E+02 -0.15744356851E+03  0.21936212103E+03  0.10300710465E+03 0.  0.
     200001    1    1    2    0    0  0.17015292547E+03  0.11948629325E+03  0.65870901307E+03  0.92352344649E+03  0.61300000000E+03 0.  1.
         13    1    4    4    0    0 -0.14665822474E+02 -0.37180727011E+02 -0.28918026196E+02  0.49333114771E+02  0.10566000000E+00 0.  1.
    -200003    1    4    4    0    0  0.10131523425E+03 -0.35018155988E+02 -0.12852554232E+03  0.17002900626E+03  0.30000000000E+02 0.  1.
    -200000    1    3    3    0    0 -0.25680233725E+03 -0.47287410250E+02  0.36518606352E+03  0.46015801696E+03  0.10100000000E+03 0.  1.
<mgrwt>
<rscale>  0 0.13487070E+04</rscale>
<asrwt>0</asrwt>
<pdfrwt beam="1">  1        2 0.17639251E+00 0.13487070E+04</pdfrwt>
<pdfrwt beam="2">  1       -2 0.52613719E-01 0.13487070E+04</pdfrwt>
<totfact> 0.68039917E+01</totfact>
</mgrwt>
</event>
<event>
 8    2  0.4306980E-052  0.1332505E+04  0.7818608E-02  0.9004178E-01
          2   -1    0    0  501    0  0.00000000000E+00  0.00000000000E+00  0.10609884647E+04  0.10609884647E+04  0.25500000000E-02 0.  1.
         -2   -1    0    0    0  501 -0.00000000000E+00 -0.00000000000E+00 -0.41837643169E+03  0.41837643170E+03  0.25500000000E-02 0. -1.
    -200001    2    1    2    0    0  0.11327439691E+02  0.17342831349E+03  0.53752931829E+03  0.83359630956E+03  0.61297581395E+03 0.  0.
   -5000001    2    3    3    0    0 -0.87853925239E+01  0.10720154946E+03 -0.10465046763E+03  0.17984835527E+03  0.99117885318E+02 0.  0.
     200001    1    1    2    0    0 -0.11327439691E+02 -0.17342831349E+03  0.10508271472E+03  0.64576858683E+03  0.61300000000E+03 0. -1.
         13    1    4    4    0    0 -0.46212335906E+02  0.52306272820E+02 -0.31499168042E+02  0.76575028028E+02  0.10566000000E+00 0.  1.
    -200003    1    4    4    0    0  0.37426943382E+02  0.54895276642E+02 -0.73151299590E+02  0.10327332724E+03  0.30000000000E+02 0.  1.
    -200000    1    3    3    0    0  0.20112832215E+02  0.66226764024E+02  0.64217978592E+03  0.65374795429E+03  0.10100000000E+03 0.  1.
<mgrwt>
<rscale>  0 0.13325053E+04</rscale>
<asrwt>0</asrwt>
<pdfrwt beam="1">  1        2 0.15156978E+00 0.13325053E+04</pdfrwt>
<pdfrwt beam="2">  1       -2 0.59768062E-01 0.13325053E+04</pdfrwt>
<totfact> 0.65896572E+01</totfact>
</mgrwt>
</event>
<event>
 8    2  0.4306980E-052  0.1523947E+04  0.7818608E-02  0.8868683E-01
         -2   -1    0    0    0  501 -0.00000000000E+00  0.00000000000E+00  0.31165741033E+03  0.31165741034E+03  0.25500000000E-02 0. -1.
          2   -1    0    0  501    0  0.00000000000E+00 -0.00000000000E+00 -0.18629534273E+04  0.18629534273E+04  0.25500000000E-02 0.  1.
    -200001    2    1    2    0    0  0.19091973851E+03  0.32844870137E+03 -0.11261353893E+04  0.13374373459E+04  0.61337496132E+03 0.  0.
   -5000001    2    3    3    0    0 -0.11713664470E+03  0.49670193875E+02 -0.27575614293E+02  0.15860284914E+03  0.90588782755E+02 0.  0.
     200001    1    1    2    0    0 -0.19091973851E+03 -0.32844870137E+03 -0.42516062769E+03  0.83717349177E+03  0.61300000000E+03 0.  1.
         13    1    4    4    0    0 -0.14334832611E+02 -0.17445282168E+02 -0.22860781509E+02  0.32131787861E+02  0.10566000000E+00 0.  1.
    -200003    1    4    4    0    0 -0.10280181209E+03  0.67115476044E+02 -0.47148327848E+01  0.12647106128E+03  0.30000000000E+02 0.  1.
    -200000    1    3    3    0    0  0.30805638321E+03  0.27877850750E+03 -0.10985597750E+04  0.11788344967E+04  0.10100000000E+03 0.  1.
<mgrwt>
<rscale>  0 0.15239465E+04</rscale>
<asrwt>0</asrwt>
<pdfrwt beam="1">  1        2 0.26613620E+00 0.15239465E+04</pdfrwt>
<pdfrwt beam="2">  1       -2 0.44522488E-01 0.15239465E+04</pdfrwt>
<totfact> 0.43626861E+01</totfact>
</mgrwt>
</event>
<event>
 8    2  0.4306980E-052  0.1331562E+04  0.7818608E-02  0.9004904E-01
         -2   -1    0    0    0  501 -0.00000000000E+00  0.00000000000E+00  0.44430711128E+03  0.44430711128E+03  0.25500000000E-02 0. -1.
          2   -1    0    0  501    0  0.00000000000E+00 -0.00000000000E+00 -0.99765250063E+03  0.99765250063E+03  0.25500000000E-02 0.  1.
    -200001    2    1    2    0    0 -0.76718362846E+01 -0.48569024282E+02 -0.55308284733E+03  0.82699060772E+03  0.61285807660E+03 0.  0.
   -5000001    2    3    3    0    0  0.10260947996E+03 -0.13017997602E+03 -0.46379800198E+02  0.29241480006E+03  0.23638908159E+03 0.  0.
     200001    1    1    2    0    0  0.76718362846E+01  0.48569024282E+02 -0.26254201595E+00  0.61496900419E+03  0.61300000000E+03 0. -1.
         13    1    4    4    0    0 -0.51800228884E+02 -0.21235593975E+02  0.52749535960E+02  0.76920341080E+02  0.10566000000E+00 0.  1.
    -200003    1    4    4    0    0  0.15440970884E+03 -0.10894438205E+03 -0.99129336158E+02  0.21549445898E+03  0.30000000000E+02 0.  1.
    -200000    1    3    3    0    0 -0.11028131624E+03  0.81610951742E+02 -0.50670304713E+03  0.53457580766E+03  0.10100000000E+03 0.  1.
<mgrwt>
<rscale>  0 0.13315616E+04</rscale>
<asrwt>0</asrwt>
<pdfrwt beam="1">  1        2 0.14252179E+00 0.13315616E+04</pdfrwt>
<pdfrwt beam="2">  1       -2 0.63472445E-01 0.13315616E+04</pdfrwt>
<totfact> 0.63395597E+01</totfact>
</mgrwt>
</event>
<event>
 8    2  0.4306980E-052  0.1496664E+04  0.7818608E-02  0.8886674E-01
         -2   -1    0    0    0  501 -0.00000000000E+00  0.00000000000E+00  0.12237662151E+04  0.12237662151E+04  0.25500000000E-02 0. -1.
          2   -1    0    0  501    0  0.00000000000E+00 -0.00000000000E+00 -0.45760459440E+03  0.45760459441E+03  0.25500000000E-02 0.  1.
    -200001    2    1    2    0    0 -0.79812419826E+01  0.86830323104E+02  0.85373301597E+03  0.10560381345E+04  0.61542934089E+03 0.  0.
   -5000001    2    3    3    0    0 -0.94308645442E+02  0.29623394101E+03  0.67768910164E+03  0.75190862988E+03  0.97238885192E+02 0.  0.
     200001    1    1    2    0    0  0.79812419826E+01 -0.86830323104E+02 -0.87571395270E+02  0.62533267506E+03  0.61300000000E+03 0.  1.
         13    1    4    4    0    0 -0.17400757200E+02  0.76036224436E+02  0.27226701362E+03  0.28322011166E+03  0.10566000000E+00 0.  1.
    -200003    1    4    4    0    0 -0.76907888242E+02  0.22019771657E+03  0.40542208802E+03  0.46868851822E+03  0.30000000000E+02 0.  1.
    -200000    1    3    3    0    0  0.86327403459E+02 -0.20940361791E+03  0.17604391433E+03  0.30412950457E+03  0.10100000000E+03 0.  1.
<mgrwt>
<rscale>  0 0.14966643E+04</rscale>
<asrwt>0</asrwt>
<pdfrwt beam="1">  1        2 0.65372085E-01 0.14966643E+04</pdfrwt>
<pdfrwt beam="2">  1       -2 0.17482374E+00 0.14966643E+04</pdfrwt>
<totfact> 0.14161075E+01</totfact>
</mgrwt>
</event>
<event>
 8    2  0.4306980E-052  0.1556931E+04  0.7818608E-02  0.8847453E-01
         -2   -1    0    0    0  501 -0.00000000000E+00  0.00000000000E+00  0.49789585473E+03  0.49789585473E+03  0.25500000000E-02 0. -1.
          2   -1    0    0  501    0  0.00000000000E+00 -0.00000000000E+00 -0.12171387071E+04  0.12171387071E+04  0.25500000000E-02 0.  1.
    -200001    2    1    2    0    0  0.11107184890E+03  0.42010506389E+03 -0.59522071498E+03  0.95347319801E+03  0.60497786691E+03 0.  0.
   -5000001    2    3    3    0    0 -0.22817545292E+02  0.40064468355E+02 -0.52467865281E+03  0.53212487812E+03  0.75785191176E+02 0.  0.
     200001    1    1    2    0    0 -0.11107184890E+03 -0.42010506389E+03 -0.12402213741E+03  0.76156136384E+03  0.61300000000E+03 0.  1.
         13    1    4    4    0    0 -0.39942250039E+02  0.72859514321E+01 -0.26944414998E+03  0.27248601716E+03  0.10566000000E+00 0.  1.
    -200003    1    4    4    0    0  0.17124704747E+02  0.32778516923E+02 -0.25523450284E+03  0.25963886096E+03  0.30000000000E+02 0.  1.
    -200000    1    3    3    0    0  0.13388939419E+03  0.38004059554E+03 -0.70542062170E+02  0.42134831989E+03  0.10100000000E+03 0. -1.
<mgrwt>
<rscale>  0 0.15569307E+04</rscale>
<asrwt>0</asrwt>
<pdfrwt beam="1">  1        2 0.17387696E+00 0.15569307E+04</pdfrwt>
<pdfrwt beam="2">  1       -2 0.71127979E-01 0.15569307E+04</pdfrwt>
<totfact> 0.36159424E+01</totfact>
</mgrwt>
</event>
<event>
 8    2  0.4306980E-052  0.1431756E+04  0.7818608E-02  0.8931147E-01
          2   -1    0    0  501    0  0.00000000000E+00  0.00000000000E+00  0.21285492627E+04  0.21285492627E+04  0.25500000000E-02 0.  1.
         -2   -1    0    0    0  501 -0.00000000000E+00 -0.00000000000E+00 -0.24076560920E+03  0.24076560921E+03  0.25500000000E-02 0. -1.
    -200001    2    1    2    0    0 -0.96443846222E+02 -0.11010969132E+03  0.15056247416E+04  0.16322667096E+04  0.61315837202E+03 0.  0.
   -5000001    2    3    3    0    0  0.10612486526E+03 -0.29519479323E+03  0.96579232963E+03  0.10183362487E+04  0.76494695662E+02 0.  0.
     200001    1    1    2    0    0  0.96443846222E+02  0.11010969132E+03  0.38215891188E+03  0.73704816228E+03  0.61300000000E+03 0. -1.
         13    1    4    4    0    0  0.78022553776E+02 -0.13142513241E+03  0.41535004431E+03  0.44257852953E+03  0.10566000000E+00 0.  1.
    -200003    1    4    4    0    0  0.28102311481E+02 -0.16376966082E+03  0.55044228532E+03  0.57575771917E+03  0.30000000000E+02 0.  1.
    -200000    1    3    3    0    0 -0.20256871148E+03  0.18508510192E+03  0.53983241200E+03  0.61393046094E+03  0.10100000000E+03 0. -1.
<mgrwt>
<rscale>  0 0.14317562E+04</rscale>
<asrwt>0</asrwt>
<pdfrwt beam="1">  1        2 0.30407846E+00 0.14317562E+04</pdfrwt>
<pdfrwt beam="2">  1       -2 0.34395088E-01 0.14317562E+04</pdfrwt>
<totfact> 0.53044264E+01</totfact>
</mgrwt>
</event>
<event>
 8    2  0.4306980E-052  0.1551098E+04  0.7818608E-02  0.8851167E-01
         -2   -1    0    0    0  501 -0.00000000000E+00  0.00000000000E+00  0.11664999340E+04  0.11664999340E+04  0.25500000000E-02 0. -1.
          2   -1    0    0  501    0  0.00000000000E+00 -0.00000000000E+00 -0.51562494372E+03  0.51562494373E+03  0.25500000000E-02 0.  1.
    -200001    2    1    2    0    0  0.18176586812E+03  0.26272319018E+02 -0.14972712524E+03  0.65720448427E+03  0.61300118805E+03 0.  0.
   -5000001    2    3    3    0    0 -0.12130553384E+03 -0.19642151856E+03 -0.24985816848E+02  0.24829591992E+03  0.87921142573E+02 0.  0.
     200001    1    1    2    0    0 -0.18176586812E+03 -0.26272319018E+02  0.80060211549E+03  0.10249203934E+04  0.61300000000E+03 0. -1.
         13    1    4    4    0    0 -0.10371964840E+03 -0.10528348890E+03 -0.29239209803E+02  0.15065630107E+03  0.10566000000E+00 0.  1.
    -200003    1    4    4    0    0 -0.17585885446E+02 -0.91138029665E+02  0.42533929550E+01  0.97639618852E+02  0.30000000000E+02 0.  1.
    -200000    1    3    3    0    0  0.30307140196E+03  0.22269383758E+03 -0.12474130839E+03  0.40890856435E+03  0.10100000000E+03 0.  1.
<mgrwt>
<rscale>  0 0.15510983E+04</rscale>
<asrwt>0</asrwt>
<pdfrwt beam="1">  1        2 0.73660707E-01 0.15510983E+04</pdfrwt>
<pdfrwt beam="2">  1       -2 0.16664285E+00 0.15510983E+04</pdfrwt>
<totfact> 0.14068082E+01</totfact>
</mgrwt>
</event>
<event>
 8    2  0.4306980E-052  0.1485441E+04  0.7818608E-02  0.8894192E-01
          2   -1    0    0  501    0  0.00000000000E+00  0.00000000000E+00  0.18483668226E+04  0.18483668226E+04  0.25500000000E-02 0.  1.
         -2   -1    0    0    0  501 -0.00000000000E+00 -0.00000000000E+00 -0.29844400359E+03  0.29844400360E+03  0.25500000000E-02 0. -1.
    -200001    2    1    2    0    0  0.11839858995E+03  0.13409585284E+03  0.22377192504E+03  0.67492594027E+03  0.61110655909E+03 0.  0.
   -5000001    2    3    3    0    0  0.81226700750E+02  0.12884489896E+03  0.41568841061E+03  0.45482991737E+03  0.10428141789E+03 0.  0.
     200001    1    1    2    0    0 -0.11839858995E+03 -0.13409585284E+03  0.13261508940E+04  0.14718848860E+04  0.61300000000E+03 0.  1.
         13    1    4    4    0    0  0.17887233780E+02  0.58898293610E+02  0.61311553147E+02  0.86879685978E+02  0.10566000000E+00 0.  1.
    -200003    1    4    4    0    0  0.63339466970E+02  0.69946605353E+02  0.35437685746E+03  0.36795023139E+03  0.30000000000E+02 0.  1.
    -200000    1    3    3    0    0  0.37171889197E+02  0.52509538779E+01 -0.19191648557E+03  0.22009602290E+03  0.10100000000E+03 0. -1.
<mgrwt>
<rscale>  0 0.14854413E+04</rscale>
<asrwt>0</asrwt>
<pdfrwt beam="1">  1        2 0.26405241E+00 0.14854413E+04</pdfrwt>
<pdfrwt beam="2">  1       -2 0.42634857E-01 0.14854413E+04</pdfrwt>
<totfact> 0.48519515E+01</totfact>
</mgrwt>
</event>
<event>
 8    2  0.4306980E-052  0.1518833E+04  0.7818608E-02  0.8872025E-01
         -2   -1    0    0    0  501 -0.00000000000E+00  0.00000000000E+00  0.17098346944E+03  0.17098346946E+03  0.25500000000E-02 0. -1.
          2   -1    0    0  501    0  0.00000000000E+00 -0.00000000000E+00 -0.33729197865E+04  0.33729197865E+04  0.25500000000E-02 0.  1.
    -200001    2    1    2    0    0  0.11010837649E+03 -0.20540364643E+03 -0.69282068619E+03  0.95049916835E+03  0.60756370307E+03 0.  0.
   -5000001    2    3    3    0    0  0.29823251779E+03  0.25184484790E+02 -0.21420142345E+03  0.37792692186E+03  0.85846464777E+02 0.  0.
     200001    1    1    2    0    0 -0.11010837649E+03  0.20540364643E+03 -0.25091156308E+04  0.25934040876E+04  0.61300000000E+03 0.  1.
         13    1    4    4    0    0  0.22313822143E+02  0.22018687058E+02 -0.37560066466E+02  0.48923399262E+02  0.10566000000E+00 0.  1.
    -200003    1    4    4    0    0  0.27591869564E+03  0.31657977316E+01 -0.17664135699E+03  0.32900352259E+03  0.30000000000E+02 0.  1.
    -200000    1    3    3    0    0 -0.18812414130E+03 -0.23058813122E+03 -0.47861926273E+03  0.57257224650E+03  0.10100000000E+03 0. -1.
<mgrwt>
<rscale>  0 0.15188331E+04</rscale>
<asrwt>0</asrwt>
<pdfrwt beam="1">  1        2 0.48184564E+00 0.15188331E+04</pdfrwt>
<pdfrwt beam="2">  1       -2 0.24426212E-01 0.15188331E+04</pdfrwt>
<totfact> 0.20926132E+01</totfact>
</mgrwt>
</event>
<event>
 8    2  0.4306980E-052  0.1264635E+04  0.7818608E-02  0.9058090E-01
          2   -1    0    0  501    0  0.00000000000E+00  0.00000000000E+00  0.32019468709E+04  0.32019468709E+04  0.25500000000E-02 0.  1.
         -2   -1    0    0    0  501 -0.00000000000E+00 -0.00000000000E+00 -0.12486939929E+03  0.12486939931E+03  0.25500000000E-02 0. -1.
    -200001    2    1    2    0    0 -0.54215776462E+02 -0.85549672809E+02  0.12383043150E+04  0.13859108582E+04  0.61407917517E+03 0.  0.
   -5000001    2    3    3    0    0  0.23141560339E+03 -0.17685349779E+03  0.64688339524E+03  0.71516397751E+03  0.90393841193E+02 0.  0.
     200001    1    1    2    0    0  0.54215776462E+02  0.85549672809E+02  0.18387731567E+04  0.19409054121E+04  0.61300000000E+03 0.  1.
         13    1    4    4    0    0  0.72482927510E+02 -0.58090297132E+02  0.12276035173E+03  0.15394275729E+03  0.10566000000E+00 0.  1.
    -200003    1    4    4    0    0  0.15893267588E+03 -0.11876320066E+03  0.52412304351E+03  0.56122122022E+03  0.30000000000E+02 0.  1.
    -200000    1    3    3    0    0 -0.28563137985E+03  0.91303824978E+02  0.59142091973E+03  0.67074688065E+03  0.10100000000E+03 0.  1.
<mgrwt>
<rscale>  0 0.12646346E+04</rscale>
<asrwt>0</asrwt>
<pdfrwt beam="1">  1        2 0.45742099E+00 0.12646346E+04</pdfrwt>
<pdfrwt beam="2">  1       -2 0.17838485E-01 0.12646346E+04</pdfrwt>
<totfact> 0.47006120E+01</totfact>
</mgrwt>
</event>
<event>
 8    2  0.4306980E-052  0.1360827E+04  0.7818608E-02  0.8982672E-01
         -2   -1    0    0    0  501 -0.00000000000E+00  0.00000000000E+00  0.56213666248E+03  0.56213666248E+03  0.25500000000E-02 0. -1.
          2   -1    0    0  501    0  0.00000000000E+00 -0.00000000000E+00 -0.82357707455E+03  0.82357707455E+03  0.25500000000E-02 0.  1.
    -200001    2    1    2    0    0 -0.13626338271E+03 -0.25620488698E+02  0.13420703516E+03  0.64306306450E+03  0.61342844548E+03 0.  0.
   -5000001    2    3    3    0    0 -0.24704514942E+03 -0.17043868482E+03 -0.10311503520E+03  0.32720285041E+03  0.79676494028E+02 0.  0.
     200001    1    1    2    0    0  0.13626338271E+03  0.25620488698E+02 -0.39564744724E+03  0.74265067253E+03  0.61300000000E+03 0.  1.
         13    1    4    4    0    0 -0.75008624683E+02 -0.93013812313E+02 -0.41164447154E+02  0.12638190508E+03  0.10566000000E+00 0.  1.
    -200003    1    4    4    0    0 -0.17203652474E+03 -0.77424872503E+02 -0.61950588042E+02  0.20082094533E+03  0.30000000000E+02 0.  1.
    -200000    1    3    3    0    0  0.11078176671E+03  0.14481819612E+03  0.23732207036E+03  0.31586021409E+03  0.10100000000E+03 0.  1.
<mgrwt>
<rscale>  0 0.13608275E+04</rscale>
<asrwt>0</asrwt>
<pdfrwt beam="1">  1        2 0.11765387E+00 0.13608275E+04</pdfrwt>
<pdfrwt beam="2">  1       -2 0.80305238E-01 0.13608275E+04</pdfrwt>
<totfact> 0.49042452E+01</totfact>
</mgrwt>
</event>
<event>
 8    2  0.4306980E-052  0.1839603E+04  0.7818608E-02  0.8685518E-01
          2   -1    0    0  501    0  0.00000000000E+00  0.00000000000E+00  0.19262046488E+04  0.19262046488E+04  0.25500000000E-02 0.  1.
         -2   -1    0    0    0  501 -0.00000000000E+00 -0.00000000000E+00 -0.43922354383E+03  0.43922354384E+03  0.25500000000E-02 0. -1.
    -200001    2    1    2    0    0  0.40184812851E+03  0.39900534165E+03  0.24499290062E+03  0.86910239897E+03  0.61207048409E+03 0.  0.
   -5000001    2    3    3    0    0 -0.88675788609E+02 -0.13228961085E+01  0.14668948139E+03  0.22045690763E+03  0.13863007837E+03 0.  0.
     200001    1    1    2    0    0 -0.40184812851E+03 -0.39900534165E+03  0.12419882044E+04  0.14963257937E+04  0.61300000000E+03 0. -1.
         13    1    4    4    0    0  0.34922383460E+02  0.53443772807E+01  0.46569252314E+02  0.58453756596E+02  0.10566000000E+00 0.  1.
    -200003    1    4    4    0    0 -0.12359817207E+03 -0.66672733892E+01  0.10012022908E+03  0.16200315103E+03  0.30000000000E+02 0.  1.
    -200000    1    3    3    0    0  0.49052391712E+03  0.40032823776E+03  0.98303419225E+02  0.64864549135E+03  0.10100000000E+03 0. -1.
<mgrwt>
<rscale>  0 0.18396026E+04</rscale>
<asrwt>0</asrwt>
<pdfrwt beam="1">  1        2 0.27517209E+00 0.18396026E+04</pdfrwt>
<pdfrwt beam="2">  1       -2 0.62746222E-01 0.18396026E+04</pdfrwt>
<totfact> 0.19465535E+01</totfact>
</mgrwt>
</event>
<event>
 8    2  0.4306980E-052  0.1562202E+04  0.7818608E-02  0.8844111E-01
         -2   -1    0    0    0  501 -0.00000000000E+00  0.00000000000E+00  0.28028523303E+03  0.28028523304E+03  0.25500000000E-02 0. -1.
          2   -1    0    0  501    0  0.00000000000E+00 -0.00000000000E+00 -0.21767791066E+04  0.21767791066E+04  0.25500000000E-02 0.  1.
    -200001    2    1    2    0    0 -0.18088870002E+03 -0.21108880315E+03 -0.15717335487E+04  0.17097240736E+04  0.61280572386E+03 0.  0.
   -5000001    2    3    3    0    0 -0.28024162345E+03 -0.76546448723E+01 -0.10967209209E+04  0.11739121134E+04  0.31093232470E+03 0.  0.
     200001    1    1    2    0    0  0.18088870002E+03  0.21108880315E+03 -0.32476032488E+03  0.74734026603E+03  0.61300000000E+03 0. -1.
         13    1    4    4    0    0 -0.32196662372E+03  0.63851475385E+02 -0.81018310865E+03  0.87414884225E+03  0.10566000000E+00 0.  1.
    -200003    1    4    4    0    0  0.41725000272E+02 -0.71506120257E+02 -0.28653781221E+03  0.29976327111E+03  0.30000000000E+02 0.  1.
    -200000    1    3    3    0    0  0.99352923423E+02 -0.20343415827E+03 -0.47501262780E+03  0.53581196022E+03  0.10100000000E+03 0. -1.
<mgrwt>
<rscale>  0 0.15622023E+04</rscale>
<asrwt>0</asrwt>
<pdfrwt beam="1">  1        2 0.31096843E+00 0.15622023E+04</pdfrwt>
<pdfrwt beam="2">  1       -2 0.40040749E-01 0.15622023E+04</pdfrwt>
<totfact> 0.36980082E+01</totfact>
</mgrwt>
</event>
<event>
 8    2  0.4306980E-052  0.1751679E+04  0.7818608E-02  0.8732427E-01
          2   -1    0    0  501    0  0.00000000000E+00  0.00000000000E+00  0.10326769937E+04  0.10326769937E+04  0.25500000000E-02 0.  1.
         -2   -1    0    0    0  501 -0.00000000000E+00 -0.00000000000E+00 -0.74282136829E+03  0.74282136829E+03  0.25500000000E-02 0. -1.
    -200001    2    1    2    0    0 -0.49865870348E+02 -0.44518438698E+03 -0.29885386724E+03  0.81475718447E+03  0.61142447796E+03 0.  0.
   -5000001    2    3    3    0    0  0.17461166434E+03 -0.16060559139E+03  0.98417730061E+02  0.26758173135E+03  0.75036951246E+02 0.  0.
     200001    1    1    2    0    0  0.49865870348E+02  0.44518438698E+03  0.58870949264E+03  0.96074117751E+03  0.61300000000E+03 0.  1.
         13    1    4    4    0    0  0.76978878058E+02 -0.11150146208E+03  0.52880149412E+02  0.14544636496E+03  0.10566000000E+00 0.  1.
    -200003    1    4    4    0    0  0.97632786281E+02 -0.49104129305E+02  0.45537580649E+02  0.12213536639E+03  0.30000000000E+02 0.  1.
    -200000    1    3    3    0    0 -0.22447753469E+03 -0.28457879560E+03 -0.39727159730E+03  0.54717545313E+03  0.10100000000E+03 0. -1.
<mgrwt>
<rscale>  0 0.17516787E+04</rscale>
<asrwt>0</asrwt>
<pdfrwt beam="1">  1        2 0.14752528E+00 0.17516787E+04</pdfrwt>
<pdfrwt beam="2">  1       -2 0.10611734E+00 0.17516787E+04</pdfrwt>
<totfact> 0.18267969E+01</totfact>
</mgrwt>
</event>
<event>
 8    2  0.4306980E-052  0.1259004E+04  0.7818608E-02  0.9062722E-01
          2   -1    0    0  501    0  0.00000000000E+00  0.00000000000E+00  0.34382090851E+04  0.34382090851E+04  0.25500000000E-02 0.  1.
         -2   -1    0    0    0  501 -0.00000000000E+00 -0.00000000000E+00 -0.11525564577E+03  0.11525564580E+03  0.25500000000E-02 0. -1.
    -200001    2    1    2    0    0  0.76557135203E+01  0.12460959151E+03  0.18597368933E+04  0.19621263568E+04  0.61297011965E+03 0.  0.
   -5000001    2    3    3    0    0 -0.18672798802E+03 -0.68688483346E+01  0.15393077834E+04  0.15523124747E+04  0.72739564352E+02 0.  0.
     200001    1    1    2    0    0 -0.76557135203E+01 -0.12460959151E+03  0.14632165461E+04  0.15913383741E+04  0.61300000000E+03 0.  1.
         13    1    4    4    0    0 -0.88629319612E+02  0.16084663707E+02  0.53640503124E+03  0.54391565652E+03  0.10566000000E+00 0.  1.
    -200003    1    4    4    0    0 -0.98098668408E+02 -0.22953512041E+02  0.10029027522E+04  0.10083968181E+04  0.30000000000E+02 0.  1.
    -200000    1    3    3    0    0  0.19438370154E+03  0.13147843984E+03  0.32042910985E+03  0.40981388215E+03  0.10100000000E+03 0. -1.
<mgrwt>
<rscale>  0 0.12590044E+04</rscale>
<asrwt>0</asrwt>
<pdfrwt beam="1">  1        2 0.49117272E+00 0.12590044E+04</pdfrwt>
<pdfrwt beam="2">  1       -2 0.16465093E-01 0.12590044E+04</pdfrwt>
<totfact> 0.39287213E+01</totfact>
</mgrwt>
</event>
<event>
 8    2  0.4306980E-052  0.2108304E+04  0.7818608E-02  0.8557594E-01
          2   -1    0    0  501    0  0.00000000000E+00  0.00000000000E+00  0.84689220327E+03  0.84689220327E+03  0.25500000000E-02 0.  1.
         -2   -1    0    0    0  501 -0.00000000000E+00 -0.00000000000E+00 -0.13121346787E+04  0.13121346787E+04  0.25500000000E-02 0. -1.
    -200001    2    1    2    0    0  0.30715622983E+03  0.54858627019E+03 -0.82951764647E+03  0.12083654041E+04  0.61380418585E+03 0.  0.
   -5000001    2    3    3    0    0  0.18999873442E+03  0.62299653552E+03 -0.76546551019E+03  0.10251539348E+04  0.20193796163E+03 0.  0.
     200001    1    1    2    0    0 -0.30715622983E+03 -0.54858627019E+03  0.36427517103E+03  0.95066147792E+03  0.61300000000E+03 0.  1.
         13    1    4    4    0    0  0.19766894080E+03  0.59888493981E+03 -0.75649499148E+03  0.98489637251E+03  0.10566000000E+00 0.  1.
    -200003    1    4    4    0    0 -0.76702063777E+01  0.24111595710E+02 -0.89705187080E+01  0.40257562264E+02  0.30000000000E+02 0.  1.
    -200000    1    3    3    0    0  0.11715749541E+03 -0.74410265321E+02 -0.64052136278E+02  0.18321146929E+03  0.10100000000E+03 0.  1.
<mgrwt>
<rscale>  0 0.21083042E+04</rscale>
<asrwt>0</asrwt>
<pdfrwt beam="1">  1        2 0.12098460E+00 0.21083042E+04</pdfrwt>
<pdfrwt beam="2">  1       -2 0.18744781E+00 0.21083042E+04</pdfrwt>
<totfact> 0.52586507E+00</totfact>
</mgrwt>
</event>
<event>
 8    2  0.4306980E-052  0.1542879E+04  0.7818608E-02  0.8856429E-01
          2   -1    0    0  501    0  0.00000000000E+00  0.00000000000E+00  0.18129202265E+04  0.18129202265E+04  0.25500000000E-02 0.  1.
         -2   -1    0    0    0  501 -0.00000000000E+00 -0.00000000000E+00 -0.32826531203E+03  0.32826531204E+03  0.25500000000E-02 0. -1.
    -200001    2    1    2    0    0  0.44087435071E+03 -0.10765406743E+03  0.57961267760E+03  0.95761887720E+03  0.61247323744E+03 0.  0.
   -5000001    2    3    3    0    0 -0.82598434192E+02  0.10263970406E+03  0.23079292906E+02  0.15875866719E+03  0.85523391338E+02 0.  0.
     200001    1    1    2    0    0 -0.44087435071E+03  0.10765406743E+03  0.90504223687E+03  0.11835666613E+04  0.61300000000E+03 0. -1.
         13    1    4    4    0    0  0.92162521807E+00  0.52963923188E+02  0.21150568423E+02  0.57038445466E+02  0.10566000000E+00 0.  1.
    -200003    1    4    4    0    0 -0.83520059410E+02  0.49675780870E+02  0.19287244827E+01  0.10172022172E+03  0.30000000000E+02 0.  1.
    -200000    1    3    3    0    0  0.52347278490E+03 -0.21029377149E+03  0.55653338469E+03  0.79886021001E+03  0.10100000000E+03 0.  1.
<mgrwt>
<rscale>  0 0.15428789E+04</rscale>
<asrwt>0</asrwt>
<pdfrwt beam="1">  1        2 0.25898860E+00 0.15428789E+04</pdfrwt>
<pdfrwt beam="2">  1       -2 0.46895045E-01 0.15428789E+04</pdfrwt>
<totfact> 0.41664207E+01</totfact>
</mgrwt>
</event>
<event>
 8    2  0.4306980E-052  0.1421051E+04  0.7818608E-02  0.8938720E-01
         -2   -1    0    0    0  501 -0.00000000000E+00  0.00000000000E+00  0.15883228927E+03  0.15883228929E+03  0.25500000000E-02 0. -1.
          2   -1    0    0  501    0  0.00000000000E+00 -0.00000000000E+00 -0.31784858396E+04  0.31784858396E+04  0.25500000000E-02 0.  1.
    -200001    2    1    2    0    0 -0.26202932261E+03 -0.20004600864E+03 -0.11803971996E+04  0.13707702156E+04  0.61399972615E+03 0.  0.
   -5000001    2    3    3    0    0 -0.28169796665E+03  0.13313108366E+03 -0.71044418165E+03  0.78557736751E+03  0.12378705606E+03 0.  0.
     200001    1    1    2    0    0  0.26202932261E+03  0.20004600864E+03 -0.18392563508E+04  0.19665479133E+04  0.61300000000E+03 0.  1.
         13    1    4    4    0    0 -0.45497263567E+02 -0.80678904229E+00 -0.36383054068E+02  0.58261391058E+02  0.10566000000E+00 0.  1.
    -200003    1    4    4    0    0 -0.23620070308E+03  0.13393787271E+03 -0.67406112758E+03  0.72731597645E+03  0.30000000000E+02 0.  1.
    -200000    1    3    3    0    0  0.19668644032E+02 -0.33317709230E+03 -0.46995301791E+03  0.58519284808E+03  0.10100000000E+03 0.  1.
<mgrwt>
<rscale>  0 0.14210506E+04</rscale>
<asrwt>0</asrwt>
<pdfrwt beam="1">  1        2 0.45406937E+00 0.14210506E+04</pdfrwt>
<pdfrwt beam="2">  1       -2 0.22690329E-01 0.14210506E+04</pdfrwt>
<totfact> 0.31287255E+01</totfact>
</mgrwt>
</event>
<event>
 8    2  0.4306980E-052  0.1390553E+04  0.7818608E-02  0.8960685E-01
         -2   -1    0    0    0  501 -0.00000000000E+00  0.00000000000E+00  0.11512077486E+03  0.11512077488E+03  0.25500000000E-02 0. -1.
          2   -1    0    0  501    0  0.00000000000E+00 -0.00000000000E+00 -0.41991514807E+04  0.41991514807E+04  0.25500000000E-02 0.  1.
    -200001    2    1    2    0    0 -0.77609565908E+02  0.31744178181E+03 -0.19712948166E+04  0.20902636074E+04  0.61351949019E+03 0.  0.
   -5000001    2    3    3    0    0 -0.15415980056E+03 -0.10116925782E+03 -0.74777632976E+03  0.79092006984E+03  0.17995736908E+03 0.  0.
     200001    1    1    2    0    0  0.77609565908E+02 -0.31744178181E+03 -0.21127358892E+04  0.22240086481E+04  0.61300000000E+03 0.  1.
         13    1    4    4    0    0 -0.13460129210E+02 -0.64397693137E+02 -0.66104879698E+02  0.93263627656E+02  0.10566000000E+00 0.  1.
    -200003    1    4    4    0    0 -0.14069967135E+03 -0.36771564680E+02 -0.68167145006E+03  0.69765644218E+03  0.30000000000E+02 0.  1.
    -200000    1    3    3    0    0  0.76550234653E+02  0.41861103963E+03 -0.12235184869E+04  0.12993435376E+04  0.10100000000E+03 0. -1.
<mgrwt>
<rscale>  0 0.13905532E+04</rscale>
<asrwt>0</asrwt>
<pdfrwt beam="1">  1        2 0.59987869E+00 0.13905532E+04</pdfrwt>
<pdfrwt beam="2">  1       -2 0.16445828E-01 0.13905532E+04</pdfrwt>
<totfact> 0.12375894E+01</totfact>
</mgrwt>
</event>
<event>
 8    2  0.4306980E-052  0.1488712E+04  0.7818608E-02  0.8891994E-01
          2   -1    0    0  501    0  0.00000000000E+00  0.00000000000E+00  0.86331669897E+03  0.86331669897E+03  0.25500000000E-02 0.  1.
         -2   -1    0    0    0  501 -0.00000000000E+00 -0.00000000000E+00 -0.64178745281E+03  0.64178745281E+03  0.25500000000E-02 0. -1.
    -200001    2    1    2    0    0  0.22370920072E+03 -0.34654248135E+03  0.19269737189E+02  0.73906537546E+03  0.61295090224E+03 0.  0.
   -5000001    2    3    3    0    0 -0.11976369883E+03 -0.19309914244E+02 -0.64684611705E+02  0.24682141318E+03  0.20498901108E+03 0.  0.
     200001    1    1    2    0    0 -0.22370920072E+03  0.34654248135E+03  0.20225950897E+03  0.76603877633E+03  0.61300000000E+03 0.  1.
         13    1    4    4    0    0 -0.74287931887E+02 -0.61723454364E+02  0.53155013962E+02  0.11024494690E+03  0.10566000000E+00 0.  1.
    -200003    1    4    4    0    0 -0.45475766945E+02  0.42413540119E+02 -0.11783962567E+03  0.13657646628E+03  0.30000000000E+02 0.  1.
    -200000    1    3    3    0    0  0.34347289955E+03 -0.32723256711E+03  0.83954348894E+02  0.49224396228E+03  0.10100000000E+03 0. -1.
<mgrwt>
<rscale>  0 0.14887120E+04</rscale>
<asrwt>0</asrwt>
<pdfrwt beam="1">  1        2 0.12333096E+00 0.14887120E+04</pdfrwt>
<pdfrwt beam="2">  1       -2 0.91683923E-01 0.14887120E+04</pdfrwt>
<totfact> 0.33742116E+01</totfact>
</mgrwt>
</event>
<event>
 8    2  0.4306980E-052  0.2329654E+04  0.7818608E-02  0.8466320E-01
          2   -1    0    0  501    0  0.00000000000E+00  0.00000000000E+00  0.26713481242E+04  0.26713481242E+04  0.25500000000E-02 0.  1.
         -2   -1    0    0    0  501 -0.00000000000E+00 -0.00000000000E+00 -0.50791674659E+03  0.50791674660E+03  0.25500000000E-02 0. -1.
    -200001    2    1    2    0    0 -0.60181065805E+03  0.16418021516E+03  0.21312223755E+04  0.23040862427E+04  0.61447000636E+03 0.  0.
   -5000001    2    3    3    0    0 -0.57642717102E+03  0.32484670889E+03  0.18093172006E+04  0.19295438749E+04  0.10824585514E+03 0.  0.
     200001    1    1    2    0    0  0.60181065805E+03 -0.16418021516E+03  0.32209002053E+02  0.87517862806E+03  0.61300000000E+03 0. -1.
         13    1    4    4    0    0 -0.13116380732E+03  0.69823707763E+02  0.54091952305E+03  0.56095742806E+03  0.10566000000E+00 0.  1.
    -200003    1    4    4    0    0 -0.44526336370E+03  0.25502300112E+03  0.12683976775E+04  0.13685864468E+04  0.30000000000E+02 0.  1.
    -200000    1    3    3    0    0 -0.25383487032E+02 -0.16066649372E+03  0.32190517498E+03  0.37454236783E+03  0.10100000000E+03 0. -1.
<mgrwt>
<rscale>  0 0.23296544E+04</rscale>
<asrwt>0</asrwt>
<pdfrwt beam="1">  1        2 0.38162115E+00 0.23296544E+04</pdfrwt>
<pdfrwt beam="2">  1       -2 0.72559536E-01 0.23296544E+04</pdfrwt>
<totfact> 0.55770829E+00</totfact>
</mgrwt>
</event>
<event>
 8    2  0.4306980E-052  0.1439909E+04  0.7818608E-02  0.8925427E-01
         -2   -1    0    0    0  501 -0.00000000000E+00  0.00000000000E+00  0.37666362935E+03  0.37666362936E+03  0.25500000000E-02 0. -1.
          2   -1    0    0  501    0  0.00000000000E+00 -0.00000000000E+00 -0.13761198758E+04  0.13761198758E+04  0.25500000000E-02 0.  1.
    -200001    2    1    2    0    0  0.34379822645E+03  0.14993929195E+03 -0.43637178312E+03  0.83981465321E+03  0.61171014939E+03 0.  0.
   -5000001    2    3    3    0    0  0.83980329404E+01  0.24265624153E+02  0.13031898104E+03  0.16185699763E+03  0.92494883053E+02 0.  0.
     200001    1    1    2    0    0 -0.34379822645E+03 -0.14993929195E+03 -0.56308446332E+03  0.91296885194E+03  0.61300000000E+03 0.  1.
         13    1    4    4    0    0  0.95063282911E+01  0.47768897403E+02  0.10594715531E+03  0.11660638370E+03  0.10566000000E+00 0.  1.
    -200003    1    4    4    0    0 -0.11082953507E+01 -0.23503273250E+02  0.24371825723E+02  0.45250613931E+02  0.30000000000E+02 0.  1.
    -200000    1    3    3    0    0  0.33540019351E+03  0.12567366779E+03 -0.56669076416E+03  0.67795765558E+03  0.10100000000E+03 0.  1.
<mgrwt>
<rscale>  0 0.14399088E+04</rscale>
<asrwt>0</asrwt>
<pdfrwt beam="1">  1        2 0.19658855E+00 0.14399088E+04</pdfrwt>
<pdfrwt beam="2">  1       -2 0.53809091E-01 0.14399088E+04</pdfrwt>
<totfact> 0.53889753E+01</totfact>
</mgrwt>
</event>
<event>
 8    2  0.4306980E-052  0.1658601E+04  0.7818608E-02  0.8785334E-01
         -2   -1    0    0    0  501 -0.00000000000E+00  0.00000000000E+00  0.89810271759E+03  0.89810271759E+03  0.25500000000E-02 0. -1.
          2   -1    0    0  501    0  0.00000000000E+00 -0.00000000000E+00 -0.76576910921E+03  0.76576910921E+03  0.25500000000E-02 0.  1.
    -200001    2    1    2    0    0 -0.15487253285E+03  0.23128912336E+03  0.55418945086E+03  0.86938361931E+03  0.60927971414E+03 0.  0.
   -5000001    2    3    3    0    0  0.11028064488E+03  0.33410061087E+03  0.23317806888E+03  0.42878661866E+03  0.75504395350E+02 0.  0.
     200001    1    1    2    0    0  0.15487253285E+03 -0.23128912336E+03 -0.42185584248E+03  0.79448820750E+03  0.61300000000E+03 0.  1.
         13    1    4    4    0    0 -0.29395539253E+01  0.79684084370E+02  0.49801251412E+02  0.94012605992E+02  0.10566000000E+00 0.  1.
    -200003    1    4    4    0    0  0.11322019880E+03  0.25441652650E+03  0.18337681746E+03  0.33477401266E+03  0.30000000000E+02 0.  1.
    -200000    1    3    3    0    0 -0.26515317773E+03 -0.10281148751E+03  0.32101138198E+03  0.44059700065E+03  0.10100000000E+03 0. -1.
<mgrwt>
<rscale>  0 0.16586010E+04</rscale>
<asrwt>0</asrwt>
<pdfrwt beam="1">  1        2 0.10939559E+00 0.16586010E+04</pdfrwt>
<pdfrwt beam="2">  1       -2 0.12830039E+00 0.16586010E+04</pdfrwt>
<totfact> 0.17275760E+01</totfact>
</mgrwt>
</event>
<event>
 8    2  0.4306980E-052  0.1610270E+04  0.7818608E-02  0.8814264E-01
          2   -1    0    0  501    0  0.00000000000E+00  0.00000000000E+00  0.15683997611E+04  0.15683997611E+04  0.25500000000E-02 0.  1.
         -2   -1    0    0    0  501 -0.00000000000E+00 -0.00000000000E+00 -0.41331437487E+03  0.41331437488E+03  0.25500000000E-02 0. -1.
    -200001    2    1    2    0    0  0.26273533929E+03  0.17969531319E+03  0.68724585811E+02  0.69436451261E+03  0.61326889990E+03 0.  0.
   -5000001    2    3    3    0    0 -0.96031559227E+02 -0.11972505007E+03  0.91624334592E+02  0.21572932805E+03  0.12078069510E+03 0.  0.
     200001    1    1    2    0    0 -0.26273533929E+03 -0.17969531319E+03  0.10863608004E+04  0.12873496233E+04  0.61300000000E+03 0.  1.
         13    1    4    4    0    0 -0.83119443940E+02 -0.14342292155E+02  0.48314035582E+02  0.97204940735E+02  0.10566000000E+00 0.  1.
    -200003    1    4    4    0    0 -0.12912115287E+02 -0.10538275792E+03  0.43310299010E+02  0.11852438731E+03  0.30000000000E+02 0.  1.
    -200000    1    3    3    0    0  0.35876689852E+03  0.29942036326E+03 -0.22899748781E+02  0.47863518457E+03  0.10100000000E+03 0. -1.
<mgrwt>
<rscale>  0 0.16102697E+04</rscale>
<asrwt>0</asrwt>
<pdfrwt beam="1">  1        2 0.22405711E+00 0.16102697E+04</pdfrwt>
<pdfrwt beam="2">  1       -2 0.59044910E-01 0.16102697E+04</pdfrwt>
<totfact> 0.34587702E+01</totfact>
</mgrwt>
</event>
<event>
 8    2  0.4306980E-052  0.1776386E+04  0.7818608E-02  0.8718959E-01
          2   -1    0    0  501    0  0.00000000000E+00  0.00000000000E+00  0.74571024675E+03  0.74571024676E+03  0.25500000000E-02 0.  1.
         -2   -1    0    0    0  501 -0.00000000000E+00 -0.00000000000E+00 -0.10579003597E+04  0.10579003597E+04  0.25500000000E-02 0. -1.
    -200001    2    1    2    0    0 -0.50371522120E+03  0.55470908010E+02 -0.55743807979E+03  0.97131161512E+03  0.61310928484E+03 0.  0.
   -5000001    2    3    3    0    0 -0.20343026325E+01 -0.63438364737E+02 -0.40429703779E+03  0.42406730227E+03  0.11112343397E+03 0.  0.
     200001    1    1    2    0    0  0.50371522120E+03 -0.55470908010E+02  0.24524796687E+03  0.83229899132E+03  0.61300000000E+03 0.  1.
         13    1    4    4    0    0  0.36096416284E+02  0.71991146762E+01 -0.18490458092E+03  0.18853247393E+03  0.10566000000E+00 0.  1.
    -200003    1    4    4    0    0 -0.38130718916E+02 -0.70637479413E+02 -0.21939245688E+03  0.23553482833E+03  0.30000000000E+02 0.  1.
    -200000    1    3    3    0    0 -0.50168091857E+03  0.11890927275E+03 -0.15314104200E+03  0.54724431285E+03  0.10100000000E+03 0.  1.
<mgrwt>
<rscale>  0 0.17763864E+04</rscale>
<asrwt>0</asrwt>
<pdfrwt beam="1">  1        2 0.10653004E+00 0.17763864E+04</pdfrwt>
<pdfrwt beam="2">  1       -2 0.15112862E+00 0.17763864E+04</pdfrwt>
<totfact> 0.11581758E+01</totfact>
</mgrwt>
</event>
<event>
 8    2  0.4306980E-052  0.2407862E+04  0.7818608E-02  0.8436566E-01
         -2   -1    0    0    0  501 -0.00000000000E+00  0.00000000000E+00  0.50162889793E+03  0.50162889794E+03  0.25500000000E-02 0. -1.
          2   -1    0    0  501    0  0.00000000000E+00 -0.00000000000E+00 -0.28894875064E+04  0.28894875064E+04  0.25500000000E-02 0.  1.
    -200001    2    1    2    0    0  0.32832488681E+03  0.38318201787E+03 -0.24685805107E+04  0.25930495427E+04  0.61269119728E+03 0.  0.
   -5000001    2    3    3    0    0  0.24183312869E+01  0.24180250949E+03 -0.79522657010E+03  0.87942249498E+03  0.28727047353E+03 0.  0.
     200001    1    1    2    0    0 -0.32832488681E+03 -0.38318201787E+03  0.80721902199E+02  0.79806686162E+03  0.61300000000E+03 0. -1.
         13    1    4    4    0    0  0.12115788973E+03  0.19391175177E+03 -0.61646474214E+03  0.65750269291E+03  0.10566000000E+00 0.  1.
    -200003    1    4    4    0    0 -0.11873955845E+03  0.47890757726E+02 -0.17876182796E+03  0.22191980207E+03  0.30000000000E+02 0.  1.
    -200000    1    3    3    0    0  0.32590655552E+03  0.14137950838E+03 -0.16733539406E+04  0.17136270477E+04  0.10100000000E+03 0. -1.
<mgrwt>
<rscale>  0 0.24078625E+04</rscale>
<asrwt>0</asrwt>
<pdfrwt beam="1">  1        2 0.41278392E+00 0.24078625E+04</pdfrwt>
<pdfrwt beam="2">  1       -2 0.71661273E-01 0.24078625E+04</pdfrwt>
<totfact> 0.43333645E+00</totfact>
</mgrwt>
</event>
<event>
 8    2  0.4306980E-052  0.1553405E+04  0.7818608E-02  0.8849696E-01
         -2   -1    0    0    0  501 -0.00000000000E+00  0.00000000000E+00  0.47624453656E+03  0.47624453657E+03  0.25500000000E-02 0. -1.
          2   -1    0    0  501    0  0.00000000000E+00 -0.00000000000E+00 -0.12667157237E+04  0.12667157237E+04  0.25500000000E-02 0.  1.
    -200001    2    1    2    0    0 -0.26228250828E+03  0.19106828976E+03 -0.78754568132E+03  0.10493632851E+04  0.61289142460E+03 0.  0.
   -5000001    2    3    3    0    0  0.11023920433E+02  0.64864755704E+02 -0.32309362708E+03  0.48674401177E+03  0.35805206015E+03 0.  0.
     200001    1    1    2    0    0  0.26228250828E+03 -0.19106828976E+03 -0.29255058552E+01  0.69359697526E+03  0.61300000000E+03 0. -1.
         13    1    4    4    0    0  0.11014820054E+03 -0.99671066623E+02 -0.22333766834E+03  0.26822876965E+03  0.10566000000E+00 0.  1.
    -200003    1    4    4    0    0 -0.99124280103E+02  0.16453582233E+03 -0.99755958738E+02  0.21851524212E+03  0.30000000000E+02 0.  1.
    -200000    1    3    3    0    0 -0.27330642871E+03  0.12620353406E+03 -0.46445205424E+03  0.56261927328E+03  0.10100000000E+03 0.  1.
<mgrwt>
<rscale>  0 0.15534046E+04</rscale>
<asrwt>0</asrwt>
<pdfrwt beam="1">  1        2 0.18095939E+00 0.15534046E+04</pdfrwt>
<pdfrwt beam="2">  1       -2 0.68034934E-01 0.15534046E+04</pdfrwt>
<totfact> 0.37367916E+01</totfact>
</mgrwt>
</event>
<event>
 8    2  0.4306980E-052  0.1857510E+04  0.7818608E-02  0.8676300E-01
          2   -1    0    0  501    0  0.00000000000E+00  0.00000000000E+00  0.34460442246E+04  0.34460442246E+04  0.25500000000E-02 0.  1.
         -2   -1    0    0    0  501 -0.00000000000E+00 -0.00000000000E+00 -0.25031199544E+03  0.25031199545E+03  0.25500000000E-02 0. -1.
    -200001    2    1    2    0    0  0.14017441562E+03 -0.51764715844E+03  0.70682835793E+03  0.10775742651E+04  0.61151657522E+03 0.  0.
   -5000001    2    3    3    0    0  0.19104792499E+03 -0.16113669011E+02  0.40219699229E+03  0.47997471362E+03  0.17847785617E+03 0.  0.
     200001    1    1    2    0    0 -0.14017441562E+03  0.51764715844E+03  0.24889038712E+04  0.26187819550E+04  0.61300000000E+03 0.  1.
         13    1    4    4    0    0 -0.30208387401E+02  0.14850639287E+01  0.17820335007E+02  0.35104523755E+02  0.10566000000E+00 0.  1.
    -200003    1    4    4    0    0  0.22125631239E+03 -0.17598732939E+02  0.38437665728E+03  0.44487018987E+03  0.30000000000E+02 0.  1.
    -200000    1    3    3    0    0 -0.50873509365E+02 -0.50153348943E+03  0.30463136564E+03  0.59759955146E+03  0.10100000000E+03 0. -1.
<mgrwt>
<rscale>  0 0.18575104E+04</rscale>
<asrwt>0</asrwt>
<pdfrwt beam="1">  1        2 0.49229198E+00 0.18575104E+04</pdfrwt>
<pdfrwt beam="2">  1       -2 0.35758860E-01 0.18575104E+04</pdfrwt>
<totfact> 0.90238775E+00</totfact>
</mgrwt>
</event>
<event>
 8    2  0.4306980E-052  0.1280859E+04  0.7818608E-02  0.9044884E-01
          2   -1    0    0  501    0  0.00000000000E+00  0.00000000000E+00  0.30873266494E+03  0.30873266495E+03  0.25500000000E-02 0.  1.
         -2   -1    0    0    0  501 -0.00000000000E+00 -0.00000000000E+00 -0.13284948427E+04  0.13284948427E+04  0.25500000000E-02 0. -1.
    -200001    2    1    2    0    0  0.64888814685E+02 -0.10315814102E+03 -0.33092651433E+03  0.70711153019E+03  0.61289656379E+03 0.  0.
   -5000001    2    3    3    0    0  0.10108303051E+03 -0.33949360820E+03 -0.19686611937E+03  0.41498542077E+03  0.89347307933E+02 0.  0.
     200001    1    1    2    0    0 -0.64888814685E+02  0.10315814102E+03 -0.68883566342E+03  0.93011597746E+03  0.61300000000E+03 0. -1.
         13    1    4    4    0    0  0.49990356948E+02 -0.53461438543E+02 -0.37702285499E+02  0.82332464404E+02  0.10566000000E+00 0.  1.
    -200003    1    4    4    0    0  0.51092673557E+02 -0.28603216965E+03 -0.15916383387E+03  0.33265295637E+03  0.30000000000E+02 0.  1.
    -200000    1    3    3    0    0 -0.36194215820E+02  0.23633546718E+03 -0.13406039496E+03  0.29212610941E+03  0.10100000000E+03 0. -1.
<mgrwt>
<rscale>  0 0.12808587E+04</rscale>
<asrwt>0</asrwt>
<pdfrwt beam="1">  1        2 0.44104667E-01 0.12808587E+04</pdfrwt>
<pdfrwt beam="2">  1       -2 0.18978497E+00 0.12808587E+04</pdfrwt>
<totfact> 0.17637433E+01</totfact>
</mgrwt>
</event>
<event>
 8    2  0.4306980E-052  0.1299527E+04  0.7818608E-02  0.9029940E-01
         -2   -1    0    0    0  501 -0.00000000000E+00  0.00000000000E+00  0.54449113947E+03  0.54449113948E+03  0.25500000000E-02 0. -1.
          2   -1    0    0  501    0  0.00000000000E+00 -0.00000000000E+00 -0.77538913609E+03  0.77538913610E+03  0.25500000000E-02 0.  1.
    -200001    2    1    2    0    0  0.11886416856E+03 -0.10328515770E+03 -0.26173845332E+03  0.68622686231E+03  0.61449473085E+03 0.  0.
   -5000001    2    3    3    0    0 -0.16050824653E+03 -0.20318091861E+03  0.16427852022E+02  0.26717364041E+03  0.63769090587E+02 0.  0.
     200001    1    1    2    0    0 -0.11886416856E+03  0.10328515770E+03  0.30840456702E+02  0.63365341326E+03  0.61300000000E+03 0.  1.
         13    1    4    4    0    0 -0.11684637996E+03 -0.16075137762E+03  0.96782080474E+01  0.19896673287E+03  0.10566000000E+00 0.  1.
    -200003    1    4    4    0    0 -0.43661866574E+02 -0.42429540993E+02  0.67496439746E+01  0.68206907534E+02  0.30000000000E+02 0. -1.
    -200000    1    3    3    0    0  0.27937241509E+03  0.99895760911E+02 -0.27816630535E+03  0.41905322191E+03  0.10100000000E+03 0. -1.
<mgrwt>
<rscale>  0 0.12995269E+04</rscale>
<asrwt>0</asrwt>
<pdfrwt beam="1">  1        2 0.11076988E+00 0.12995269E+04</pdfrwt>
<pdfrwt beam="2">  1       -2 0.77784449E-01 0.12995269E+04</pdfrwt>
<totfact> 0.57192500E+01</totfact>
</mgrwt>
</event>
<event>
 8    2  0.4306980E-052  0.1266067E+04  0.7818608E-02  0.9056916E-01
         -2   -1    0    0    0  501 -0.00000000000E+00  0.00000000000E+00  0.20213357652E+03  0.20213357653E+03  0.25500000000E-02 0. -1.
          2   -1    0    0  501    0  0.00000000000E+00 -0.00000000000E+00 -0.19825074448E+04  0.19825074448E+04  0.25500000000E-02 0.  1.
    -200001    2    1    2    0    0 -0.10843174483E+03  0.11021879959E+03 -0.97144846352E+03  0.11579789847E+04  0.61098083813E+03 0.  0.
   -5000001    2    3    3    0    0 -0.26222995774E+03 -0.31371492832E+02 -0.76665867531E+03  0.84839610632E+03  0.24952295985E+03 0.  0.
     200001    1    1    2    0    0  0.10843174483E+03 -0.11021879959E+03 -0.80892540471E+03  0.10266620366E+04  0.61300000000E+03 0.  1.
         13    1    4    4    0    0 -0.41694190624E+02 -0.10726796670E+03 -0.36773784264E+03  0.38532577682E+03  0.10566000000E+00 0.  1.
    -200003    1    4    4    0    0 -0.22053576711E+03  0.75896473868E+02 -0.39892083268E+03  0.46307032950E+03  0.30000000000E+02 0.  1.
    -200000    1    3    3    0    0  0.15379821291E+03  0.14159029242E+03 -0.20478978821E+03  0.30958287834E+03  0.10100000000E+03 0. -1.
<mgrwt>
<rscale>  0 0.12660669E+04</rscale>
<asrwt>0</asrwt>
<pdfrwt beam="1">  1        2 0.28321534E+00 0.12660669E+04</pdfrwt>
<pdfrwt beam="2">  1       -2 0.28876226E-01 0.12660669E+04</pdfrwt>
<totfact> 0.88649960E+01</totfact>
</mgrwt>
</event>
<event>
 8    2  0.4306980E-052  0.1365126E+04  0.7818608E-02  0.8979456E-01
         -2   -1    0    0    0  501 -0.00000000000E+00  0.00000000000E+00  0.35384587266E+03  0.35384587267E+03  0.25500000000E-02 0. -1.
          2   -1    0    0  501    0  0.00000000000E+00 -0.00000000000E+00 -0.13166530833E+04  0.13166530833E+04  0.25500000000E-02 0.  1.
    -200001    2    1    2    0    0  0.26933702349E+02 -0.24436686326E+03 -0.26868358164E+03  0.71236681450E+03  0.61223771787E+03 0.  0.
   -5000001    2    3    3    0    0  0.19503489153E+03 -0.36064438002E+03 -0.16165701085E+03  0.46050542889E+03  0.13352633872E+03 0.  0.
     200001    1    1    2    0    0 -0.26933702349E+02  0.24436686326E+03 -0.69412362897E+03  0.95813214145E+03  0.61300000000E+03 0.  1.
         13    1    4    4    0    0  0.93093292549E+02 -0.73799784457E+02 -0.82186811324E+02  0.14445571094E+03  0.10566000000E+00 0.  1.
    -200003    1    4    4    0    0  0.10194159898E+03 -0.28684459556E+03 -0.79470199524E+02  0.31604971795E+03  0.30000000000E+02 0.  1.
    -200000    1    3    3    0    0 -0.16810118918E+03  0.11627751676E+03 -0.10702657080E+03  0.25186138561E+03  0.10100000000E+03 0.  1.
<mgrwt>
<rscale>  0 0.13651260E+04</rscale>
<asrwt>0</asrwt>
<pdfrwt beam="1">  1        2 0.18809330E+00 0.13651260E+04</pdfrwt>
<pdfrwt beam="2">  1       -2 0.50549411E-01 0.13651260E+04</pdfrwt>
<totfact> 0.66405947E+01</totfact>
</mgrwt>
</event>
<event>
 8    2  0.4306980E-052  0.2279132E+04  0.7818608E-02  0.8486195E-01
          2   -1    0    0  501    0  0.00000000000E+00  0.00000000000E+00  0.11287288893E+04  0.11287288893E+04  0.25500000000E-02 0.  1.
         -2   -1    0    0    0  501 -0.00000000000E+00 -0.00000000000E+00 -0.11505074403E+04  0.11505074403E+04  0.25500000000E-02 0. -1.
    -200001    2    1    2    0    0 -0.11367288041E+03 -0.87977317871E+03  0.35197744737E+03  0.11380155288E+04  0.61989422542E+03 0.  0.
   -5000001    2    3    3    0    0  0.92548251351E+02 -0.22454931908E+03 -0.68724092572E+02  0.32620505396E+03  0.20663775261E+03 0.  0.
     200001    1    1    2    0    0  0.11367288041E+03  0.87977317871E+03 -0.37375599833E+03  0.11412208007E+04  0.61300000000E+03 0. -1.
         13    1    4    4    0    0  0.22269458919E+02 -0.20129951483E+03  0.23860648674E+02  0.20392833346E+03  0.10566000000E+00 0.  1.
    -200003    1    4    4    0    0  0.70278792432E+02 -0.23249804249E+02 -0.92584741246E+02  0.12227672049E+03  0.30000000000E+02 0.  1.
    -200000    1    3    3    0    0 -0.20622113176E+03 -0.65522385963E+03  0.42070153994E+03  0.81181047488E+03  0.10100000000E+03 0. -1.
<mgrwt>
<rscale>  0 0.22791323E+04</rscale>
<asrwt>0</asrwt>
<pdfrwt beam="1">  1        2 0.16124698E+00 0.22791323E+04</pdfrwt>
<pdfrwt beam="2">  1       -2 0.16435821E+00 0.22791323E+04</pdfrwt>
<totfact> 0.50184023E+00</totfact>
</mgrwt>
</event>
<event>
 8    2  0.4306980E-052  0.1607511E+04  0.7818608E-02  0.8815947E-01
          2   -1    0    0  501    0  0.00000000000E+00  0.00000000000E+00  0.11894991870E+04  0.11894991870E+04  0.25500000000E-02 0.  1.
         -2   -1    0    0    0  501 -0.00000000000E+00 -0.00000000000E+00 -0.54310503845E+03  0.54310503845E+03  0.25500000000E-02 0. -1.
    -200001    2    1    2    0    0  0.36403102633E+03 -0.22863676509E+03  0.63829901108E+03  0.98385333912E+03  0.61298320277E+03 0.  0.
   -5000001    2    3    3    0    0 -0.59202236758E+02 -0.22038957765E+03  0.98121781458E+02  0.29017700935E+03  0.14999447318E+03 0.  0.
     200001    1    1    2    0    0 -0.36403102633E+03  0.22863676509E+03  0.80951374350E+01  0.74875088630E+03  0.61300000000E+03 0. -1.
         13    1    4    4    0    0  0.99128565317E+00 -0.10561984374E+02 -0.32389810528E+02  0.34082974507E+02  0.10566000000E+00 0.  1.
    -200003    1    4    4    0    0 -0.60193522411E+02 -0.20982759328E+03  0.13051159199E+03  0.25609403484E+03  0.30000000000E+02 0.  1.
    -200000    1    3    3    0    0  0.42323326308E+03 -0.82471874369E+01  0.54017722962E+03  0.69367632977E+03  0.10100000000E+03 0.  1.
<mgrwt>
<rscale>  0 0.16075111E+04</rscale>
<asrwt>0</asrwt>
<pdfrwt beam="1">  1        2 0.16992845E+00 0.16075111E+04</pdfrwt>
<pdfrwt beam="2">  1       -2 0.77586434E-01 0.16075111E+04</pdfrwt>
<totfact> 0.30821604E+01</totfact>
</mgrwt>
</event>
<event>
 8    2  0.4306980E-052  0.1608886E+04  0.7818608E-02  0.8815108E-01
         -2   -1    0    0    0  501 -0.00000000000E+00  0.00000000000E+00  0.56950367047E+03  0.56950367048E+03  0.25500000000E-02 0. -1.
          2   -1    0    0  501    0  0.00000000000E+00 -0.00000000000E+00 -0.11363027000E+04  0.11363027000E+04  0.25500000000E-02 0.  1.
    -200001    2    1    2    0    0  0.18581938230E+03 -0.27630055750E+03  0.14129400663E+03  0.71180657735E+03  0.61305282508E+03 0.  0.
   -5000001    2    3    3    0    0  0.12606382295E+03 -0.28823898283E+02 -0.21534526447E+03  0.26213114615E+03  0.74941645853E+02 0.  0.
     200001    1    1    2    0    0 -0.18581938230E+03  0.27630055750E+03 -0.70809303620E+03  0.99399979318E+03  0.61300000000E+03 0.  1.
         13    1    4    4    0    0  0.10515834664E+03 -0.29210124984E+02 -0.13311682339E+03  0.17213834292E+03  0.10566000000E+00 0.  1.
    -200003    1    4    4    0    0  0.20905476312E+02  0.38622670127E+00 -0.82228441082E+02  0.89992803233E+02  0.30000000000E+02 0.  1.
    -200000    1    3    3    0    0  0.59755559350E+02 -0.24747665921E+03  0.35663927110E+03  0.44967543120E+03  0.10100000000E+03 0. -1.
<mgrwt>
<rscale>  0 0.16088860E+04</rscale>
<asrwt>0</asrwt>
<pdfrwt beam="1">  1        2 0.16232896E+00 0.16088860E+04</pdfrwt>
<pdfrwt beam="2">  1       -2 0.81357668E-01 0.16088860E+04</pdfrwt>
<totfact> 0.29735851E+01</totfact>
</mgrwt>
</event>
<event>
 8    2  0.4306980E-052  0.2524641E+04  0.7818608E-02  0.8394259E-01
          2   -1    0    0  501    0  0.00000000000E+00  0.00000000000E+00  0.91657058773E+03  0.91657058773E+03  0.25500000000E-02 0.  1.
         -2   -1    0    0    0  501 -0.00000000000E+00 -0.00000000000E+00 -0.17384951379E+04  0.17384951379E+04  0.25500000000E-02 0. -1.
    -200001    2    1    2    0    0  0.34030404862E+03 -0.78404965543E+03 -0.11448836279E+04  0.15547874546E+04  0.61324122498E+03 0.  0.
   -5000001    2    3    3    0    0  0.14354037200E+03 -0.69470320464E+03 -0.10883443153E+04  0.13096417294E+04  0.16568563618E+03 0.  0.
     200001    1    1    2    0    0 -0.34030404862E+03  0.78404965543E+03  0.32295907773E+03  0.11002782710E+04  0.61300000000E+03 0.  1.
         13    1    4    4    0    0  0.13349213731E+03 -0.65313320443E+03 -0.10539961818E+04  0.12471211232E+04  0.10566000000E+00 0.  1.
    -200003    1    4    4    0    0  0.10048234692E+02 -0.41570000206E+02 -0.34348133468E+02  0.62520606285E+02  0.30000000000E+02 0. -1.
    -200000    1    3    3    0    0  0.19676367662E+03 -0.89346450798E+02 -0.56539312623E+02  0.24514572519E+03  0.10100000000E+03 0. -1.
<mgrwt>
<rscale>  0 0.25246414E+04</rscale>
<asrwt>0</asrwt>
<pdfrwt beam="1">  1        2 0.13093865E+00 0.25246414E+04</pdfrwt>
<pdfrwt beam="2">  1       -2 0.24835645E+00 0.25246414E+04</pdfrwt>
<totfact> 0.18664651E+00</totfact>
</mgrwt>
</event>
<event>
 8    2  0.4306980E-052  0.1644251E+04  0.7818608E-02  0.8793815E-01
          2   -1    0    0  501    0  0.00000000000E+00  0.00000000000E+00  0.63319069362E+03  0.63319069362E+03  0.25500000000E-02 0. -1.
         -2   -1    0    0    0  501 -0.00000000000E+00 -0.00000000000E+00 -0.10674359516E+04  0.10674359517E+04  0.25500000000E-02 0.  1.
    -200001    2    1    2    0    0  0.50886291559E+03 -0.18273994265E+03 -0.12712963120E+03  0.82745749686E+03  0.61334216590E+03 0.  0.
   -5000001    2    3    3    0    0  0.90236923715E+02 -0.25945878525E+03 -0.22501897319E+03  0.37922003172E+03  0.13308918256E+03 0.  0.
     200001    1    1    2    0    0 -0.50886291559E+03  0.18273994265E+03 -0.30711562683E+03  0.87316914841E+03  0.61300000000E+03 0.  1.
         13    1    4    4    0    0  0.97289110145E+02 -0.22260271687E+03 -0.22508050312E+03  0.33117727060E+03  0.10566000000E+00 0.  1.
    -200003    1    4    4    0    0 -0.70521864298E+01 -0.36856068382E+02  0.61529931708E-01  0.48042761119E+02  0.30000000000E+02 0.  1.
    -200000    1    3    3    0    0  0.41862599187E+03  0.76718842606E+02  0.97889341985E+02  0.44823746514E+03  0.10100000000E+03 0. -1.
<mgrwt>
<rscale>  0 0.16442512E+04</rscale>
<asrwt>0</asrwt>
<pdfrwt beam="1">  1        2 0.90455814E-01 0.16442512E+04</pdfrwt>
<pdfrwt beam="2">  1       -2 0.15249085E+00 0.16442512E+04</pdfrwt>
<totfact> 0.13968986E+01</totfact>
</mgrwt>
</event>
<event>
 8    2  0.4306980E-052  0.1805016E+04  0.7818608E-02  0.8703636E-01
         -2   -1    0    0    0  501 -0.00000000000E+00  0.00000000000E+00  0.52637186660E+03  0.52637186661E+03  0.25500000000E-02 0. -1.
          2   -1    0    0  501    0  0.00000000000E+00 -0.00000000000E+00 -0.15474250766E+04  0.15474250766E+04  0.25500000000E-02 0.  1.
    -200001    2    1    2    0    0 -0.22410950275E+03  0.62271303166E+03 -0.52903510131E+03  0.10462525849E+04  0.61381572474E+03 0.  0.
   -5000001    2    3    3    0    0  0.53777393251E+02 -0.48885902575E+02  0.45702851046E+02  0.11416301338E+03  0.75250272650E+02 0.  0.
     200001    1    1    2    0    0  0.22410950275E+03 -0.62271303166E+03 -0.49201810864E+03  0.10275443583E+04  0.61300000000E+03 0. -1.
         13    1    4    4    0    0  0.33196422134E+02 -0.33826247711E+02  0.56098683760E+02  0.73439028864E+02  0.10566000000E+00 0.  1.
    -200003    1    4    4    0    0  0.20580971117E+02 -0.15059654864E+02 -0.10395832714E+02  0.40723984512E+02  0.30000000000E+02 0. -1.
    -200000    1    3    3    0    0 -0.27788689600E+03  0.67159893423E+03 -0.57473795236E+03  0.93208957151E+03  0.10100000000E+03 0.  1.
<mgrwt>
<rscale>  0 0.18050164E+04</rscale>
<asrwt>0</asrwt>
<pdfrwt beam="1">  1        2 0.22106072E+00 0.18050164E+04</pdfrwt>
<pdfrwt beam="2">  1       -2 0.75195982E-01 0.18050164E+04</pdfrwt>
<totfact> 0.20729796E+01</totfact>
</mgrwt>
</event>
<event>
 8    2  0.4306980E-052  0.1414771E+04  0.7818608E-02  0.8943195E-01
          2   -1    0    0  501    0  0.00000000000E+00  0.00000000000E+00  0.16995746223E+04  0.16995746223E+04  0.25500000000E-02 0.  1.
         -2   -1    0    0    0  501 -0.00000000000E+00 -0.00000000000E+00 -0.29442325369E+03  0.29442325370E+03  0.25500000000E-02 0. -1.
    -200001    2    1    2    0    0 -0.15453003093E+03 -0.30913533822E+03  0.59828420705E+03  0.92336824621E+03  0.61255264093E+03 0.  0.
   -5000001    2    3    3    0    0 -0.36675751307E+03 -0.10943167123E+03  0.33106067995E+03  0.51528556804E+03  0.97116830461E+02 0.  0.
     200001    1    1    2    0    0  0.15453003093E+03  0.30913533822E+03  0.80686716160E+03  0.10706296298E+04  0.61300000000E+03 0.  1.
         13    1    4    4    0    0 -0.16931800750E+03 -0.48695490320E+01  0.14623695712E+03  0.22378015766E+03  0.10566000000E+00 0.  1.
    -200003    1    4    4    0    0 -0.19743950557E+03 -0.10456212220E+03  0.18482372283E+03  0.29150541038E+03  0.30000000000E+02 0.  1.
    -200000    1    3    3    0    0  0.21222748214E+03 -0.19970366699E+03  0.26722352710E+03  0.40808267817E+03  0.10100000000E+03 0. -1.
<mgrwt>
<rscale>  0 0.14147711E+04</rscale>
<asrwt>0</asrwt>
<pdfrwt beam="1">  1        2 0.24279637E+00 0.14147711E+04</pdfrwt>
<pdfrwt beam="2">  1       -2 0.42060465E-01 0.14147711E+04</pdfrwt>
<totfact> 0.59818671E+01</totfact>
</mgrwt>
</event>
<event>
 8    2  0.4306980E-052  0.1515801E+04  0.7818608E-02  0.8874013E-01
          2   -1    0    0  501    0  0.00000000000E+00  0.00000000000E+00  0.15622851349E+04  0.15622851349E+04  0.25500000000E-02 0.  1.
         -2   -1    0    0    0  501 -0.00000000000E+00 -0.00000000000E+00 -0.36767481946E+03  0.36767481947E+03  0.25500000000E-02 0. -1.
    -200001    2    1    2    0    0 -0.36471392316E+03 -0.75444082997E+02  0.90640226154E+03  0.11569522327E+04  0.61503280693E+03 0.  0.
   -5000001    2    3    3    0    0 -0.33797136294E+03  0.14985917187E+03  0.24414465575E+03  0.44965960753E+03  0.76842281008E+02 0.  0.
     200001    1    1    2    0    0  0.36471392316E+03  0.75444082997E+02  0.28820805386E+03  0.77300772164E+03  0.61300000000E+03 0. -1.
         13    1    4    4    0    0 -0.26424021671E+03  0.99323679825E+02  0.16830005070E+03  0.32865331845E+03  0.10566000000E+00 0.  1.
    -200003    1    4    4    0    0 -0.73731146232E+02  0.50535492046E+02  0.75844605047E+02  0.12100628908E+03  0.30000000000E+02 0. -1.
    -200000    1    3    3    0    0 -0.26742560217E+02 -0.22530325487E+03  0.66225760580E+03  0.70729262517E+03  0.10100000000E+03 0. -1.
<mgrwt>
<rscale>  0 0.15158007E+04</rscale>
<asrwt>0</asrwt>
<pdfrwt beam="1">  1        2 0.22318359E+00 0.15158007E+04</pdfrwt>
<pdfrwt beam="2">  1       -2 0.52524974E-01 0.15158007E+04</pdfrwt>
<totfact> 0.44775961E+01</totfact>
</mgrwt>
</event>
<event>
 8    2  0.4306980E-052  0.2873260E+04  0.7818608E-02  0.8280878E-01
          2   -1    0    0  501    0  0.00000000000E+00  0.00000000000E+00  0.22964370163E+04  0.22964370164E+04  0.25500000000E-02 0.  1.
         -2   -1    0    0    0  501 -0.00000000000E+00 -0.00000000000E+00 -0.89874231744E+03  0.89874231745E+03  0.25500000000E-02 0. -1.
    -200001    2    1    2    0    0  0.24808122171E+03 -0.81926037993E+03 -0.38799576469E+03  0.11222125481E+04  0.61326048877E+03 0.  0.
   -5000001    2    3    3    0    0 -0.52665765728E+02 -0.66254852281E+03 -0.30510200470E+03  0.75878479457E+03  0.20229410086E+03 0.  0.
     200001    1    1    2    0    0 -0.24808122171E+03  0.81926037993E+03  0.17856904636E+04  0.20729667857E+04  0.61300000000E+03 0.  1.
         13    1    4    4    0    0 -0.78309250129E+01 -0.61270960754E+03 -0.30689889133E+03  0.68531841302E+03  0.10566000000E+00 0.  1.
    -200003    1    4    4    0    0 -0.44834840715E+02 -0.49838915273E+02  0.17968866291E+01  0.73466381557E+02  0.30000000000E+02 0.  1.
    -200000    1    3    3    0    0  0.30074698743E+03 -0.15671185712E+03 -0.82893759994E+02  0.36342775356E+03  0.10100000000E+03 0.  1.
<mgrwt>
<rscale>  0 0.28732596E+04</rscale>
<asrwt>0</asrwt>
<pdfrwt beam="1">  1        2 0.32806243E+00 0.28732596E+04</pdfrwt>
<pdfrwt beam="2">  1       -2 0.12839176E+00 0.28732596E+04</pdfrwt>
<totfact> 0.22009209E+00</totfact>
</mgrwt>
</event>
<event>
 8    2  0.4306980E-052  0.1499693E+04  0.7818608E-02  0.8884657E-01
         -2   -1    0    0    0  501 -0.00000000000E+00  0.00000000000E+00  0.75049741400E+03  0.75049741400E+03  0.25500000000E-02 0. -1.
          2   -1    0    0  501    0  0.00000000000E+00 -0.00000000000E+00 -0.74919626069E+03  0.74919626070E+03  0.25500000000E-02 0.  1.
    -200001    2    1    2    0    0 -0.13472474751E+03  0.23228857026E+03  0.33900090728E+03  0.75008120062E+03  0.61285516635E+03 0.  0.
   -5000001    2    3    3    0    0  0.21242440540E+02 -0.17542145090E+03 -0.17530566092E+01  0.18717135969E+03  0.61693743333E+02 0.  0.
     200001    1    1    2    0    0  0.13472474751E+03 -0.23228857026E+03 -0.33769975397E+03  0.74961247408E+03  0.61300000000E+03 0.  1.
         13    1    4    4    0    0  0.71920404176E+01 -0.12970955130E+03  0.67353549561E+01  0.13008331682E+03  0.10566000000E+00 0.  1.
    -200003    1    4    4    0    0  0.14050400123E+02 -0.45711899601E+02 -0.84884115653E+01  0.57088042878E+02  0.30000000000E+02 0. -1.
    -200000    1    3    3    0    0 -0.15596718805E+03  0.40771002116E+03  0.34075396389E+03  0.56290984092E+03  0.10100000000E+03 0.  1.
<mgrwt>
<rscale>  0 0.14996931E+04</rscale>
<asrwt>0</asrwt>
<pdfrwt beam="1">  1        2 0.10702804E+00 0.14996931E+04</pdfrwt>
<pdfrwt beam="2">  1       -2 0.10721392E+00 0.14996931E+04</pdfrwt>
<totfact> 0.27982449E+01</totfact>
</mgrwt>
</event>
<event>
 8    2  0.4306980E-052  0.2000247E+04  0.7818608E-02  0.8606505E-01
         -2   -1    0    0    0  501 -0.00000000000E+00  0.00000000000E+00  0.18464726666E+04  0.18464726666E+04  0.25500000000E-02 0. -1.
          2   -1    0    0  501    0  0.00000000000E+00 -0.00000000000E+00 -0.54170684038E+03  0.54170684039E+03  0.25500000000E-02 0.  1.
    -200001    2    1    2    0    0  0.70977233280E+03 -0.27128658790E+03  0.40394669821E+03  0.10597905284E+04  0.61855464741E+03 0.  0.
   -5000001    2    3    3    0    0  0.16038598399E+03 -0.15384827004E+03  0.42714263390E+03  0.48851461412E+03  0.82478751578E+02 0.  0.
     200001    1    1    2    0    0 -0.70977233280E+03  0.27128658790E+03  0.90081912805E+03  0.13283889787E+04  0.61300000000E+03 0. -1.
         13    1    4    4    0    0  0.95645360666E+02 -0.76958155585E+02  0.16113324538E+03  0.20256980688E+03  0.10566000000E+00 0.  1.
    -200003    1    4    4    0    0  0.64740623321E+02 -0.76890114451E+02  0.26600938852E+03  0.28594480724E+03  0.30000000000E+02 0. -1.
    -200000    1    3    3    0    0  0.54938634881E+03 -0.11743831786E+03 -0.23195935692E+02  0.57127591424E+03  0.10100000000E+03 0.  1.
<mgrwt>
<rscale>  0 0.20002469E+04</rscale>
<asrwt>0</asrwt>
<pdfrwt beam="1">  1        2 0.77386691E-01 0.20002469E+04</pdfrwt>
<pdfrwt beam="2">  1       -2 0.26378181E+00 0.20002469E+04</pdfrwt>
<totfact> 0.30180312E+00</totfact>
</mgrwt>
</event>
<event>
 8    2  0.4306980E-052  0.1922025E+04  0.7818608E-02  0.8643970E-01
         -2   -1    0    0    0  501 -0.00000000000E+00  0.00000000000E+00  0.34218602421E+03  0.34218602422E+03  0.25500000000E-02 0. -1.
          2   -1    0    0  501    0  0.00000000000E+00 -0.00000000000E+00 -0.26989566582E+04  0.26989566582E+04  0.25500000000E-02 0.  1.
    -200001    2    1    2    0    0 -0.40078713638E+03  0.34362691861E+03 -0.19985284838E+04  0.21563736583E+04  0.61410216221E+03 0.  0.
   -5000001    2    3    3    0    0 -0.54289096131E+03  0.30967324070E+03 -0.14878256811E+04  0.16156660645E+04  0.78252556852E+02 0.  0.
     200001    1    1    2    0    0  0.40078713638E+03 -0.34362691861E+03 -0.35824215013E+03  0.88476902410E+03  0.61300000000E+03 0. -1.
         13    1    4    4    0    0 -0.23537161147E+03  0.16570937035E+03 -0.73017939334E+03  0.78487027497E+03  0.10566000000E+00 0.  1.
    -200003    1    4    4    0    0 -0.30751934984E+03  0.14396387036E+03 -0.75764628774E+03  0.83079578948E+03  0.30000000000E+02 0.  1.
    -200000    1    3    3    0    0  0.14210382493E+03  0.33953677910E+02 -0.51070280276E+03  0.54070759385E+03  0.10100000000E+03 0.  1.
<mgrwt>
<rscale>  0 0.19220252E+04</rscale>
<asrwt>0</asrwt>
<pdfrwt beam="1">  1        2 0.38556522E+00 0.19220252E+04</pdfrwt>
<pdfrwt beam="2">  1       -2 0.48883719E-01 0.19220252E+04</pdfrwt>
<totfact> 0.12838620E+01</totfact>
</mgrwt>
</event>
<event>
 8    2  0.4306980E-052  0.2186614E+04  0.7818608E-02  0.8524020E-01
         -2   -1    0    0    0  501 -0.00000000000E+00  0.00000000000E+00  0.35502952227E+03  0.35502952228E+03  0.25500000000E-02 0. -1.
          2   -1    0    0  501    0  0.00000000000E+00 -0.00000000000E+00 -0.33668191701E+04  0.33668191701E+04  0.25500000000E-02 0.  1.
    -200001    2    1    2    0    0 -0.59094357851E+02  0.12756483252E+03 -0.30280026459E+04  0.30927248644E+04  0.61349990508E+03 0.  0.
   -5000001    2    3    3    0    0 -0.18438985220E+03  0.29225890037E+03 -0.23547624733E+04  0.23811938202E+04  0.75913246776E+02 0.  0.
     200001    1    1    2    0    0  0.59094357851E+02 -0.12756483252E+03  0.16212998091E+02  0.62912382798E+03  0.61300000000E+03 0. -1.
         13    1    4    4    0    0 -0.12926969769E+03  0.16702798387E+03 -0.15513928107E+04  0.15657038884E+04  0.10566000000E+00 0.  1.
    -200003    1    4    4    0    0 -0.55120154507E+02  0.12523091650E+03 -0.80336966269E+03  0.81548993177E+03  0.30000000000E+02 0. -1.
    -200000    1    3    3    0    0  0.12529549435E+03 -0.16469406785E+03 -0.67324017257E+03  0.71153104419E+03  0.10100000000E+03 0. -1.
<mgrwt>
<rscale>  0 0.21866140E+04</rscale>
<asrwt>0</asrwt>
<pdfrwt beam="1">  1        2 0.48097415E+00 0.21866140E+04</pdfrwt>
<pdfrwt beam="2">  1       -2 0.50718505E-01 0.21866140E+04</pdfrwt>
<totfact> 0.48942117E+00</totfact>
</mgrwt>
</event>
<event>
 8    2  0.4306980E-052  0.1429935E+04  0.7818608E-02  0.8932431E-01
         -2   -1    0    0    0  501 -0.00000000000E+00  0.00000000000E+00  0.36754620609E+03  0.36754620610E+03  0.25500000000E-02 0. -1.
          2   -1    0    0  501    0  0.00000000000E+00 -0.00000000000E+00 -0.13907867791E+04  0.13907867791E+04  0.25500000000E-02 0.  1.
    -200001    2    1    2    0    0  0.16436114115E+03  0.96178179644E+02 -0.12427368942E+03  0.65371753866E+03  0.61289301147E+03 0.  0.
   -5000001    2    3    3    0    0  0.65443231510E+02 -0.15436317099E+03 -0.75631813757E+02  0.36195949970E+03  0.31174300804E+03 0.  0.
     200001    1    1    2    0    0 -0.16436114115E+03 -0.96178179644E+02 -0.89896688360E+03  0.11046154466E+04  0.61300000000E+03 0. -1.
         13    1    4    4    0    0 -0.18967669178E+00 -0.52210363447E+02  0.11937336451E+03  0.13029186217E+03  0.10566000000E+00 0.  1.
    -200003    1    4    4    0    0  0.65632908201E+02 -0.10215280754E+03 -0.19500517827E+03  0.23166763753E+03  0.30000000000E+02 0.  1.
    -200000    1    3    3    0    0  0.98917909644E+02  0.25054135064E+03 -0.48641875664E+02  0.29175803895E+03  0.10100000000E+03 0. -1.
<mgrwt>
<rscale>  0 0.14299348E+04</rscale>
<asrwt>0</asrwt>
<pdfrwt beam="1">  1        2 0.19868382E+00 0.14299348E+04</pdfrwt>
<pdfrwt beam="2">  1       -2 0.52506602E-01 0.14299348E+04</pdfrwt>
<totfact> 0.55692959E+01</totfact>
</mgrwt>
</event>
<event>
 8    2  0.4306980E-052  0.1337231E+04  0.7818608E-02  0.9000551E-01
         -2   -1    0    0    0  501 -0.00000000000E+00  0.00000000000E+00  0.15736149957E+03  0.15736149959E+03  0.25500000000E-02 0. -1.
          2   -1    0    0  501    0  0.00000000000E+00 -0.00000000000E+00 -0.28408879336E+04  0.28408879336E+04  0.25500000000E-02 0.  1.
    -200001    2    1    2    0    0  0.79509245161E+02  0.25271982150E+03 -0.13877046392E+04  0.15404729921E+04  0.61412038354E+03 0.  0.
   -5000001    2    3    3    0    0  0.16909570784E+03  0.22688817228E+03 -0.13667692637E+04  0.14014323565E+04  0.12602709466E+03 0.  0.
     200001    1    1    2    0    0 -0.79509245161E+02 -0.25271982150E+03 -0.12958217949E+04  0.14577764411E+04  0.61300000000E+03 0. -1.
         13    1    4    4    0    0 -0.10849623598E+02  0.91484290063E+01 -0.20304624887E+03  0.20354163807E+03  0.10566000000E+00 0.  1.
    -200003    1    4    4    0    0  0.17994533144E+03  0.21773974327E+03 -0.11637230148E+04  0.11978907184E+04  0.30000000000E+02 0.  1.
    -200000    1    3    3    0    0 -0.89586462677E+02  0.25831649221E+02 -0.20935375512E+02  0.13904063559E+03  0.10100000000E+03 0. -1.
<mgrwt>
<rscale>  0 0.13372305E+04</rscale>
<asrwt>0</asrwt>
<pdfrwt beam="1">  1        2 0.40584110E+00 0.13372305E+04</pdfrwt>
<pdfrwt beam="2">  1       -2 0.22480216E-01 0.13372305E+04</pdfrwt>
<totfact> 0.49416926E+01</totfact>
</mgrwt>
</event>
<event>
 8    2  0.4306980E-052  0.1918574E+04  0.7818608E-02  0.8645666E-01
         -2   -1    0    0    0  501 -0.00000000000E+00  0.00000000000E+00  0.61628892432E+03  0.61628892433E+03  0.25500000000E-02 0. -1.
          2   -1    0    0  501    0  0.00000000000E+00 -0.00000000000E+00 -0.14931817335E+04  0.14931817335E+04  0.25500000000E-02 0.  1.
    -200001    2    1    2    0    0 -0.52425844695E+03  0.29730199088E+03 -0.90770367437E+03  0.12492650415E+04  0.61114792839E+03 0.  0.
   -5000001    2    3    3    0    0  0.10315844114E+03  0.15793238529E+03 -0.18775200242E+03  0.27890054893E+03  0.83369055898E+02 0.  0.
     200001    1    1    2    0    0  0.52425844695E+03 -0.29730199088E+03  0.30810865211E+02  0.86020561634E+03  0.61300000000E+03 0. -1.
         13    1    4    4    0    0  0.34260486810E+02  0.10269090943E+03 -0.70963737552E+02  0.12944136529E+03  0.10566000000E+00 0.  1.
    -200003    1    4    4    0    0  0.68897954329E+02  0.55241475862E+02 -0.11678826487E+03  0.14945918365E+03  0.30000000000E+02 0.  1.
    -200000    1    3    3    0    0 -0.62741688809E+03  0.13936960559E+03 -0.71995167195E+03  0.97036449253E+03  0.10100000000E+03 0.  1.
<mgrwt>
<rscale>  0 0.19185738E+04</rscale>
<asrwt>0</asrwt>
<pdfrwt beam="1">  1        2 0.21331168E+00 0.19185738E+04</pdfrwt>
<pdfrwt beam="2">  1       -2 0.88041275E-01 0.19185738E+04</pdfrwt>
<totfact> 0.15383466E+01</totfact>
</mgrwt>
</event>
<event>
 8    2  0.4306980E-052  0.1273951E+04  0.7818608E-02  0.9050481E-01
         -2   -1    0    0    0  501 -0.00000000000E+00  0.00000000000E+00  0.83230732252E+03  0.83230732252E+03  0.25500000000E-02 0. -1.
          2   -1    0    0  501    0  0.00000000000E+00 -0.00000000000E+00 -0.48748527992E+03  0.48748527993E+03  0.25500000000E-02 0.  1.
    -200001    2    1    2    0    0  0.99044567770E+02 -0.43786217591E+02  0.33631795034E+02  0.62385048601E+03  0.61345845173E+03 0.  0.
   -5000001    2    3    3    0    0 -0.18912717627E+03  0.11459049309E+03 -0.81993656102E+02  0.26095052528E+03  0.11167876744E+03 0.  0.
     200001    1    1    2    0    0 -0.99044567770E+02  0.43786217591E+02  0.31119024756E+03  0.69594211644E+03  0.61300000000E+03 0. -1.
         13    1    4    4    0    0 -0.57278980109E+02  0.42452890764E+02  0.23301558179E+02  0.75007354800E+02  0.10566000000E+00 0.  1.
    -200003    1    4    4    0    0 -0.13184819616E+03  0.72137602322E+02 -0.10529521428E+03  0.18594317048E+03  0.30000000000E+02 0.  1.
    -200000    1    3    3    0    0  0.28817174404E+03 -0.15837671068E+03  0.11562545114E+03  0.36289996073E+03  0.10100000000E+03 0. -1.
<mgrwt>
<rscale>  0 0.12739507E+04</rscale>
<asrwt>0</asrwt>
<pdfrwt beam="1">  1        2 0.69640755E-01 0.12739507E+04</pdfrwt>
<pdfrwt beam="2">  1       -2 0.11890104E+00 0.12739507E+04</pdfrwt>
<totfact> 0.36913569E+01</totfact>
</mgrwt>
</event>
<event>
 8    2  0.4306980E-052  0.1445673E+04  0.7818608E-02  0.8921406E-01
         -2   -1    0    0    0  501 -0.00000000000E+00  0.00000000000E+00  0.14402261487E+04  0.14402261487E+04  0.25500000000E-02 0. -1.
          2   -1    0    0  501    0  0.00000000000E+00 -0.00000000000E+00 -0.36278507497E+03  0.36278507498E+03  0.25500000000E-02 0.  1.
    -200001    2    1    2    0    0  0.65527700727E+02 -0.57831563485E+02  0.10036456124E+04  0.11794303233E+04  0.61328052539E+03 0.  0.
   -5000001    2    3    3    0    0  0.27574504868E+03  0.12508827541E+03  0.59825548200E+03  0.67724195354E+03  0.95208368235E+02 0.  0.
     200001    1    1    2    0    0 -0.65527700727E+02  0.57831563485E+02  0.73795461364E+02  0.62358090046E+03  0.61300000000E+03 0.  1.
         13    1    4    4    0    0  0.17106292773E+03  0.11334187450E+03  0.43035988450E+03  0.47677934845E+03  0.10566000000E+00 0.  1.
    -200003    1    4    4    0    0  0.10468212095E+03  0.11746400914E+02  0.16789559749E+03  0.20046260509E+03  0.30000000000E+02 0. -1.
    -200000    1    3    3    0    0 -0.21021734795E+03 -0.18291983890E+03  0.40539013040E+03  0.50218836971E+03  0.10100000000E+03 0.  1.
<mgrwt>
<rscale>  0 0.14456729E+04</rscale>
<asrwt>0</asrwt>
<pdfrwt beam="1">  1        2 0.51826440E-01 0.14456729E+04</pdfrwt>
<pdfrwt beam="2">  1       -2 0.20574659E+00 0.14456729E+04</pdfrwt>
<totfact> 0.11428853E+01</totfact>
</mgrwt>
</event>
<event>
 8    2  0.4306980E-052  0.1450597E+04  0.7818608E-02  0.8917987E-01
         -2   -1    0    0    0  501 -0.00000000000E+00  0.00000000000E+00  0.10974668334E+04  0.10974668334E+04  0.25500000000E-02 0. -1.
          2   -1    0    0  501    0  0.00000000000E+00 -0.00000000000E+00 -0.47933805813E+03  0.47933805814E+03  0.25500000000E-02 0.  1.
    -200001    2    1    2    0    0  0.31636297401E+02 -0.34745283845E+03  0.12472231242E+03  0.71602427613E+03  0.61270774317E+03 0.  0.
   -5000001    2    3    3    0    0 -0.20485661244E+03  0.26480703319E+02  0.13575556218E+03  0.26206621346E+03  0.87072775695E+02 0.  0.
     200001    1    1    2    0    0 -0.31636297401E+02  0.34745283845E+03  0.49340646282E+03  0.86078061538E+03  0.61300000000E+03 0. -1.
         13    1    4    4    0    0 -0.17978903600E+03  0.35241162436E+02  0.10208114812E+03  0.20972984757E+03  0.10566000000E+00 0.  1.
    -200003    1    4    4    0    0 -0.25067576435E+02 -0.87604591169E+01  0.33674414061E+02  0.52336365891E+02  0.30000000000E+02 0. -1.
    -200000    1    3    3    0    0  0.23649290984E+03 -0.37393354177E+03 -0.11033249757E+02  0.45395806267E+03  0.10100000000E+03 0.  1.
<mgrwt>
<rscale>  0 0.14505966E+04</rscale>
<asrwt>0</asrwt>
<pdfrwt beam="1">  1        2 0.68476866E-01 0.14505966E+04</pdfrwt>
<pdfrwt beam="2">  1       -2 0.15678097E+00 0.14505966E+04</pdfrwt>
<totfact> 0.18207506E+01</totfact>
</mgrwt>
</event>
<event>
 8    2  0.4306980E-052  0.1408549E+04  0.7818608E-02  0.8947653E-01
         -2   -1    0    0    0  501 -0.00000000000E+00  0.00000000000E+00  0.22614578395E+03  0.22614578397E+03  0.25500000000E-02 0. -1.
          2   -1    0    0  501    0  0.00000000000E+00 -0.00000000000E+00 -0.21932874616E+04  0.21932874616E+04  0.25500000000E-02 0.  1.
    -200001    2    1    2    0    0 -0.26835806748E+03  0.13996650307E+03 -0.69319082487E+03  0.97363711552E+03  0.61306528092E+03 0.  0.
   -5000001    2    3    3    0    0  0.14077395344E+03 -0.55861286724E+02 -0.75047395155E+02  0.20030676341E+03  0.10748441108E+03 0.  0.
     200001    1    1    2    0    0  0.26835806748E+03 -0.13996650307E+03 -0.12739508527E+04  0.14457961300E+04  0.61300000000E+03 0. -1.
         13    1    4    4    0    0  0.11877007026E+03 -0.62386157499E+02 -0.87920952820E+02  0.16040095806E+03  0.10566000000E+00 0.  1.
    -200003    1    4    4    0    0  0.22003883181E+02  0.65248707751E+01  0.12873557664E+02  0.39905805350E+02  0.30000000000E+02 0.  1.
    -200000    1    3    3    0    0 -0.40913202092E+03  0.19582778979E+03 -0.61814342972E+03  0.77333035212E+03  0.10100000000E+03 0.  1.
<mgrwt>
<rscale>  0 0.14085492E+04</rscale>
<asrwt>0</asrwt>
<pdfrwt beam="1">  1        2 0.31332677E+00 0.14085492E+04</pdfrwt>
<pdfrwt beam="2">  1       -2 0.32306542E-01 0.14085492E+04</pdfrwt>
<totfact> 0.55418806E+01</totfact>
</mgrwt>
</event>
<event>
 8    2  0.4306980E-052  0.1788886E+04  0.7818608E-02  0.8712232E-01
          2   -1    0    0  501    0  0.00000000000E+00  0.00000000000E+00  0.92306187535E+03  0.92306187535E+03  0.25500000000E-02 0.  1.
         -2   -1    0    0    0  501 -0.00000000000E+00 -0.00000000000E+00 -0.86671153700E+03  0.86671153701E+03  0.25500000000E-02 0. -1.
    -200001    2    1    2    0    0 -0.46554211312E+03  0.37475625588E+02  0.48225694867E+03  0.90926258204E+03  0.61323143834E+03 0.  0.
   -5000001    2    3    3    0    0 -0.70883109899E+02  0.94559441508E+02  0.55621391060E+02  0.31661328450E+03  0.28841693697E+03 0.  0.
     200001    1    1    2    0    0  0.46554211312E+03 -0.37475625588E+02 -0.42590661032E+03  0.88051083032E+03  0.61300000000E+03 0. -1.
         13    1    4    4    0    0 -0.27244722856E+02 -0.30062428271E+02 -0.10143326951E+03  0.10924625323E+03  0.10566000000E+00 0.  1.
    -200003    1    4    4    0    0 -0.43638387043E+02  0.12462186978E+03  0.15705466057E+03  0.20736703127E+03  0.30000000000E+02 0.  1.
    -200000    1    3    3    0    0 -0.39465900322E+03 -0.57083815920E+02  0.42663555761E+03  0.59264929754E+03  0.10100000000E+03 0.  1.
<mgrwt>
<rscale>  0 0.17888861E+04</rscale>
<asrwt>0</asrwt>
<pdfrwt beam="1">  1        2 0.13186598E+00 0.17888861E+04</pdfrwt>
<pdfrwt beam="2">  1       -2 0.12381593E+00 0.17888861E+04</pdfrwt>
<totfact> 0.14621443E+01</totfact>
</mgrwt>
</event>
<event>
 8    2  0.4306980E-052  0.1501950E+04  0.7818608E-02  0.8883158E-01
          2   -1    0    0  501    0  0.00000000000E+00  0.00000000000E+00  0.12779042080E+04  0.12779042080E+04  0.25500000000E-02 0.  1.
         -2   -1    0    0    0  501 -0.00000000000E+00 -0.00000000000E+00 -0.44131877464E+03  0.44131877465E+03  0.25500000000E-02 0. -1.
    -200001    2    1    2    0    0 -0.41985811792E+03  0.98132277317E+02  0.47405929973E+03  0.88669371553E+03  0.61284805822E+03 0.  0.
   -5000001    2    3    3    0    0  0.41120003494E+02 -0.15862180027E+03  0.30838470160E+02  0.19022462896E+03  0.91556911324E+02 0.  0.
     200001    1    1    2    0    0  0.41985811792E+03 -0.98132277317E+02  0.36252613361E+03  0.83252926710E+03  0.61300000000E+03 0.  1.
         13    1    4    4    0    0  0.31766186126E+02 -0.17084328669E+02  0.27233991412E+02  0.45195866175E+02  0.10566000000E+00 0.  1.
    -200003    1    4    4    0    0  0.93538173678E+01 -0.14153747160E+03  0.36044787488E+01  0.14502876278E+03  0.30000000000E+02 0.  1.
    -200000    1    3    3    0    0 -0.46097812141E+03  0.25675407759E+03  0.44322082957E+03  0.69646908657E+03  0.10100000000E+03 0. -1.
<mgrwt>
<rscale>  0 0.15019496E+04</rscale>
<asrwt>0</asrwt>
<pdfrwt beam="1">  1        2 0.18255775E+00 0.15019496E+04</pdfrwt>
<pdfrwt beam="2">  1       -2 0.63045537E-01 0.15019496E+04</pdfrwt>
<totfact> 0.43560733E+01</totfact>
</mgrwt>
</event>
<event>
 8    2  0.4306980E-052  0.1790607E+04  0.7818608E-02  0.8711311E-01
         -2   -1    0    0    0  501 -0.00000000000E+00  0.00000000000E+00  0.24959810285E+03  0.24959810287E+03  0.25500000000E-02 0. -1.
          2   -1    0    0  501    0  0.00000000000E+00 -0.00000000000E+00 -0.32114349405E+04  0.32114349405E+04  0.25500000000E-02 0.  1.
    -200001    2    1    2    0    0 -0.21707951438E+03 -0.44780399879E+03 -0.22960455161E+04  0.24282218212E+04  0.61382755213E+03 0.  0.
   -5000001    2    3    3    0    0  0.17858098557E+03 -0.81253827777E+02 -0.98320450373E+03  0.10053167706E+04  0.74009189671E+02 0.  0.
     200001    1    1    2    0    0  0.21707951438E+03  0.44780399879E+03 -0.66579132152E+03  0.10328112222E+04  0.61300000000E+03 0. -1.
         13    1    4    4    0    0  0.10071286784E+03 -0.63776412573E+02 -0.67926316568E+03  0.68964409079E+03  0.10566000000E+00 0.  1.
    -200003    1    4    4    0    0  0.77868117732E+02 -0.17477415204E+02 -0.30394133805E+03  0.31567267981E+03  0.30000000000E+02 0.  1.
    -200000    1    3    3    0    0 -0.39566049995E+03 -0.36655017101E+03 -0.13128410124E+04  0.14229050506E+04  0.10100000000E+03 0.  1.
<mgrwt>
<rscale>  0 0.17906067E+04</rscale>
<asrwt>0</asrwt>
<pdfrwt beam="1">  1        2 0.45877640E+00 0.17906067E+04</pdfrwt>
<pdfrwt beam="2">  1       -2 0.35656874E-01 0.17906067E+04</pdfrwt>
<totfact> 0.12553723E+01</totfact>
</mgrwt>
</event>
<event>
 8    2  0.4306980E-052  0.2210037E+04  0.7818608E-02  0.8514262E-01
         -2   -1    0    0    0  501 -0.00000000000E+00  0.00000000000E+00  0.35766796668E+03  0.35766796669E+03  0.25500000000E-02 0. -1.
          2   -1    0    0  501    0  0.00000000000E+00 -0.00000000000E+00 -0.34139646310E+04  0.34139646310E+04  0.25500000000E-02 0.  1.
    -200001    2    1    2    0    0 -0.22031042378E+03 -0.49466100822E+03 -0.26090436984E+03  0.85903697249E+03  0.61371592290E+03 0.  0.
   -5000001    2    3    3    0    0  0.11662024293E+02  0.82313304763E+02 -0.15646127984E+03  0.22042916362E+03  0.13113886201E+03 0.  0.
     200001    1    1    2    0    0  0.22031042378E+03  0.49466100822E+03 -0.27953922945E+04  0.29125956252E+04  0.61300000000E+03 0.  1.
         13    1    4    4    0    0  0.37791649418E+02  0.43043931873E+02 -0.32880274519E+01  0.57374307188E+02  0.10566000000E+00 0.  1.
    -200003    1    4    4    0    0 -0.26129625125E+02  0.39269372890E+02 -0.15317325239E+03  0.16305485643E+03  0.30000000000E+02 0.  1.
    -200000    1    3    3    0    0 -0.23197244808E+03 -0.57697431298E+03 -0.10444308999E+03  0.63860780887E+03  0.10100000000E+03 0. -1.
<mgrwt>
<rscale>  0 0.22100369E+04</rscale>
<asrwt>0</asrwt>
<pdfrwt beam="1">  1        2 0.48770921E+00 0.22100369E+04</pdfrwt>
<pdfrwt beam="2">  1       -2 0.51095426E-01 0.22100369E+04</pdfrwt>
<totfact> 0.45082663E+00</totfact>
</mgrwt>
</event>
<event>
 8    2  0.4306980E-052  0.2171535E+04  0.7818608E-02  0.8530370E-01
         -2   -1    0    0    0  501 -0.00000000000E+00  0.00000000000E+00  0.85353214337E+03  0.85353214337E+03  0.25500000000E-02 0. -1.
          2   -1    0    0  501    0  0.00000000000E+00 -0.00000000000E+00 -0.13811917335E+04  0.13811917335E+04  0.25500000000E-02 0.  1.
    -200001    2    1    2    0    0  0.39132662945E+03  0.79798876657E+03 -0.14342660134E+03  0.10887192555E+04  0.61222203887E+03 0.  0.
   -5000001    2    3    3    0    0  0.44891602409E+03  0.81369220520E+03 -0.20634795799E+03  0.95559062042E+03  0.83386764980E+02 0.  0.
     200001    1    1    2    0    0 -0.39132662945E+03 -0.79798876657E+03 -0.38423298879E+03  0.11460046214E+04  0.61300000000E+03 0.  1.
         13    1    4    4    0    0  0.28211087860E+03  0.52535145645E+03 -0.10002874780E+03  0.60463746342E+03  0.10566000000E+00 0.  1.
    -200003    1    4    4    0    0  0.16680514549E+03  0.28834074876E+03 -0.10631921019E+03  0.35095315700E+03  0.30000000000E+02 0.  1.
    -200000    1    3    3    0    0 -0.57589394642E+02 -0.15703438633E+02  0.62921356651E+02  0.13312863510E+03  0.10100000000E+03 0. -1.
<mgrwt>
<rscale>  0 0.21715354E+04</rscale>
<asrwt>0</asrwt>
<pdfrwt beam="1">  1        2 0.19731310E+00 0.21715354E+04</pdfrwt>
<pdfrwt beam="2">  1       -2 0.12193316E+00 0.21715354E+04</pdfrwt>
<totfact> 0.79580030E+00</totfact>
</mgrwt>
</event>
<event>
 8    2  0.4306980E-052  0.1923984E+04  0.7818608E-02  0.8643009E-01
         -2   -1    0    0    0  501 -0.00000000000E+00  0.00000000000E+00  0.32135260284E+03  0.32135260285E+03  0.25500000000E-02 0. -1.
          2   -1    0    0  501    0  0.00000000000E+00 -0.00000000000E+00 -0.28797921264E+04  0.28797921264E+04  0.25500000000E-02 0.  1.
    -200001    2    1    2    0    0  0.89944563527E+02  0.69484876329E+03 -0.16865073318E+04  0.19256293137E+04  0.61060334512E+03 0.  0.
   -5000001    2    3    3    0    0 -0.14006466141E+03  0.51826097886E+03 -0.14144131924E+04  0.15153565875E+04  0.86766103784E+02 0.  0.
     200001    1    1    2    0    0 -0.89944563527E+02 -0.69484876329E+03 -0.87193219169E+03  0.12755154155E+04  0.61300000000E+03 0. -1.
         13    1    4    4    0    0 -0.10829427121E+03  0.43936850548E+03 -0.12136349835E+04  0.12952537269E+04  0.10566000000E+00 0.  1.
    -200003    1    4    4    0    0 -0.31770390193E+02  0.78892473380E+02 -0.20077820895E+03  0.22010286059E+03  0.30000000000E+02 0.  1.
    -200000    1    3    3    0    0  0.23000922493E+03  0.17658778443E+03 -0.27209413941E+03  0.41027272620E+03  0.10100000000E+03 0. -1.
<mgrwt>
<rscale>  0 0.19239841E+04</rscale>
<asrwt>0</asrwt>
<pdfrwt beam="1">  1        2 0.41139886E+00 0.19239841E+04</pdfrwt>
<pdfrwt beam="2">  1       -2 0.45907516E-01 0.19239841E+04</pdfrwt>
<totfact> 0.11620815E+01</totfact>
</mgrwt>
</event>
<event>
 8    2  0.4306980E-052  0.1280179E+04  0.7818608E-02  0.9045433E-01
          2   -1    0    0  501    0  0.00000000000E+00  0.00000000000E+00  0.35755956254E+03  0.35755956255E+03  0.25500000000E-02 0.  1.
         -2   -1    0    0    0  501 -0.00000000000E+00 -0.00000000000E+00 -0.11458638028E+04  0.11458638028E+04  0.25500000000E-02 0. -1.
    -200001    2    1    2    0    0  0.28051262230E+02  0.25804456290E+02 -0.18584068831E+03  0.64308385405E+03  0.61446508333E+03 0.  0.
   -5000001    2    3    3    0    0 -0.19161995801E+02 -0.23671529075E+03 -0.46822821960E+02  0.32579427577E+03  0.21805554913E+03 0.  0.
     200001    1    1    2    0    0 -0.28051262230E+02 -0.25804456290E+02 -0.60246355195E+03  0.86033951130E+03  0.61300000000E+03 0. -1.
         13    1    4    4    0    0 -0.10567359165E+03 -0.56407745263E+02 -0.25279608179E+02  0.12242471748E+03  0.10566000000E+00 0.  1.
    -200003    1    4    4    0    0  0.86511595847E+02 -0.18030754549E+03 -0.21543213781E+02  0.20336955828E+03  0.30000000000E+02 0.  1.
    -200000    1    3    3    0    0  0.47213258031E+02  0.26251974704E+03 -0.13901786635E+03  0.31728957828E+03  0.10100000000E+03 0.  1.
<mgrwt>
<rscale>  0 0.12801790E+04</rscale>
<asrwt>0</asrwt>
<pdfrwt beam="1">  1        2 0.51079938E-01 0.12801790E+04</pdfrwt>
<pdfrwt beam="2">  1       -2 0.16369483E+00 0.12801790E+04</pdfrwt>
<totfact> 0.22779393E+01</totfact>
</mgrwt>
</event>
<event>
 8    2  0.4306980E-052  0.1436820E+04  0.7818608E-02  0.8927589E-01
          2   -1    0    0  501    0  0.00000000000E+00  0.00000000000E+00  0.15138221583E+04  0.15138221584E+04  0.25500000000E-02 0. -1.
         -2   -1    0    0    0  501 -0.00000000000E+00 -0.00000000000E+00 -0.34093353105E+03  0.34093353105E+03  0.25500000000E-02 0.  1.
    -200001    2    1    2    0    0 -0.15424087398E+03  0.18800016138E+03  0.21828184064E+03  0.69450682600E+03  0.61282824798E+03 0.  0.
   -5000001    2    3    3    0    0 -0.40294330093E+02 -0.20752059211E+03  0.12681568205E+03  0.26093152750E+03  0.85525526281E+02 0.  0.
     200001    1    1    2    0    0  0.15424087398E+03 -0.18800016138E+03  0.95460678666E+03  0.11602488634E+04  0.61300000000E+03 0. -1.
         13    1    4    4    0    0 -0.36226394972E+02 -0.18597050017E+03  0.11629250468E+03  0.22230910111E+03  0.10566000000E+00 0.  1.
    -200003    1    4    4    0    0 -0.40679351210E+01 -0.21550091933E+02  0.10523177363E+02  0.38622426391E+02  0.30000000000E+02 0.  1.
    -200000    1    3    3    0    0 -0.11394654388E+03  0.39552075349E+03  0.91466158596E+02  0.43357529850E+03  0.10100000000E+03 0.  1.
<mgrwt>
<rscale>  0 0.14368197E+04</rscale>
<asrwt>0</asrwt>
<pdfrwt beam="1">  1        2 0.21626032E+00 0.14368197E+04</pdfrwt>
<pdfrwt beam="2">  1       -2 0.48704788E-01 0.14368197E+04</pdfrwt>
<totfact> 0.55749337E+01</totfact>
</mgrwt>
</event>
<event>
 8    2  0.4306980E-052  0.1361738E+04  0.7818608E-02  0.8981989E-01
          2   -1    0    0  501    0  0.00000000000E+00  0.00000000000E+00  0.22500321850E+04  0.22500321850E+04  0.25500000000E-02 0.  1.
         -2   -1    0    0    0  501 -0.00000000000E+00 -0.00000000000E+00 -0.20603390909E+03  0.20603390911E+03  0.25500000000E-02 0. -1.
    -200001    2    1    2    0    0  0.24286674248E+03  0.12184423555E+03  0.12401505218E+04  0.14092755305E+04  0.61176297021E+03 0.  0.
   -5000001    2    3    3    0    0  0.38245669539E+03  0.13610171740E+03  0.50168543934E+03  0.65084273269E+03  0.84327820494E+02 0.  0.
     200001    1    1    2    0    0 -0.24286674248E+03 -0.12184423555E+03  0.80384775409E+03  0.10467905636E+04  0.61300000000E+03 0. -1.
         13    1    4    4    0    0  0.11650711024E+03  0.19392755911E+02  0.10324550879E+03  0.15687457400E+03  0.10566000000E+00 0.  1.
    -200003    1    4    4    0    0  0.26594958515E+03  0.11670896149E+03  0.39843993056E+03  0.49396815869E+03  0.30000000000E+02 0. -1.
    -200000    1    3    3    0    0 -0.13958995291E+03 -0.14257481851E+02  0.73846508250E+03  0.75843279783E+03  0.10100000000E+03 0.  1.
<mgrwt>
<rscale>  0 0.13617385E+04</rscale>
<asrwt>0</asrwt>
<pdfrwt beam="1">  1        2 0.32143319E+00 0.13617385E+04</pdfrwt>
<pdfrwt beam="2">  1       -2 0.29433413E-01 0.13617385E+04</pdfrwt>
<totfact> 0.61898536E+01</totfact>
</mgrwt>
</event>
<event>
 8    2  0.4306980E-052  0.2846830E+04  0.7818608E-02  0.8288875E-01
          2   -1    0    0  501    0  0.00000000000E+00  0.00000000000E+00  0.23615761755E+04  0.23615761755E+04  0.25500000000E-02 0.  1.
         -2   -1    0    0    0  501 -0.00000000000E+00 -0.00000000000E+00 -0.85794839564E+03  0.85794839565E+03  0.25500000000E-02 0. -1.
    -200001    2    1    2    0    0  0.12300753514E+03  0.73740233512E+03 -0.42960521606E+03  0.10580315977E+04  0.61316976657E+03 0.  0.
   -5000001    2    3    3    0    0 -0.14508836396E+03  0.54566024978E+03 -0.95697285468E+02  0.57809832685E+03  0.79018754233E+02 0.  0.
     200001    1    1    2    0    0 -0.12300753514E+03 -0.73740233512E+03  0.19332329959E+04  0.21614929734E+04  0.61300000000E+03 0.  1.
         13    1    4    4    0    0 -0.78190677566E+02  0.32077360480E+03 -0.86845977660E+02  0.34139672318E+03  0.10566000000E+00 0.  1.
    -200003    1    4    4    0    0 -0.66897686393E+02  0.22488664498E+03 -0.88513078082E+01  0.23670160368E+03  0.30000000000E+02 0.  1.
    -200000    1    3    3    0    0  0.26809589910E+03  0.19174208534E+03 -0.33390793059E+03  0.47993327090E+03  0.10100000000E+03 0.  1.
<mgrwt>
<rscale>  0 0.28468302E+04</rscale>
<asrwt>0</asrwt>
<pdfrwt beam="1">  1        2 0.33736803E+00 0.28468302E+04</pdfrwt>
<pdfrwt beam="2">  1       -2 0.12256405E+00 0.28468302E+04</pdfrwt>
<totfact> 0.22919306E+00</totfact>
</mgrwt>
</event>
<event>
 8    2  0.4306980E-052  0.1248636E+04  0.7818608E-02  0.9071319E-01
         -2   -1    0    0    0  501 -0.00000000000E+00  0.00000000000E+00  0.10202629256E+03  0.10202629259E+03  0.25500000000E-02 0. -1.
          2   -1    0    0  501    0  0.00000000000E+00 -0.00000000000E+00 -0.38203172193E+04  0.38203172193E+04  0.25500000000E-02 0.  1.
    -200001    2    1    2    0    0  0.90351279769E+02  0.61524923001E+02 -0.19915590827E+04  0.20867726113E+04  0.61348486649E+03 0.  0.
   -5000001    2    3    3    0    0  0.95496162130E+02 -0.11471664177E+03 -0.17264086387E+04  0.17527167523E+04  0.26315356949E+03 0.  0.
     200001    1    1    2    0    0 -0.90351279769E+02 -0.61524923001E+02 -0.17267318440E+04  0.18355709005E+04  0.61300000000E+03 0.  1.
         13    1    4    4    0    0 -0.26724784297E+02 -0.13899810198E+03 -0.12938355855E+04  0.13015549239E+04  0.10566000000E+00 0.  1.
    -200003    1    4    4    0    0  0.12222094643E+03  0.24281460206E+02 -0.43257305327E+03  0.45116182847E+03  0.30000000000E+02 0.  1.
    -200000    1    3    3    0    0 -0.51448823608E+01  0.17624156477E+03 -0.26515044400E+03  0.33405585899E+03  0.10100000000E+03 0. -1.
<mgrwt>
<rscale>  0 0.12486357E+04</rscale>
<asrwt>0</asrwt>
<pdfrwt beam="1">  1        2 0.54575951E+00 0.12486357E+04</pdfrwt>
<pdfrwt beam="2">  1       -2 0.14575187E-01 0.12486357E+04</pdfrwt>
<totfact> 0.28010686E+01</totfact>
</mgrwt>
</event>
<event>
 8    2  0.4306980E-052  0.1482331E+04  0.7818608E-02  0.8896289E-01
         -2   -1    0    0    0  501 -0.00000000000E+00  0.00000000000E+00  0.20357530376E+03  0.20357530378E+03  0.25500000000E-02 0. -1.
          2   -1    0    0  501    0  0.00000000000E+00 -0.00000000000E+00 -0.26983924192E+04  0.26983924192E+04  0.25500000000E-02 0.  1.
    -200001    2    1    2    0    0 -0.73153156029E+02  0.37813386038E+03 -0.15597309906E+04  0.17193893275E+04  0.61253758727E+03 0.  0.
   -5000001    2    3    3    0    0 -0.87039088821E+02  0.13666747144E+03 -0.14015927992E+04  0.14132724810E+04  0.81381386357E+02 0.  0.
     200001    1    1    2    0    0  0.73153156029E+02 -0.37813386038E+03 -0.93508612479E+03  0.11825783954E+04  0.61300000000E+03 0. -1.
         13    1    4    4    0    0 -0.73215184235E+02  0.76266396060E+02 -0.65093745335E+03  0.65946691024E+03  0.10566000000E+00 0.  1.
    -200003    1    4    4    0    0 -0.13823904586E+02  0.60401075377E+02 -0.75065534586E+03  0.75380557076E+03  0.30000000000E+02 0.  1.
    -200000    1    3    3    0    0  0.13885932792E+02  0.24146638895E+03 -0.15813819140E+03  0.30611684648E+03  0.10100000000E+03 0. -1.
<mgrwt>
<rscale>  0 0.14823307E+04</rscale>
<asrwt>0</asrwt>
<pdfrwt beam="1">  1        2 0.38548461E+00 0.14823307E+04</pdfrwt>
<pdfrwt beam="2">  1       -2 0.29082188E-01 0.14823307E+04</pdfrwt>
<totfact> 0.36469763E+01</totfact>
</mgrwt>
</event>
<event>
 8    2  0.4306980E-052  0.1472760E+04  0.7818608E-02  0.8902772E-01
         -2   -1    0    0    0  501 -0.00000000000E+00  0.00000000000E+00  0.12313357067E+03  0.12313357070E+03  0.25500000000E-02 0. -1.
          2   -1    0    0  501    0  0.00000000000E+00 -0.00000000000E+00 -0.44037994552E+04  0.44037994552E+04  0.25500000000E-02 0.  1.
    -200001    2    1    2    0    0 -0.20505161545E+03 -0.34645636728E+03 -0.23396910612E+04  0.24520281018E+04  0.61335908777E+03 0.  0.
   -5000001    2    3    3    0    0  0.15492307039E+03 -0.24525032241E+03 -0.66534702587E+03  0.73346667237E+03  0.10553585295E+03 0.  0.
     200001    1    1    2    0    0  0.20505161545E+03  0.34645636728E+03 -0.19409748233E+04  0.20749049241E+04  0.61300000000E+03 0.  1.
         13    1    4    4    0    0  0.86179521291E+02 -0.20754822768E+03 -0.48690272883E+03  0.53626248723E+03  0.10566000000E+00 0.  1.
    -200003    1    4    4    0    0  0.68743549097E+02 -0.37702094726E+02 -0.17844429705E+03  0.19720418514E+03  0.30000000000E+02 0.  1.
    -200000    1    3    3    0    0 -0.35997468584E+03 -0.10120604487E+03 -0.16743440354E+04  0.17185614294E+04  0.10100000000E+03 0.  1.
<mgrwt>
<rscale>  0 0.14727601E+04</rscale>
<asrwt>0</asrwt>
<pdfrwt beam="1">  1        2 0.62911411E+00 0.14727601E+04</pdfrwt>
<pdfrwt beam="2">  1       -2 0.17590513E-01 0.14727601E+04</pdfrwt>
<totfact> 0.76961270E+00</totfact>
</mgrwt>
</event>
<event>
 8    2  0.4306980E-052  0.1835938E+04  0.7818608E-02  0.8687418E-01
         -2   -1    0    0    0  501 -0.00000000000E+00  0.00000000000E+00  0.10784089845E+04  0.10784089845E+04  0.25500000000E-02 0. -1.
          2   -1    0    0  501    0  0.00000000000E+00 -0.00000000000E+00 -0.78139802685E+03  0.78139802685E+03  0.25500000000E-02 0.  1.
    -200001    2    1    2    0    0  0.62263986790E+03 -0.60537833702E+02 -0.13018098790E+03  0.88532910357E+03  0.61279303000E+03 0.  0.
   -5000001    2    3    3    0    0 -0.83993767587E+02  0.88639091927E+02 -0.81647931802E+01  0.14595517807E+03  0.79526150081E+02 0.  0.
     200001    1    1    2    0    0 -0.62263986790E+03  0.60537833702E+02  0.42719194555E+03  0.97447790778E+03  0.61300000000E+03 0. -1.
         13    1    4    4    0    0 -0.82372010180E+02  0.75625900494E+02  0.14465369277E+01  0.11183259149E+03  0.10566000000E+00 0.  1.
    -200003    1    4    4    0    0 -0.16217574066E+01  0.13013191433E+02 -0.96113301079E+01  0.34122586578E+02  0.30000000000E+02 0. -1.
    -200000    1    3    3    0    0  0.70663363549E+03 -0.14917692563E+03 -0.12201619472E+03  0.73937392550E+03  0.10100000000E+03 0.  1.
<mgrwt>
<rscale>  0 0.18359375E+04</rscale>
<asrwt>0</asrwt>
<pdfrwt beam="1">  1        2 0.11162829E+00 0.18359375E+04</pdfrwt>
<pdfrwt beam="2">  1       -2 0.15405843E+00 0.18359375E+04</pdfrwt>
<totfact> 0.10320923E+01</totfact>
</mgrwt>
</event>
<event>
 8    2  0.4306980E-052  0.1999501E+04  0.7818608E-02  0.8606854E-01
          2   -1    0    0  501    0  0.00000000000E+00  0.00000000000E+00  0.13163806288E+04  0.13163806288E+04  0.25500000000E-02 0.  1.
         -2   -1    0    0    0  501 -0.00000000000E+00 -0.00000000000E+00 -0.75927952236E+03  0.75927952237E+03  0.25500000000E-02 0. -1.
    -200001    2    1    2    0    0  0.50410217113E+02 -0.44977771073E+02 -0.53827308936E+03  0.81860891168E+03  0.61304032631E+03 0.  0.
   -5000001    2    3    3    0    0  0.14159887775E+03 -0.11910630942E+03  0.49583324801E+02  0.21067258632E+03  0.87680541775E+02 0.  0.
     200001    1    1    2    0    0 -0.50410217113E+02  0.44977771073E+02  0.10953741958E+04  0.12570512395E+04  0.61300000000E+03 0.  1.
         13    1    4    4    0    0  0.36680854267E+02 -0.20879839783E+02 -0.21703909032E+02  0.47460758637E+02  0.10566000000E+00 0.  1.
    -200003    1    4    4    0    0  0.10491802348E+03 -0.98226469635E+02  0.71287233833E+02  0.16321182768E+03  0.30000000000E+02 0.  1.
    -200000    1    3    3    0    0 -0.91188660636E+02  0.74128538345E+02 -0.58785641416E+03  0.60793632536E+03  0.10100000000E+03 0. -1.
<mgrwt>
<rscale>  0 0.19995008E+04</rscale>
<asrwt>0</asrwt>
<pdfrwt beam="1">  1        2 0.18805438E+00 0.19995008E+04</pdfrwt>
<pdfrwt beam="2">  1       -2 0.10846850E+00 0.19995008E+04</pdfrwt>
<totfact> 0.11658875E+01</totfact>
</mgrwt>
</event>
<event>
 8    2  0.4306980E-052  0.1469506E+04  0.7818608E-02  0.8904988E-01
          2   -1    0    0  501    0  0.00000000000E+00  0.00000000000E+00  0.22046990092E+04  0.22046990092E+04  0.25500000000E-02 0.  1.
         -2   -1    0    0    0  501 -0.00000000000E+00 -0.00000000000E+00 -0.24486892463E+03  0.24486892464E+03  0.25500000000E-02 0. -1.
    -200001    2    1    2    0    0  0.34375005746E+03  0.64494869940E+02  0.13318058356E+04  0.15048419696E+04  0.60705755858E+03 0.  0.
   -5000001    2    3    3    0    0  0.27306197635E+03 -0.13716903396E+03  0.27206675284E+03  0.41906434111E+03  0.90644454818E+02 0.  0.
     200001    1    1    2    0    0 -0.34375005746E+03 -0.64494869940E+02  0.62802424896E+03  0.94472596425E+03  0.61300000000E+03 0. -1.
         13    1    4    4    0    0  0.28302379943E+02 -0.41470278282E+02  0.70286392852E+02  0.86377062207E+02  0.10566000000E+00 0.  1.
    -200003    1    4    4    0    0  0.24475959641E+03 -0.95698755675E+02  0.20178035998E+03  0.33268727891E+03  0.30000000000E+02 0.  1.
    -200000    1    3    3    0    0  0.70688081104E+02  0.20166390390E+03  0.10597390827E+04  0.10857776284E+04  0.10100000000E+03 0. -1.
<mgrwt>
<rscale>  0 0.14695064E+04</rscale>
<asrwt>0</asrwt>
<pdfrwt beam="1">  1        2 0.31495702E+00 0.14695064E+04</pdfrwt>
<pdfrwt beam="2">  1       -2 0.34981273E-01 0.14695064E+04</pdfrwt>
<totfact> 0.46788166E+01</totfact>
</mgrwt>
</event>
<event>
 8    2  0.4306980E-052  0.1561596E+04  0.7818608E-02  0.8844495E-01
         -2   -1    0    0    0  501 -0.00000000000E+00  0.00000000000E+00  0.42563272475E+03  0.42563272476E+03  0.25500000000E-02 0. -1.
          2   -1    0    0  501    0  0.00000000000E+00 -0.00000000000E+00 -0.14323278740E+04  0.14323278740E+04  0.25500000000E-02 0.  1.
    -200001    2    1    2    0    0 -0.23229567981E+03 -0.24832325876E+02 -0.10070178510E+04  0.12019521907E+04  0.61320974333E+03 0.  0.
   -5000001    2    3    3    0    0 -0.30638528420E+03  0.65460734687E+02 -0.99584301276E+03  0.10471362249E+04  0.81448863107E+02 0.  0.
     200001    1    1    2    0    0  0.23229567981E+03  0.24832325876E+02  0.32270175155E+00  0.65600840803E+03  0.61300000000E+03 0. -1.
         13    1    4    4    0    0 -0.14439352136E+03  0.42363409559E+01 -0.37383528471E+03  0.40077458360E+03  0.10566000000E+00 0.  1.
    -200003    1    4    4    0    0 -0.16199176284E+03  0.61224393731E+02 -0.62200772805E+03  0.64636164132E+03  0.30000000000E+02 0.  1.
    -200000    1    3    3    0    0  0.74089604394E+02 -0.90293060563E+02 -0.11174838248E+02  0.15481596583E+03  0.10100000000E+03 0. -1.
<mgrwt>
<rscale>  0 0.15615961E+04</rscale>
<asrwt>0</asrwt>
<pdfrwt beam="1">  1        2 0.20461827E+00 0.15615961E+04</pdfrwt>
<pdfrwt beam="2">  1       -2 0.60804675E-01 0.15615961E+04</pdfrwt>
<totfact> 0.38552381E+01</totfact>
</mgrwt>
</event>
<event>
 8    2  0.4306980E-052  0.1987026E+04  0.7818608E-02  0.8612710E-01
         -2   -1    0    0    0  501 -0.00000000000E+00  0.00000000000E+00  0.92568243559E+03  0.92568243559E+03  0.25500000000E-02 0. -1.
          2   -1    0    0  501    0  0.00000000000E+00 -0.00000000000E+00 -0.10663142442E+04  0.10663142442E+04  0.25500000000E-02 0.  1.
    -200001    2    1    2    0    0 -0.96261522294E+01  0.26719275658E+03 -0.80713738598E+03  0.10478127376E+04  0.61233662407E+03 0.  0.
   -5000001    2    3    3    0    0 -0.95693369324E+02 -0.16803330402E+03 -0.16405311523E+03  0.26003886837E+03  0.57570619721E+02 0.  0.
     200001    1    1    2    0    0  0.96261522294E+01 -0.26719275658E+03  0.66650557741E+03  0.94418394219E+03  0.61300000000E+03 0. -1.
         13    1    4    4    0    0 -0.40265133914E+02 -0.35181513773E+02 -0.31438815900E+02  0.62027656974E+02  0.10566000000E+00 0.  1.
    -200003    1    4    4    0    0 -0.55428235410E+02 -0.13285179025E+03 -0.13261429933E+03  0.19801121140E+03  0.30000000000E+02 0.  1.
    -200000    1    3    3    0    0  0.86067217094E+02  0.43522606061E+03 -0.64308427076E+03  0.78777386920E+03  0.10100000000E+03 0.  1.
<mgrwt>
<rscale>  0 0.19870263E+04</rscale>
<asrwt>0</asrwt>
<pdfrwt beam="1">  1        2 0.15233061E+00 0.19870263E+04</pdfrwt>
<pdfrwt beam="2">  1       -2 0.13224035E+00 0.19870263E+04</pdfrwt>
<totfact> 0.99354349E+00</totfact>
</mgrwt>
</event>
<event>
 8    2  0.4306980E-052  0.2822212E+04  0.7818608E-02  0.8296405E-01
          2   -1    0    0  501    0  0.00000000000E+00  0.00000000000E+00  0.13791487601E+04  0.13791487602E+04  0.25500000000E-02 0. -1.
         -2   -1    0    0    0  501 -0.00000000000E+00 -0.00000000000E+00 -0.14438041384E+04  0.14438041384E+04  0.25500000000E-02 0.  1.
    -200001    2    1    2    0    0 -0.62282379552E+03  0.22483742460E+03 -0.11175197101E+04  0.14363189710E+04  0.61294415431E+03 0.  0.
   -5000001    2    3    3    0    0 -0.52384820237E+03  0.16257985234E+03 -0.36296937456E+03  0.66611160791E+03  0.10539810152E+03 0.  0.
     200001    1    1    2    0    0  0.62282379552E+03 -0.22483742460E+03  0.10528643318E+04  0.13866339275E+04  0.61300000000E+03 0. -1.
         13    1    4    4    0    0 -0.23573183670E+03  0.95534000741E+02 -0.21952201583E+03  0.33598537279E+03  0.10566000000E+00 0.  1.
    -200003    1    4    4    0    0 -0.28811636567E+03  0.67045851595E+02 -0.14344735873E+03  0.33012623512E+03  0.30000000000E+02 0.  1.
    -200000    1    3    3    0    0 -0.98975593146E+02  0.62257572268E+02 -0.75455033555E+03  0.77020736313E+03  0.10100000000E+03 0.  1.
<mgrwt>
<rscale>  0 0.28222124E+04</rscale>
<asrwt>0</asrwt>
<pdfrwt beam="1">  1        2 0.19702125E+00 0.28222124E+04</pdfrwt>
<pdfrwt beam="2">  1       -2 0.20625773E+00 0.28222124E+04</pdfrwt>
<totfact> 0.17982289E+00</totfact>
</mgrwt>
</event>
<event>
 8    2  0.4306980E-052  0.1309996E+04  0.7818608E-02  0.9021675E-01
          2   -1    0    0  501    0  0.00000000000E+00  0.00000000000E+00  0.25563878627E+04  0.25563878627E+04  0.25500000000E-02 0.  1.
         -2   -1    0    0    0  501 -0.00000000000E+00 -0.00000000000E+00 -0.16782377614E+03  0.16782377616E+03  0.25500000000E-02 0. -1.
    -200001    2    1    2    0    0 -0.16219118211E+03 -0.16256972180E+03  0.11443669659E+04  0.13183203311E+04  0.61290933169E+03 0.  0.
   -5000001    2    3    3    0    0  0.70319681946E+01 -0.29789825147E+03  0.97466593391E+03  0.10251484945E+04  0.11028570278E+03 0.  0.
     200001    1    1    2    0    0  0.16219118211E+03  0.16256972180E+03  0.12441971206E+04  0.14058913077E+04  0.61300000000E+03 0.  1.
         13    1    4    4    0    0 -0.25918404126E+02 -0.52144833289E+02  0.10207411347E+03  0.11751588453E+03  0.10566000000E+00 0.  1.
    -200003    1    4    4    0    0  0.32950372320E+02 -0.24575341818E+03  0.87259182044E+03  0.90763260998E+03  0.30000000000E+02 0.  1.
    -200000    1    3    3    0    0 -0.16922315031E+03  0.13532852967E+03  0.16970103196E+03  0.29317183663E+03  0.10100000000E+03 0.  1.
<mgrwt>
<rscale>  0 0.13099964E+04</rscale>
<asrwt>0</asrwt>
<pdfrwt beam="1">  1        2 0.36519825E+00 0.13099964E+04</pdfrwt>
<pdfrwt beam="2">  1       -2 0.23974827E-01 0.13099964E+04</pdfrwt>
<totfact> 0.62638339E+01</totfact>
</mgrwt>
</event>
<event>
 8    2  0.4306980E-052  0.1975973E+04  0.7818608E-02  0.8617937E-01
          2   -1    0    0  501    0  0.00000000000E+00  0.00000000000E+00  0.20501099128E+04  0.20501099128E+04  0.25500000000E-02 0.  1.
         -2   -1    0    0    0  501 -0.00000000000E+00 -0.00000000000E+00 -0.47612931672E+03  0.47612931673E+03  0.25500000000E-02 0. -1.
    -200001    2    1    2    0    0  0.87706260694E+02 -0.37595565386E+03  0.16451241005E+04  0.17983206627E+04  0.61521448129E+03 0.  0.
   -5000001    2    3    3    0    0 -0.13724897474E+03 -0.39268780135E+03  0.13434755607E+04  0.14083492993E+04  0.74028212213E+02 0.  0.
     200001    1    1    2    0    0 -0.87706260694E+02  0.37595565386E+03 -0.71143504357E+02  0.72791856691E+03  0.61300000000E+03 0. -1.
         13    1    4    4    0    0 -0.37542717365E+02 -0.40633787013E+02  0.16765051529E+03  0.17654253514E+03  0.10566000000E+00 0.  1.
    -200003    1    4    4    0    0 -0.99706257379E+02 -0.35205401434E+03  0.11758250454E+04  0.12318067641E+04  0.30000000000E+02 0.  1.
    -200000    1    3    3    0    0  0.22495523544E+03  0.16732147491E+02  0.30164853978E+03  0.38997136338E+03  0.10100000000E+03 0.  1.
<mgrwt>
<rscale>  0 0.19759731E+04</rscale>
<asrwt>0</asrwt>
<pdfrwt beam="1">  1        2 0.29287284E+00 0.19759731E+04</pdfrwt>
<pdfrwt beam="2">  1       -2 0.68018475E-01 0.19759731E+04</pdfrwt>
<totfact> 0.13975489E+01</totfact>
</mgrwt>
</event>
<event>
 8    2  0.4306980E-052  0.1246503E+04  0.7818608E-02  0.9073099E-01
          2   -1    0    0  501    0  0.00000000000E+00  0.00000000000E+00  0.26678281744E+04  0.26678281744E+04  0.25500000000E-02 0. -1.
         -2   -1    0    0    0  501 -0.00000000000E+00 -0.00000000000E+00 -0.14560251004E+03  0.14560251006E+03  0.25500000000E-02 0.  1.
    -200001    2    1    2    0    0  0.27162814769E+02 -0.10657498371E+03  0.12254638007E+04  0.13748701621E+04  0.61352293352E+03 0.  0.
   -5000001    2    3    3    0    0 -0.21349385536E+03 -0.88884578379E+02  0.77532660877E+03  0.85424258413E+03  0.27407836054E+03 0.  0.
     200001    1    1    2    0    0 -0.27162814769E+02  0.10657498371E+03  0.12967618637E+04  0.14385605224E+04  0.61300000000E+03 0. -1.
         13    1    4    4    0    0 -0.10583497778E+03  0.22165269082E+02  0.63221841527E+03  0.64139884428E+03  0.10566000000E+00 0.  1.
    -200003    1    4    4    0    0 -0.10765887758E+03 -0.11104984746E+03  0.14310819350E+03  0.21284373984E+03  0.30000000000E+02 0.  1.
    -200000    1    3    3    0    0  0.24065667013E+03 -0.17690405327E+02  0.45013719197E+03  0.52062757794E+03  0.10100000000E+03 0.  1.
<mgrwt>
<rscale>  0 0.12465031E+04</rscale>
<asrwt>0</asrwt>
<pdfrwt beam="1">  1        2 0.38111828E+00 0.12465031E+04</pdfrwt>
<pdfrwt beam="2">  1       -2 0.20800360E-01 0.12465031E+04</pdfrwt>
<totfact> 0.70824953E+01</totfact>
</mgrwt>
</event>
<event>
 8    2  0.4306980E-052  0.1464660E+04  0.7818608E-02  0.8908300E-01
         -2   -1    0    0    0  501 -0.00000000000E+00  0.00000000000E+00  0.25819565294E+03  0.25819565296E+03  0.25500000000E-02 0. -1.
          2   -1    0    0  501    0  0.00000000000E+00 -0.00000000000E+00 -0.20771337802E+04  0.20771337802E+04  0.25500000000E-02 0.  1.
    -200001    2    1    2    0    0 -0.20735621952E+03  0.61241965361E+02 -0.37237788585E+03  0.74943766128E+03  0.61338759213E+03 0.  0.
   -5000001    2    3    3    0    0 -0.35599058394E+03  0.20558388466E+03 -0.26336387660E+03  0.49446350932E+03  0.78355606474E+02 0.  0.
     200001    1    1    2    0    0  0.20735621952E+03 -0.61241965361E+02 -0.14465602414E+04  0.15858917719E+04  0.61300000000E+03 0.  1.
         13    1    4    4    0    0 -0.19966221721E+03  0.93327292627E+02 -0.10870224193E+03  0.24574615581E+03  0.10566000000E+00 0.  1.
    -200003    1    4    4    0    0 -0.15632836673E+03  0.11225659203E+03 -0.15466163467E+03  0.24871735352E+03  0.30000000000E+02 0.  1.
    -200000    1    3    3    0    0  0.14863436442E+03 -0.14434191930E+03 -0.10901400925E+03  0.25497415196E+03  0.10100000000E+03 0. -1.
<mgrwt>
<rscale>  0 0.14646596E+04</rscale>
<asrwt>0</asrwt>
<pdfrwt beam="1">  1        2 0.29673339E+00 0.14646596E+04</pdfrwt>
<pdfrwt beam="2">  1       -2 0.36885095E-01 0.14646596E+04</pdfrwt>
<totfact> 0.49181440E+01</totfact>
</mgrwt>
</event>
<event>
 8    2  0.4306980E-052  0.1544866E+04  0.7818608E-02  0.8855154E-01
          2   -1    0    0  501    0  0.00000000000E+00  0.00000000000E+00  0.32145375456E+04  0.32145375456E+04  0.25500000000E-02 0.  1.
         -2   -1    0    0    0  501 -0.00000000000E+00 -0.00000000000E+00 -0.18561079181E+03  0.18561079183E+03  0.25500000000E-02 0. -1.
    -200001    2    1    2    0    0  0.46550049026E+03 -0.31999656831E+02  0.16453758708E+04  0.18165774580E+04  0.61235383572E+03 0.  0.
   -5000001    2    3    3    0    0  0.97406805054E+02  0.20925829695E+03  0.25470062101E+03  0.35442937664E+03  0.86432957686E+02 0.  0.
     200001    1    1    2    0    0 -0.46550049026E+03  0.31999656831E+02  0.13835508830E+04  0.15835708795E+04  0.61300000000E+03 0. -1.
         13    1    4    4    0    0  0.70360599840E+01  0.10299994769E+03  0.11869864569E+03  0.15731457344E+03  0.10566000000E+00 0.  1.
    -200003    1    4    4    0    0  0.90370745070E+02  0.10625834926E+03  0.13600197532E+03  0.19711480320E+03  0.30000000000E+02 0.  1.
    -200000    1    3    3    0    0  0.36809368521E+03 -0.24125795378E+03  0.13906752498E+04  0.14621480813E+04  0.10100000000E+03 0.  1.
<mgrwt>
<rscale>  0 0.15448662E+04</rscale>
<asrwt>0</asrwt>
<pdfrwt beam="1">  1        2 0.45921963E+00 0.15448662E+04</pdfrwt>
<pdfrwt beam="2">  1       -2 0.26515828E-01 0.15448662E+04</pdfrwt>
<totfact> 0.22252757E+01</totfact>
</mgrwt>
</event>
<event>
 8    2  0.4306980E-052  0.1374802E+04  0.7818608E-02  0.8972263E-01
         -2   -1    0    0    0  501 -0.00000000000E+00  0.00000000000E+00  0.69618027473E+03  0.69618027473E+03  0.25500000000E-02 0.  1.
          2   -1    0    0  501    0  0.00000000000E+00 -0.00000000000E+00 -0.67873217237E+03  0.67873217238E+03  0.25500000000E-02 0. -1.
    -200001    2    1    2    0    0 -0.60079039227E+02 -0.26260569231E+03 -0.14823973556E+03  0.68513516406E+03  0.61226132757E+03 0.  0.
   -5000001    2    3    3    0    0  0.12424328042E+03 -0.39426126617E+03 -0.80077424553E+02  0.42792900493E+03  0.76370809912E+02 0.  0.
     200001    1    1    2    0    0  0.60079039227E+02  0.26260569231E+03  0.16568783791E+03  0.68977728306E+03  0.61300000000E+03 0.  1.
         13    1    4    4    0    0  0.54962218819E+02 -0.16579250588E+03 -0.66600529949E+02  0.18693218625E+03  0.10566000000E+00 0.  1.
    -200003    1    4    4    0    0  0.69281061606E+02 -0.22846876029E+03 -0.13476894604E+02  0.24099681868E+03  0.30000000000E+02 0.  1.
    -200000    1    3    3    0    0 -0.18432231965E+03  0.13165557386E+03 -0.68162311005E+02  0.25720615912E+03  0.10100000000E+03 0.  1.
<mgrwt>
<rscale>  0 0.13748017E+04</rscale>
<asrwt>0</asrwt>
<pdfrwt beam="1">  1        2 0.96961739E-01 0.13748017E+04</pdfrwt>
<pdfrwt beam="2">  1       -2 0.99454325E-01 0.13748017E+04</pdfrwt>
<totfact> 0.38215392E+01</totfact>
</mgrwt>
</event>
<event>
 8    2  0.4306980E-052  0.2006904E+04  0.7818608E-02  0.8603400E-01
         -2   -1    0    0    0  501 -0.00000000000E+00  0.00000000000E+00  0.11022334188E+04  0.11022334188E+04  0.25500000000E-02 0. -1.
          2   -1    0    0  501    0  0.00000000000E+00 -0.00000000000E+00 -0.91352291519E+03  0.91352291519E+03  0.25500000000E-02 0.  1.
    -200001    2    1    2    0    0 -0.38037765476E+03 -0.12678911488E+03  0.78317455677E+03  0.10724010720E+04  0.61312236371E+03 0.  0.
   -5000001    2    3    3    0    0 -0.19930805859E+03 -0.31680635428E+03  0.66463100242E+03  0.76720224463E+03  0.82310062927E+02 0.  0.
     200001    1    1    2    0    0  0.38037765476E+03  0.12678911488E+03 -0.59446405317E+03  0.94335526203E+03  0.61300000000E+03 0.  1.
         13    1    4    4    0    0 -0.32214682087E+00  0.42680429213E+01  0.65785836470E+01  0.78491334418E+01  0.10566000000E+00 0.  1.
    -200003    1    4    4    0    0 -0.19898591177E+03 -0.32107439720E+03  0.65805241877E+03  0.75935311119E+03  0.30000000000E+02 0.  1.
    -200000    1    3    3    0    0 -0.18106959617E+03  0.19001723940E+03  0.11854355435E+03  0.30519882733E+03  0.10100000000E+03 0.  1.
<mgrwt>
<rscale>  0 0.20069036E+04</rscale>
<asrwt>0</asrwt>
<pdfrwt beam="1">  1        2 0.13050327E+00 0.20069036E+04</pdfrwt>
<pdfrwt beam="2">  1       -2 0.15746192E+00 0.20069036E+04</pdfrwt>
<totfact> 0.78118204E+00</totfact>
</mgrwt>
</event>
<event>
 8    2  0.4306980E-052  0.1560600E+04  0.7818608E-02  0.8845125E-01
          2   -1    0    0  501    0  0.00000000000E+00  0.00000000000E+00  0.30320526070E+04  0.30320526070E+04  0.25500000000E-02 0.  1.
         -2   -1    0    0    0  501 -0.00000000000E+00 -0.00000000000E+00 -0.20081058041E+03  0.20081058043E+03  0.25500000000E-02 0. -1.
    -200001    2    1    2    0    0 -0.42029151240E+01 -0.11554085717E+02  0.41401353259E+03  0.73908818684E+03  0.61212170470E+03 0.  0.
   -5000001    2    3    3    0    0  0.26643338297E+03  0.21353830483E+02  0.32391378841E+03  0.43471029556E+03  0.11229499146E+03 0.  0.
     200001    1    1    2    0    0  0.42029151240E+01  0.11554085717E+02  0.24172284940E+04  0.24937750006E+04  0.61300000000E+03 0.  1.
         13    1    4    4    0    0  0.16892163539E+03  0.62213545646E+02  0.19994584446E+03  0.26904162511E+03  0.10566000000E+00 0.  1.
    -200003    1    4    4    0    0  0.97511747587E+02 -0.40859715162E+02  0.12396794395E+03  0.16566867045E+03  0.30000000000E+02 0.  1.
    -200000    1    3    3    0    0 -0.27063629810E+03 -0.32907916200E+02  0.90099744181E+02  0.30437789128E+03  0.10100000000E+03 0. -1.
<mgrwt>
<rscale>  0 0.15606002E+04</rscale>
<asrwt>0</asrwt>
<pdfrwt beam="1">  1        2 0.43315036E+00 0.15606002E+04</pdfrwt>
<pdfrwt beam="2">  1       -2 0.28687227E-01 0.15606002E+04</pdfrwt>
<totfact> 0.24406035E+01</totfact>
</mgrwt>
</event>
<event>
 8    2  0.4306980E-052  0.1253273E+04  0.7818608E-02  0.9067463E-01
          2   -1    0    0  501    0  0.00000000000E+00  0.00000000000E+00  0.10252215265E+04  0.10252215265E+04  0.25500000000E-02 0.  1.
         -2   -1    0    0    0  501 -0.00000000000E+00 -0.00000000000E+00 -0.38301342788E+03  0.38301342788E+03  0.25500000000E-02 0. -1.
    -200001    2    1    2    0    0 -0.21055421162E+02  0.12678343927E+03  0.32389426095E+03  0.70566106470E+03  0.61362258329E+03 0.  0.
   -5000001    2    3    3    0    0  0.19797091465E+03  0.10890418729E+03  0.14306846980E+02  0.31280285832E+03  0.21584331643E+03 0.  0.
     200001    1    1    2    0    0  0.21055421162E+02 -0.12678343927E+03  0.31831383770E+03  0.70257388971E+03  0.61300000000E+03 0. -1.
         13    1    4    4    0    0  0.26170081477E+02  0.12965047459E+03  0.32596973307E+02  0.13622295166E+03  0.10566000000E+00 0.  1.
    -200003    1    4    4    0    0  0.17180083317E+03 -0.20746287304E+02 -0.18290126327E+02  0.17657990666E+03  0.30000000000E+02 0.  1.
    -200000    1    3    3    0    0 -0.21902633581E+03  0.17879251987E+02  0.30958741397E+03  0.39285820638E+03  0.10100000000E+03 0.  1.
<mgrwt>
<rscale>  0 0.12532735E+04</rscale>
<asrwt>0</asrwt>
<pdfrwt beam="1">  1        2 0.14646022E+00 0.12532735E+04</pdfrwt>
<pdfrwt beam="2">  1       -2 0.54716204E-01 0.12532735E+04</pdfrwt>
<totfact> 0.83782335E+01</totfact>
</mgrwt>
</event>
<event>
 8    2  0.4306980E-052  0.2671040E+04  0.7818608E-02  0.8344463E-01
         -2   -1    0    0    0  501 -0.00000000000E+00  0.00000000000E+00  0.11274660776E+04  0.11274660776E+04  0.25500000000E-02 0. -1.
          2   -1    0    0  501    0  0.00000000000E+00 -0.00000000000E+00 -0.15819668622E+04  0.15819668622E+04  0.25500000000E-02 0.  1.
    -200001    2    1    2    0    0 -0.10904062642E+04 -0.32310479391E+03 -0.57122004533E+03  0.14122147952E+04  0.61210763660E+03 0.  0.
   -5000001    2    3    3    0    0 -0.58896253643E+03 -0.12091451112E+03 -0.60513630453E+03  0.86114489474E+03  0.11782781655E+03 0.  0.
     200001    1    1    2    0    0  0.10904062642E+04  0.32310479391E+03  0.11671926073E+03  0.12972181446E+04  0.61300000000E+03 0.  1.
         13    1    4    4    0    0 -0.78652718416E+02  0.19295530122E+02 -0.60046815280E+02  0.10081765116E+03  0.10566000000E+00 0.  1.
    -200003    1    4    4    0    0 -0.51030981801E+03 -0.14021004124E+03 -0.54508948925E+03  0.76032724357E+03  0.30000000000E+02 0.  1.
    -200000    1    3    3    0    0 -0.50144372779E+03 -0.20219028278E+03  0.33916259203E+02  0.55106990049E+03  0.10100000000E+03 0. -1.
<mgrwt>
<rscale>  0 0.26710402E+04</rscale>
<asrwt>0</asrwt>
<pdfrwt beam="1">  1        2 0.22599527E+00 0.26710402E+04</pdfrwt>
<pdfrwt beam="2">  1       -2 0.16106658E+00 0.26710402E+04</pdfrwt>
<totfact> 0.28968874E+00</totfact>
</mgrwt>
</event>
<event>
 8    2  0.4306980E-052  0.1259377E+04  0.7818608E-02  0.9062415E-01
          2   -1    0    0  501    0  0.00000000000E+00  0.00000000000E+00  0.14919960968E+04  0.14919960968E+04  0.25500000000E-02 0.  1.
         -2   -1    0    0    0  501 -0.00000000000E+00 -0.00000000000E+00 -0.26575640071E+03  0.26575640072E+03  0.25500000000E-02 0. -1.
    -200001    2    1    2    0    0  0.65035533845E+02  0.69907342303E+02  0.46166786948E+03  0.77314306470E+03  0.61277754497E+03 0.  0.
   -5000001    2    3    3    0    0 -0.19488519558E+02  0.23525181486E+03  0.73082697555E+00  0.26604636055E+03  0.12270661377E+03 0.  0.
     200001    1    1    2    0    0 -0.65035533845E+02 -0.69907342303E+02  0.76457182664E+03  0.98460943285E+03  0.61300000000E+03 0.  1.
         13    1    4    4    0    0 -0.47893878365E+02  0.30108761715E+02  0.45000671984E+01  0.56750532030E+02  0.10566000000E+00 0.  1.
    -200003    1    4    4    0    0  0.28405358807E+02  0.20514305315E+03 -0.37692402228E+01  0.20929582852E+03  0.30000000000E+02 0.  1.
    -200000    1    3    3    0    0  0.84524053403E+02 -0.16534447256E+03  0.46093704250E+03  0.50709670415E+03  0.10100000000E+03 0.  1.
<mgrwt>
<rscale>  0 0.12593769E+04</rscale>
<asrwt>0</asrwt>
<pdfrwt beam="1">  1        2 0.21314229E+00 0.12593769E+04</pdfrwt>
<pdfrwt beam="2">  1       -2 0.37965201E-01 0.12593769E+04</pdfrwt>
<totfact> 0.94981402E+01</totfact>
</mgrwt>
</event>
<event>
 8    2  0.4306980E-052  0.1567177E+04  0.7818608E-02  0.8840970E-01
          2   -1    0    0  501    0  0.00000000000E+00  0.00000000000E+00  0.18537767250E+04  0.18537767250E+04  0.25500000000E-02 0.  1.
         -2   -1    0    0    0  501 -0.00000000000E+00 -0.00000000000E+00 -0.33122147923E+03  0.33122147924E+03  0.25500000000E-02 0. -1.
    -200001    2    1    2    0    0  0.15493517263E+03  0.38061236804E+03  0.11254833695E+04  0.13469613570E+04  0.61540344467E+03 0.  0.
   -5000001    2    3    3    0    0  0.19292088199E+03  0.36020848042E+03  0.30673298144E+03  0.52087877592E+03  0.10129640285E+03 0.  0.
     200001    1    1    2    0    0 -0.15493517263E+03 -0.38061236804E+03  0.39707187620E+03  0.83803684722E+03  0.61300000000E+03 0.  1.
         13    1    4    4    0    0  0.56043019024E+02  0.33898806920E+02  0.40088216733E+02  0.76792091890E+02  0.10566000000E+00 0.  1.
    -200003    1    4    4    0    0  0.13687786296E+03  0.32630967350E+03  0.26664476471E+03  0.44408668403E+03  0.30000000000E+02 0.  1.
    -200000    1    3    3    0    0 -0.37985709354E+02  0.20403887623E+02  0.81875038811E+03  0.82608258108E+03  0.10100000000E+03 0.  1.
<mgrwt>
<rscale>  0 0.15671767E+04</rscale>
<asrwt>0</asrwt>
<pdfrwt beam="1">  1        2 0.26482524E+00 0.15671767E+04</pdfrwt>
<pdfrwt beam="2">  1       -2 0.47317355E-01 0.15671767E+04</pdfrwt>
<totfact> 0.38907042E+01</totfact>
</mgrwt>
</event>
<event>
 8    2  0.4306980E-052  0.1487552E+04  0.7818608E-02  0.8892773E-01
          2   -1    0    0  501    0  0.00000000000E+00  0.00000000000E+00  0.77804671538E+03  0.77804671538E+03  0.25500000000E-02 0. -1.
         -2   -1    0    0    0  501 -0.00000000000E+00 -0.00000000000E+00 -0.71101523715E+03  0.71101523716E+03  0.25500000000E-02 0.  1.
    -200001    2    1    2    0    0  0.41588242917E+03  0.47990076972E+02  0.88509773914E+02  0.74643717544E+03  0.61161526666E+03 0.  0.
   -5000001    2    3    3    0    0 -0.95401714947E+02  0.15085577653E+03 -0.39221748458E+02  0.20007724830E+03  0.81446959494E+02 0.  0.
     200001    1    1    2    0    0 -0.41588242917E+03 -0.47990076972E+02 -0.21478295692E+02  0.74262477710E+03  0.61300000000E+03 0.  1.
         13    1    4    4    0    0 -0.37489803478E+02  0.39507467128E+02  0.20095866154E+02  0.58053254209E+02  0.10566000000E+00 0.  1.
    -200003    1    4    4    0    0 -0.57911911470E+02  0.11134830940E+03 -0.59317614611E+02  0.14202399410E+03  0.30000000000E+02 0.  1.
    -200000    1    3    3    0    0  0.51128414411E+03 -0.10286569955E+03  0.12773152237E+03  0.54635992713E+03  0.10100000000E+03 0. -1.
<mgrwt>
<rscale>  0 0.14875524E+04</rscale>
<asrwt>0</asrwt>
<pdfrwt beam="1">  1        2 0.11114953E+00 0.14875524E+04</pdfrwt>
<pdfrwt beam="2">  1       -2 0.10157361E+00 0.14875524E+04</pdfrwt>
<totfact> 0.30388068E+01</totfact>
</mgrwt>
</event>
<event>
 8    2  0.4306980E-052  0.1338513E+04  0.7818608E-02  0.8999570E-01
         -2   -1    0    0    0  501 -0.00000000000E+00  0.00000000000E+00  0.15546228166E+03  0.15546228169E+03  0.25500000000E-02 0. -1.
          2   -1    0    0  501    0  0.00000000000E+00 -0.00000000000E+00 -0.28811114216E+04  0.28811114216E+04  0.25500000000E-02 0.  1.
    -200001    2    1    2    0    0 -0.13626859800E+03  0.18538382283E+03 -0.16820279975E+04  0.18045629966E+04  0.61179500784E+03 0.  0.
   -5000001    2    3    3    0    0 -0.19082860838E+03  0.25109656793E+03 -0.16303630175E+04  0.16625586665E+04  0.80948789182E+02 0.  0.
     200001    1    1    2    0    0  0.13626859800E+03 -0.18538382283E+03 -0.10436211425E+04  0.12320107068E+04  0.61300000000E+03 0. -1.
         13    1    4    4    0    0 -0.91995596316E+01  0.57152223506E+02 -0.26319944575E+03  0.26949020011E+03  0.10566000000E+00 0.  1.
    -200003    1    4    4    0    0 -0.18162904875E+03  0.19394434443E+03 -0.13671635718E+04  0.13930684664E+04  0.30000000000E+02 0.  1.
    -200000    1    3    3    0    0  0.54560010381E+02 -0.65712745105E+02 -0.51664980001E+02  0.14200433008E+03  0.10100000000E+03 0. -1.
<mgrwt>
<rscale>  0 0.13385128E+04</rscale>
<asrwt>0</asrwt>
<pdfrwt beam="1">  1        2 0.41158731E+00 0.13385128E+04</pdfrwt>
<pdfrwt beam="2">  1       -2 0.22208899E-01 0.13385128E+04</pdfrwt>
<totfact> 0.48008143E+01</totfact>
</mgrwt>
</event>
<event>
 8    2  0.4306980E-052  0.1365186E+04  0.7818608E-02  0.8979411E-01
         -2   -1    0    0    0  501 -0.00000000000E+00  0.00000000000E+00  0.10899438586E+04  0.10899438586E+04  0.25500000000E-02 0. -1.
          2   -1    0    0  501    0  0.00000000000E+00 -0.00000000000E+00 -0.42748393974E+03  0.42748393974E+03  0.25500000000E-02 0.  1.
    -200001    2    1    2    0    0 -0.31067069604E+02  0.19608060928E+03  0.58012042820E+03  0.86784211509E+03  0.61416403132E+03 0.  0.
   -5000001    2    3    3    0    0 -0.10640749556E+01  0.31126436435E+00 -0.10106152460E+03  0.15129786041E+03  0.11258943853E+03 0.  0.
     200001    1    1    2    0    0  0.31067069604E+02 -0.19608060928E+03  0.82339490643E+02  0.64958568324E+03  0.61300000000E+03 0.  1.
         13    1    4    4    0    0  0.45716191906E+02 -0.13113446603E+02 -0.18845639889E+02  0.51157619091E+02  0.10566000000E+00 0.  1.
    -200003    1    4    4    0    0 -0.46780266862E+02  0.13424710967E+02 -0.82215884711E+02  0.10014024132E+03  0.30000000000E+02 0.  1.
    -200000    1    3    3    0    0 -0.30002994649E+02  0.19576934491E+03  0.68118195280E+03  0.71654425469E+03  0.10100000000E+03 0. -1.
<mgrwt>
<rscale>  0 0.13651864E+04</rscale>
<asrwt>0</asrwt>
<pdfrwt beam="1">  1        2 0.61069134E-01 0.13651864E+04</pdfrwt>
<pdfrwt beam="2">  1       -2 0.15570627E+00 0.13651864E+04</pdfrwt>
<totfact> 0.21246689E+01</totfact>
</mgrwt>
</event>
<event>
 8    2  0.4306980E-052  0.1456838E+04  0.7818608E-02  0.8913674E-01
         -2   -1    0    0    0  501 -0.00000000000E+00  0.00000000000E+00  0.46969673195E+03  0.46969673195E+03  0.25500000000E-02 0. -1.
          2   -1    0    0  501    0  0.00000000000E+00 -0.00000000000E+00 -0.11296527564E+04  0.11296527564E+04  0.25500000000E-02 0.  1.
    -200001    2    1    2    0    0  0.15734996977E+03  0.19653286736E+03  0.25146586581E+01  0.66232196106E+03  0.61260091059E+03 0.  0.
   -5000001    2    3    3    0    0  0.34149145007E+03 -0.20287332993E+02 -0.53580058681E+02  0.35529313284E+03  0.79588951496E+02 0.  0.
     200001    1    1    2    0    0 -0.15734996977E+03 -0.19653286736E+03 -0.66247068315E+03  0.93702752733E+03  0.61300000000E+03 0.  1.
         13    1    4    4    0    0  0.13684569938E+03 -0.41464491534E+02 -0.29360505587E+02  0.14597294253E+03  0.10566000000E+00 0.  1.
    -200003    1    4    4    0    0  0.20464575069E+03  0.21177158541E+02 -0.24219553095E+02  0.20932019031E+03  0.30000000000E+02 0.  1.
    -200000    1    3    3    0    0 -0.18414148030E+03  0.21682020035E+03  0.56094717340E+02  0.30702882823E+03  0.10100000000E+03 0.  1.
<mgrwt>
<rscale>  0 0.14568380E+04</rscale>
<asrwt>0</asrwt>
<pdfrwt beam="1">  1        2 0.16137896E+00 0.14568380E+04</pdfrwt>
<pdfrwt beam="2">  1       -2 0.67099533E-01 0.14568380E+04</pdfrwt>
<totfact> 0.46444105E+01</totfact>
</mgrwt>
</event>
<event>
 8    2  0.4306980E-052  0.1238749E+04  0.7818608E-02  0.9079599E-01
         -2   -1    0    0    0  501 -0.00000000000E+00  0.00000000000E+00  0.68773119959E+03  0.68773119959E+03  0.25500000000E-02 0. -1.
          2   -1    0    0  501    0  0.00000000000E+00 -0.00000000000E+00 -0.55781237444E+03  0.55781237444E+03  0.25500000000E-02 0.  1.
    -200001    2    1    2    0    0  0.75061920266E+02 -0.49391358013E+02  0.40022578323E+02  0.61950513008E+03  0.61164614059E+03 0.  0.
   -5000001    2    3    3    0    0 -0.16576262067E+03 -0.23504835667E+03 -0.33516995650E+01  0.29616736759E+03  0.70561316232E+02 0.  0.
     200001    1    1    2    0    0 -0.75061920266E+02  0.49391358013E+02  0.89896246831E+02  0.62603844396E+03  0.61300000000E+03 0. -1.
         13    1    4    4    0    0 -0.89653720629E+02 -0.13786672048E+03  0.24082978674E+02  0.16620777138E+03  0.10566000000E+00 0.  1.
    -200003    1    4    4    0    0 -0.76108900043E+02 -0.97181636186E+02 -0.27434678239E+02  0.12995959621E+03  0.30000000000E+02 0. -1.
    -200000    1    3    3    0    0  0.24082454094E+03  0.18565699866E+03  0.43374277887E+02  0.32333776249E+03  0.10100000000E+03 0. -1.
<mgrwt>
<rscale>  0 0.12387493E+04</rscale>
<asrwt>0</asrwt>
<pdfrwt beam="1">  1        2 0.79687482E-01 0.12387493E+04</pdfrwt>
<pdfrwt beam="2">  1       -2 0.98247314E-01 0.12387493E+04</pdfrwt>
<totfact> 0.50200336E+01</totfact>
</mgrwt>
</event>
<event>
 8    2  0.4306980E-052  0.1419224E+04  0.7818608E-02  0.8940020E-01
         -2   -1    0    0    0  501 -0.00000000000E+00  0.00000000000E+00  0.41232171782E+03  0.41232171783E+03  0.25500000000E-02 0. -1.
          2   -1    0    0  501    0  0.00000000000E+00 -0.00000000000E+00 -0.12212530898E+04  0.12212530898E+04  0.25500000000E-02 0.  1.
    -200001    2    1    2    0    0  0.33605717047E+03  0.11011652175E+03 -0.41808386463E+03  0.82512515294E+03  0.61723361053E+03 0.  0.
   -5000001    2    3    3    0    0  0.28738996047E+02 -0.19575580225E+03 -0.28094227208E+03  0.35928059161E+03  0.10491767847E+03 0.  0.
     200001    1    1    2    0    0 -0.33605717047E+03 -0.11011652175E+03 -0.39084750739E+03  0.80844965472E+03  0.61300000000E+03 0. -1.
         13    1    4    4    0    0  0.18885724966E+02 -0.58421772076E+02 -0.23400007429E+02  0.65706510877E+02  0.10566000000E+00 0.  1.
    -200003    1    4    4    0    0  0.98532710810E+01 -0.13733403017E+03 -0.25754226465E+03  0.29357408073E+03  0.30000000000E+02 0.  1.
    -200000    1    3    3    0    0  0.30731817442E+03  0.30587232400E+03 -0.13714159255E+03  0.46584456134E+03  0.10100000000E+03 0. -1.
<mgrwt>
<rscale>  0 0.14192240E+04</rscale>
<asrwt>0</asrwt>
<pdfrwt beam="1">  1        2 0.17446473E+00 0.14192240E+04</pdfrwt>
<pdfrwt beam="2">  1       -2 0.58903103E-01 0.14192240E+04</pdfrwt>
<totfact> 0.54466546E+01</totfact>
</mgrwt>
</event>
<event>
 8    2  0.4306980E-052  0.1993400E+04  0.7818608E-02  0.8609713E-01
          2   -1    0    0  501    0  0.00000000000E+00  0.00000000000E+00  0.62655487502E+03  0.62655487503E+03  0.25500000000E-02 0.  1.
         -2   -1    0    0    0  501 -0.00000000000E+00 -0.00000000000E+00 -0.15855123921E+04  0.15855123921E+04  0.25500000000E-02 0. -1.
    -200001    2    1    2    0    0  0.68690030291E+03 -0.35136380961E+03 -0.61944257991E+03  0.11697966951E+04  0.62404057970E+03 0.  0.
   -5000001    2    3    3    0    0  0.15908138997E+03  0.15966629190E+03 -0.19674588412E+03  0.31620541924E+03  0.10235580510E+03 0.  0.
     200001    1    1    2    0    0 -0.68690030291E+03  0.35136380961E+03 -0.33951493716E+03  0.10422705721E+04  0.61300000000E+03 0. -1.
         13    1    4    4    0    0 -0.26077359359E+01  0.40587158623E+02 -0.13921569402E+02  0.42987660909E+02  0.10566000000E+00 0.  1.
    -200003    1    4    4    0    0  0.16168912590E+03  0.11907913327E+03 -0.18282431472E+03  0.27321775834E+03  0.30000000000E+02 0.  1.
    -200000    1    3    3    0    0  0.52781891294E+03 -0.51103010151E+03 -0.42269669579E+03  0.85359127581E+03  0.10100000000E+03 0.  1.
<mgrwt>
<rscale>  0 0.19933996E+04</rscale>
<asrwt>0</asrwt>
<pdfrwt beam="1">  1        2 0.89507840E-01 0.19933996E+04</pdfrwt>
<pdfrwt beam="2">  1       -2 0.22650177E+00 0.19933996E+04</pdfrwt>
<totfact> 0.43197873E+00</totfact>
</mgrwt>
</event>
<event>
 8    2  0.4306980E-052  0.1345647E+04  0.7818608E-02  0.8994129E-01
         -2   -1    0    0    0  501 -0.00000000000E+00  0.00000000000E+00  0.23672251127E+03  0.23672251128E+03  0.25500000000E-02 0. -1.
          2   -1    0    0  501    0  0.00000000000E+00 -0.00000000000E+00 -0.19123309743E+04  0.19123309743E+04  0.25500000000E-02 0.  1.
    -200001    2    1    2    0    0  0.22808913827E+03 -0.94167182954E+02 -0.64109721876E+03  0.92150526745E+03  0.61422650601E+03 0.  0.
   -5000001    2    3    3    0    0  0.15275015365E+03  0.14578571999E+03 -0.60814081850E+03  0.64848423794E+03  0.78169470638E+02 0.  0.
     200001    1    1    2    0    0 -0.22808913827E+03  0.94167182954E+02 -0.10345112443E+04  0.12275482182E+04  0.61300000000E+03 0. -1.
         13    1    4    4    0    0  0.48563290633E+02  0.15160680963E+02 -0.20168307003E+03  0.20800074843E+03  0.10566000000E+00 0.  1.
    -200003    1    4    4    0    0  0.10418686302E+03  0.13062503902E+03 -0.40645774847E+03  0.44048348951E+03  0.30000000000E+02 0.  1.
    -200000    1    3    3    0    0  0.75338984620E+02 -0.23995290294E+03 -0.32956400261E+02  0.27302102950E+03  0.10100000000E+03 0. -1.
<mgrwt>
<rscale>  0 0.13456475E+04</rscale>
<asrwt>0</asrwt>
<pdfrwt beam="1">  1        2 0.27319013E+00 0.13456475E+04</pdfrwt>
<pdfrwt beam="2">  1       -2 0.33817503E-01 0.13456475E+04</pdfrwt>
<totfact> 0.71207881E+01</totfact>
</mgrwt>
</event>
<event>
 8    2  0.4306980E-052  0.1899164E+04  0.7818608E-02  0.8655273E-01
         -2   -1    0    0    0  501 -0.00000000000E+00  0.00000000000E+00  0.22061655756E+03  0.22061655757E+03  0.25500000000E-02 0. -1.
          2   -1    0    0  501    0  0.00000000000E+00 -0.00000000000E+00 -0.40872100050E+04  0.40872100050E+04  0.25500000000E-02 0.  1.
    -200001    2    1    2    0    0  0.52128032549E+03  0.35378364952E+02 -0.79223667059E+03  0.11297102340E+04  0.61287964900E+03 0.  0.
   -5000001    2    3    3    0    0  0.59786057395E+03 -0.74486906474E+02 -0.71154373814E+03  0.94357248484E+03  0.14508265831E+03 0.  0.
     200001    1    1    2    0    0 -0.52128032549E+03 -0.35378364952E+02 -0.30743567769E+04  0.31781163286E+04  0.61300000000E+03 0.  1.
         13    1    4    4    0    0  0.34846221163E+03  0.11242211001E+02 -0.46604156077E+03  0.58201980015E+03  0.10566000000E+00 0.  1.
    -200003    1    4    4    0    0  0.24939836233E+03 -0.85729117475E+02 -0.24550217737E+03  0.36155268469E+03  0.30000000000E+02 0.  1.
    -200000    1    3    3    0    0 -0.76580248461E+02  0.10986527143E+03 -0.80692932445E+02  0.18613774917E+03  0.10100000000E+03 0.  1.
<mgrwt>
<rscale>  0 0.18991642E+04</rscale>
<asrwt>0</asrwt>
<pdfrwt beam="1">  1        2 0.58388710E+00 0.18991642E+04</pdfrwt>
<pdfrwt beam="2">  1       -2 0.31516654E-01 0.18991642E+04</pdfrwt>
<totfact> 0.43890912E+00</totfact>
</mgrwt>
</event>
<event>
 8    2  0.4306980E-052  0.1430491E+04  0.7818608E-02  0.8932038E-01
          2   -1    0    0  501    0  0.00000000000E+00  0.00000000000E+00  0.81658624787E+03  0.81658624788E+03  0.25500000000E-02 0.  1.
         -2   -1    0    0    0  501 -0.00000000000E+00 -0.00000000000E+00 -0.62648176858E+03  0.62648176859E+03  0.25500000000E-02 0. -1.
    -200001    2    1    2    0    0  0.22608246298E+03  0.21502606770E+03  0.29291567355E+03  0.74759074759E+03  0.61297866538E+03 0.  0.
   -5000001    2    3    3    0    0  0.38126465230E+03  0.35826306011E+02  0.29849286404E+03  0.48985799545E+03  0.64935402753E+02 0.  0.
     200001    1    1    2    0    0 -0.22608246298E+03 -0.21502606770E+03 -0.10281119426E+03  0.69547726887E+03  0.61300000000E+03 0. -1.
         13    1    4    4    0    0  0.23968956611E+03  0.24000549221E+02  0.21170869641E+03  0.32069876483E+03  0.10566000000E+00 0.  1.
    -200003    1    4    4    0    0  0.14157508619E+03  0.11825756790E+02  0.86784167633E+02  0.16915923062E+03  0.30000000000E+02 0.  1.
    -200000    1    3    3    0    0 -0.15518218932E+03  0.17919976169E+03 -0.55771904952E+01  0.25773275214E+03  0.10100000000E+03 0. -1.
<mgrwt>
<rscale>  0 0.14304914E+04</rscale>
<asrwt>0</asrwt>
<pdfrwt beam="1">  1        2 0.11665518E+00 0.14304914E+04</pdfrwt>
<pdfrwt beam="2">  1       -2 0.89497395E-01 0.14304914E+04</pdfrwt>
<totfact> 0.38555399E+01</totfact>
</mgrwt>
</event>
<event>
 8    2  0.4306980E-052  0.1962125E+04  0.7818608E-02  0.8624536E-01
          2   -1    0    0  501    0  0.00000000000E+00  0.00000000000E+00  0.25996097311E+04  0.25996097311E+04  0.25500000000E-02 0.  1.
         -2   -1    0    0    0  501 -0.00000000000E+00 -0.00000000000E+00 -0.37024163195E+03  0.37024163196E+03  0.25500000000E-02 0. -1.
    -200001    2    1    2    0    0  0.86648599879E+01  0.26073504470E+03  0.27227054349E+02  0.66914450983E+03  0.61559338789E+03 0.  0.
   -5000001    2    3    3    0    0 -0.15568289546E+03  0.15953220843E+03  0.25991707857E+03  0.35040033943E+03  0.74403095876E+02 0.  0.
     200001    1    1    2    0    0 -0.86648599879E+01 -0.26073504470E+03  0.22021410448E+04  0.23007068532E+04  0.61300000000E+03 0.  1.
         13    1    4    4    0    0 -0.13499803143E+03  0.12217567615E+03  0.19002132033E+03  0.26317195457E+03  0.10566000000E+00 0.  1.
    -200003    1    4    4    0    0 -0.20684864026E+02  0.37356532287E+02  0.69895758246E+02  0.87228384859E+02  0.30000000000E+02 0.  1.
    -200000    1    3    3    0    0  0.16434775545E+03  0.10120283627E+03 -0.23269002422E+03  0.31874417040E+03  0.10100000000E+03 0. -1.
<mgrwt>
<rscale>  0 0.19621251E+04</rscale>
<asrwt>0</asrwt>
<pdfrwt beam="1">  1        2 0.37137283E+00 0.19621251E+04</pdfrwt>
<pdfrwt beam="2">  1       -2 0.52891660E-01 0.19621251E+04</pdfrwt>
<totfact> 0.12308118E+01</totfact>
</mgrwt>
</event>
<event>
 8    2  0.4306980E-052  0.1257491E+04  0.7818608E-02  0.9063972E-01
         -2   -1    0    0    0  501 -0.00000000000E+00  0.00000000000E+00  0.12187964152E+04  0.12187964152E+04  0.25500000000E-02 0. -1.
          2   -1    0    0  501    0  0.00000000000E+00 -0.00000000000E+00 -0.32435345900E+03  0.32435345901E+03  0.25500000000E-02 0.  1.
    -200001    2    1    2    0    0 -0.67806845184E+02 -0.11054912579E+03  0.39044468705E+03  0.73903412834E+03  0.61392630807E+03 0.  0.
   -5000001    2    3    3    0    0 -0.23196531426E+03 -0.13137517262E+03 -0.24198088363E+02  0.28131002105E+03  0.86501083583E+02 0.  0.
     200001    1    1    2    0    0  0.67806845184E+02  0.11054912579E+03  0.50399826917E+03  0.80411574590E+03  0.61300000000E+03 0. -1.
         13    1    4    4    0    0 -0.19691785649E+03 -0.11376255831E+03 -0.26517684060E+01  0.22743263820E+03  0.10566000000E+00 0.  1.
    -200003    1    4    4    0    0 -0.35047457768E+02 -0.17612614305E+02 -0.21546319957E+02  0.53877382846E+02  0.30000000000E+02 0. -1.
    -200000    1    3    3    0    0  0.16415846908E+03  0.20826046826E+02  0.41464277542E+03  0.45772410730E+03  0.10100000000E+03 0. -1.
<mgrwt>
<rscale>  0 0.12574909E+04</rscale>
<asrwt>0</asrwt>
<pdfrwt beam="1">  1        2 0.46336208E-01 0.12574909E+04</pdfrwt>
<pdfrwt beam="2">  1       -2 0.17411378E+00 0.12574909E+04</pdfrwt>
<totfact> 0.21423409E+01</totfact>
</mgrwt>
</event>
<event>
 8    2  0.4306980E-052  0.1827670E+04  0.7818608E-02  0.8691722E-01
         -2   -1    0    0    0  501 -0.00000000000E+00  0.00000000000E+00  0.31078551502E+03  0.31078551503E+03  0.25500000000E-02 0. -1.
          2   -1    0    0  501    0  0.00000000000E+00 -0.00000000000E+00 -0.26870452775E+04  0.26870452775E+04  0.25500000000E-02 0.  1.
    -200001    2    1    2    0    0  0.44492804188E+03  0.35727115545E+03 -0.58596727648E+03  0.10213389948E+04  0.61169604568E+03 0.  0.
   -5000001    2    3    3    0    0  0.11880086517E+03 -0.13917810324E+03 -0.26177170813E+03  0.33714270108E+03  0.10796565996E+03 0.  0.
     200001    1    1    2    0    0 -0.44492804188E+03 -0.35727115545E+03 -0.17902924860E+04  0.19764917977E+04  0.61300000000E+03 0.  1.
         13    1    4    4    0    0  0.87349314847E+02 -0.68321111125E+02 -0.21461486038E+03  0.24157240424E+03  0.10566000000E+00 0.  1.
    -200003    1    4    4    0    0  0.31451550319E+02 -0.70856992116E+02 -0.47156847746E+02  0.95570296842E+02  0.30000000000E+02 0.  1.
    -200000    1    3    3    0    0  0.32612717671E+03  0.49644925870E+03 -0.32419556835E+03  0.68419629376E+03  0.10100000000E+03 0. -1.
<mgrwt>
<rscale>  0 0.18276704E+04</rscale>
<asrwt>0</asrwt>
<pdfrwt beam="1">  1        2 0.38386360E+00 0.18276704E+04</pdfrwt>
<pdfrwt beam="2">  1       -2 0.44397932E-01 0.18276704E+04</pdfrwt>
<totfact> 0.15937421E+01</totfact>
</mgrwt>
</event>
<event>
 8    2  0.4306980E-052  0.2079028E+04  0.7818608E-02  0.8570538E-01
         -2   -1    0    0    0  501 -0.00000000000E+00  0.00000000000E+00  0.71980907374E+03  0.71980907374E+03  0.25500000000E-02 0. -1.
          2   -1    0    0  501    0  0.00000000000E+00 -0.00000000000E+00 -0.15012164806E+04  0.15012164806E+04  0.25500000000E-02 0.  1.
    -200001    2    1    2    0    0  0.42561740942E+03  0.37647839725E+03  0.26933522698E+03  0.87837323697E+03  0.61327963943E+03 0.  0.
   -5000001    2    3    3    0    0  0.47601217380E+02  0.13082042191E+03  0.90769312762E+02  0.38306437574E+03  0.34513676874E+03 0.  0.
     200001    1    1    2    0    0 -0.42561740942E+03 -0.37647839725E+03 -0.10507426339E+04  0.13426523174E+04  0.61300000000E+03 0.  1.
         13    1    4    4    0    0  0.12395390874E+03 -0.78851516187E+02  0.40126899054E+02  0.15229022388E+03  0.10566000000E+00 0.  1.
    -200003    1    4    4    0    0 -0.76352691360E+02  0.20967193810E+03  0.50642413709E+02  0.23077415187E+03  0.30000000000E+02 0.  1.
    -200000    1    3    3    0    0  0.37801619204E+03  0.24565797535E+03  0.17856591422E+03  0.49530886123E+03  0.10100000000E+03 0. -1.
<mgrwt>
<rscale>  0 0.20790279E+04</rscale>
<asrwt>0</asrwt>
<pdfrwt beam="1">  1        2 0.21445950E+00 0.20790279E+04</pdfrwt>
<pdfrwt beam="2">  1       -2 0.10282987E+00 0.20790279E+04</pdfrwt>
<totfact> 0.10460359E+01</totfact>
</mgrwt>
</event>
<event>
 8    2  0.4306980E-052  0.1731543E+04  0.7818608E-02  0.8743576E-01
          2   -1    0    0  501    0  0.00000000000E+00  0.00000000000E+00  0.73984840951E+03  0.73984840952E+03  0.25500000000E-02 0.  1.
         -2   -1    0    0    0  501 -0.00000000000E+00 -0.00000000000E+00 -0.10131270256E+04  0.10131270256E+04  0.25500000000E-02 0. -1.
    -200001    2    1    2    0    0 -0.29693966751E+03  0.22140144140E+03 -0.62971275903E+03  0.95297164592E+03  0.61190279837E+03 0.  0.
   -5000001    2    3    3    0    0 -0.30018727698E+03  0.40233627840E+03 -0.42041526905E+03  0.65843064450E+03  0.69246176675E+02 0.  0.
     200001    1    1    2    0    0  0.29693966751E+03 -0.22140144140E+03  0.35643414298E+03  0.80000378916E+03  0.61300000000E+03 0.  1.
         13    1    4    4    0    0 -0.15926806608E+03  0.21073866220E+03 -0.25516180180E+03  0.36726646577E+03  0.10566000000E+00 0.  1.
    -200003    1    4    4    0    0 -0.14091921090E+03  0.19159761620E+03 -0.16525346725E+03  0.29116417872E+03  0.30000000000E+02 0.  1.
    -200000    1    3    3    0    0  0.32476094702E+01 -0.18093483700E+03 -0.20929748998E+03  0.29454100143E+03  0.10100000000E+03 0. -1.
<mgrwt>
<rscale>  0 0.17315431E+04</rscale>
<asrwt>0</asrwt>
<pdfrwt beam="1">  1        2 0.10569263E+00 0.17315431E+04</pdfrwt>
<pdfrwt beam="2">  1       -2 0.14473243E+00 0.17315431E+04</pdfrwt>
<totfact> 0.13159164E+01</totfact>
</mgrwt>
</event>
<event>
 8    2  0.4306980E-052  0.1434200E+04  0.7818608E-02  0.8929428E-01
          2   -1    0    0  501    0  0.00000000000E+00  0.00000000000E+00  0.34373503555E+04  0.34373503555E+04  0.25500000000E-02 0.  1.
         -2   -1    0    0    0  501 -0.00000000000E+00 -0.00000000000E+00 -0.14960146139E+03  0.14960146141E+03  0.25500000000E-02 0. -1.
    -200001    2    1    2    0    0  0.13182669741E+03 -0.31392234755E+03  0.20225078926E+04  0.21403940717E+04  0.61222797058E+03 0.  0.
   -5000001    2    3    3    0    0  0.25989569427E+01  0.13230541519E+03  0.60567341737E+03  0.64592428096E+03  0.18129095609E+03 0.  0.
     200001    1    1    2    0    0 -0.13182669741E+03  0.31392234755E+03  0.12652410015E+04  0.14465577453E+04  0.61300000000E+03 0.  1.
         13    1    4    4    0    0 -0.31105093621E+02  0.16379716521E+03  0.49506221979E+03  0.52238266702E+03  0.10566000000E+00 0.  1.
    -200003    1    4    4    0    0  0.33704050564E+02 -0.31491750021E+02  0.11061119758E+03  0.12354161394E+03  0.30000000000E+02 0.  1.
    -200000    1    3    3    0    0  0.12922774047E+03 -0.44622776274E+03  0.14168344753E+04  0.14944697907E+04  0.10100000000E+03 0. -1.
<mgrwt>
<rscale>  0 0.14342003E+04</rscale>
<asrwt>0</asrwt>
<pdfrwt beam="1">  1        2 0.49105008E+00 0.14342003E+04</pdfrwt>
<pdfrwt beam="2">  1       -2 0.21371636E-01 0.14342003E+04</pdfrwt>
<totfact> 0.24530217E+01</totfact>
</mgrwt>
</event>
<event>
 8    2  0.4306980E-052  0.1736005E+04  0.7818608E-02  0.8741092E-01
          2   -1    0    0  501    0  0.00000000000E+00  0.00000000000E+00  0.22851251214E+04  0.22851251214E+04  0.25500000000E-02 0.  1.
         -2   -1    0    0    0  501 -0.00000000000E+00 -0.00000000000E+00 -0.32970969942E+03  0.32970969943E+03  0.25500000000E-02 0. -1.
    -200001    2    1    2    0    0 -0.22852877815E+02 -0.22047377915E+03  0.11261019899E+03  0.66014020756E+03  0.61153339680E+03 0.  0.
   -5000001    2    3    3    0    0 -0.47000788391E+02  0.76732318022E+02  0.27985128926E+03  0.30365014029E+03  0.76090346685E+02 0.  0.
     200001    1    1    2    0    0  0.22852877815E+02  0.22047377915E+03  0.18428052230E+04  0.19546946133E+04  0.61300000000E+03 0.  1.
         13    1    4    4    0    0 -0.41201708877E+02  0.11503542614E+02  0.13923945155E+03  0.14566244656E+03  0.10566000000E+00 0.  1.
    -200003    1    4    4    0    0 -0.57990795144E+01  0.65228775408E+02  0.14061183772E+03  0.15798769373E+03  0.30000000000E+02 0.  1.
    -200000    1    3    3    0    0  0.24147910576E+02 -0.29720609717E+03 -0.16724109027E+03  0.35649006726E+03  0.10100000000E+03 0. -1.
<mgrwt>
<rscale>  0 0.17360045E+04</rscale>
<asrwt>0</asrwt>
<pdfrwt beam="1">  1        2 0.32644645E+00 0.17360045E+04</pdfrwt>
<pdfrwt beam="2">  1       -2 0.47101386E-01 0.17360045E+04</pdfrwt>
<totfact> 0.23221470E+01</totfact>
</mgrwt>
</event>
<event>
 8    2  0.4306980E-052  0.1364087E+04  0.7818608E-02  0.8980233E-01
          2   -1    0    0  501    0  0.00000000000E+00  0.00000000000E+00  0.18088285344E+04  0.18088285344E+04  0.25500000000E-02 0.  1.
         -2   -1    0    0    0  501 -0.00000000000E+00 -0.00000000000E+00 -0.25717364788E+03  0.25717364790E+03  0.25500000000E-02 0. -1.
    -200001    2    1    2    0    0 -0.82095721028E+02  0.15535720808E+03  0.40970105929E+03  0.75806368489E+03  0.61313132594E+03 0.  0.
   -5000001    2    3    3    0    0 -0.39354867586E+02 -0.67573304635E+02  0.35216785580E+03  0.50304238469E+03  0.35059162145E+03 0.  0.
     200001    1    1    2    0    0  0.82095721028E+02 -0.15535720808E+03  0.11419538273E+04  0.13079384974E+04  0.61300000000E+03 0.  1.
         13    1    4    4    0    0 -0.31971579834E+02  0.75446291841E+02 -0.35034361884E+02  0.89116454970E+02  0.10566000000E+00 0.  1.
    -200003    1    4    4    0    0 -0.73832877517E+01 -0.14301959648E+03  0.38720221768E+03  0.41392592972E+03  0.30000000000E+02 0.  1.
    -200000    1    3    3    0    0 -0.42740853442E+02  0.22293051271E+03  0.57533203492E+02  0.25502130020E+03  0.10100000000E+03 0. -1.
<mgrwt>
<rscale>  0 0.13640866E+04</rscale>
<asrwt>0</asrwt>
<pdfrwt beam="1">  1        2 0.25840407E+00 0.13640866E+04</pdfrwt>
<pdfrwt beam="2">  1       -2 0.36739093E-01 0.13640866E+04</pdfrwt>
<totfact> 0.68610823E+01</totfact>
</mgrwt>
</event>
<event>
 8    2  0.4306980E-052  0.2374946E+04  0.7818608E-02  0.8448943E-01
         -2   -1    0    0    0  501 -0.00000000000E+00  0.00000000000E+00  0.11712660561E+04  0.11712660561E+04  0.25500000000E-02 0. -1.
          2   -1    0    0  501    0  0.00000000000E+00 -0.00000000000E+00 -0.12039042974E+04  0.12039042974E+04  0.25500000000E-02 0.  1.
    -200001    2    1    2    0    0  0.17454672628E+03  0.43209282278E+03 -0.92039511526E+03  0.11999886508E+04  0.61292318163E+03 0.  0.
   -5000001    2    3    3    0    0  0.84012443360E+02 -0.10412762727E+03 -0.43609208144E+03  0.46481570783E+03  0.89312291146E+02 0.  0.
     200001    1    1    2    0    0 -0.17454672628E+03 -0.43209282278E+03  0.88775687401E+03  0.11751817028E+04  0.61300000000E+03 0. -1.
         13    1    4    4    0    0  0.74794974540E+01  0.12122275306E+02 -0.81004457430E+02  0.82247344810E+02  0.10566000000E+00 0.  1.
    -200003    1    4    4    0    0  0.76532945906E+02 -0.11624990257E+03 -0.35508762401E+03  0.38256836302E+03  0.30000000000E+02 0.  1.
    -200000    1    3    3    0    0  0.90534282917E+02  0.53622045005E+03 -0.48430303383E+03  0.73517294293E+03  0.10100000000E+03 0. -1.
<mgrwt>
<rscale>  0 0.23749461E+04</rscale>
<asrwt>0</asrwt>
<pdfrwt beam="1">  1        2 0.17198633E+00 0.23749461E+04</pdfrwt>
<pdfrwt beam="2">  1       -2 0.16732372E+00 0.23749461E+04</pdfrwt>
<totfact> 0.42901164E+00</totfact>
</mgrwt>
</event>
<event>
 8    2  0.4306980E-052  0.1256764E+04  0.7818608E-02  0.9064573E-01
          2   -1    0    0  501    0  0.00000000000E+00  0.00000000000E+00  0.73801154916E+03  0.73801154916E+03  0.25500000000E-02 0.  1.
         -2   -1    0    0    0  501 -0.00000000000E+00 -0.00000000000E+00 -0.53503735899E+03  0.53503735900E+03  0.25500000000E-02 0. -1.
    -200001    2    1    2    0    0  0.38075876832E+02 -0.35711942262E+02 -0.26632388901E+02  0.61638057760E+03  0.61358831238E+03 0.  0.
   -5000001    2    3    3    0    0 -0.23278825384E+03 -0.12492707545E+03  0.93455168371E+02  0.29088289913E+03  0.77986198809E+02 0.  0.
     200001    1    1    2    0    0 -0.38075876832E+02  0.35711942262E+02  0.22960657907E+03  0.65666833056E+03  0.61300000000E+03 0.  1.
         13    1    4    4    0    0 -0.27855997131E+01 -0.10657403925E+02  0.18733220131E+02  0.21732108151E+02  0.10566000000E+00 0.  1.
    -200003    1    4    4    0    0 -0.23000265413E+03 -0.11426967153E+03  0.74721948241E+02  0.26915079098E+03  0.30000000000E+02 0.  1.
    -200000    1    3    3    0    0  0.27086413067E+03  0.89215133190E+02 -0.12008755727E+03  0.32549767847E+03  0.10100000000E+03 0. -1.
<mgrwt>
<rscale>  0 0.12567637E+04</rscale>
<asrwt>0</asrwt>
<pdfrwt beam="1">  1        2 0.10543022E+00 0.12567637E+04</pdfrwt>
<pdfrwt beam="2">  1       -2 0.76433908E-01 0.12567637E+04</pdfrwt>
<totfact> 0.63500661E+01</totfact>
</mgrwt>
</event>
<event>
 8    2  0.4306980E-052  0.1583894E+04  0.7818608E-02  0.8830504E-01
          2   -1    0    0  501    0  0.00000000000E+00  0.00000000000E+00  0.10467959678E+04  0.10467959678E+04  0.25500000000E-02 0.  1.
         -2   -1    0    0    0  501 -0.00000000000E+00 -0.00000000000E+00 -0.59914225944E+03  0.59914225944E+03  0.25500000000E-02 0. -1.
    -200001    2    1    2    0    0  0.48683581904E+02 -0.35460662647E+03  0.58815560774E+03  0.92231834472E+03  0.61370038245E+03 0.  0.
   -5000001    2    3    3    0    0 -0.12389845428E+03 -0.21042478133E+03  0.62120782632E+03  0.67358874690E+03  0.90516412306E+02 0.  0.
     200001    1    1    2    0    0 -0.48683581904E+02  0.35460662647E+03 -0.14050189936E+03  0.72361988254E+03  0.61300000000E+03 0. -1.
         13    1    4    4    0    0 -0.95323555476E+02 -0.83247475882E+02  0.31201942766E+03  0.33670886069E+03  0.10566000000E+00 0.  1.
    -200003    1    4    4    0    0 -0.28574898801E+02 -0.12717730545E+03  0.30918839866E+03  0.33687988621E+03  0.30000000000E+02 0. -1.
    -200000    1    3    3    0    0  0.17258203618E+03 -0.14418184514E+03 -0.33052218584E+02  0.24872959783E+03  0.10100000000E+03 0.  1.
<mgrwt>
<rscale>  0 0.15838936E+04</rscale>
<asrwt>0</asrwt>
<pdfrwt beam="1">  1        2 0.14954228E+00 0.15838936E+04</pdfrwt>
<pdfrwt beam="2">  1       -2 0.85591752E-01 0.15838936E+04</pdfrwt>
<totfact> 0.30009953E+01</totfact>
</mgrwt>
</event>
<event>
 8    2  0.4306980E-052  0.1378792E+04  0.7818608E-02  0.8969315E-01
         -2   -1    0    0    0  501 -0.00000000000E+00  0.00000000000E+00  0.22876770625E+03  0.22876770627E+03  0.25500000000E-02 0. -1.
          2   -1    0    0  501    0  0.00000000000E+00 -0.00000000000E+00 -0.20775072697E+04  0.20775072698E+04  0.25500000000E-02 0.  1.
    -200001    2    1    2    0    0 -0.26196763719E+03  0.74189861402E+02 -0.65893537990E+03  0.94042938673E+03  0.61325395887E+03 0.  0.
   -5000001    2    3    3    0    0 -0.39812095118E+03 -0.10129668855E+03 -0.39433568796E+03  0.58050265655E+03  0.11278913328E+03 0.  0.
     200001    1    1    2    0    0  0.26196763719E+03 -0.74189861402E+02 -0.11898041836E+04  0.13658455893E+04  0.61300000000E+03 0.  1.
         13    1    4    4    0    0 -0.16269718686E+03 -0.81216980859E+02 -0.12338472614E+03  0.21975070967E+03  0.10566000000E+00 0.  1.
    -200003    1    4    4    0    0 -0.23542376432E+03 -0.20079707687E+02 -0.27095096182E+03  0.36075194688E+03  0.30000000000E+02 0.  1.
    -200000    1    3    3    0    0  0.13615331399E+03  0.17548654995E+03 -0.26459969194E+03  0.35992673018E+03  0.10100000000E+03 0. -1.
<mgrwt>
<rscale>  0 0.13787916E+04</rscale>
<asrwt>0</asrwt>
<pdfrwt beam="1">  1        2 0.29678674E+00 0.13787916E+04</pdfrwt>
<pdfrwt beam="2">  1       -2 0.32681102E-01 0.13787916E+04</pdfrwt>
<totfact> 0.62337835E+01</totfact>
</mgrwt>
</event>
<event>
 8    2  0.4306980E-052  0.2341926E+04  0.7818608E-02  0.8461571E-01
          2   -1    0    0  501    0  0.00000000000E+00  0.00000000000E+00  0.10096207671E+04  0.10096207671E+04  0.25500000000E-02 0.  1.
         -2   -1    0    0    0  501 -0.00000000000E+00 -0.00000000000E+00 -0.13580889515E+04  0.13580889515E+04  0.25500000000E-02 0. -1.
    -200001    2    1    2    0    0 -0.27767183982E+03 -0.67561760053E+03 -0.86124862089E+03  0.12849938885E+04  0.61310628263E+03 0.  0.
   -5000001    2    3    3    0    0 -0.45308767632E+03 -0.42388695178E+03 -0.60413409367E+03  0.87214050617E+03  0.10335603053E+03 0.  0.
     200001    1    1    2    0    0  0.27767183982E+03  0.67561760053E+03  0.51278043650E+03  0.10827158301E+04  0.61300000000E+03 0.  1.
         13    1    4    4    0    0 -0.18906529244E+03 -0.17036417900E+03 -0.18360508108E+03  0.31381598948E+03  0.10566000000E+00 0.  1.
    -200003    1    4    4    0    0 -0.26402238389E+03 -0.25352277278E+03 -0.42052901259E+03  0.55832451669E+03  0.30000000000E+02 0.  1.
    -200000    1    3    3    0    0  0.17541583650E+03 -0.25173064875E+03 -0.25711452721E+03  0.41285338235E+03  0.10100000000E+03 0.  1.
<mgrwt>
<rscale>  0 0.23419264E+04</rscale>
<asrwt>0</asrwt>
<pdfrwt beam="1">  1        2 0.14423154E+00 0.23419264E+04</pdfrwt>
<pdfrwt beam="2">  1       -2 0.19401271E+00 0.23419264E+04</pdfrwt>
<totfact> 0.36643775E+00</totfact>
</mgrwt>
</event>
<event>
 8    2  0.4306980E-052  0.1452492E+04  0.7818608E-02  0.8916675E-01
          2   -1    0    0  501    0  0.00000000000E+00  0.00000000000E+00  0.88345292408E+03  0.88345292408E+03  0.25500000000E-02 0.  1.
         -2   -1    0    0    0  501 -0.00000000000E+00 -0.00000000000E+00 -0.59701302963E+03  0.59701302964E+03  0.25500000000E-02 0. -1.
    -200001    2    1    2    0    0  0.16141976964E+03  0.23659509230E+03  0.40963996458E+03  0.79272993095E+03  0.61529038926E+03 0.  0.
   -5000001    2    3    3    0    0 -0.45883401661E+02 -0.17691908071E+03  0.15335254733E+03  0.25435012416E+03  0.88155171275E+02 0.  0.
     200001    1    1    2    0    0 -0.16141976964E+03 -0.23659509230E+03 -0.12320007014E+03  0.68773602277E+03  0.61300000000E+03 0. -1.
         13    1    4    4    0    0  0.19924313833E+02 -0.25416410352E+02  0.41650081692E+02  0.52704009960E+02  0.10566000000E+00 0.  1.
    -200003    1    4    4    0    0 -0.65807715494E+02 -0.15150267036E+03  0.11170246564E+03  0.20164611420E+03  0.30000000000E+02 0.  1.
    -200000    1    3    3    0    0  0.20730317130E+03  0.41351417301E+03  0.25628741725E+03  0.53837980679E+03  0.10100000000E+03 0.  1.
<mgrwt>
<rscale>  0 0.14524915E+04</rscale>
<asrwt>0</asrwt>
<pdfrwt beam="1">  1        2 0.12620756E+00 0.14524915E+04</pdfrwt>
<pdfrwt beam="2">  1       -2 0.85287576E-01 0.14524915E+04</pdfrwt>
<totfact> 0.38734241E+01</totfact>
</mgrwt>
</event>
<event>
 8    2  0.4306980E-052  0.2446890E+04  0.7818608E-02  0.8422154E-01
         -2   -1    0    0    0  501 -0.00000000000E+00  0.00000000000E+00  0.14781198110E+04  0.14781198110E+04  0.25500000000E-02 0. -1.
          2   -1    0    0  501    0  0.00000000000E+00 -0.00000000000E+00 -0.10126494458E+04  0.10126494458E+04  0.25500000000E-02 0.  1.
    -200001    2    1    2    0    0  0.85956250915E+02 -0.33457392530E+03 -0.78596949087E+03  0.10550816509E+04  0.61328709505E+03 0.  0.
   -5000001    2    3    3    0    0  0.85619490837E+02 -0.38790171603E+02 -0.72394191701E+03  0.73643362836E+03  0.96990799323E+02 0.  0.
     200001    1    1    2    0    0 -0.85956250915E+02  0.33457392530E+03  0.12514398561E+04  0.14356876060E+04  0.61300000000E+03 0. -1.
         13    1    4    4    0    0  0.49658267786E+02  0.20476179355E+02 -0.20053398461E+03  0.20760324571E+03  0.10566000000E+00 0.  1.
    -200003    1    4    4    0    0  0.35961223052E+02 -0.59266350958E+02 -0.52340793240E+03  0.52883038265E+03  0.30000000000E+02 0.  1.
    -200000    1    3    3    0    0  0.33676007791E+00 -0.29578375370E+03 -0.62027573865E+02  0.31864802255E+03  0.10100000000E+03 0. -1.
<mgrwt>
<rscale>  0 0.24468896E+04</rscale>
<asrwt>0</asrwt>
<pdfrwt beam="1">  1        2 0.14466421E+00 0.24468896E+04</pdfrwt>
<pdfrwt beam="2">  1       -2 0.21115997E+00 0.24468896E+04</pdfrwt>
<totfact> 0.27952245E+00</totfact>
</mgrwt>
</event>
<event>
 8    2  0.4306980E-052  0.2846460E+04  0.7818608E-02  0.8288988E-01
          2   -1    0    0  501    0  0.00000000000E+00  0.00000000000E+00  0.19122634489E+04  0.19122634489E+04  0.25500000000E-02 0.  1.
         -2   -1    0    0    0  501 -0.00000000000E+00 -0.00000000000E+00 -0.10592595791E+04  0.10592595791E+04  0.25500000000E-02 0. -1.
    -200001    2    1    2    0    0 -0.17763938306E+03  0.14918646061E+03 -0.89211425025E+03  0.11073828500E+04  0.61369095688E+03 0.  0.
   -5000001    2    3    3    0    0  0.17191032218E+03  0.39003156480E+02 -0.92663983728E+02  0.22214441570E+03  0.98423180500E+02 0.  0.
     200001    1    1    2    0    0  0.17763938306E+03 -0.14918646061E+03  0.17451181200E+04  0.18641401780E+04  0.61300000000E+03 0.  1.
         13    1    4    4    0    0  0.93638304292E+02 -0.21958419132E+02 -0.60484205916E+02  0.11361625998E+03  0.10566000000E+00 0.  1.
    -200003    1    4    4    0    0  0.78272017886E+02  0.60961575612E+02 -0.32179777812E+02  0.10852815572E+03  0.30000000000E+02 0.  1.
    -200000    1    3    3    0    0 -0.34954970524E+03  0.11018330413E+03 -0.79945026652E+03  0.88523843431E+03  0.10100000000E+03 0. -1.
<mgrwt>
<rscale>  0 0.28464598E+04</rscale>
<asrwt>0</asrwt>
<pdfrwt beam="1">  1        2 0.27318049E+00 0.28464598E+04</pdfrwt>
<pdfrwt beam="2">  1       -2 0.15132280E+00 0.28464598E+04</pdfrwt>
<totfact> 0.22764264E+00</totfact>
</mgrwt>
</event>
<event>
 8    2  0.4306980E-052  0.1511602E+04  0.7818608E-02  0.8876774E-01
         -2   -1    0    0    0  501 -0.00000000000E+00  0.00000000000E+00  0.25604948299E+03  0.25604948300E+03  0.25500000000E-02 0. -1.
          2   -1    0    0  501    0  0.00000000000E+00 -0.00000000000E+00 -0.22309573932E+04  0.22309573932E+04  0.25500000000E-02 0.  1.
    -200001    2    1    2    0    0 -0.14325046839E+03  0.41853023418E+03 -0.10102546347E+04  0.12614403968E+04  0.61231462010E+03 0.  0.
   -5000001    2    3    3    0    0  0.67782556004E+02  0.48432415759E+03 -0.56876492654E+03  0.75747815595E+03  0.10542888858E+03 0.  0.
     200001    1    1    2    0    0  0.14325046839E+03 -0.41853023418E+03 -0.96465327546E+03  0.12255664794E+04  0.61300000000E+03 0.  1.
         13    1    4    4    0    0  0.35184097366E+00  0.32154871908E+03 -0.36390244007E+03  0.48561167572E+03  0.10566000000E+00 0.  1.
    -200003    1    4    4    0    0  0.67430715030E+02  0.16277543850E+03 -0.20486248647E+03  0.27186648023E+03  0.30000000000E+02 0.  1.
    -200000    1    3    3    0    0 -0.21103302439E+03 -0.65793923411E+02 -0.44148970817E+03  0.50396224081E+03  0.10100000000E+03 0.  1.
<mgrwt>
<rscale>  0 0.15116024E+04</rscale>
<asrwt>0</asrwt>
<pdfrwt beam="1">  1        2 0.31870819E+00 0.15116024E+04</pdfrwt>
<pdfrwt beam="2">  1       -2 0.36578499E-01 0.15116024E+04</pdfrwt>
<totfact> 0.41490372E+01</totfact>
</mgrwt>
</event>
<event>
 8    2  0.4306980E-052  0.1342321E+04  0.7818608E-02  0.8996661E-01
         -2   -1    0    0    0  501 -0.00000000000E+00  0.00000000000E+00  0.25223821113E+03  0.25223821114E+03  0.25500000000E-02 0. -1.
          2   -1    0    0  501    0  0.00000000000E+00 -0.00000000000E+00 -0.17858379722E+04  0.17858379722E+04  0.25500000000E-02 0.  1.
    -200001    2    1    2    0    0 -0.83282191969E+02  0.18792973742E+03 -0.10415227574E+04  0.12255724681E+04  0.61237628199E+03 0.  0.
   -5000001    2    3    3    0    0 -0.31510254647E+03  0.13084499147E+03 -0.75677814736E+03  0.84050125662E+03  0.13160232324E+03 0.  0.
     200001    1    1    2    0    0  0.83282191969E+02 -0.18792973742E+03 -0.49207700367E+03  0.81250371522E+03  0.61300000000E+03 0. -1.
         13    1    4    4    0    0 -0.18039678265E+03  0.13551140044E+03 -0.42606577968E+03  0.48211865616E+03  0.10566000000E+00 0.  1.
    -200003    1    4    4    0    0 -0.13470576382E+03 -0.46664089714E+01 -0.33071236768E+03  0.35838260046E+03  0.30000000000E+02 0.  1.
    -200000    1    3    3    0    0  0.23182035450E+03  0.57084745954E+02 -0.28474461003E+03  0.38507121149E+03  0.10100000000E+03 0.  1.
<mgrwt>
<rscale>  0 0.13423212E+04</rscale>
<asrwt>0</asrwt>
<pdfrwt beam="1">  1        2 0.25511970E+00 0.13423212E+04</pdfrwt>
<pdfrwt beam="2">  1       -2 0.36034031E-01 0.13423212E+04</pdfrwt>
<totfact> 0.73304494E+01</totfact>
</mgrwt>
</event>
<event>
 8    2  0.4306980E-052  0.1416782E+04  0.7818608E-02  0.8941759E-01
         -2   -1    0    0    0  501 -0.00000000000E+00  0.00000000000E+00  0.26114660834E+03  0.26114660835E+03  0.25500000000E-02 0. -1.
          2   -1    0    0  501    0  0.00000000000E+00 -0.00000000000E+00 -0.19215951685E+04  0.19215951685E+04  0.25500000000E-02 0.  1.
    -200001    2    1    2    0    0  0.17828026195E+03 -0.29490020211E+03 -0.96048346097E+03  0.11905370998E+04  0.61327002723E+03 0.  0.
   -5000001    2    3    3    0    0 -0.15301453115E+03 -0.22851875711E+02 -0.58701526752E+03  0.61308924648E+03  0.85766222233E+02 0.  0.
     200001    1    1    2    0    0 -0.17828026195E+03  0.29490020211E+03 -0.69996509923E+03  0.99220467704E+03  0.61300000000E+03 0. -1.
         13    1    4    4    0    0 -0.10267534548E+03 -0.45036565604E+02 -0.32919933414E+03  0.34776821530E+03  0.10566000000E+00 0.  1.
    -200003    1    4    4    0    0 -0.50339185670E+02  0.22184689892E+02 -0.25781593338E+03  0.26532103117E+03  0.30000000000E+02 0.  1.
    -200000    1    3    3    0    0  0.33129479311E+03 -0.27204832640E+03 -0.37346819344E+03  0.57744785336E+03  0.10100000000E+03 0. -1.
<mgrwt>
<rscale>  0 0.14167824E+04</rscale>
<asrwt>0</asrwt>
<pdfrwt beam="1">  1        2 0.27451359E+00 0.14167824E+04</pdfrwt>
<pdfrwt beam="2">  1       -2 0.37306660E-01 0.14167824E+04</pdfrwt>
<totfact> 0.58048551E+01</totfact>
</mgrwt>
</event>
<event>
 8    2  0.4306980E-052  0.1910747E+04  0.7818608E-02  0.8649525E-01
          2   -1    0    0  501    0  0.00000000000E+00  0.00000000000E+00  0.29419172316E+04  0.29419172316E+04  0.25500000000E-02 0.  1.
         -2   -1    0    0    0  501 -0.00000000000E+00 -0.00000000000E+00 -0.31025308861E+03  0.31025308862E+03  0.25500000000E-02 0. -1.
    -200001    2    1    2    0    0  0.73150009653E+03  0.27720005060E+02  0.13749942605E+04  0.16739279486E+04  0.61283339571E+03 0.  0.
   -5000001    2    3    3    0    0  0.84470183304E+02  0.49082369456E+02  0.77521510906E+03  0.78564866275E+03  0.82103989583E+02 0.  0.
     200001    1    1    2    0    0 -0.73150009653E+03 -0.27720005060E+02  0.12566698825E+04  0.15782423716E+04  0.61300000000E+03 0.  1.
         13    1    4    4    0    0  0.85538008237E+01 -0.10307842545E+02  0.27623724715E+03  0.27656183216E+03  0.10566000000E+00 0.  1.
    -200003    1    4    4    0    0  0.75916382481E+02  0.59390212002E+02  0.49897786190E+03  0.50908683059E+03  0.30000000000E+02 0.  1.
    -200000    1    3    3    0    0  0.64702991323E+03 -0.21362364396E+02  0.59977915143E+03  0.88827928588E+03  0.10100000000E+03 0. -1.
<mgrwt>
<rscale>  0 0.19107474E+04</rscale>
<asrwt>0</asrwt>
<pdfrwt beam="1">  1        2 0.42027389E+00 0.19107474E+04</pdfrwt>
<pdfrwt beam="2">  1       -2 0.44321870E-01 0.19107474E+04</pdfrwt>
<totfact> 0.11533520E+01</totfact>
</mgrwt>
</event>
<event>
 8    2  0.4306980E-052  0.1306844E+04  0.7818608E-02  0.9024155E-01
         -2   -1    0    0    0  501 -0.00000000000E+00  0.00000000000E+00  0.22211978861E+03  0.22211978862E+03  0.25500000000E-02 0. -1.
          2   -1    0    0  501    0  0.00000000000E+00 -0.00000000000E+00 -0.19222085626E+04  0.19222085626E+04  0.25500000000E-02 0.  1.
    -200001    2    1    2    0    0  0.21750192172E+03  0.43023501277E+02 -0.92513724532E+03  0.11316699787E+04  0.61289469768E+03 0.  0.
   -5000001    2    3    3    0    0  0.10822489180E+03  0.23042622098E+02  0.41337277794E+02  0.15360315655E+03  0.98191494175E+02 0.  0.
     200001    1    1    2    0    0 -0.21750192172E+03 -0.43023501277E+02 -0.77495152866E+03  0.10126583725E+04  0.61300000000E+03 0. -1.
         13    1    4    4    0    0  0.27391498063E+02  0.50174619305E+02  0.21417865863E+02  0.61045251500E+02  0.10566000000E+00 0.  1.
    -200003    1    4    4    0    0  0.80833393736E+02 -0.27131997207E+02  0.19919411931E+02  0.92557905049E+02  0.30000000000E+02 0.  1.
    -200000    1    3    3    0    0  0.10927702992E+03  0.19980879179E+02 -0.96647452312E+03  0.97806682217E+03  0.10100000000E+03 0.  1.
<mgrwt>
<rscale>  0 0.13068444E+04</rscale>
<asrwt>0</asrwt>
<pdfrwt beam="1">  1        2 0.27460121E+00 0.13068444E+04</pdfrwt>
<pdfrwt beam="2">  1       -2 0.31731399E-01 0.13068444E+04</pdfrwt>
<totfact> 0.79604470E+01</totfact>
</mgrwt>
</event>
<event>
 8    2  0.4306980E-052  0.1435938E+04  0.7818608E-02  0.8928208E-01
          2   -1    0    0  501    0  0.00000000000E+00  0.00000000000E+00  0.13518165353E+04  0.13518165353E+04  0.25500000000E-02 0.  1.
         -2   -1    0    0    0  501 -0.00000000000E+00 -0.00000000000E+00 -0.38132356627E+03  0.38132356627E+03  0.25500000000E-02 0. -1.
    -200001    2    1    2    0    0  0.66475026493E+02 -0.26637479627E+03  0.18005504678E+03  0.69586696003E+03  0.61354424857E+03 0.  0.
   -5000001    2    3    3    0    0  0.16151146791E+03  0.14131163657E+03  0.10908590905E+03  0.25942936858E+03  0.96689859014E+02 0.  0.
     200001    1    1    2    0    0 -0.66475026493E+02  0.26637479627E+03  0.79043792227E+03  0.10372731416E+04  0.61300000000E+03 0.  1.
         13    1    4    4    0    0  0.13642511881E+03  0.12950953896E+03  0.11121484070E+03  0.21852525181E+03  0.10566000000E+00 0.  1.
    -200003    1    4    4    0    0  0.25086349096E+02  0.11802097612E+02 -0.21289316519E+01  0.40904116773E+02  0.30000000000E+02 0.  1.
    -200000    1    3    3    0    0 -0.95036441412E+02 -0.40768643284E+03  0.70969137732E+02  0.43643759145E+03  0.10100000000E+03 0. -1.
<mgrwt>
<rscale>  0 0.14359380E+04</rscale>
<asrwt>0</asrwt>
<pdfrwt beam="1">  1        2 0.19311664E+00 0.14359380E+04</pdfrwt>
<pdfrwt beam="2">  1       -2 0.54474796E-01 0.14359380E+04</pdfrwt>
<totfact> 0.54180580E+01</totfact>
</mgrwt>
</event>
<event>
 8    2  0.4306980E-052  0.1927625E+04  0.7818608E-02  0.8641227E-01
          2   -1    0    0  501    0  0.00000000000E+00  0.00000000000E+00  0.24822156076E+04  0.24822156076E+04  0.25500000000E-02 0.  1.
         -2   -1    0    0    0  501 -0.00000000000E+00 -0.00000000000E+00 -0.37423602291E+03  0.37423602291E+03  0.25500000000E-02 0. -1.
    -200001    2    1    2    0    0 -0.36874896712E+03  0.59754905988E+03  0.14167790640E+04  0.16960345333E+04  0.61337553116E+03 0.  0.
   -5000001    2    3    3    0    0  0.70740009075E+02  0.36362988561E+03  0.87214576460E+03  0.95125592786E+03  0.83778057947E+02 0.  0.
     200001    1    1    2    0    0  0.36874896712E+03 -0.59754905988E+03  0.69120052071E+03  0.11604170972E+04  0.61300000000E+03 0. -1.
         13    1    4    4    0    0  0.38651875279E+02  0.58126161795E+02  0.19399858850E+03  0.20617488123E+03  0.10566000000E+00 0.  1.
    -200003    1    4    4    0    0  0.32088133796E+02  0.30550372381E+03  0.67814717610E+03  0.74508104663E+03  0.30000000000E+02 0. -1.
    -200000    1    3    3    0    0 -0.43948897619E+03  0.23391917428E+03  0.54463329937E+03  0.74477860540E+03  0.10100000000E+03 0. -1.
<mgrwt>
<rscale>  0 0.19276250E+04</rscale>
<asrwt>0</asrwt>
<pdfrwt beam="1">  1        2 0.35460223E+00 0.19276250E+04</pdfrwt>
<pdfrwt beam="2">  1       -2 0.53462289E-01 0.19276250E+04</pdfrwt>
<totfact> 0.13929023E+01</totfact>
</mgrwt>
</event>
<event>
 8    2  0.4306980E-052  0.1567243E+04  0.7818608E-02  0.8840928E-01
         -2   -1    0    0    0  501 -0.00000000000E+00  0.00000000000E+00  0.40608908829E+03  0.40608908830E+03  0.25500000000E-02 0. -1.
          2   -1    0    0  501    0  0.00000000000E+00 -0.00000000000E+00 -0.15121380642E+04  0.15121380642E+04  0.25500000000E-02 0.  1.
    -200001    2    1    2    0    0 -0.87656263837E+02  0.48023198312E+03 -0.53797426737E+03  0.95035099684E+03  0.61273511948E+03 0.  0.
   -5000001    2    3    3    0    0  0.16451691116E+03  0.75938585075E+02 -0.39663632470E+03  0.44318053642E+03  0.79095708004E+02 0.  0.
     200001    1    1    2    0    0  0.87656263837E+02 -0.48023198312E+03 -0.56807470854E+03  0.96787615565E+03  0.61300000000E+03 0. -1.
         13    1    4    4    0    0  0.13902087564E+02  0.25727010379E+02 -0.27117000199E+02  0.39880947400E+02  0.10566000000E+00 0.  1.
    -200003    1    4    4    0    0  0.15061482360E+03  0.50211574696E+02 -0.36951932450E+03  0.40329958902E+03  0.30000000000E+02 0.  1.
    -200000    1    3    3    0    0 -0.25217317500E+03  0.40429339804E+03 -0.14133794267E+03  0.50717046043E+03  0.10100000000E+03 0. -1.
<mgrwt>
<rscale>  0 0.15672431E+04</rscale>
<asrwt>0</asrwt>
<pdfrwt beam="1">  1        2 0.21601972E+00 0.15672431E+04</pdfrwt>
<pdfrwt beam="2">  1       -2 0.58012728E-01 0.15672431E+04</pdfrwt>
<totfact> 0.38567386E+01</totfact>
</mgrwt>
</event>
<event>
 8    2  0.4306980E-052  0.1541968E+04  0.7818608E-02  0.8857015E-01
          2   -1    0    0  501    0  0.00000000000E+00  0.00000000000E+00  0.18554596807E+04  0.18554596807E+04  0.25500000000E-02 0.  1.
         -2   -1    0    0    0  501 -0.00000000000E+00 -0.00000000000E+00 -0.32036066860E+03  0.32036066861E+03  0.25500000000E-02 0. -1.
    -200001    2    1    2    0    0 -0.27309516934E+03  0.34847874048E+03  0.55713319642E+03  0.93961464606E+03  0.61356326525E+03 0.  0.
   -5000001    2    3    3    0    0 -0.27607323532E+03  0.37952874977E+03  0.12309857387E+03  0.49289322781E+03  0.86786934330E+02 0.  0.
     200001    1    1    2    0    0  0.27309516934E+03 -0.34847874048E+03  0.97796581565E+03  0.12362057032E+04  0.61300000000E+03 0.  1.
         13    1    4    4    0    0 -0.35013597142E+01 -0.39389411523E+01  0.41046516660E+01  0.66808761839E+01  0.10566000000E+00 0.  1.
    -200003    1    4    4    0    0 -0.27257187561E+03  0.38346769093E+03  0.11899392221E+03  0.48621235163E+03  0.30000000000E+02 0.  1.
    -200000    1    3    3    0    0  0.29780659843E+01 -0.31050009296E+02  0.43403462254E+03  0.44672141825E+03  0.10100000000E+03 0.  1.
<mgrwt>
<rscale>  0 0.15419680E+04</rscale>
<asrwt>0</asrwt>
<pdfrwt beam="1">  1        2 0.26506567E+00 0.15419680E+04</pdfrwt>
<pdfrwt beam="2">  1       -2 0.45765809E-01 0.15419680E+04</pdfrwt>
<totfact> 0.41601405E+01</totfact>
</mgrwt>
</event>
<event>
 8    2  0.4306980E-052  0.1421139E+04  0.7818608E-02  0.8938658E-01
         -2   -1    0    0    0  501 -0.00000000000E+00  0.00000000000E+00  0.11480895306E+03  0.11480895309E+03  0.25500000000E-02 0. -1.
          2   -1    0    0  501    0  0.00000000000E+00 -0.00000000000E+00 -0.43978175735E+04  0.43978175735E+04  0.25500000000E-02 0.  1.
    -200001    2    1    2    0    0 -0.32397985533E+03 -0.15512865922E+03 -0.21230893869E+04  0.22388525838E+04  0.61312682177E+03 0.  0.
   -5000001    2    3    3    0    0 -0.33598457379E+03  0.75460395142E+01 -0.18904668932E+04  0.19373208351E+04  0.25769044886E+03 0.  0.
     200001    1    1    2    0    0  0.32397985533E+03  0.15512865922E+03 -0.21599192336E+04  0.22737739428E+04  0.61300000000E+03 0. -1.
         13    1    4    4    0    0 -0.28497844008E+03  0.34376938709E+01 -0.87756352394E+03  0.92268211143E+03  0.10566000000E+00 0.  1.
    -200003    1    4    4    0    0 -0.51006133717E+02  0.41083456433E+01 -0.10129033692E+04  0.10146387237E+04  0.30000000000E+02 0.  1.
    -200000    1    3    3    0    0  0.12004718462E+02 -0.16267469873E+03 -0.23262249376E+03  0.30153174870E+03  0.10100000000E+03 0. -1.
<mgrwt>
<rscale>  0 0.14211387E+04</rscale>
<asrwt>0</asrwt>
<pdfrwt beam="1">  1        2 0.62825955E+00 0.14211387E+04</pdfrwt>
<pdfrwt beam="2">  1       -2 0.16401282E-01 0.14211387E+04</pdfrwt>
<totfact> 0.88285396E+00</totfact>
</mgrwt>
</event>
<event>
 8    2  0.4306980E-052  0.1568910E+04  0.7818608E-02  0.8839878E-01
          2   -1    0    0  501    0  0.00000000000E+00  0.00000000000E+00  0.26736692574E+04  0.26736692574E+04  0.25500000000E-02 0.  1.
         -2   -1    0    0    0  501 -0.00000000000E+00 -0.00000000000E+00 -0.23015934179E+03  0.23015934180E+03  0.25500000000E-02 0. -1.
    -200001    2    1    2    0    0  0.94308562558E+02  0.43993768910E+03  0.15791270942E+04  0.17525832139E+04  0.61275302257E+03 0.  0.
   -5000001    2    3    3    0    0  0.21762152138E+03  0.41244461531E+03  0.14989839980E+04  0.15720676445E+04  0.83510271090E+02 0.  0.
     200001    1    1    2    0    0 -0.94308562558E+02 -0.43993768910E+03  0.86438282136E+03  0.11512453853E+04  0.61300000000E+03 0.  1.
         13    1    4    4    0    0  0.54811758951E+02  0.47721225256E+02  0.20425394305E+03  0.21679789823E+03  0.10566000000E+00 0.  1.
    -200003    1    4    4    0    0  0.16280976243E+03  0.36472339005E+03  0.12947300550E+04  0.13552697463E+04  0.30000000000E+02 0.  1.
    -200000    1    3    3    0    0 -0.12331295882E+03  0.27493073794E+02  0.80143096213E+02  0.18051556938E+03  0.10100000000E+03 0. -1.
<mgrwt>
<rscale>  0 0.15689104E+04</rscale>
<asrwt>0</asrwt>
<pdfrwt beam="1">  1        2 0.38195274E+00 0.15689104E+04</pdfrwt>
<pdfrwt beam="2">  1       -2 0.32879907E-01 0.15689104E+04</pdfrwt>
<totfact> 0.29659840E+01</totfact>
</mgrwt>
</event>
<event>
 8    2  0.4306980E-052  0.1455800E+04  0.7818608E-02  0.8914389E-01
          2   -1    0    0  501    0  0.00000000000E+00  0.00000000000E+00  0.23621819888E+04  0.23621819888E+04  0.25500000000E-02 0.  1.
         -2   -1    0    0    0  501 -0.00000000000E+00 -0.00000000000E+00 -0.22430051227E+03  0.22430051228E+03  0.25500000000E-02 0. -1.
    -200001    2    1    2    0    0 -0.52090109498E+02  0.15240331098E+03  0.17047452237E+04  0.18188131958E+04  0.61317616946E+03 0.  0.
   -5000001    2    3    3    0    0  0.45448817171E+02 -0.11736271951E+03  0.87954197660E+03  0.93935372975E+03  0.30487987481E+03 0.  0.
     200001    1    1    2    0    0  0.52090109498E+02 -0.15240331098E+03  0.43313625276E+03  0.76766930521E+03  0.61300000000E+03 0. -1.
         13    1    4    4    0    0 -0.84924663340E+02  0.61064342674E+02  0.33379990707E+03  0.34980486205E+03  0.10566000000E+00 0.  1.
    -200003    1    4    4    0    0  0.13037348051E+03 -0.17842706219E+03  0.54574206953E+03  0.58954886769E+03  0.30000000000E+02 0.  1.
    -200000    1    3    3    0    0 -0.97538926669E+02  0.26976603049E+03  0.82520324714E+03  0.87945946610E+03  0.10100000000E+03 0.  1.
<mgrwt>
<rscale>  0 0.14558003E+04</rscale>
<asrwt>0</asrwt>
<pdfrwt beam="1">  1        2 0.33745458E+00 0.14558003E+04</pdfrwt>
<pdfrwt beam="2">  1       -2 0.32042929E-01 0.14558003E+04</pdfrwt>
<totfact> 0.45852652E+01</totfact>
</mgrwt>
</event>
<event>
 8    2  0.4306980E-052  0.1545758E+04  0.7818608E-02  0.8854582E-01
         -2   -1    0    0    0  501 -0.00000000000E+00  0.00000000000E+00  0.61624953601E+03  0.61624953601E+03  0.25500000000E-02 0. -1.
          2   -1    0    0  501    0  0.00000000000E+00 -0.00000000000E+00 -0.96931774480E+03  0.96931774481E+03  0.25500000000E-02 0.  1.
    -200001    2    1    2    0    0 -0.21057522148E+03 -0.41843423566E+03 -0.22508415578E+03  0.80353272193E+03  0.61283996652E+03 0.  0.
   -5000001    2    3    3    0    0 -0.19383398484E+03 -0.23126740790E+03  0.16949608886E+03  0.35497251429E+03  0.78869094874E+02 0.  0.
     200001    1    1    2    0    0  0.21057522148E+03  0.41843423566E+03 -0.12798405302E+03  0.78203455889E+03  0.61300000000E+03 0.  1.
         13    1    4    4    0    0 -0.10582721990E+03 -0.75773361058E+02  0.81412388672E+02  0.15352195580E+03  0.10566000000E+00 0.  1.
    -200003    1    4    4    0    0 -0.88006764936E+02 -0.15549404684E+03  0.88083700190E+02  0.20145055849E+03  0.30000000000E+02 0.  1.
    -200000    1    3    3    0    0 -0.16741236640E+02 -0.18716682776E+03 -0.39458024464E+03  0.44856020764E+03  0.10100000000E+03 0.  1.
<mgrwt>
<rscale>  0 0.15457576E+04</rscale>
<asrwt>0</asrwt>
<pdfrwt beam="1">  1        2 0.13847396E+00 0.15457576E+04</pdfrwt>
<pdfrwt beam="2">  1       -2 0.88035648E-01 0.15457576E+04</pdfrwt>
<totfact> 0.31498286E+01</totfact>
</mgrwt>
</event>
<event>
 8    2  0.4306980E-052  0.1354362E+04  0.7818608E-02  0.8987533E-01
         -2   -1    0    0    0  501 -0.00000000000E+00  0.00000000000E+00  0.44020525594E+03  0.44020525595E+03  0.25500000000E-02 0. -1.
          2   -1    0    0  501    0  0.00000000000E+00 -0.00000000000E+00 -0.10417274707E+04  0.10417274707E+04  0.25500000000E-02 0.  1.
    -200001    2    1    2    0    0  0.16989808243E+03 -0.14661260025E+03 -0.10165031430E+03  0.65973960469E+03  0.61201547908E+03 0.  0.
   -5000001    2    3    3    0    0  0.34749290792E+03 -0.16638313905E+03 -0.17678469965E+03  0.44116016352E+03  0.12220797778E+03 0.  0.
     200001    1    1    2    0    0 -0.16989808243E+03  0.14661260025E+03 -0.49987190050E+03  0.82219312201E+03  0.61300000000E+03 0.  1.
         13    1    4    4    0    0  0.10071779483E+03 -0.87476424866E+02 -0.15001694233E+02  0.13424329070E+03  0.10566000000E+00 0.  1.
    -200003    1    4    4    0    0  0.24677511308E+03 -0.78906714182E+02 -0.16178300541E+03  0.30691687282E+03  0.30000000000E+02 0.  1.
    -200000    1    3    3    0    0 -0.17759482549E+03  0.19770538797E+02  0.75134385345E+02  0.21857944118E+03  0.10100000000E+03 0. -1.
<mgrwt>
<rscale>  0 0.13543617E+04</rscale>
<asrwt>0</asrwt>
<pdfrwt beam="1">  1        2 0.14881821E+00 0.13543617E+04</pdfrwt>
<pdfrwt beam="2">  1       -2 0.62886465E-01 0.13543617E+04</pdfrwt>
<totfact> 0.60667384E+01</totfact>
</mgrwt>
</event>
<event>
 8    2  0.4306980E-052  0.1799848E+04  0.7818608E-02  0.8706380E-01
         -2   -1    0    0    0  501 -0.00000000000E+00  0.00000000000E+00  0.16593189021E+04  0.16593189021E+04  0.25500000000E-02 0. -1.
          2   -1    0    0  501    0  0.00000000000E+00 -0.00000000000E+00 -0.48806984855E+03  0.48806984855E+03  0.25500000000E-02 0.  1.
    -200001    2    1    2    0    0 -0.51530749483E+03  0.30601014057E+03  0.25978975998E+03  0.89610498420E+03  0.61345692835E+03 0.  0.
   -5000001    2    3    3    0    0 -0.56282783746E+03  0.26145489993E+03  0.20562560300E+02  0.62838497093E+03  0.96493593030E+02 0.  0.
     200001    1    1    2    0    0  0.51530749483E+03 -0.30601014057E+03  0.91145929358E+03  0.12512837665E+04  0.61300000000E+03 0. -1.
         13    1    4    4    0    0 -0.63344358020E+02  0.63139601543E+02  0.10388542198E+02  0.90039157865E+02  0.10566000000E+00 0.  1.
    -200003    1    4    4    0    0 -0.49948347944E+03  0.19831529839E+03  0.10174018102E+02  0.53834581307E+03  0.30000000000E+02 0.  1.
    -200000    1    3    3    0    0  0.47520342626E+02  0.44555240644E+02  0.23922719968E+03  0.26772001326E+03  0.10100000000E+03 0. -1.
<mgrwt>
<rscale>  0 0.17998484E+04</rscale>
<asrwt>0</asrwt>
<pdfrwt beam="1">  1        2 0.69724264E-01 0.17998484E+04</pdfrwt>
<pdfrwt beam="2">  1       -2 0.23704556E+00 0.17998484E+04</pdfrwt>
<totfact> 0.50479625E+00</totfact>
</mgrwt>
</event>
<event>
 8    2  0.4306980E-052  0.1246872E+04  0.7818608E-02  0.9072791E-01
          2   -1    0    0  501    0  0.00000000000E+00  0.00000000000E+00  0.35866520149E+04  0.35866520149E+04  0.25500000000E-02 0.  1.
         -2   -1    0    0    0  501 -0.00000000000E+00 -0.00000000000E+00 -0.10836638006E+03  0.10836638009E+03  0.25500000000E-02 0. -1.
    -200001    2    1    2    0    0 -0.75558487385E+02 -0.86186122275E+00  0.14804380430E+04  0.16038766427E+04  0.61238358740E+03 0.  0.
   -5000001    2    3    3    0    0 -0.17131668565E+03 -0.56665757976E+02  0.14318794154E+04  0.14462611367E+04  0.93979787190E+02 0.  0.
     200001    1    1    2    0    0  0.75558487385E+02  0.86186122275E+00  0.19978475919E+04  0.20911417523E+04  0.61300000000E+03 0. -1.
         13    1    4    4    0    0 -0.15873716538E+03 -0.31818717167E+02  0.10948394358E+04  0.11067444691E+04  0.10566000000E+00 0.  1.
    -200003    1    4    4    0    0 -0.12579520275E+02 -0.24847040809E+02  0.33703997957E+03  0.33951666762E+03  0.30000000000E+02 0.  1.
    -200000    1    3    3    0    0  0.95758198269E+02  0.55803896753E+02  0.48558627617E+02  0.15761550604E+03  0.10100000000E+03 0. -1.
<mgrwt>
<rscale>  0 0.12468721E+04</rscale>
<asrwt>0</asrwt>
<pdfrwt beam="1">  1        2 0.51237884E+00 0.12468721E+04</pdfrwt>
<pdfrwt beam="2">  1       -2 0.15480912E-01 0.12468721E+04</pdfrwt>
<totfact> 0.35527220E+01</totfact>
</mgrwt>
</event>
<event>
 8    2  0.4306980E-052  0.1882369E+04  0.7818608E-02  0.8663683E-01
          2   -1    0    0  501    0  0.00000000000E+00  0.00000000000E+00  0.14002859209E+04  0.14002859209E+04  0.25500000000E-02 0.  1.
         -2   -1    0    0    0  501 -0.00000000000E+00 -0.00000000000E+00 -0.63260505326E+03  0.63260505326E+03  0.25500000000E-02 0. -1.
    -200001    2    1    2    0    0 -0.14949238935E+03 -0.69867983468E+03  0.40768973170E+03  0.10249901339E+04  0.61146739189E+03 0.  0.
   -5000001    2    3    3    0    0 -0.44527111924E+02  0.74539969357E+02  0.16331776547E+03  0.20109376132E+03  0.78912214503E+02 0.  0.
     200001    1    1    2    0    0  0.14949238935E+03  0.69867983468E+03  0.35999113592E+03  0.10079008403E+04  0.61300000000E+03 0. -1.
         13    1    4    4    0    0 -0.41575070560E+02  0.61814407166E+01  0.49387413298E+02  0.64852328082E+02  0.10566000000E+00 0.  1.
    -200003    1    4    4    0    0 -0.29520413649E+01  0.68358528640E+02  0.11393035217E+03  0.13624143324E+03  0.30000000000E+02 0.  1.
    -200000    1    3    3    0    0 -0.10496527742E+03 -0.77321980404E+03  0.24437196623E+03  0.82389637255E+03  0.10100000000E+03 0.  1.
<mgrwt>
<rscale>  0 0.18823687E+04</rscale>
<asrwt>0</asrwt>
<pdfrwt beam="1">  1        2 0.20004084E+00 0.18823687E+04</pdfrwt>
<pdfrwt beam="2">  1       -2 0.90372152E-01 0.18823687E+04</pdfrwt>
<totfact> 0.16296326E+01</totfact>
</mgrwt>
</event>
<event>
 8    2  0.4306980E-052  0.1326088E+04  0.7818608E-02  0.9009129E-01
         -2   -1    0    0    0  501 -0.00000000000E+00  0.00000000000E+00  0.42842861163E+03  0.42842861164E+03  0.25500000000E-02 0.  1.
          2   -1    0    0  501    0  0.00000000000E+00 -0.00000000000E+00 -0.10261396867E+04  0.10261396867E+04  0.25500000000E-02 0. -1.
    -200001    2    1    2    0    0 -0.15406099691E+03 -0.19898969701E+03 -0.27651595793E+03  0.71818049729E+03  0.61318061076E+03 0.  0.
   -5000001    2    3    3    0    0 -0.16791110631E+02 -0.24763992569E+03 -0.38718924007E+03  0.50923207827E+03  0.21861913851E+03 0.  0.
     200001    1    1    2    0    0  0.15406099691E+03  0.19898969701E+03 -0.32119511718E+03  0.73638780108E+03  0.61300000000E+03 0.  1.
         13    1    4    4    0    0 -0.30955951297E+02 -0.18740467167E+03 -0.10145921727E+03  0.21534336725E+03  0.10566000000E+00 0.  1.
    -200003    1    4    4    0    0  0.14164840666E+02 -0.60235254021E+02 -0.28573002280E+03  0.29388871103E+03  0.30000000000E+02 0.  1.
    -200000    1    3    3    0    0 -0.13726988628E+03  0.48650228683E+02  0.11067328214E+03  0.20894841902E+03  0.10100000000E+03 0.  1.
<mgrwt>
<rscale>  0 0.13260884E+04</rscale>
<asrwt>0</asrwt>
<pdfrwt beam="1">  1        2 0.14659138E+00 0.13260884E+04</pdfrwt>
<pdfrwt beam="2">  1       -2 0.61204088E-01 0.13260884E+04</pdfrwt>
<totfact> 0.65819733E+01</totfact>
</mgrwt>
</event>
<event>
 8    2  0.4306980E-052  0.1466617E+04  0.7818608E-02  0.8906961E-01
          2   -1    0    0  501    0  0.00000000000E+00  0.00000000000E+00  0.16529336140E+04  0.16529336140E+04  0.25500000000E-02 0.  1.
         -2   -1    0    0    0  501 -0.00000000000E+00 -0.00000000000E+00 -0.32532526869E+03  0.32532526870E+03  0.25500000000E-02 0. -1.
    -200001    2    1    2    0    0  0.27502405278E+03  0.57217381065E+02  0.27723845955E+03  0.73007702288E+03  0.61419804426E+03 0.  0.
   -5000001    2    3    3    0    0  0.25372507700E+03  0.14172003223E+03  0.43187128773E+03  0.52585494774E+03  0.74495870135E+02 0.  0.
     200001    1    1    2    0    0 -0.27502405278E+03 -0.57217381065E+02  0.10503698858E+04  0.12481818598E+04  0.61300000000E+03 0.  1.
         13    1    4    4    0    0  0.15748946706E+03  0.91469869293E+02  0.31275344585E+03  0.36191766781E+03  0.10566000000E+00 0.  1.
    -200003    1    4    4    0    0  0.96235609939E+02  0.50250162934E+02  0.11911784188E+03  0.16393727993E+03  0.30000000000E+02 0. -1.
    -200000    1    3    3    0    0  0.21298975782E+02 -0.84502651161E+02 -0.15463282818E+03  0.20422207514E+03  0.10100000000E+03 0. -1.
<mgrwt>
<rscale>  0 0.14666166E+04</rscale>
<asrwt>0</asrwt>
<pdfrwt beam="1">  1        2 0.23613337E+00 0.14666166E+04</pdfrwt>
<pdfrwt beam="2">  1       -2 0.46475038E-01 0.14666166E+04</pdfrwt>
<totfact> 0.51660183E+01</totfact>
</mgrwt>
</event>
<event>
 8    2  0.4306980E-052  0.2145422E+04  0.7818608E-02  0.8541495E-01
          2   -1    0    0  501    0  0.00000000000E+00  0.00000000000E+00  0.93764223644E+03  0.93764223644E+03  0.25500000000E-02 0.  1.
         -2   -1    0    0    0  501 -0.00000000000E+00 -0.00000000000E+00 -0.12272361553E+04  0.12272361553E+04  0.25500000000E-02 0. -1.
    -200001    2    1    2    0    0  0.16049414002E+03 -0.85818144424E+03 -0.25804995350E+03  0.10976400014E+04  0.61318026215E+03 0.  0.
   -5000001    2    3    3    0    0  0.72058904609E+02 -0.84294061939E+03 -0.29693579401E+03  0.95704774626E+03  0.33470606404E+03 0.  0.
     200001    1    1    2    0    0 -0.16049414002E+03  0.85818144424E+03 -0.31543965410E+02  0.10672383904E+04  0.61300000000E+03 0. -1.
         13    1    4    4    0    0  0.19200194829E+03 -0.47544977707E+03 -0.23637400964E+03  0.56461484417E+03  0.10566000000E+00 0.  1.
    -200003    1    4    4    0    0 -0.11994304368E+03 -0.36749084232E+03 -0.60561784374E+02  0.39243290209E+03  0.30000000000E+02 0.  1.
    -200000    1    3    3    0    0  0.88435235413E+02 -0.15240824849E+02  0.38885840515E+02  0.14059225511E+03  0.10100000000E+03 0.  1.
<mgrwt>
<rscale>  0 0.21454216E+04</rscale>
<asrwt>0</asrwt>
<pdfrwt beam="1">  1        2 0.13394889E+00 0.21454216E+04</pdfrwt>
<pdfrwt beam="2">  1       -2 0.17531945E+00 0.21454216E+04</pdfrwt>
<totfact> 0.55394344E+00</totfact>
</mgrwt>
</event>
<event>
 8    2  0.4306980E-052  0.1487593E+04  0.7818608E-02  0.8892746E-01
         -2   -1    0    0    0  501 -0.00000000000E+00  0.00000000000E+00  0.37894680602E+03  0.37894680602E+03  0.25500000000E-02 0. -1.
          2   -1    0    0  501    0  0.00000000000E+00 -0.00000000000E+00 -0.14599233010E+04  0.14599233010E+04  0.25500000000E-02 0.  1.
    -200001    2    1    2    0    0 -0.77031019665E+02 -0.21887459257E+02 -0.10484576276E+04  0.12198068505E+04  0.61826573302E+03 0.  0.
   -5000001    2    3    3    0    0  0.27186002657E+02  0.21656237188E+03 -0.83801218973E+03  0.87022453963E+03  0.85953357009E+02 0.  0.
     200001    1    1    2    0    0  0.77031019665E+02  0.21887459257E+02 -0.32518867321E+02  0.61906325654E+03  0.61300000000E+03 0. -1.
         13    1    4    4    0    0  0.23051952532E+02  0.12360962618E+02 -0.13585568472E+03  0.13835087331E+03  0.10566000000E+00 0.  1.
    -200003    1    4    4    0    0  0.41340501252E+01  0.20420140926E+03 -0.70215650502E+03  0.73187366632E+03  0.30000000000E+02 0.  1.
    -200000    1    3    3    0    0 -0.10421702232E+03 -0.23844983114E+03 -0.21044543791E+03  0.34958231084E+03  0.10100000000E+03 0. -1.
<mgrwt>
<rscale>  0 0.14875931E+04</rscale>
<asrwt>0</asrwt>
<pdfrwt beam="1">  1        2 0.20856047E+00 0.14875931E+04</pdfrwt>
<pdfrwt beam="2">  1       -2 0.54135259E-01 0.14875931E+04</pdfrwt>
<totfact> 0.47785736E+01</totfact>
</mgrwt>
</event>
<event>
 8    2  0.4306980E-052  0.1784145E+04  0.7818608E-02  0.8714777E-01
          2   -1    0    0  501    0  0.00000000000E+00  0.00000000000E+00  0.27844721066E+04  0.27844721066E+04  0.25500000000E-02 0.  1.
         -2   -1    0    0    0  501 -0.00000000000E+00 -0.00000000000E+00 -0.28579680702E+03  0.28579680703E+03  0.25500000000E-02 0. -1.
    -200001    2    1    2    0    0  0.11855969839E+03 -0.44084591778E+03  0.20411887546E+04  0.21795026906E+04  0.61268174523E+03 0.  0.
   -5000001    2    3    3    0    0 -0.19144331539E+03 -0.29950659473E+03  0.84573497745E+03  0.93235017138E+03  0.16629626183E+03 0.  0.
     200001    1    1    2    0    0 -0.11855969839E+03  0.44084591778E+03  0.45748654497E+03  0.89076622305E+03  0.61300000000E+03 0.  1.
         13    1    4    4    0    0  0.21662995662E+02 -0.66076851910E+02  0.99592674618E+02  0.12146665279E+03  0.10566000000E+00 0.  1.
    -200003    1    4    4    0    0 -0.21310631105E+03 -0.23342974282E+03  0.74614230283E+03  0.81088351858E+03  0.30000000000E+02 0.  1.
    -200000    1    3    3    0    0  0.31000301377E+03 -0.14133932305E+03  0.11954537772E+04  0.12471525192E+04  0.10100000000E+03 0.  1.
<mgrwt>
<rscale>  0 0.17841449E+04</rscale>
<asrwt>0</asrwt>
<pdfrwt beam="1">  1        2 0.39778172E+00 0.17841449E+04</pdfrwt>
<pdfrwt beam="2">  1       -2 0.40828116E-01 0.17841449E+04</pdfrwt>
<totfact> 0.16729507E+01</totfact>
</mgrwt>
</event>
<event>
 8    2  0.4306980E-052  0.1505805E+04  0.7818608E-02  0.8880602E-01
          2   -1    0    0  501    0  0.00000000000E+00  0.00000000000E+00  0.15025484725E+04  0.15025484725E+04  0.25500000000E-02 0.  1.
         -2   -1    0    0    0  501 -0.00000000000E+00 -0.00000000000E+00 -0.37726736747E+03  0.37726736747E+03  0.25500000000E-02 0. -1.
    -200001    2    1    2    0    0 -0.32508321290E+03 -0.27239279826E+03  0.43006052606E+03  0.86051334058E+03  0.61290637245E+03 0.  0.
   -5000001    2    3    3    0    0 -0.29494294311E+03  0.68854480045E+02  0.38894764500E+03  0.50100060116E+03  0.89381500910E+02 0.  0.
     200001    1    1    2    0    0  0.32508321290E+03  0.27239279826E+03  0.69522057900E+03  0.10193024994E+04  0.61300000000E+03 0. -1.
         13    1    4    4    0    0 -0.16095451415E+03  0.59473442994E+02  0.26549260101E+03  0.31611671643E+03  0.10566000000E+00 0.  1.
    -200003    1    4    4    0    0 -0.13398842895E+03  0.93810370511E+01  0.12345504399E+03  0.18488388474E+03  0.30000000000E+02 0. -1.
    -200000    1    3    3    0    0 -0.30140269794E+02 -0.34124727831E+03  0.41112881057E+02  0.35951273942E+03  0.10100000000E+03 0. -1.
<mgrwt>
<rscale>  0 0.15058054E+04</rscale>
<asrwt>0</asrwt>
<pdfrwt beam="1">  1        2 0.21464978E+00 0.15058054E+04</pdfrwt>
<pdfrwt beam="2">  1       -2 0.53895338E-01 0.15058054E+04</pdfrwt>
<totfact> 0.45702714E+01</totfact>
</mgrwt>
</event>
<event>
 8    2  0.4306980E-052  0.2068409E+04  0.7818608E-02  0.8575288E-01
         -2   -1    0    0    0  501 -0.00000000000E+00  0.00000000000E+00  0.56093967898E+03  0.56093967898E+03  0.25500000000E-02 0. -1.
          2   -1    0    0  501    0  0.00000000000E+00 -0.00000000000E+00 -0.19067637521E+04  0.19067637521E+04  0.25500000000E-02 0.  1.
    -200001    2    1    2    0    0  0.27543363681E+03  0.69074140521E+03 -0.22509364096E+03  0.98959887499E+03  0.61290407815E+03 0.  0.
   -5000001    2    3    3    0    0  0.69410675226E+02  0.11057713497E+03 -0.32348270399E+03  0.35799975459E+03  0.80483662258E+02 0.  0.
     200001    1    1    2    0    0 -0.27543363681E+03 -0.69074140521E+03 -0.11207304321E+04  0.14781045561E+04  0.61300000000E+03 0. -1.
         13    1    4    4    0    0  0.10256835535E+01  0.24091278723E+02 -0.13516266818E+02  0.27643125185E+02  0.10566000000E+00 0.  1.
    -200003    1    4    4    0    0  0.68384991672E+02  0.86485856245E+02 -0.30996643717E+03  0.33035662940E+03  0.30000000000E+02 0.  1.
    -200000    1    3    3    0    0  0.20602296158E+03  0.58016427024E+03  0.98389063028E+02  0.63159912040E+03  0.10100000000E+03 0. -1.
<mgrwt>
<rscale>  0 0.20684095E+04</rscale>
<asrwt>0</asrwt>
<pdfrwt beam="1">  1        2 0.27239482E+00 0.20684095E+04</pdfrwt>
<pdfrwt beam="2">  1       -2 0.80134241E-01 0.20684095E+04</pdfrwt>
<totfact> 0.11450186E+01</totfact>
</mgrwt>
</event>
<event>
 8    2  0.4306980E-052  0.1357322E+04  0.7818608E-02  0.8985304E-01
          2   -1    0    0  501    0  0.00000000000E+00  0.00000000000E+00  0.50147481546E+03  0.50147481546E+03  0.25500000000E-02 0.  1.
         -2   -1    0    0    0  501 -0.00000000000E+00 -0.00000000000E+00 -0.91845247449E+03  0.91845247449E+03  0.25500000000E-02 0. -1.
    -200001    2    1    2    0    0  0.86745274850E+02 -0.18227028575E+03  0.14074426136E+02  0.64383315913E+03  0.61120851397E+03 0.  0.
   -5000001    2    3    3    0    0  0.28638200346E+03 -0.13087293491E+03 -0.15379667732E+03  0.35944219855E+03  0.80018117612E+02 0.  0.
     200001    1    1    2    0    0 -0.86745274850E+02  0.18227028575E+03 -0.43105208517E+03  0.77609413083E+03  0.61300000000E+03 0. -1.
         13    1    4    4    0    0  0.54665597911E+02 -0.22444104726E+02 -0.62865921326E+02  0.86279781294E+02  0.10566000000E+00 0.  1.
    -200003    1    4    4    0    0  0.23171640555E+03 -0.10842883018E+03 -0.90930755991E+02  0.27316241725E+03  0.30000000000E+02 0.  1.
    -200000    1    3    3    0    0 -0.19963672861E+03 -0.51397350842E+02  0.16787110345E+03  0.28439096058E+03  0.10100000000E+03 0.  1.
<mgrwt>
<rscale>  0 0.13573220E+04</rscale>
<asrwt>0</asrwt>
<pdfrwt beam="1">  1        2 0.71639260E-01 0.13573220E+04</pdfrwt>
<pdfrwt beam="2">  1       -2 0.13120750E+00 0.13573220E+04</pdfrwt>
<totfact> 0.27743810E+01</totfact>
</mgrwt>
</event>
<event>
 8    2  0.4306980E-052  0.1682054E+04  0.7818608E-02  0.8771666E-01
         -2   -1    0    0    0  501 -0.00000000000E+00  0.00000000000E+00  0.41674471881E+03  0.41674471882E+03  0.25500000000E-02 0. -1.
          2   -1    0    0  501    0  0.00000000000E+00 -0.00000000000E+00 -0.16972659263E+04  0.16972659263E+04  0.25500000000E-02 0.  1.
    -200001    2    1    2    0    0  0.20345952750E+03  0.53810725435E+03 -0.67754161097E+03  0.10794534498E+04  0.61253727990E+03 0.  0.
   -5000001    2    3    3    0    0  0.65107327650E+02  0.48497790531E+02 -0.52381353376E+03  0.53844320965E+03  0.94601649408E+02 0.  0.
     200001    1    1    2    0    0 -0.20345952750E+03 -0.53810725435E+03 -0.60297959655E+03  0.10345571953E+04  0.61300000000E+03 0.  1.
         13    1    4    4    0    0  0.37652614988E+02  0.55641259821E+02 -0.43902481933E+03  0.44413564635E+03  0.10566000000E+00 0.  1.
    -200003    1    4    4    0    0  0.27454712662E+02 -0.71434692901E+01 -0.84788714435E+02  0.94307563304E+02  0.30000000000E+02 0. -1.
    -200000    1    3    3    0    0  0.13835219985E+03  0.48960946382E+03 -0.15372807721E+03  0.54101024019E+03  0.10100000000E+03 0. -1.
<mgrwt>
<rscale>  0 0.16820542E+04</rscale>
<asrwt>0</asrwt>
<pdfrwt beam="1">  1        2 0.24246656E+00 0.16820542E+04</pdfrwt>
<pdfrwt beam="2">  1       -2 0.59534960E-01 0.16820542E+04</pdfrwt>
<totfact> 0.28938137E+01</totfact>
</mgrwt>
</event>
<event>
 8    2  0.4306980E-052  0.1446017E+04  0.7818608E-02  0.8921167E-01
         -2   -1    0    0    0  501 -0.00000000000E+00  0.00000000000E+00  0.54934525451E+03  0.54934525451E+03  0.25500000000E-02 0. -1.
          2   -1    0    0  501    0  0.00000000000E+00 -0.00000000000E+00 -0.95157131532E+03  0.95157131532E+03  0.25500000000E-02 0.  1.
    -200001    2    1    2    0    0 -0.61648028685E+02 -0.36848071974E+03 -0.28886539964E+03  0.77414414344E+03  0.61341455432E+03 0.  0.
   -5000001    2    3    3    0    0  0.18490122051E+03 -0.12253082475E+03  0.86149369843E+02  0.25249774936E+03  0.84446048763E+02 0.  0.
     200001    1    1    2    0    0  0.61648028685E+02  0.36848071974E+03 -0.11336066117E+03  0.72677242639E+03  0.61300000000E+03 0. -1.
         13    1    4    4    0    0  0.71829712895E+02 -0.63521127938E+01  0.19825088377E+02  0.74785709095E+02  0.10566000000E+00 0.  1.
    -200003    1    4    4    0    0  0.11307150761E+03 -0.11617871196E+03  0.66324281466E+02  0.17771204027E+03  0.30000000000E+02 0.  1.
    -200000    1    3    3    0    0 -0.24654924919E+03 -0.24594989499E+03 -0.37501476948E+03  0.52164639408E+03  0.10100000000E+03 0.  1.
<mgrwt>
<rscale>  0 0.14460169E+04</rscale>
<asrwt>0</asrwt>
<pdfrwt beam="1">  1        2 0.13593876E+00 0.14460169E+04</pdfrwt>
<pdfrwt beam="2">  1       -2 0.78477894E-01 0.14460169E+04</pdfrwt>
<totfact> 0.42249387E+01</totfact>
</mgrwt>
</event>
<event>
 8    2  0.4306980E-052  0.1385223E+04  0.7818608E-02  0.8964585E-01
          2   -1    0    0  501    0  0.00000000000E+00  0.00000000000E+00  0.60017457751E+03  0.60017457751E+03  0.25500000000E-02 0.  1.
         -2   -1    0    0    0  501 -0.00000000000E+00 -0.00000000000E+00 -0.79928489466E+03  0.79928489466E+03  0.25500000000E-02 0. -1.
    -200001    2    1    2    0    0 -0.25302012495E+03 -0.18786683016E+03 -0.16706214272E+03  0.70945279468E+03  0.61327023313E+03 0.  0.
   -5000001    2    3    3    0    0 -0.29195134237E+03 -0.36066294139E+03 -0.17484730877E+03  0.50540440690E+03  0.97717396191E+02 0.  0.
     200001    1    1    2    0    0  0.25302012495E+03  0.18786683016E+03 -0.32048174426E+02  0.69000667749E+03  0.61300000000E+03 0.  1.
         13    1    4    4    0    0 -0.12945930303E+03 -0.18769863311E+03 -0.12855920582E+03  0.26175937152E+03  0.10566000000E+00 0.  1.
    -200003    1    4    4    0    0 -0.16249203935E+03 -0.17296430828E+03 -0.46288102953E+02  0.24364503538E+03  0.30000000000E+02 0.  1.
    -200000    1    3    3    0    0  0.38931217425E+02  0.17279611123E+03  0.77851660505E+01  0.20404838779E+03  0.10100000000E+03 0.  1.
<mgrwt>
<rscale>  0 0.13852227E+04</rscale>
<asrwt>0</asrwt>
<pdfrwt beam="1">  1        2 0.85739226E-01 0.13852227E+04</pdfrwt>
<pdfrwt beam="2">  1       -2 0.11418356E+00 0.13852227E+04</pdfrwt>
<totfact> 0.31760707E+01</totfact>
</mgrwt>
</event>
<event>
 8    2  0.4306980E-052  0.1458751E+04  0.7818608E-02  0.8912356E-01
          2   -1    0    0  501    0  0.00000000000E+00  0.00000000000E+00  0.24215285993E+04  0.24215285993E+04  0.25500000000E-02 0.  1.
         -2   -1    0    0    0  501 -0.00000000000E+00 -0.00000000000E+00 -0.21969134270E+03  0.21969134271E+03  0.25500000000E-02 0. -1.
    -200001    2    1    2    0    0  0.14326163452E+03  0.14107882264E+02  0.43000955522E+03  0.76083026653E+03  0.61092679481E+03 0.  0.
   -5000001    2    3    3    0    0 -0.19612284072E+03 -0.10268967773E+03  0.24913245333E+03  0.34641378756E+03  0.94478539077E+02 0.  0.
     200001    1    1    2    0    0 -0.14326163452E+03 -0.14107882264E+02  0.17718277014E+04  0.18803896755E+04  0.61300000000E+03 0.  1.
         13    1    4    4    0    0 -0.81241153451E+02 -0.59991479187E+02  0.16920129199E+03  0.19704870201E+03  0.10566000000E+00 0.  1.
    -200003    1    4    4    0    0 -0.11488168727E+03 -0.42698198545E+02  0.79931161341E+02  0.14936508555E+03  0.30000000000E+02 0.  1.
    -200000    1    3    3    0    0  0.33938447524E+03  0.11679756000E+03  0.18087710189E+03  0.41441647897E+03  0.10100000000E+03 0. -1.
<mgrwt>
<rscale>  0 0.14587513E+04</rscale>
<asrwt>0</asrwt>
<pdfrwt beam="1">  1        2 0.34593265E+00 0.14587513E+04</pdfrwt>
<pdfrwt beam="2">  1       -2 0.31384478E-01 0.14587513E+04</pdfrwt>
<totfact> 0.44391797E+01</totfact>
</mgrwt>
</event>
<event>
 8    2  0.4306980E-052  0.1600023E+04  0.7818608E-02  0.8820534E-01
          2   -1    0    0  501    0  0.00000000000E+00  0.00000000000E+00  0.89692131830E+03  0.89692131831E+03  0.25500000000E-02 0.  1.
         -2   -1    0    0    0  501 -0.00000000000E+00 -0.00000000000E+00 -0.71357251554E+03  0.71357251555E+03  0.25500000000E-02 0. -1.
    -200001    2    1    2    0    0 -0.34047025132E+03  0.13814617904E+03 -0.27023579664E+03  0.76402331007E+03  0.61294361383E+03 0.  0.
   -5000001    2    3    3    0    0  0.96215303508E+02  0.21245544553E+03 -0.15924324031E+03  0.29633058142E+03  0.89770278662E+02 0.  0.
     200001    1    1    2    0    0  0.34047025132E+03 -0.13814617904E+03  0.45358459940E+03  0.84647052378E+03  0.61300000000E+03 0.  1.
         13    1    4    4    0    0  0.66436800291E+02  0.15153666929E+03 -0.68330255659E+02  0.17901465184E+03  0.10566000000E+00 0.  1.
    -200003    1    4    4    0    0  0.29778503217E+02  0.60918776247E+02 -0.90912984655E+02  0.11731592958E+03  0.30000000000E+02 0.  1.
    -200000    1    3    3    0    0 -0.43668555483E+03 -0.74309266492E+02 -0.11099255632E+03  0.46769272866E+03  0.10100000000E+03 0. -1.
<mgrwt>
<rscale>  0 0.16000230E+04</rscale>
<asrwt>0</asrwt>
<pdfrwt beam="1">  1        2 0.12813162E+00 0.16000230E+04</pdfrwt>
<pdfrwt beam="2">  1       -2 0.10193893E+00 0.16000230E+04</pdfrwt>
<totfact> 0.24782124E+01</totfact>
</mgrwt>
</event>
<event>
 8    2  0.4306980E-052  0.1902445E+04  0.7818608E-02  0.8653640E-01
         -2   -1    0    0    0  501 -0.00000000000E+00  0.00000000000E+00  0.66373401284E+03  0.66373401284E+03  0.25500000000E-02 0. -1.
          2   -1    0    0  501    0  0.00000000000E+00 -0.00000000000E+00 -0.13632330805E+04  0.13632330805E+04  0.25500000000E-02 0.  1.
    -200001    2    1    2    0    0 -0.47232151680E+03 -0.47601229117E+03 -0.65096855844E+03  0.11171322034E+04  0.61200406805E+03 0.  0.
   -5000001    2    3    3    0    0 -0.12457022668E+03 -0.29280856124E+02 -0.36041312218E+03  0.47283150006E+03  0.27802319849E+03 0.  0.
     200001    1    1    2    0    0  0.47232151680E+03  0.47601229117E+03 -0.48530509229E+02  0.90983488991E+03  0.61300000000E+03 0. -1.
         13    1    4    4    0    0 -0.18466531456E+03 -0.40851549521E+02 -0.35769822711E+03  0.40462100828E+03  0.10566000000E+00 0.  1.
    -200003    1    4    4    0    0  0.60095087884E+02  0.11570693397E+02 -0.27148950728E+01  0.68210491779E+02  0.30000000000E+02 0.  1.
    -200000    1    3    3    0    0 -0.34775129012E+03 -0.44673143505E+03 -0.29055543626E+03  0.64430070338E+03  0.10100000000E+03 0.  1.
<mgrwt>
<rscale>  0 0.19024449E+04</rscale>
<asrwt>0</asrwt>
<pdfrwt beam="1">  1        2 0.19474758E+00 0.19024449E+04</pdfrwt>
<pdfrwt beam="2">  1       -2 0.94819146E-01 0.19024449E+04</pdfrwt>
<totfact> 0.15245043E+01</totfact>
</mgrwt>
</event>
<event>
 8    2  0.4306980E-052  0.2973228E+04  0.7818608E-02  0.8251417E-01
         -2   -1    0    0    0  501 -0.00000000000E+00  0.00000000000E+00  0.10892020367E+04  0.10892020367E+04  0.25500000000E-02 0. -1.
          2   -1    0    0  501    0  0.00000000000E+00 -0.00000000000E+00 -0.20290278339E+04  0.20290278339E+04  0.25500000000E-02 0.  1.
    -200001    2    1    2    0    0  0.90216095975E+03 -0.59124710349E+03  0.38964023944E+03  0.12997919482E+04  0.61169605021E+03 0.  0.
   -5000001    2    3    3    0    0  0.86272791046E+01  0.90475987837E+01  0.56566187917E+02  0.16846728581E+03  0.15819356429E+03 0.  0.
     200001    1    1    2    0    0 -0.90216095975E+03  0.59124710349E+03 -0.13294660367E+04  0.18184379223E+04  0.61300000000E+03 0.  1.
         13    1    4    4    0    0  0.65389511571E+02  0.50166543696E+02  0.27772338913E+02  0.86970019562E+02  0.10566000000E+00 0.  1.
    -200003    1    4    4    0    0 -0.56762232466E+02 -0.41118944913E+02  0.28793849004E+02  0.81497266247E+02  0.30000000000E+02 0.  1.
    -200000    1    3    3    0    0  0.89353368064E+03 -0.60029470228E+03  0.33307405152E+03  0.11313246624E+04  0.10100000000E+03 0.  1.
<mgrwt>
<rscale>  0 0.29732280E+04</rscale>
<asrwt>0</asrwt>
<pdfrwt beam="1">  1        2 0.28986112E+00 0.29732280E+04</pdfrwt>
<pdfrwt beam="2">  1       -2 0.15560029E+00 0.29732280E+04</pdfrwt>
<totfact> 0.18210502E+00</totfact>
</mgrwt>
</event>
<event>
 8    2  0.4306980E-052  0.1346607E+04  0.7818608E-02  0.8993401E-01
          2   -1    0    0  501    0  0.00000000000E+00  0.00000000000E+00  0.15473417923E+04  0.15473417923E+04  0.25500000000E-02 0.  1.
         -2   -1    0    0    0  501 -0.00000000000E+00 -0.00000000000E+00 -0.29297829163E+03  0.29297829164E+03  0.25500000000E-02 0. -1.
    -200001    2    1    2    0    0 -0.25552210692E+03 -0.10062274161E+03  0.58168131591E+03  0.88969565496E+03  0.61464520004E+03 0.  0.
   -5000001    2    3    3    0    0 -0.39042111101E+03 -0.21278995198E+03  0.29549644122E+03  0.53915035563E+03  0.75211379545E+02 0.  0.
     200001    1    1    2    0    0  0.25552210692E+03  0.10062274161E+03  0.67268218474E+03  0.95062442895E+03  0.61300000000E+03 0.  1.
         13    1    4    4    0    0 -0.97357049978E+02 -0.60410589487E+02  0.11143102645E+03  0.15982715452E+03  0.10566000000E+00 0.  1.
    -200003    1    4    4    0    0 -0.29306406103E+03 -0.15237936249E+03  0.18406541477E+03  0.37932320110E+03  0.30000000000E+02 0. -1.
    -200000    1    3    3    0    0  0.13489900409E+03  0.11216721037E+03  0.28618487469E+03  0.35054529934E+03  0.10100000000E+03 0.  1.
<mgrwt>
<rscale>  0 0.13466069E+04</rscale>
<asrwt>0</asrwt>
<pdfrwt beam="1">  1        2 0.22104882E+00 0.13466069E+04</pdfrwt>
<pdfrwt beam="2">  1       -2 0.41854042E-01 0.13466069E+04</pdfrwt>
<totfact> 0.72931692E+01</totfact>
</mgrwt>
</event>
<event>
 8    2  0.4306980E-052  0.1350597E+04  0.7818608E-02  0.8990377E-01
          2   -1    0    0  501    0  0.00000000000E+00  0.00000000000E+00  0.20758030897E+04  0.20758030897E+04  0.25500000000E-02 0.  1.
         -2   -1    0    0    0  501 -0.00000000000E+00 -0.00000000000E+00 -0.21968744893E+03  0.21968744894E+03  0.25500000000E-02 0. -1.
    -200001    2    1    2    0    0  0.12678125034E+03 -0.14465965159E+03  0.61668495847E+03  0.89943992478E+03  0.62585297000E+03 0.  0.
   -5000001    2    3    3    0    0  0.52692207347E+02  0.13953299151E+03 -0.26603729603E+02  0.18510388279E+03  0.10634737683E+03 0.  0.
     200001    1    1    2    0    0 -0.12678125034E+03  0.14465965159E+03  0.12394306823E+04  0.13960506138E+04  0.61300000000E+03 0.  1.
         13    1    4    4    0    0  0.64859895120E+02  0.82152624309E+02 -0.48928037086E+02  0.11554143695E+03  0.10566000000E+00 0.  1.
    -200003    1    4    4    0    0 -0.12167687773E+02  0.57380367204E+02  0.22324307482E+02  0.69562445837E+02  0.30000000000E+02 0.  1.
    -200000    1    3    3    0    0  0.74089042998E+02 -0.28419264311E+03  0.64328868808E+03  0.71433604200E+03  0.10100000000E+03 0.  1.
<mgrwt>
<rscale>  0 0.13505967E+04</rscale>
<asrwt>0</asrwt>
<pdfrwt beam="1">  1        2 0.29654328E+00 0.13505967E+04</pdfrwt>
<pdfrwt beam="2">  1       -2 0.31383923E-01 0.13505967E+04</pdfrwt>
<totfact> 0.67557118E+01</totfact>
</mgrwt>
</event>
<event>
 8    2  0.4306980E-052  0.1308442E+04  0.7818608E-02  0.9022897E-01
         -2   -1    0    0    0  501 -0.00000000000E+00  0.00000000000E+00  0.56659025968E+03  0.56659025968E+03  0.25500000000E-02 0. -1.
          2   -1    0    0  501    0  0.00000000000E+00 -0.00000000000E+00 -0.75540478917E+03  0.75540478918E+03  0.25500000000E-02 0.  1.
    -200001    2    1    2    0    0  0.89939164983E+02 -0.13075141073E+03 -0.27072672590E+03  0.68350965927E+03  0.60721290285E+03 0.  0.
   -5000001    2    3    3    0    0  0.32000527961E+03 -0.77740068182E+02 -0.47000516404E+02  0.34292921891E+03  0.83333687441E+02 0.  0.
     200001    1    1    2    0    0 -0.89939164983E+02  0.13075141073E+03  0.81912196401E+02  0.63848538959E+03  0.61300000000E+03 0.  1.
         13    1    4    4    0    0  0.17965561699E+02  0.13792905733E+02 -0.39657087458E+01  0.22994426838E+02  0.10566000000E+00 0.  1.
    -200003    1    4    4    0    0  0.30203971791E+03 -0.91532973915E+02 -0.43034807658E+02  0.31993479207E+03  0.30000000000E+02 0.  1.
    -200000    1    3    3    0    0 -0.23006611463E+03 -0.53011342551E+02 -0.22372620949E+03  0.34058044035E+03  0.10100000000E+03 0.  1.
<mgrwt>
<rscale>  0 0.13084418E+04</rscale>
<asrwt>0</asrwt>
<pdfrwt beam="1">  1        2 0.10791497E+00 0.13084418E+04</pdfrwt>
<pdfrwt beam="2">  1       -2 0.80941466E-01 0.13084418E+04</pdfrwt>
<totfact> 0.54041481E+01</totfact>
</mgrwt>
</event>
<event>
 8    2  0.4306980E-052  0.1469665E+04  0.7818608E-02  0.8904880E-01
         -2   -1    0    0    0  501 -0.00000000000E+00  0.00000000000E+00  0.76985297711E+03  0.76985297712E+03  0.25500000000E-02 0.  1.
          2   -1    0    0  501    0  0.00000000000E+00 -0.00000000000E+00 -0.70140522290E+03  0.70140522290E+03  0.25500000000E-02 0. -1.
    -200001    2    1    2    0    0 -0.42923354182E+02 -0.30317061653E+03  0.29847202680E+03  0.74846154602E+03  0.61429170434E+03 0.  0.
   -5000001    2    3    3    0    0  0.94919835409E+02 -0.32855116696E+02  0.39438411649E+03  0.41458830164E+03  0.79091053051E+02 0.  0.
     200001    1    1    2    0    0  0.42923354182E+02  0.30317061653E+03 -0.23002427259E+03  0.72279665400E+03  0.61300000000E+03 0. -1.
         13    1    4    4    0    0  0.21190364381E+02 -0.11893659917E+02  0.20626367310E+02  0.31873953022E+02  0.10566000000E+00 0.  1.
    -200003    1    4    4    0    0  0.73729471028E+02 -0.20961456779E+02  0.37375774918E+03  0.38271434862E+03  0.30000000000E+02 0.  1.
    -200000    1    3    3    0    0 -0.13784318959E+03 -0.27031549983E+03 -0.95912089684E+02  0.33387324438E+03  0.10100000000E+03 0. -1.
<mgrwt>
<rscale>  0 0.14696651E+04</rscale>
<asrwt>0</asrwt>
<pdfrwt beam="1">  1        2 0.10020075E+00 0.14696651E+04</pdfrwt>
<pdfrwt beam="2">  1       -2 0.10997900E+00 0.14696651E+04</pdfrwt>
<totfact> 0.28634903E+01</totfact>
</mgrwt>
</event>
<event>
 8    2  0.4306980E-052  0.1489593E+04  0.7818608E-02  0.8891403E-01
         -2   -1    0    0    0  501 -0.00000000000E+00  0.00000000000E+00  0.34069927857E+03  0.34069927858E+03  0.25500000000E-02 0. -1.
          2   -1    0    0  501    0  0.00000000000E+00 -0.00000000000E+00 -0.16281865947E+04  0.16281865947E+04  0.25500000000E-02 0.  1.
    -200001    2    1    2    0    0 -0.41550487092E+03 -0.42306472363E+02 -0.73198952269E+03  0.10421815332E+04  0.61310647647E+03 0.  0.
   -5000001    2    3    3    0    0  0.95388941207E+02 -0.15373505718E+03 -0.11113803746E+03  0.22420452651E+03  0.71989502207E+02 0.  0.
     200001    1    1    2    0    0  0.41550487092E+03  0.42306472363E+02 -0.55549779341E+03  0.92670434003E+03  0.61300000000E+03 0. -1.
         13    1    4    4    0    0  0.13125628680E+01 -0.43202244004E+02 -0.43373042083E+02  0.61232251729E+02  0.10566000000E+00 0.  1.
    -200003    1    4    4    0    0  0.94076378339E+02 -0.11053281318E+03 -0.67764995376E+02  0.16297227478E+03  0.30000000000E+02 0.  1.
    -200000    1    3    3    0    0 -0.51089381212E+03  0.11142858482E+03 -0.62085148523E+03  0.81797700670E+03  0.10100000000E+03 0.  1.
<mgrwt>
<rscale>  0 0.14895932E+04</rscale>
<asrwt>0</asrwt>
<pdfrwt beam="1">  1        2 0.23259808E+00 0.14895932E+04</pdfrwt>
<pdfrwt beam="2">  1       -2 0.48671326E-01 0.14895932E+04</pdfrwt>
<totfact> 0.48402312E+01</totfact>
</mgrwt>
</event>
<event>
 8    2  0.4306980E-052  0.1383512E+04  0.7818608E-02  0.8965841E-01
         -2   -1    0    0    0  501 -0.00000000000E+00  0.00000000000E+00  0.19113132057E+03  0.19113132059E+03  0.25500000000E-02 0. -1.
          2   -1    0    0  501    0  0.00000000000E+00 -0.00000000000E+00 -0.25036524275E+04  0.25036524275E+04  0.25500000000E-02 0.  1.
    -200001    2    1    2    0    0  0.25695330747E+03  0.16152433883E+03 -0.95535692730E+03  0.11749881287E+04  0.61300499981E+03 0.  0.
   -5000001    2    3    3    0    0  0.17832632812E+03  0.35677491035E+03 -0.38848044112E+03  0.56191803634E+03  0.75803762930E+02 0.  0.
     200001    1    1    2    0    0 -0.25695330747E+03 -0.16152433883E+03 -0.13571641797E+04  0.15197956194E+04  0.61300000000E+03 0. -1.
         13    1    4    4    0    0  0.14814523737E+02  0.32810009905E+01 -0.11410074566E+02  0.18985153323E+02  0.10566000000E+00 0.  1.
    -200003    1    4    4    0    0  0.16351180438E+03  0.35349390936E+03 -0.37707036655E+03  0.54293288301E+03  0.30000000000E+02 0.  1.
    -200000    1    3    3    0    0  0.78626979352E+02 -0.19525057152E+03 -0.56687648618E+03  0.61307009236E+03  0.10100000000E+03 0.  1.
<mgrwt>
<rscale>  0 0.13835120E+04</rscale>
<asrwt>0</asrwt>
<pdfrwt beam="1">  1        2 0.35766461E+00 0.13835120E+04</pdfrwt>
<pdfrwt beam="2">  1       -2 0.27304476E-01 0.13835120E+04</pdfrwt>
<totfact> 0.52392072E+01</totfact>
</mgrwt>
</event>
<event>
 8    2  0.4306980E-052  0.1561976E+04  0.7818608E-02  0.8844254E-01
          2   -1    0    0  501    0  0.00000000000E+00  0.00000000000E+00  0.13267859576E+04  0.13267859576E+04  0.25500000000E-02 0.  1.
         -2   -1    0    0    0  501 -0.00000000000E+00 -0.00000000000E+00 -0.45971404387E+03  0.45971404388E+03  0.25500000000E-02 0. -1.
    -200001    2    1    2    0    0 -0.94738580321E+02 -0.41763140607E+03  0.18805742036E+03  0.77644006655E+03  0.61975978706E+03 0.  0.
   -5000001    2    3    3    0    0 -0.16834471877E+03 -0.53817561049E+03  0.84237784129E+02  0.57413266258E+03  0.67523165653E+02 0.  0.
     200001    1    1    2    0    0  0.94738580321E+02  0.41763140607E+03  0.67901449336E+03  0.10100599349E+04  0.61300000000E+03 0.  1.
         13    1    4    4    0    0 -0.37922583170E+01 -0.37210340928E+01 -0.47036772157E+01  0.70966936843E+01  0.10566000000E+00 0.  1.
    -200003    1    4    4    0    0 -0.16455246045E+03 -0.53445457640E+03  0.88941461345E+02  0.56703596889E+03  0.30000000000E+02 0.  1.
    -200000    1    3    3    0    0  0.73606138450E+02  0.12054420442E+03  0.10381963623E+03  0.20230740397E+03  0.10100000000E+03 0. -1.
<mgrwt>
<rscale>  0 0.15619758E+04</rscale>
<asrwt>0</asrwt>
<pdfrwt beam="1">  1        2 0.18954085E+00 0.15619758E+04</pdfrwt>
<pdfrwt beam="2">  1       -2 0.65673435E-01 0.15619758E+04</pdfrwt>
<totfact> 0.37328831E+01</totfact>
</mgrwt>
</event>
<event>
 8    2  0.4306980E-052  0.1304691E+04  0.7818608E-02  0.9025853E-01
          2   -1    0    0  501    0  0.00000000000E+00  0.00000000000E+00  0.21646161671E+04  0.21646161671E+04  0.25500000000E-02 0.  1.
         -2   -1    0    0    0  501 -0.00000000000E+00 -0.00000000000E+00 -0.19659588608E+03  0.19659588610E+03  0.25500000000E-02 0. -1.
    -200001    2    1    2    0    0  0.12562847878E+03  0.18299587194E+03  0.10386745635E+04  0.12259929261E+04  0.61232654865E+03 0.  0.
   -5000001    2    3    3    0    0  0.54931097837E+02  0.24652930257E+03  0.15334814682E+03  0.32986878261E+03  0.14664118479E+03 0.  0.
     200001    1    1    2    0    0 -0.12562847878E+03 -0.18299587194E+03  0.92934571750E+03  0.11352191271E+04  0.61300000000E+03 0.  1.
         13    1    4    4    0    0  0.32588234739E+02  0.21278164112E+02 -0.19458681763E+02  0.43513271209E+02  0.10566000000E+00 0.  1.
    -200003    1    4    4    0    0  0.22342863099E+02  0.22525113846E+03  0.17280682858E+03  0.28635551141E+03  0.30000000000E+02 0.  1.
    -200000    1    3    3    0    0  0.70697380939E+02 -0.63533430627E+02  0.88532641666E+03  0.89612414347E+03  0.10100000000E+03 0.  1.
<mgrwt>
<rscale>  0 0.13046910E+04</rscale>
<asrwt>0</asrwt>
<pdfrwt beam="1">  1        2 0.30923088E+00 0.13046910E+04</pdfrwt>
<pdfrwt beam="2">  1       -2 0.28085127E-01 0.13046910E+04</pdfrwt>
<totfact> 0.75036509E+01</totfact>
</mgrwt>
</event>
<event>
 8    2  0.4306980E-052  0.1808042E+04  0.7818608E-02  0.8702034E-01
         -2   -1    0    0    0  501 -0.00000000000E+00  0.00000000000E+00  0.28159608991E+03  0.28159608992E+03  0.25500000000E-02 0. -1.
          2   -1    0    0  501    0  0.00000000000E+00 -0.00000000000E+00 -0.29022213229E+04  0.29022213229E+04  0.25500000000E-02 0.  1.
    -200001    2    1    2    0    0  0.42748129719E+03 -0.35781197768E+03 -0.19460187420E+04  0.21153453315E+04  0.61394401741E+03 0.  0.
   -5000001    2    3    3    0    0  0.29443367907E+03 -0.48848468499E+03 -0.10931853366E+04  0.12365377061E+04  0.93074376725E+02 0.  0.
     200001    1    1    2    0    0 -0.42748129719E+03  0.35781197768E+03 -0.67460649096E+03  0.10684720813E+04  0.61300000000E+03 0. -1.
         13    1    4    4    0    0  0.11722163133E+03 -0.12259547589E+03 -0.29534181335E+03  0.34058385082E+03  0.10566000000E+00 0.  1.
    -200003    1    4    4    0    0  0.17721204774E+03 -0.36588920910E+03 -0.79784352325E+03  0.89595385528E+03  0.30000000000E+02 0.  1.
    -200000    1    3    3    0    0  0.13304761813E+03  0.13067270731E+03 -0.85283340541E+03  0.87880762543E+03  0.10100000000E+03 0.  1.
<mgrwt>
<rscale>  0 0.18080422E+04</rscale>
<asrwt>0</asrwt>
<pdfrwt beam="1">  1        2 0.41460303E+00 0.18080422E+04</pdfrwt>
<pdfrwt beam="2">  1       -2 0.40228015E-01 0.18080422E+04</pdfrwt>
<totfact> 0.14819975E+01</totfact>
</mgrwt>
</event>
<event>
 8    2  0.4306980E-052  0.1553360E+04  0.7818608E-02  0.8849725E-01
         -2   -1    0    0    0  501 -0.00000000000E+00  0.00000000000E+00  0.28592051870E+03  0.28592051871E+03  0.25500000000E-02 0. -1.
          2   -1    0    0  501    0  0.00000000000E+00 -0.00000000000E+00 -0.21097871590E+04  0.21097871590E+04  0.25500000000E-02 0.  1.
    -200001    2    1    2    0    0  0.14835252001E+02  0.23886656463E+03 -0.15483655230E+04  0.16823023329E+04  0.61272181785E+03 0.  0.
   -5000001    2    3    3    0    0 -0.19551437422E+03 -0.84423043298E+02 -0.34385828301E+03  0.41352267234E+03  0.86077645086E+02 0.  0.
     200001    1    1    2    0    0 -0.14835252001E+02 -0.23886656463E+03 -0.27550111734E+03  0.71340534485E+03  0.61300000000E+03 0. -1.
         13    1    4    4    0    0 -0.14737566225E+02 -0.20566047465E+02 -0.92922144131E+02  0.96305213777E+02  0.10566000000E+00 0.  1.
    -200003    1    4    4    0    0 -0.18077680800E+03 -0.63856995832E+02 -0.25093613887E+03  0.31721745857E+03  0.30000000000E+02 0.  1.
    -200000    1    3    3    0    0  0.21034962622E+03  0.32328960793E+03 -0.12045072400E+04  0.12687796605E+04  0.10100000000E+03 0.  1.
<mgrwt>
<rscale>  0 0.15533595E+04</rscale>
<asrwt>0</asrwt>
<pdfrwt beam="1">  1        2 0.30139816E+00 0.15533595E+04</pdfrwt>
<pdfrwt beam="2">  1       -2 0.40845790E-01 0.15533595E+04</pdfrwt>
<totfact> 0.38533565E+01</totfact>
</mgrwt>
</event>
<event>
 8    2  0.4306980E-052  0.1755695E+04  0.7818608E-02  0.8730222E-01
          2   -1    0    0  501    0  0.00000000000E+00  0.00000000000E+00  0.29248150063E+04  0.29248150063E+04  0.25500000000E-02 0.  1.
         -2   -1    0    0    0  501 -0.00000000000E+00 -0.00000000000E+00 -0.26347521528E+03  0.26347521529E+03  0.25500000000E-02 0. -1.
    -200001    2    1    2    0    0  0.30184832641E+03 -0.40221493682E+03  0.20157102145E+04  0.21657953230E+04  0.61212126631E+03 0.  0.
   -5000001    2    3    3    0    0  0.64095131558E+02 -0.14401733899E+03  0.16049019469E+04  0.16161072170E+04  0.10603347443E+03 0.  0.
     200001    1    1    2    0    0 -0.30184832641E+03  0.40221493682E+03  0.64562957645E+03  0.10224948985E+04  0.61300000000E+03 0. -1.
         13    1    4    4    0    0  0.82657830414E+02 -0.10794661777E+03  0.10176733743E+04  0.10267151002E+04  0.10566000000E+00 0.  1.
    -200003    1    4    4    0    0 -0.18562698856E+02 -0.36070721225E+02  0.58722857267E+03  0.58939211674E+03  0.30000000000E+02 0.  1.
    -200000    1    3    3    0    0  0.23775319485E+03 -0.25819759782E+03  0.41080826761E+03  0.54968810604E+03  0.10100000000E+03 0.  1.
<mgrwt>
<rscale>  0 0.17556950E+04</rscale>
<asrwt>0</asrwt>
<pdfrwt beam="1">  1        2 0.41783068E+00 0.17556950E+04</pdfrwt>
<pdfrwt beam="2">  1       -2 0.37639319E-01 0.17556950E+04</pdfrwt>
<totfact> 0.16465709E+01</totfact>
</mgrwt>
</event>
<event>
 8    2  0.4306980E-052  0.1444990E+04  0.7818608E-02  0.8921881E-01
          2   -1    0    0  501    0  0.00000000000E+00  0.00000000000E+00  0.10860490723E+04  0.10860490723E+04  0.25500000000E-02 0.  1.
         -2   -1    0    0    0  501 -0.00000000000E+00 -0.00000000000E+00 -0.48064016376E+03  0.48064016377E+03  0.25500000000E-02 0. -1.
    -200001    2    1    2    0    0  0.38288924117E+03 -0.50552163290E+01  0.27902803376E+03  0.77364245206E+03  0.61158505033E+03 0.  0.
   -5000001    2    3    3    0    0  0.32291068241E+03 -0.58787797632E+02 -0.11675674957E+03  0.35731179919E+03  0.79449791088E+02 0.  0.
     200001    1    1    2    0    0 -0.38288924117E+03  0.50552163290E+01  0.32638087478E+03  0.79304678402E+03  0.61300000000E+03 0. -1.
         13    1    4    4    0    0  0.69680788845E+02 -0.45128896066E+01 -0.56261537474E+02  0.89672461044E+02  0.10566000000E+00 0.  1.
    -200003    1    4    4    0    0  0.25322989356E+03 -0.54274908026E+02 -0.60495212100E+02  0.26763933814E+03  0.30000000000E+02 0.  1.
    -200000    1    3    3    0    0  0.59978558764E+02  0.53732581303E+02  0.39578478333E+03  0.41633065287E+03  0.10100000000E+03 0.  1.
<mgrwt>
<rscale>  0 0.14449897E+04</rscale>
<asrwt>0</asrwt>
<pdfrwt beam="1">  1        2 0.15514987E+00 0.14449897E+04</pdfrwt>
<pdfrwt beam="2">  1       -2 0.68662880E-01 0.14449897E+04</pdfrwt>
<totfact> 0.46916975E+01</totfact>
</mgrwt>
</event>
<event>
 8    2  0.4306980E-052  0.1644382E+04  0.7818608E-02  0.8793737E-01
          2   -1    0    0  501    0  0.00000000000E+00  0.00000000000E+00  0.13139497963E+04  0.13139497963E+04  0.25500000000E-02 0.  1.
         -2   -1    0    0    0  501 -0.00000000000E+00 -0.00000000000E+00 -0.51447811413E+03  0.51447811414E+03  0.25500000000E-02 0. -1.
    -200001    2    1    2    0    0  0.52716557160E+03  0.11017222438E+03  0.50603814610E+03  0.96129833595E+03  0.61479950105E+03 0.  0.
   -5000001    2    3    3    0    0  0.11196326643E+03 -0.23056147611E+03  0.17970234568E+03  0.32475417919E+03  0.86475294531E+02 0.  0.
     200001    1    1    2    0    0 -0.52716557160E+03 -0.11017222438E+03  0.29343353612E+03  0.86712957453E+03  0.61300000000E+03 0. -1.
         13    1    4    4    0    0 -0.51287071590E+01 -0.31218553103E+02  0.21442293189E+01  0.31709786792E+02  0.10566000000E+00 0.  1.
    -200003    1    4    4    0    0  0.11709197359E+03 -0.19934292300E+03  0.17755811636E+03  0.29304439240E+03  0.30000000000E+02 0.  1.
    -200000    1    3    3    0    0  0.41520230518E+03  0.34073370049E+03  0.32633580042E+03  0.63654415676E+03  0.10100000000E+03 0.  1.
<mgrwt>
<rscale>  0 0.16443825E+04</rscale>
<asrwt>0</asrwt>
<pdfrwt beam="1">  1        2 0.18770711E+00 0.16443825E+04</pdfrwt>
<pdfrwt beam="2">  1       -2 0.73496875E-01 0.16443825E+04</pdfrwt>
<totfact> 0.29504995E+01</totfact>
</mgrwt>
</event>
<event>
 8    2  0.4306980E-052  0.1349783E+04  0.7818608E-02  0.8990993E-01
          2   -1    0    0  501    0  0.00000000000E+00  0.00000000000E+00  0.20461072300E+04  0.20461072300E+04  0.25500000000E-02 0.  1.
         -2   -1    0    0    0  501 -0.00000000000E+00 -0.00000000000E+00 -0.22260730728E+03  0.22260730730E+03  0.25500000000E-02 0. -1.
    -200001    2    1    2    0    0 -0.35422323454E+02 -0.11888133748E+03  0.48787721374E+03  0.79391131852E+03  0.61390837474E+03 0.  0.
   -5000001    2    3    3    0    0  0.16109317154E+03 -0.17491279447E+03  0.50782273123E+03  0.56509548075E+03  0.70024855772E+02 0.  0.
     200001    1    1    2    0    0  0.35422323454E+02  0.11888133748E+03  0.13356227090E+04  0.14748032188E+04  0.61300000000E+03 0.  1.
         13    1    4    4    0    0  0.30230045510E+02 -0.41137266272E+02  0.59759591772E+02  0.78596121410E+02  0.10566000000E+00 0.  1.
    -200003    1    4    4    0    0  0.13086312603E+03 -0.13377552819E+03  0.44806313945E+03  0.48649935934E+03  0.30000000000E+02 0.  1.
    -200000    1    3    3    0    0 -0.19651549500E+03  0.56031456988E+02 -0.19945517486E+02  0.22881583777E+03  0.10100000000E+03 0. -1.
<mgrwt>
<rscale>  0 0.13497828E+04</rscale>
<asrwt>0</asrwt>
<pdfrwt beam="1">  1        2 0.29230106E+00 0.13497828E+04</pdfrwt>
<pdfrwt beam="2">  1       -2 0.31801041E-01 0.13497828E+04</pdfrwt>
<totfact> 0.68260776E+01</totfact>
</mgrwt>
</event>
<event>
 8    2  0.4306980E-052  0.1281822E+04  0.7818608E-02  0.9044106E-01
          2   -1    0    0  501    0  0.00000000000E+00  0.00000000000E+00  0.16961026630E+04  0.16961026630E+04  0.25500000000E-02 0.  1.
         -2   -1    0    0    0  501 -0.00000000000E+00 -0.00000000000E+00 -0.24218286585E+03  0.24218286587E+03  0.25500000000E-02 0. -1.
    -200001    2    1    2    0    0  0.85219003346E+02 -0.99790889583E+02  0.96408757121E+03  0.11427196235E+04  0.59926854819E+03 0.  0.
   -5000001    2    3    3    0    0  0.25090520369E+03  0.14223025341E+03  0.54006161022E+03  0.61733865105E+03  0.79105000006E+02 0.  0.
     200001    1    1    2    0    0 -0.85219003346E+02  0.99790889583E+02  0.48983222592E+03  0.79556590533E+03  0.61300000000E+03 0. -1.
         13    1    4    4    0    0  0.31307986690E+02  0.92760987629E+01  0.25200748518E+02  0.41247120248E+02  0.10566000000E+00 0.  1.
    -200003    1    4    4    0    0  0.21959721700E+03  0.13295415465E+03  0.51486086170E+03  0.57609153080E+03  0.30000000000E+02 0.  1.
    -200000    1    3    3    0    0 -0.16568620034E+03 -0.24202114300E+03  0.42402596099E+03  0.52538097247E+03  0.10100000000E+03 0. -1.
<mgrwt>
<rscale>  0 0.12818221E+04</rscale>
<asrwt>0</asrwt>
<pdfrwt beam="1">  1        2 0.24230038E+00 0.12818221E+04</pdfrwt>
<pdfrwt beam="2">  1       -2 0.34597552E-01 0.12818221E+04</pdfrwt>
<totfact> 0.88566858E+01</totfact>
</mgrwt>
</event>
<event>
 8    2  0.4306980E-052  0.1670258E+04  0.7818608E-02  0.8778511E-01
         -2   -1    0    0    0  501 -0.00000000000E+00  0.00000000000E+00  0.34188599148E+03  0.34188599149E+03  0.25500000000E-02 0. -1.
          2   -1    0    0  501    0  0.00000000000E+00 -0.00000000000E+00 -0.20399801091E+04  0.20399801091E+04  0.25500000000E-02 0.  1.
    -200001    2    1    2    0    0  0.34935981559E+03  0.17196518783E+03 -0.26122949901E+03  0.77190546791E+03  0.61316628549E+03 0.  0.
   -5000001    2    3    3    0    0  0.30833902374E+00  0.19479542051E+03  0.10872455037E+03  0.25284366864E+03  0.11901068016E+03 0.  0.
     200001    1    1    2    0    0 -0.34935981559E+03 -0.17196518783E+03 -0.14368646186E+04  0.16099606327E+04  0.61300000000E+03 0.  1.
         13    1    4    4    0    0 -0.35292355160E+02  0.17329683002E+03  0.87946677077E+02  0.19751448251E+03  0.10566000000E+00 0.  1.
    -200003    1    4    4    0    0  0.35600694184E+02  0.21498590494E+02  0.20777873291E+02  0.55329186133E+02  0.30000000000E+02 0.  1.
    -200000    1    3    3    0    0  0.34905147657E+03 -0.22830232676E+02 -0.36995404938E+03  0.51906179928E+03  0.10100000000E+03 0. -1.
<mgrwt>
<rscale>  0 0.16702582E+04</rscale>
<asrwt>0</asrwt>
<pdfrwt beam="1">  1        2 0.29142572E+00 0.16702582E+04</pdfrwt>
<pdfrwt beam="2">  1       -2 0.48840857E-01 0.16702582E+04</pdfrwt>
<totfact> 0.29030460E+01</totfact>
</mgrwt>
</event>
<event>
 8    2  0.4306980E-052  0.1600184E+04  0.7818608E-02  0.8820435E-01
         -2   -1    0    0    0  501 -0.00000000000E+00  0.00000000000E+00  0.93071028817E+03  0.93071028818E+03  0.25500000000E-02 0. -1.
          2   -1    0    0  501    0  0.00000000000E+00 -0.00000000000E+00 -0.68780503292E+03  0.68780503292E+03  0.25500000000E-02 0.  1.
    -200001    2    1    2    0    0  0.37278494323E+03 -0.16866058780E+03 -0.19339998149E+03  0.76204216484E+03  0.61309844265E+03 0.  0.
   -5000001    2    3    3    0    0  0.45903509238E+03 -0.20200472173E+03 -0.27944016157E+03  0.60031760863E+03  0.17542891350E+03 0.  0.
     200001    1    1    2    0    0 -0.37278494323E+03  0.16866058780E+03  0.43630523675E+03  0.85647315626E+03  0.61300000000E+03 0. -1.
         13    1    4    4    0    0  0.20224829718E+03 -0.78126321053E+02 -0.21733142178E+03  0.30698705805E+03  0.10566000000E+00 0.  1.
    -200003    1    4    4    0    0  0.25678679520E+03 -0.12387840068E+03 -0.62108739788E+02  0.29333055057E+03  0.30000000000E+02 0. -1.
    -200000    1    3    3    0    0 -0.86250149149E+02  0.33344133928E+02  0.86040180073E+02  0.16172455621E+03  0.10100000000E+03 0. -1.
<mgrwt>
<rscale>  0 0.16001840E+04</rscale>
<asrwt>0</asrwt>
<pdfrwt beam="1">  1        2 0.98257861E-01 0.16001840E+04</pdfrwt>
<pdfrwt beam="2">  1       -2 0.13295861E+00 0.16001840E+04</pdfrwt>
<totfact> 0.18128387E+01</totfact>
</mgrwt>
</event>
<event>
 8    2  0.4306980E-052  0.1255693E+04  0.7818608E-02  0.9065458E-01
         -2   -1    0    0    0  501 -0.00000000000E+00  0.00000000000E+00  0.20116118927E+03  0.20116118929E+03  0.25500000000E-02 0. -1.
          2   -1    0    0  501    0  0.00000000000E+00 -0.00000000000E+00 -0.19595791729E+04  0.19595791729E+04  0.25500000000E-02 0.  1.
    -200001    2    1    2    0    0 -0.43841936927E+02  0.10628701548E+03 -0.10047492209E+04  0.11824742179E+04  0.61278481874E+03 0.  0.
   -5000001    2    3    3    0    0  0.19400928351E+03  0.20917733461E+03 -0.29864305065E+03  0.42356279721E+03  0.93930889874E+02 0.  0.
     200001    1    1    2    0    0  0.43841936927E+02 -0.10628701548E+03 -0.75366876274E+03  0.97826614427E+03  0.61300000000E+03 0. -1.
         13    1    4    4    0    0  0.10181910416E+03  0.81001305597E+02 -0.81908821829E+02  0.15374461857E+03  0.10566000000E+00 0.  1.
    -200003    1    4    4    0    0  0.92190179352E+02  0.12817602901E+03 -0.21673422882E+03  0.26981817864E+03  0.30000000000E+02 0. -1.
    -200000    1    3    3    0    0 -0.23785122044E+03 -0.10289031913E+03 -0.70610617026E+03  0.75891142073E+03  0.10100000000E+03 0.  1.
<mgrwt>
<rscale>  0 0.12556931E+04</rscale>
<asrwt>0</asrwt>
<pdfrwt beam="1">  1        2 0.27993987E+00 0.12556931E+04</pdfrwt>
<pdfrwt beam="2">  1       -2 0.28737314E-01 0.12556931E+04</pdfrwt>
<totfact> 0.91969875E+01</totfact>
</mgrwt>
</event>
<event>
 8    2  0.4306980E-052  0.1311794E+04  0.7818608E-02  0.9020265E-01
          2   -1    0    0  501    0  0.00000000000E+00  0.00000000000E+00  0.33669990533E+04  0.33669990533E+04  0.25500000000E-02 0.  1.
         -2   -1    0    0    0  501 -0.00000000000E+00 -0.00000000000E+00 -0.12776978683E+03  0.12776978686E+03  0.25500000000E-02 0. -1.
    -200001    2    1    2    0    0  0.16149321419E+03  0.16264234206E+03  0.15028158112E+04  0.16391198223E+04  0.61296479506E+03 0.  0.
   -5000001    2    3    3    0    0  0.30947057722E+03  0.25784778180E+03  0.12429228309E+04  0.13094127752E+04  0.86296787693E+02 0.  0.
     200001    1    1    2    0    0 -0.16149321419E+03 -0.16264234206E+03  0.17364134553E+04  0.18556490179E+04  0.61300000000E+03 0. -1.
         13    1    4    4    0    0  0.12266387521E+03  0.71464055403E+02  0.34588913181E+03  0.37388880721E+03  0.10566000000E+00 0.  1.
    -200003    1    4    4    0    0  0.18680670202E+03  0.18638372639E+03  0.89703369908E+03  0.93552396798E+03  0.30000000000E+02 0.  1.
    -200000    1    3    3    0    0 -0.14797736303E+03 -0.95205439736E+02  0.25989298027E+03  0.32970704712E+03  0.10100000000E+03 0. -1.
<mgrwt>
<rscale>  0 0.13117938E+04</rscale>
<asrwt>0</asrwt>
<pdfrwt beam="1">  1        2 0.48099991E+00 0.13117938E+04</pdfrwt>
<pdfrwt beam="2">  1       -2 0.18252825E-01 0.13117938E+04</pdfrwt>
<totfact> 0.36055917E+01</totfact>
</mgrwt>
</event>
<event>
 8    2  0.4306980E-052  0.1586729E+04  0.7818608E-02  0.8828743E-01
         -2   -1    0    0    0  501 -0.00000000000E+00  0.00000000000E+00  0.27690310191E+03  0.27690310192E+03  0.25500000000E-02 0. -1.
          2   -1    0    0  501    0  0.00000000000E+00 -0.00000000000E+00 -0.22730943753E+04  0.22730943753E+04  0.25500000000E-02 0.  1.
    -200001    2    1    2    0    0  0.45244418602E+00 -0.13269710810E+03 -0.17787616101E+04  0.18861801939E+04  0.61324883284E+03 0.  0.
   -5000001    2    3    3    0    0 -0.20922159626E+03 -0.63313222707E+02 -0.11926162449E+04  0.12517160768E+04  0.31092987735E+03 0.  0.
     200001    1    1    2    0    0 -0.45244418602E+00  0.13269710810E+03 -0.21742966328E+03  0.66381728335E+03  0.61300000000E+03 0. -1.
         13    1    4    4    0    0 -0.21332275303E+03 -0.10998104243E+03 -0.47734911698E+03  0.53428888937E+03  0.10566000000E+00 0.  1.
    -200003    1    4    4    0    0  0.41011567655E+01  0.46667819719E+02 -0.71526712796E+03  0.71742718740E+03  0.30000000000E+02 0.  1.
    -200000    1    3    3    0    0  0.20967404045E+03 -0.69383885388E+02 -0.58614536515E+03  0.63446411709E+03  0.10100000000E+03 0. -1.
<mgrwt>
<rscale>  0 0.15867286E+04</rscale>
<asrwt>0</asrwt>
<pdfrwt beam="1">  1        2 0.32472776E+00 0.15867286E+04</pdfrwt>
<pdfrwt beam="2">  1       -2 0.39557587E-01 0.15867286E+04</pdfrwt>
<totfact> 0.33702542E+01</totfact>
</mgrwt>
</event>
<event>
 8    2  0.4306980E-052  0.1408377E+04  0.7818608E-02  0.8947777E-01
          2   -1    0    0  501    0  0.00000000000E+00  0.00000000000E+00  0.12324560746E+04  0.12324560746E+04  0.25500000000E-02 0. -1.
         -2   -1    0    0    0  501 -0.00000000000E+00 -0.00000000000E+00 -0.40235220977E+03  0.40235220978E+03  0.25500000000E-02 0.  1.
    -200001    2    1    2    0    0  0.17342063204E+03 -0.26065004746E+03  0.58654076917E+03  0.90466778803E+03  0.61349863075E+03 0.  0.
   -5000001    2    3    3    0    0  0.22943746720E+03 -0.36570351127E+03  0.60584986704E+03  0.74735295294E+03  0.71426643203E+02 0.  0.
     200001    1    1    2    0    0 -0.17342063204E+03  0.26065004746E+03  0.24356309567E+03  0.73014049637E+03  0.61300000000E+03 0.  1.
         13    1    4    4    0    0  0.46155085207E+02 -0.71178228346E+02  0.79532641572E+02  0.11628449733E+03  0.10566000000E+00 0.  1.
    -200003    1    4    4    0    0  0.18328238199E+03 -0.29452528293E+03  0.52631722547E+03  0.63106845560E+03  0.30000000000E+02 0. -1.
    -200000    1    3    3    0    0 -0.56016835158E+02  0.10505346381E+03 -0.19309097866E+02  0.15731483509E+03  0.10100000000E+03 0.  1.
<mgrwt>
<rscale>  0 0.14083770E+04</rscale>
<asrwt>0</asrwt>
<pdfrwt beam="1">  1        2 0.17606515E+00 0.14083770E+04</pdfrwt>
<pdfrwt beam="2">  1       -2 0.57478887E-01 0.14083770E+04</pdfrwt>
<totfact> 0.56552072E+01</totfact>
</mgrwt>
</event>
<event>
 8    2  0.4306980E-052  0.1627739E+04  0.7818608E-02  0.8803686E-01
         -2   -1    0    0    0  501 -0.00000000000E+00  0.00000000000E+00  0.41034484166E+03  0.41034484167E+03  0.25500000000E-02 0. -1.
          2   -1    0    0  501    0  0.00000000000E+00 -0.00000000000E+00 -0.16142118820E+04  0.16142118820E+04  0.25500000000E-02 0.  1.
    -200001    2    1    2    0    0  0.44760049839E+03  0.16149889885E+03 -0.90591907973E+03  0.11933106183E+04  0.61389962718E+03 0.  0.
   -5000001    2    3    3    0    0 -0.12186983554E+03  0.85237231764E+02 -0.30672635303E+03  0.35704198513E+03  0.10620866731E+03 0.  0.
     200001    1    1    2    0    0 -0.44760049839E+03 -0.16149889885E+03 -0.29794796065E+03  0.83124610540E+03  0.61300000000E+03 0. -1.
         13    1    4    4    0    0 -0.86393763670E+02  0.17884716467E+02 -0.22371811353E+03  0.24048607230E+03  0.10566000000E+00 0.  1.
    -200003    1    4    4    0    0 -0.35476071872E+02  0.67352515297E+02 -0.83008239499E+02  0.11655591284E+03  0.30000000000E+02 0. -1.
    -200000    1    3    3    0    0  0.56947033393E+03  0.76261667088E+02 -0.59919272670E+03  0.83626863317E+03  0.10100000000E+03 0. -1.
<mgrwt>
<rscale>  0 0.16277389E+04</rscale>
<asrwt>0</asrwt>
<pdfrwt beam="1">  1        2 0.23060169E+00 0.16277389E+04</pdfrwt>
<pdfrwt beam="2">  1       -2 0.58620693E-01 0.16277389E+04</pdfrwt>
<totfact> 0.33176979E+01</totfact>
</mgrwt>
</event>
<event>
 8    2  0.4306980E-052  0.1639477E+04  0.7818608E-02  0.8796656E-01
         -2   -1    0    0    0  501 -0.00000000000E+00  0.00000000000E+00  0.43176213449E+03  0.43176213449E+03  0.25500000000E-02 0. -1.
          2   -1    0    0  501    0  0.00000000000E+00 -0.00000000000E+00 -0.15563464092E+04  0.15563464092E+04  0.25500000000E-02 0.  1.
    -200001    2    1    2    0    0  0.45623460878E+03 -0.18883916229E+03 -0.28587783880E+03  0.83788781135E+03  0.61361192804E+03 0.  0.
   -5000001    2    3    3    0    0  0.56122896792E+02 -0.33139679201E+03 -0.90824576922E+02  0.35970496470E+03  0.90360082762E+02 0.  0.
     200001    1    1    2    0    0 -0.45623460878E+03  0.18883916229E+03 -0.83870643590E+03  0.11502207323E+04  0.61300000000E+03 0. -1.
         13    1    4    4    0    0 -0.64447718081E+01 -0.67754491887E+02 -0.49070379904E+02  0.83905420579E+02  0.10566000000E+00 0.  1.
    -200003    1    4    4    0    0  0.62567668600E+02 -0.26364230012E+03 -0.41754197018E+02  0.27579954412E+03  0.30000000000E+02 0.  1.
    -200000    1    3    3    0    0  0.40011171199E+03  0.14255762972E+03 -0.19505326188E+03  0.47818284665E+03  0.10100000000E+03 0.  1.
<mgrwt>
<rscale>  0 0.16394773E+04</rscale>
<asrwt>0</asrwt>
<pdfrwt beam="1">  1        2 0.22233520E+00 0.16394773E+04</pdfrwt>
<pdfrwt beam="2">  1       -2 0.61680306E-01 0.16394773E+04</pdfrwt>
<totfact> 0.31930013E+01</totfact>
</mgrwt>
</event>
<event>
 8    2  0.4306980E-052  0.1723876E+04  0.7818608E-02  0.8747863E-01
          2   -1    0    0  501    0  0.00000000000E+00  0.00000000000E+00  0.14040063549E+04  0.14040063549E+04  0.25500000000E-02 0.  1.
         -2   -1    0    0    0  501 -0.00000000000E+00 -0.00000000000E+00 -0.52915515064E+03  0.52915515064E+03  0.25500000000E-02 0. -1.
    -200001    2    1    2    0    0  0.24326238113E+03  0.86686003159E+01 -0.18549229858E+03  0.68442251171E+03  0.61218873805E+03 0.  0.
   -5000001    2    3    3    0    0 -0.90661684344E+02  0.15767909624E+03  0.93932569167E+02  0.21326577970E+03  0.59805742548E+02 0.  0.
     200001    1    1    2    0    0 -0.24326238113E+03 -0.86686003159E+01  0.10603435028E+04  0.12487389938E+04  0.61300000000E+03 0.  1.
         13    1    4    4    0    0 -0.58954424634E+02  0.59694483983E+02  0.47151277272E+02  0.96240894189E+02  0.10566000000E+00 0.  1.
    -200003    1    4    4    0    0 -0.31707259710E+02  0.97984612258E+02  0.46781291895E+02  0.11702488551E+03  0.30000000000E+02 0.  1.
    -200000    1    3    3    0    0  0.33392406547E+03 -0.14901049592E+03 -0.27942486775E+03  0.47115673201E+03  0.10100000000E+03 0. -1.
<mgrwt>
<rscale>  0 0.17238761E+04</rscale>
<asrwt>0</asrwt>
<pdfrwt beam="1">  1        2 0.20057233E+00 0.17238761E+04</pdfrwt>
<pdfrwt beam="2">  1       -2 0.75593595E-01 0.17238761E+04</pdfrwt>
<totfact> 0.24601917E+01</totfact>
</mgrwt>
</event>
<event>
 8    2  0.4306980E-052  0.2627362E+04  0.7818608E-02  0.8358966E-01
         -2   -1    0    0    0  501 -0.00000000000E+00  0.00000000000E+00  0.37020440990E+03  0.37020440991E+03  0.25500000000E-02 0. -1.
          2   -1    0    0  501    0  0.00000000000E+00 -0.00000000000E+00 -0.46616332178E+04  0.46616332178E+04  0.25500000000E-02 0.  1.
    -200001    2    1    2    0    0  0.83106026803E+03  0.50208157684E+03 -0.33709041003E+04  0.35601441079E+04  0.60735865581E+03 0.  0.
   -5000001    2    3    3    0    0  0.81513502904E+03  0.54772581425E+03 -0.32432728471E+04  0.33903567514E+04  0.10607288847E+03 0.  0.
     200001    1    1    2    0    0 -0.83106026803E+03 -0.50208157684E+03 -0.92052470761E+03  0.14716935198E+04  0.61300000000E+03 0. -1.
         13    1    4    4    0    0  0.37692137430E+03  0.19561912191E+03 -0.14255032626E+04  0.14874125608E+04  0.10566000000E+00 0.  1.
    -200003    1    4    4    0    0  0.43821365474E+03  0.35210669234E+03 -0.18177695846E+04  0.19029441906E+04  0.30000000000E+02 0.  1.
    -200000    1    3    3    0    0  0.15925238987E+02 -0.45644237408E+02 -0.12763125317E+03  0.16978735651E+03  0.10100000000E+03 0. -1.
<mgrwt>
<rscale>  0 0.26273615E+04</rscale>
<asrwt>0</asrwt>
<pdfrwt beam="1">  1        2 0.66594757E+00 0.26273615E+04</pdfrwt>
<pdfrwt beam="2">  1       -2 0.52886347E-01 0.26273615E+04</pdfrwt>
<totfact> 0.53581278E-01</totfact>
</mgrwt>
</event>
<event>
 8    2  0.4306980E-052  0.1582853E+04  0.7818608E-02  0.8831152E-01
          2   -1    0    0  501    0  0.00000000000E+00  0.00000000000E+00  0.19698345825E+04  0.19698345825E+04  0.25500000000E-02 0.  1.
         -2   -1    0    0    0  501 -0.00000000000E+00 -0.00000000000E+00 -0.31797367783E+03  0.31797367784E+03  0.25500000000E-02 0. -1.
    -200001    2    1    2    0    0  0.23569595259E+03  0.25630145388E+03  0.30580019805E+03  0.76830457715E+03  0.61280922384E+03 0.  0.
   -5000001    2    3    3    0    0 -0.11974064154E+03  0.36968877820E+02 -0.97663678607E+02  0.17887599697E+03  0.82182169668E+02 0.  0.
     200001    1    1    2    0    0 -0.23569595259E+03 -0.25630145388E+03  0.13460607067E+04  0.15195036832E+04  0.61300000000E+03 0.  1.
         13    1    4    4    0    0 -0.20227412967E+02  0.15055545237E+02 -0.61827870248E+02  0.66772107808E+02  0.10566000000E+00 0.  1.
    -200003    1    4    4    0    0 -0.99513228571E+02  0.21913332583E+02 -0.35835808360E+02  0.11210388917E+03  0.30000000000E+02 0.  1.
    -200000    1    3    3    0    0  0.35543659413E+03  0.21933257606E+03  0.40346387666E+03  0.58942858018E+03  0.10100000000E+03 0.  1.
<mgrwt>
<rscale>  0 0.15828525E+04</rscale>
<asrwt>0</asrwt>
<pdfrwt beam="1">  1        2 0.28140494E+00 0.15828525E+04</pdfrwt>
<pdfrwt beam="2">  1       -2 0.45424811E-01 0.15828525E+04</pdfrwt>
<totfact> 0.36759443E+01</totfact>
</mgrwt>
</event>
<event>
 8    2  0.4306980E-052  0.1422551E+04  0.7818608E-02  0.8937655E-01
          2   -1    0    0  501    0  0.00000000000E+00  0.00000000000E+00  0.73967294902E+03  0.73967294902E+03  0.25500000000E-02 0.  1.
         -2   -1    0    0    0  501 -0.00000000000E+00 -0.00000000000E+00 -0.68396826580E+03  0.68396826580E+03  0.25500000000E-02 0. -1.
    -200001    2    1    2    0    0 -0.12498436642E+03  0.21356079129E+03 -0.23472235362E+03  0.70159816406E+03  0.61311996959E+03 0.  0.
   -5000001    2    3    3    0    0 -0.18254759819E+02  0.27459614118E+03 -0.38650985418E+03  0.48169598538E+03  0.83095595253E+02 0.  0.
     200001    1    1    2    0    0  0.12498436642E+03 -0.21356079129E+03  0.29042703684E+03  0.72204305076E+03  0.61300000000E+03 0.  1.
         13    1    4    4    0    0 -0.79465420203E+01  0.20352580429E+03 -0.31998545302E+03  0.37931069303E+03  0.10566000000E+00 0.  1.
    -200003    1    4    4    0    0 -0.10308217799E+02  0.71070336891E+02 -0.66524401160E+02  0.10238529235E+03  0.30000000000E+02 0.  1.
    -200000    1    3    3    0    0 -0.10672960660E+03 -0.61035349891E+02  0.15178750056E+03  0.21990217868E+03  0.10100000000E+03 0.  1.
<mgrwt>
<rscale>  0 0.14225510E+04</rscale>
<asrwt>0</asrwt>
<pdfrwt beam="1">  1        2 0.10566756E+00 0.14225510E+04</pdfrwt>
<pdfrwt beam="2">  1       -2 0.97709753E-01 0.14225510E+04</pdfrwt>
<totfact> 0.35688195E+01</totfact>
</mgrwt>
</event>
<event>
 8    2  0.4306980E-052  0.1435085E+04  0.7818608E-02  0.8928806E-01
          2   -1    0    0  501    0  0.00000000000E+00  0.00000000000E+00  0.29779583206E+04  0.29779583206E+04  0.25500000000E-02 0.  1.
         -2   -1    0    0    0  501 -0.00000000000E+00 -0.00000000000E+00 -0.17289275850E+03  0.17289275852E+03  0.25500000000E-02 0. -1.
    -200001    2    1    2    0    0 -0.65362266953E+02 -0.26082055310E+03  0.83585808853E+03  0.10709840976E+04  0.61322802146E+03 0.  0.
   -5000001    2    3    3    0    0  0.87732565234E+02 -0.39698193877E+03  0.51149399035E+03  0.67425872814E+03  0.16645440095E+03 0.  0.
     200001    1    1    2    0    0  0.65362266953E+02  0.26082055310E+03  0.19692074736E+04  0.20798669815E+04  0.61300000000E+03 0.  1.
         13    1    4    4    0    0  0.39304417402E+02 -0.19157075303E+03  0.12271119850E+03  0.23087277891E+03  0.10566000000E+00 0.  1.
    -200003    1    4    4    0    0  0.48428147833E+02 -0.20541118574E+03  0.38878279185E+03  0.44338594922E+03  0.30000000000E+02 0.  1.
    -200000    1    3    3    0    0 -0.15309483219E+03  0.13616138567E+03  0.32436409819E+03  0.39672536947E+03  0.10100000000E+03 0. -1.
<mgrwt>
<rscale>  0 0.14350853E+04</rscale>
<asrwt>0</asrwt>
<pdfrwt beam="1">  1        2 0.42542263E+00 0.14350853E+04</pdfrwt>
<pdfrwt beam="2">  1       -2 0.24698965E-01 0.14350853E+04</pdfrwt>
<totfact> 0.34787911E+01</totfact>
</mgrwt>
</event>
<event>
 8    2  0.4306980E-052  0.1334443E+04  0.7818608E-02  0.9002689E-01
         -2   -1    0    0    0  501 -0.00000000000E+00  0.00000000000E+00  0.23153437249E+03  0.23153437251E+03  0.25500000000E-02 0.  1.
          2   -1    0    0  501    0  0.00000000000E+00 -0.00000000000E+00 -0.19227584044E+04  0.19227584044E+04  0.25500000000E-02 0. -1.
    -200001    2    1    2    0    0 -0.17772823638E+02 -0.26297512395E+03 -0.82000054100E+03  0.10568998846E+04  0.61250688948E+03 0.  0.
   -5000001    2    3    3    0    0 -0.25808739020E+03 -0.25705611890E+03 -0.30590654556E+03  0.48046275731E+03  0.67666071993E+02 0.  0.
     200001    1    1    2    0    0  0.17772823638E+02  0.26297512395E+03 -0.87122349092E+03  0.10973928924E+04  0.61300000000E+03 0. -1.
         13    1    4    4    0    0 -0.41847448708E+01 -0.14064535998E+02 -0.27253700644E+02  0.30953168259E+02  0.10566000000E+00 0.  1.
    -200003    1    4    4    0    0 -0.25390264533E+03 -0.24299158290E+03 -0.27865284491E+03  0.44950958905E+03  0.30000000000E+02 0.  1.
    -200000    1    3    3    0    0  0.24031456657E+03 -0.59190050594E+01 -0.51409399544E+03  0.57643712725E+03  0.10100000000E+03 0.  1.
<mgrwt>
<rscale>  0 0.13344432E+04</rscale>
<asrwt>0</asrwt>
<pdfrwt beam="1">  1        2 0.27467976E+00 0.13344432E+04</pdfrwt>
<pdfrwt beam="2">  1       -2 0.33076340E-01 0.13344432E+04</pdfrwt>
<totfact> 0.73413397E+01</totfact>
</mgrwt>
</event>
<event>
 8    2  0.4306980E-052  0.1448154E+04  0.7818608E-02  0.8919681E-01
          2   -1    0    0  501    0  0.00000000000E+00  0.00000000000E+00  0.31912414680E+04  0.31912414680E+04  0.25500000000E-02 0.  1.
         -2   -1    0    0    0  501 -0.00000000000E+00 -0.00000000000E+00 -0.16428957410E+03  0.16428957412E+03  0.25500000000E-02 0. -1.
    -200001    2    1    2    0    0  0.16934522681E+03  0.32036675561E+03  0.12120386394E+04  0.14059178022E+04  0.61339590739E+03 0.  0.
   -5000001    2    3    3    0    0  0.10694158085E+03 -0.86781318620E+02  0.79828893859E+03  0.81342005175E+03  0.73616928315E+02 0.  0.
     200001    1    1    2    0    0 -0.16934522681E+03 -0.32036675561E+03  0.18149132545E+04  0.19496132399E+04  0.61300000000E+03 0. -1.
         13    1    4    4    0    0  0.50203867972E+02 -0.75762731892E+02  0.44697860532E+03  0.45612531686E+03  0.10566000000E+00 0.  1.
    -200003    1    4    4    0    0  0.56737712883E+02 -0.11018586728E+02  0.35131033327E+03  0.35729473488E+03  0.30000000000E+02 0.  1.
    -200000    1    3    3    0    0  0.62403645960E+02  0.40714807423E+03  0.41374970085E+03  0.59249775048E+03  0.10100000000E+03 0. -1.
<mgrwt>
<rscale>  0 0.14481543E+04</rscale>
<asrwt>0</asrwt>
<pdfrwt beam="1">  1        2 0.45589157E+00 0.14481543E+04</pdfrwt>
<pdfrwt beam="2">  1       -2 0.23469943E-01 0.14481543E+04</pdfrwt>
<totfact> 0.28885457E+01</totfact>
</mgrwt>
</event>
<event>
 8    2  0.4306980E-052  0.1762804E+04  0.7818608E-02  0.8726334E-01
         -2   -1    0    0    0  501 -0.00000000000E+00  0.00000000000E+00  0.30753825132E+03  0.30753825133E+03  0.25500000000E-02 0. -1.
          2   -1    0    0  501    0  0.00000000000E+00 -0.00000000000E+00 -0.25260896412E+04  0.25260896412E+04  0.25500000000E-02 0.  1.
    -200001    2    1    2    0    0 -0.58075080997E+03 -0.22992912076E+03 -0.94146318359E+03  0.12854476089E+04  0.61309356990E+03 0.  0.
   -5000001    2    3    3    0    0 -0.31099218580E+03  0.66512126016E+02 -0.52238717315E+03  0.69682818128E+03  0.33397777324E+03 0.  0.
     200001    1    1    2    0    0  0.58075080997E+03  0.22992912076E+03 -0.12770882063E+04  0.15481802836E+04  0.61300000000E+03 0. -1.
         13    1    4    4    0    0 -0.31654323045E+03  0.16446328382E+03 -0.43064748900E+03  0.55920037501E+03  0.10566000000E+00 0.  1.
    -200003    1    4    4    0    0  0.55510446491E+01 -0.97951157799E+02 -0.91739684147E+02  0.13762780627E+03  0.30000000000E+02 0.  1.
    -200000    1    3    3    0    0 -0.26975862417E+03 -0.29644124678E+03 -0.41907601044E+03  0.58861942767E+03  0.10100000000E+03 0.  1.
<mgrwt>
<rscale>  0 0.17628037E+04</rscale>
<asrwt>0</asrwt>
<pdfrwt beam="1">  1        2 0.36086994E+00 0.17628037E+04</pdfrwt>
<pdfrwt beam="2">  1       -2 0.43934038E-01 0.17628037E+04</pdfrwt>
<totfact> 0.19929089E+01</totfact>
</mgrwt>
</event>
<event>
 8    2  0.4306980E-052  0.1841840E+04  0.7818608E-02  0.8684361E-01
          2   -1    0    0  501    0  0.00000000000E+00  0.00000000000E+00  0.20251995074E+04  0.20251995074E+04  0.25500000000E-02 0.  1.
         -2   -1    0    0    0  501 -0.00000000000E+00 -0.00000000000E+00 -0.41877030692E+03  0.41877030693E+03  0.25500000000E-02 0. -1.
    -200001    2    1    2    0    0  0.77440306036E+02  0.68220655363E+03  0.76612155368E+03  0.11976597710E+04  0.61322419169E+03 0.  0.
   -5000001    2    3    3    0    0  0.18181264902E+03  0.39312769522E+03  0.72019241810E+03  0.87090197408E+03  0.22844672304E+03 0.  0.
     200001    1    1    2    0    0 -0.77440306036E+02 -0.68220655363E+03  0.84030764680E+03  0.12463100433E+04  0.61300000000E+03 0. -1.
         13    1    4    4    0    0  0.59137715362E+02  0.12166478174E+03  0.44188583038E+03  0.46212843101E+03  0.10566000000E+00 0.  1.
    -200003    1    4    4    0    0  0.12267493366E+03  0.27146291348E+03  0.27830658773E+03  0.40877354307E+03  0.30000000000E+02 0.  1.
    -200000    1    3    3    0    0 -0.10437234299E+03  0.28907885841E+03  0.45929135574E+02  0.32675779693E+03  0.10100000000E+03 0. -1.
<mgrwt>
<rscale>  0 0.18418398E+04</rscale>
<asrwt>0</asrwt>
<pdfrwt beam="1">  1        2 0.28931421E+00 0.18418398E+04</pdfrwt>
<pdfrwt beam="2">  1       -2 0.59824330E-01 0.18418398E+04</pdfrwt>
<totfact> 0.19149339E+01</totfact>
</mgrwt>
</event>
<event>
 8    2  0.4306980E-052  0.1424968E+04  0.7818608E-02  0.8935941E-01
         -2   -1    0    0    0  501 -0.00000000000E+00  0.00000000000E+00  0.26922949944E+03  0.26922949946E+03  0.25500000000E-02 0. -1.
          2   -1    0    0  501    0  0.00000000000E+00 -0.00000000000E+00 -0.18855035546E+04  0.18855035546E+04  0.25500000000E-02 0.  1.
    -200001    2    1    2    0    0  0.40196506708E+02 -0.36988640375E+02 -0.26100428102E+03  0.66627442872E+03  0.61058534291E+03 0.  0.
   -5000001    2    3    3    0    0  0.20244142767E+03 -0.24435519990E+03 -0.14090085745E+03  0.35976156318E+03  0.94251447499E+02 0.  0.
     200001    1    1    2    0    0 -0.40196506708E+02  0.36988640375E+02 -0.13552697742E+04  0.14884586254E+04  0.61300000000E+03 0.  1.
         13    1    4    4    0    0  0.15260244362E+03 -0.18742972225E+03 -0.13800074486E+03  0.27831928307E+03  0.10566000000E+00 0.  1.
    -200003    1    4    4    0    0  0.49838984050E+02 -0.56925477648E+02 -0.29001125911E+01  0.81442280111E+02  0.30000000000E+02 0.  1.
    -200000    1    3    3    0    0 -0.16224492097E+03  0.20736655952E+03 -0.12010342357E+03  0.30651286554E+03  0.10100000000E+03 0. -1.
<mgrwt>
<rscale>  0 0.14249676E+04</rscale>
<asrwt>0</asrwt>
<pdfrwt beam="1">  1        2 0.26935764E+00 0.14249676E+04</pdfrwt>
<pdfrwt beam="2">  1       -2 0.38461358E-01 0.14249676E+04</pdfrwt>
<totfact> 0.57075860E+01</totfact>
</mgrwt>
</event>
<event>
 8    2  0.4306980E-052  0.1370306E+04  0.7818608E-02  0.8975597E-01
          2   -1    0    0  501    0  0.00000000000E+00  0.00000000000E+00  0.13306151151E+04  0.13306151151E+04  0.25500000000E-02 0.  1.
         -2   -1    0    0    0  501 -0.00000000000E+00 -0.00000000000E+00 -0.35279536975E+03  0.35279536976E+03  0.25500000000E-02 0. -1.
    -200001    2    1    2    0    0  0.22073930375E+02  0.29621105090E+03  0.57558929639E+03  0.89234374991E+03  0.61379645226E+03 0.  0.
   -5000001    2    3    3    0    0 -0.34014641985E+02  0.25498603845E+03 -0.31607543869E+02  0.27288073050E+03  0.85381383089E+02 0.  0.
     200001    1    1    2    0    0 -0.22073930375E+02 -0.29621105090E+03  0.40223044899E+03  0.79106673497E+03  0.61300000000E+03 0.  1.
         13    1    4    4    0    0  0.89912323799E+01  0.16545838777E+03 -0.50356149971E+01  0.16577903644E+03  0.10566000000E+00 0.  1.
    -200003    1    4    4    0    0 -0.43005874364E+02  0.89527650679E+02 -0.26571928872E+02  0.10710169406E+03  0.30000000000E+02 0.  1.
    -200000    1    3    3    0    0  0.56088572359E+02  0.41225012457E+02  0.60719684025E+03  0.61946301941E+03  0.10100000000E+03 0.  1.
<mgrwt>
<rscale>  0 0.13703063E+04</rscale>
<asrwt>0</asrwt>
<pdfrwt beam="1">  1        2 0.19008788E+00 0.13703063E+04</pdfrwt>
<pdfrwt beam="2">  1       -2 0.50399338E-01 0.13703063E+04</pdfrwt>
<totfact> 0.65613198E+01</totfact>
</mgrwt>
</event>
<event>
 8    2  0.4306980E-052  0.2484202E+04  0.7818608E-02  0.8408635E-01
          2   -1    0    0  501    0  0.00000000000E+00  0.00000000000E+00  0.38532426663E+04  0.38532426663E+04  0.25500000000E-02 0.  1.
         -2   -1    0    0    0  501 -0.00000000000E+00 -0.00000000000E+00 -0.40039382105E+03  0.40039382105E+03  0.25500000000E-02 0. -1.
    -200001    2    1    2    0    0  0.40107311898E+03 -0.88214446895E+03  0.90792128062E+03  0.14623171183E+04  0.61238206357E+03 0.  0.
   -5000001    2    3    3    0    0  0.41136435793E+03 -0.93321842949E+03  0.86667734773E+03  0.13414183133E+04  0.90311650059E+02 0.  0.
     200001    1    1    2    0    0 -0.40107311898E+03  0.88214446895E+03  0.25449275647E+04  0.27913193691E+04  0.61300000000E+03 0.  1.
         13    1    4    4    0    0  0.26998993084E+03 -0.60338943298E+03  0.51375784671E+03  0.83720995384E+03  0.10566000000E+00 0.  1.
    -200003    1    4    4    0    0  0.14137442708E+03 -0.32982899651E+03  0.35291950102E+03  0.50420835949E+03  0.30000000000E+02 0.  1.
    -200000    1    3    3    0    0 -0.10291238950E+02  0.51073960534E+02  0.41243932888E+02  0.12089880497E+03  0.10100000000E+03 0. -1.
<mgrwt>
<rscale>  0 0.24842017E+04</rscale>
<asrwt>0</asrwt>
<pdfrwt beam="1">  1        2 0.55046328E+00 0.24842017E+04</pdfrwt>
<pdfrwt beam="2">  1       -2 0.57199113E-01 0.24842017E+04</pdfrwt>
<totfact> 0.18424968E+00</totfact>
</mgrwt>
</event>
<event>
 8    2  0.4306980E-052  0.1594280E+04  0.7818608E-02  0.8824070E-01
          2   -1    0    0  501    0  0.00000000000E+00  0.00000000000E+00  0.11029395324E+04  0.11029395324E+04  0.25500000000E-02 0.  1.
         -2   -1    0    0    0  501 -0.00000000000E+00 -0.00000000000E+00 -0.57612616512E+03  0.57612616512E+03  0.25500000000E-02 0. -1.
    -200001    2    1    2    0    0  0.35217042388E+03 -0.25596832856E+03  0.54093854292E+03  0.92706017013E+03  0.61423306580E+03 0.  0.
   -5000001    2    3    3    0    0  0.17063299245E+03 -0.42351940241E+03  0.22862616974E+03  0.51624485906E+03  0.75858596663E+02 0.  0.
     200001    1    1    2    0    0 -0.35217042388E+03  0.25596832856E+03 -0.14125175619E+02  0.75200552742E+03  0.61300000000E+03 0. -1.
         13    1    4    4    0    0  0.83984620393E+02 -0.27619471380E+03  0.15594163162E+03  0.32810781769E+03  0.10566000000E+00 0.  1.
    -200003    1    4    4    0    0  0.86648372056E+02 -0.14732468861E+03  0.72684538123E+02  0.18813704137E+03  0.30000000000E+02 0.  1.
    -200000    1    3    3    0    0  0.18153743143E+03  0.16755107385E+03  0.31231237318E+03  0.41081531106E+03  0.10100000000E+03 0.  1.
<mgrwt>
<rscale>  0 0.15942802E+04</rscale>
<asrwt>0</asrwt>
<pdfrwt beam="1">  1        2 0.15756279E+00 0.15942802E+04</pdfrwt>
<pdfrwt beam="2">  1       -2 0.82303738E-01 0.15942802E+04</pdfrwt>
<totfact> 0.30338698E+01</totfact>
</mgrwt>
</event>
<event>
 8    2  0.4306980E-052  0.2034141E+04  0.7818608E-02  0.8590823E-01
          2   -1    0    0  501    0  0.00000000000E+00  0.00000000000E+00  0.10311981080E+04  0.10311981080E+04  0.25500000000E-02 0.  1.
         -2   -1    0    0    0  501 -0.00000000000E+00 -0.00000000000E+00 -0.10031361500E+04  0.10031361500E+04  0.25500000000E-02 0. -1.
    -200001    2    1    2    0    0 -0.35894168039E+03 -0.65187591307E+03  0.33845687495E+03  0.10214693409E+04  0.61242568714E+03 0.  0.
   -5000001    2    3    3    0    0  0.80846973914E+02 -0.29981123791E+02  0.18990347181E+03  0.23888624439E+03  0.11648265184E+03 0.  0.
     200001    1    1    2    0    0  0.35894168039E+03  0.65187591307E+03 -0.31039491695E+03  0.10128649172E+04  0.61300000000E+03 0. -1.
         13    1    4    4    0    0 -0.10007033885E+02  0.31934928553E+01  0.10836419895E+03  0.10887217230E+03  0.10566000000E+00 0.  1.
    -200003    1    4    4    0    0  0.90854007799E+02 -0.33174616646E+02  0.81539272861E+02  0.13001407209E+03  0.30000000000E+02 0.  1.
    -200000    1    3    3    0    0 -0.43978865430E+03 -0.62189478928E+03  0.14855340314E+03  0.78258309653E+03  0.10100000000E+03 0.  1.
<mgrwt>
<rscale>  0 0.20341407E+04</rscale>
<asrwt>0</asrwt>
<pdfrwt beam="1">  1        2 0.14731402E+00 0.20341407E+04</pdfrwt>
<pdfrwt beam="2">  1       -2 0.14330516E+00 0.20341407E+04</pdfrwt>
<totfact> 0.84471332E+00</totfact>
</mgrwt>
</event>
<event>
 8    2  0.4306980E-052  0.1406507E+04  0.7818608E-02  0.8949122E-01
         -2   -1    0    0    0  501 -0.00000000000E+00  0.00000000000E+00  0.22559600150E+03  0.22559600152E+03  0.25500000000E-02 0. -1.
          2   -1    0    0  501    0  0.00000000000E+00 -0.00000000000E+00 -0.21922620098E+04  0.21922620098E+04  0.25500000000E-02 0.  1.
    -200001    2    1    2    0    0 -0.33663214475E+03  0.42701962552E+02 -0.10814021422E+04  0.12888736132E+04  0.61369368522E+03 0.  0.
   -5000001    2    3    3    0    0 -0.17491427536E+03  0.17007213155E+02 -0.10780249817E+04  0.10964540335E+04  0.95861032271E+02 0.  0.
     200001    1    1    2    0    0  0.33663214475E+03 -0.42701962552E+02 -0.88526386613E+03  0.11289843981E+04  0.61300000000E+03 0.  1.
         13    1    4    4    0    0 -0.11270758932E+03  0.18099360958E+02 -0.86528137383E+03  0.87277858282E+03  0.10566000000E+00 0.  1.
    -200003    1    4    4    0    0 -0.62206686039E+02 -0.10921478020E+01 -0.21274360785E+03  0.22367545072E+03  0.30000000000E+02 0. -1.
    -200000    1    3    3    0    0 -0.16171786939E+03  0.25694749397E+02 -0.33771604717E+01  0.19241957967E+03  0.10100000000E+03 0. -1.
<mgrwt>
<rscale>  0 0.14065071E+04</rscale>
<asrwt>0</asrwt>
<pdfrwt beam="1">  1        2 0.31318027E+00 0.14065071E+04</pdfrwt>
<pdfrwt beam="2">  1       -2 0.32228002E-01 0.14065071E+04</pdfrwt>
<totfact> 0.55750312E+01</totfact>
</mgrwt>
</event>
<event>
 8    2  0.4306980E-052  0.2334717E+04  0.7818608E-02  0.8464357E-01
         -2   -1    0    0    0  501 -0.00000000000E+00  0.00000000000E+00  0.56859247458E+03  0.56859247459E+03  0.25500000000E-02 0. -1.
          2   -1    0    0  501    0  0.00000000000E+00 -0.00000000000E+00 -0.23966647844E+04  0.23966647844E+04  0.25500000000E-02 0.  1.
    -200001    2    1    2    0    0 -0.54275010202E+03  0.82575183136E+03 -0.10439415771E+04  0.15627331892E+04  0.61308828409E+03 0.  0.
   -5000001    2    3    3    0    0 -0.23432680776E+03  0.13092551573E+02 -0.42534212790E+03  0.49109597823E+03  0.71964340620E+02 0.  0.
     200001    1    1    2    0    0  0.54275010202E+03 -0.82575183136E+03 -0.78413073270E+03  0.14025240697E+04  0.61300000000E+03 0. -1.
         13    1    4    4    0    0 -0.16565003735E+03  0.45053304936E+01 -0.24679129463E+03  0.29726450704E+03  0.10566000000E+00 0.  1.
    -200003    1    4    4    0    0 -0.68676770406E+02  0.85872210796E+01 -0.17855083327E+03  0.19383147119E+03  0.30000000000E+02 0.  1.
    -200000    1    3    3    0    0 -0.30842329426E+03  0.81265927979E+03 -0.61859944922E+03  0.10716372110E+04  0.10100000000E+03 0. -1.
<mgrwt>
<rscale>  0 0.23347167E+04</rscale>
<asrwt>0</asrwt>
<pdfrwt beam="1">  1        2 0.34238068E+00 0.23347167E+04</pdfrwt>
<pdfrwt beam="2">  1       -2 0.81227498E-01 0.23347167E+04</pdfrwt>
<totfact> 0.60619637E+00</totfact>
</mgrwt>
</event>
<event>
 8    2  0.4306980E-052  0.1344658E+04  0.7818608E-02  0.8994882E-01
         -2   -1    0    0    0  501 -0.00000000000E+00  0.00000000000E+00  0.60249631295E+03  0.60249631296E+03  0.25500000000E-02 0. -1.
          2   -1    0    0  501    0  0.00000000000E+00 -0.00000000000E+00 -0.75025528676E+03  0.75025528677E+03  0.25500000000E-02 0.  1.
    -200001    2    1    2    0    0 -0.18572390682E+01 -0.26032720492E+03 -0.16887163963E+03  0.68642701845E+03  0.61228320084E+03 0.  0.
   -5000001    2    3    3    0    0 -0.62402812389E+02 -0.12754804993E+03 -0.37588644542E+03  0.41375101976E+03  0.98674568475E+02 0.  0.
     200001    1    1    2    0    0  0.18572390682E+01  0.26032720492E+03  0.21112665820E+02  0.66632458128E+03  0.61300000000E+03 0.  1.
         13    1    4    4    0    0 -0.34481501250E+02 -0.80521271980E+02 -0.10984317569E+03  0.14049264599E+03  0.10566000000E+00 0.  1.
    -200003    1    4    4    0    0 -0.27921311139E+02 -0.47026777949E+02 -0.26604326973E+03  0.27325837376E+03  0.30000000000E+02 0.  1.
    -200000    1    3    3    0    0  0.60545573321E+02 -0.13277915499E+03  0.20701480579E+03  0.27267599870E+03  0.10100000000E+03 0.  1.
<mgrwt>
<rscale>  0 0.13446576E+04</rscale>
<asrwt>0</asrwt>
<pdfrwt beam="1">  1        2 0.10717933E+00 0.13446576E+04</pdfrwt>
<pdfrwt beam="2">  1       -2 0.86070902E-01 0.13446576E+04</pdfrwt>
<totfact> 0.47298459E+01</totfact>
</mgrwt>
</event>
<event>
 8    2  0.4306980E-052  0.1443403E+04  0.7818608E-02  0.8922987E-01
          2   -1    0    0  501    0  0.00000000000E+00  0.00000000000E+00  0.15774127900E+04  0.15774127900E+04  0.25500000000E-02 0.  1.
         -2   -1    0    0    0  501 -0.00000000000E+00 -0.00000000000E+00 -0.33019431821E+03  0.33019431822E+03  0.25500000000E-02 0. -1.
    -200001    2    1    2    0    0 -0.35866555825E+03 -0.59940478483E+02  0.46565638185E+03  0.84985376075E+03  0.61088600006E+03 0.  0.
   -5000001    2    3    3    0    0  0.12079424846E+03  0.12038611740E+03  0.11287540185E+03  0.21973090980E+03  0.80353896327E+02 0.  0.
     200001    1    1    2    0    0  0.35866555825E+03  0.59940478483E+02  0.78156208992E+03  0.10577533474E+04  0.61300000000E+03 0.  1.
         13    1    4    4    0    0  0.72138309401E+02  0.38278743306E+02  0.22006146859E+02  0.84578245051E+02  0.10566000000E+00 0.  1.
    -200003    1    4    4    0    0  0.48655939061E+02  0.82107374094E+02  0.90869254987E+02  0.13515266475E+03  0.30000000000E+02 0.  1.
    -200000    1    3    3    0    0 -0.47945980671E+03 -0.18032659588E+03  0.35278098000E+03  0.63012285095E+03  0.10100000000E+03 0. -1.
<mgrwt>
<rscale>  0 0.14434026E+04</rscale>
<asrwt>0</asrwt>
<pdfrwt beam="1">  1        2 0.22534468E+00 0.14434026E+04</pdfrwt>
<pdfrwt beam="2">  1       -2 0.47170618E-01 0.14434026E+04</pdfrwt>
<totfact> 0.55018564E+01</totfact>
</mgrwt>
</event>
<event>
 8    2  0.4306980E-052  0.2218498E+04  0.7818608E-02  0.8510768E-01
          2   -1    0    0  501    0  0.00000000000E+00  0.00000000000E+00  0.22971800476E+04  0.22971800476E+04  0.25500000000E-02 0.  1.
         -2   -1    0    0    0  501 -0.00000000000E+00 -0.00000000000E+00 -0.53562755633E+03  0.53562755634E+03  0.25500000000E-02 0. -1.
    -200001    2    1    2    0    0  0.19725452817E+03 -0.23732450711E+03 -0.23214843839E+03  0.72429043126E+03  0.61275726093E+03 0.  0.
   -5000001    2    3    3    0    0  0.30392676488E+03 -0.26483402955E+03 -0.34262908633E+03  0.53843372980E+03  0.10003823751E+03 0.  0.
     200001    1    1    2    0    0 -0.19725452817E+03  0.23732450711E+03  0.19937009297E+04  0.21085171727E+04  0.61300000000E+03 0.  1.
         13    1    4    4    0    0  0.24667280378E+03 -0.24470968570E+03 -0.28063306058E+03  0.44663769238E+03  0.10566000000E+00 0.  1.
    -200003    1    4    4    0    0  0.57253961094E+02 -0.20124343858E+02 -0.61996025753E+02  0.91796037419E+02  0.30000000000E+02 0. -1.
    -200000    1    3    3    0    0 -0.10667223671E+03  0.27509522448E+02  0.11048064794E+03  0.18585670147E+03  0.10100000000E+03 0.  1.
<mgrwt>
<rscale>  0 0.22184976E+04</rscale>
<asrwt>0</asrwt>
<pdfrwt beam="1">  1        2 0.32816858E+00 0.22184976E+04</pdfrwt>
<pdfrwt beam="2">  1       -2 0.76518222E-01 0.22184976E+04</pdfrwt>
<totfact> 0.78831982E+00</totfact>
</mgrwt>
</event>
<event>
 8    2  0.4306980E-052  0.1563732E+04  0.7818608E-02  0.8843144E-01
          2   -1    0    0  501    0  0.00000000000E+00  0.00000000000E+00  0.17872948810E+04  0.17872948810E+04  0.25500000000E-02 0.  1.
         -2   -1    0    0    0  501 -0.00000000000E+00 -0.00000000000E+00 -0.34203338931E+03  0.34203338932E+03  0.25500000000E-02 0. -1.
    -200001    2    1    2    0    0  0.34961403599E+03  0.30604217252E+03  0.91404308102E+03  0.11945268019E+04  0.61280318294E+03 0.  0.
   -5000001    2    3    3    0    0  0.32663773834E+03  0.45736388472E+03  0.55986129851E+03  0.79568860679E+03  0.61658334875E+02 0.  0.
     200001    1    1    2    0    0 -0.34961403599E+03 -0.30604217252E+03  0.53121841072E+03  0.93480146845E+03  0.61300000000E+03 0.  1.
         13    1    4    4    0    0  0.15348190459E+03  0.25173296915E+03  0.29833055810E+03  0.41943690331E+03  0.10566000000E+00 0.  1.
    -200003    1    4    4    0    0  0.17315583374E+03  0.20563091556E+03  0.26153074041E+03  0.37625170348E+03  0.30000000000E+02 0.  1.
    -200000    1    3    3    0    0  0.22976297657E+02 -0.15132171219E+03  0.35418178250E+03  0.39883819513E+03  0.10100000000E+03 0.  1.
<mgrwt>
<rscale>  0 0.15637321E+04</rscale>
<asrwt>0</asrwt>
<pdfrwt beam="1">  1        2 0.25532784E+00 0.15637321E+04</pdfrwt>
<pdfrwt beam="2">  1       -2 0.48861912E-01 0.15637321E+04</pdfrwt>
<totfact> 0.39468412E+01</totfact>
</mgrwt>
</event>
<event>
 8    2  0.4306980E-052  0.1800231E+04  0.7818608E-02  0.8706176E-01
         -2   -1    0    0    0  501 -0.00000000000E+00  0.00000000000E+00  0.39578521399E+03  0.39578521399E+03  0.25500000000E-02 0. -1.
          2   -1    0    0  501    0  0.00000000000E+00 -0.00000000000E+00 -0.20470908188E+04  0.20470908188E+04  0.25500000000E-02 0.  1.
    -200001    2    1    2    0    0  0.26622212759E+03 -0.13892580552E+03 -0.29444619200E+02  0.68322360766E+03  0.61298687735E+03 0.  0.
   -5000001    2    3    3    0    0  0.24211427024E+03 -0.12303114485E+03  0.25130858510E+03  0.38346171757E+03  0.10065237918E+03 0.  0.
     200001    1    1    2    0    0 -0.26622212759E+03  0.13892580552E+03 -0.16218609857E+04  0.17596524252E+04  0.61300000000E+03 0.  1.
         13    1    4    4    0    0  0.19797801338E+03 -0.65481224739E+02  0.15856653380E+03  0.26196648904E+03  0.10566000000E+00 0.  1.
    -200003    1    4    4    0    0  0.44136256862E+02 -0.57549920113E+02  0.92742051305E+02  0.12149522853E+03  0.30000000000E+02 0. -1.
    -200000    1    3    3    0    0  0.24107857343E+02 -0.15894660668E+02 -0.28075320430E+03  0.29976189009E+03  0.10100000000E+03 0.  1.
<mgrwt>
<rscale>  0 0.18002314E+04</rscale>
<asrwt>0</asrwt>
<pdfrwt beam="1">  1        2 0.29244154E+00 0.18002314E+04</pdfrwt>
<pdfrwt beam="2">  1       -2 0.56540746E-01 0.18002314E+04</pdfrwt>
<totfact> 0.21077198E+01</totfact>
</mgrwt>
</event>
<event>
 8    2  0.4306980E-052  0.1802185E+04  0.7818608E-02  0.8705138E-01
         -2   -1    0    0    0  501 -0.00000000000E+00  0.00000000000E+00  0.57321847318E+03  0.57321847319E+03  0.25500000000E-02 0. -1.
          2   -1    0    0  501    0  0.00000000000E+00 -0.00000000000E+00 -0.14165070758E+04  0.14165070758E+04  0.25500000000E-02 0.  1.
    -200001    2    1    2    0    0  0.14283756224E+03  0.46449758102E+03 -0.91555331647E+03  0.12041354773E+04  0.61281628598E+03 0.  0.
   -5000001    2    3    3    0    0  0.35780768992E+03  0.17903184151E+03 -0.48659562299E+03  0.63676562697E+03  0.92824674164E+02 0.  0.
     200001    1    1    2    0    0 -0.14283756224E+03 -0.46449758102E+03  0.72264713831E+02  0.78559007174E+03  0.61300000000E+03 0.  1.
         13    1    4    4    0    0  0.17180029458E+03  0.44171456166E+02 -0.18312356432E+03  0.25495236758E+03  0.10566000000E+00 0.  1.
    -200003    1    4    4    0    0  0.18600739534E+03  0.13486038534E+03 -0.30347205866E+03  0.38181325939E+03  0.30000000000E+02 0.  1.
    -200000    1    3    3    0    0 -0.21497012769E+03  0.28546573951E+03 -0.42895769348E+03  0.56736985030E+03  0.10100000000E+03 0. -1.
<mgrwt>
<rscale>  0 0.18021854E+04</rscale>
<asrwt>0</asrwt>
<pdfrwt beam="1">  1        2 0.20235815E+00 0.18021854E+04</pdfrwt>
<pdfrwt beam="2">  1       -2 0.81888354E-01 0.18021854E+04</pdfrwt>
<totfact> 0.20126651E+01</totfact>
</mgrwt>
</event>
<event>
 8    2  0.4306980E-052  0.1396239E+04  0.7818608E-02  0.8956545E-01
         -2   -1    0    0    0  501 -0.00000000000E+00  0.00000000000E+00  0.16436206384E+03  0.16436206386E+03  0.25500000000E-02 0. -1.
          2   -1    0    0  501    0  0.00000000000E+00 -0.00000000000E+00 -0.29652280637E+04  0.29652280637E+04  0.25500000000E-02 0.  1.
    -200001    2    1    2    0    0  0.64799615072E+02 -0.28072341546E+03 -0.17894064291E+04  0.19122881562E+04  0.60980816484E+03 0.  0.
   -5000001    2    3    3    0    0 -0.17773133956E+03  0.32028410703E+02 -0.27746174170E+03  0.34614234359E+03  0.10107054848E+03 0.  0.
     200001    1    1    2    0    0 -0.64799615072E+02  0.28072341546E+03 -0.10114595708E+04  0.12173019713E+04  0.61300000000E+03 0. -1.
         13    1    4    4    0    0 -0.14525956582E+02 -0.25610513166E+02 -0.25269656721E+02  0.38800367448E+02  0.10566000000E+00 0.  1.
    -200003    1    4    4    0    0 -0.16320538298E+03  0.57638923868E+02 -0.25219208497E+03  0.30734197614E+03  0.30000000000E+02 0.  1.
    -200000    1    3    3    0    0  0.24253095463E+03 -0.31275182617E+03 -0.15119446874E+04  0.15661458126E+04  0.10100000000E+03 0.  1.
<mgrwt>
<rscale>  0 0.13962392E+04</rscale>
<asrwt>0</asrwt>
<pdfrwt beam="1">  1        2 0.42360398E+00 0.13962392E+04</pdfrwt>
<pdfrwt beam="2">  1       -2 0.23480297E-01 0.13962392E+04</pdfrwt>
<totfact> 0.38868540E+01</totfact>
</mgrwt>
</event>
<event>
 8    2  0.4306980E-052  0.1721941E+04  0.7818608E-02  0.8748949E-01
         -2   -1    0    0    0  501 -0.00000000000E+00  0.00000000000E+00  0.12755010706E+04  0.12755010706E+04  0.25500000000E-02 0.  1.
          2   -1    0    0  501    0  0.00000000000E+00 -0.00000000000E+00 -0.58115989219E+03  0.58115989220E+03  0.25500000000E-02 0. -1.
    -200001    2    1    2    0    0  0.14027819176E+03  0.45559808794E+03 -0.56700630166E+02  0.77634601474E+03  0.61012341728E+03 0.  0.
   -5000001    2    3    3    0    0  0.17173846398E+03 -0.83162757181E+02  0.64532181288E+02  0.21407260123E+03  0.72474353947E+02 0.  0.
     200001    1    1    2    0    0 -0.14027819176E+03 -0.45559808794E+03  0.75104180861E+03  0.10803149481E+04  0.61300000000E+03 0.  1.
         13    1    4    4    0    0  0.66069186471E+01 -0.16598596378E+02 -0.78984918447E+01  0.19533614954E+02  0.10566000000E+00 0.  1.
    -200003    1    4    4    0    0  0.16513154534E+03 -0.66564160803E+02  0.72430673133E+02  0.19453898627E+03  0.30000000000E+02 0.  1.
    -200000    1    3    3    0    0 -0.31460272229E+02  0.53876084512E+03 -0.12123281145E+03  0.56227341351E+03  0.10100000000E+03 0.  1.
<mgrwt>
<rscale>  0 0.17219408E+04</rscale>
<asrwt>0</asrwt>
<pdfrwt beam="1">  1        2 0.83022842E-01 0.17219408E+04</pdfrwt>
<pdfrwt beam="2">  1       -2 0.18221444E+00 0.17219408E+04</pdfrwt>
<totfact> 0.93886995E+00</totfact>
</mgrwt>
</event>
<event>
 8    2  0.4306980E-052  0.1380504E+04  0.7818608E-02  0.8968053E-01
          2   -1    0    0  501    0  0.00000000000E+00  0.00000000000E+00  0.25397609773E+04  0.25397609773E+04  0.25500000000E-02 0.  1.
         -2   -1    0    0    0  501 -0.00000000000E+00 -0.00000000000E+00 -0.18759559071E+03  0.18759559073E+03  0.25500000000E-02 0. -1.
    -200001    2    1    2    0    0  0.28105023391E+02  0.30974772826E+03  0.10466354807E+04  0.12519207400E+04  0.61247543810E+03 0.  0.
   -5000001    2    3    3    0    0 -0.35606331840E+02  0.18347666435E+02  0.86886574356E+03  0.89029080172E+03  0.18996205820E+03 0.  0.
     200001    1    1    2    0    0 -0.28105023391E+02 -0.30974772826E+03  0.13055299059E+04  0.14754358281E+04  0.61300000000E+03 0. -1.
         13    1    4    4    0    0  0.38187365586E+02  0.60160837091E+02  0.15283399246E+03  0.16862930239E+03  0.10566000000E+00 0.  1.
    -200003    1    4    4    0    0 -0.73793697426E+02 -0.41813170657E+02  0.71603175111E+03  0.72166149933E+03  0.30000000000E+02 0.  1.
    -200000    1    3    3    0    0  0.63711355230E+02  0.29140006183E+03  0.17776973714E+03  0.36162993828E+03  0.10100000000E+03 0. -1.
<mgrwt>
<rscale>  0 0.13805042E+04</rscale>
<asrwt>0</asrwt>
<pdfrwt beam="1">  1        2 0.36282300E+00 0.13805042E+04</pdfrwt>
<pdfrwt beam="2">  1       -2 0.26799370E-01 0.13805042E+04</pdfrwt>
<totfact> 0.51911131E+01</totfact>
</mgrwt>
</event>
<event>
 8    2  0.4306980E-052  0.1392498E+04  0.7818608E-02  0.8959267E-01
         -2   -1    0    0    0  501 -0.00000000000E+00  0.00000000000E+00  0.12990455555E+03  0.12990455557E+03  0.25500000000E-02 0. -1.
          2   -1    0    0  501    0  0.00000000000E+00 -0.00000000000E+00 -0.37316833925E+04  0.37316833925E+04  0.25500000000E-02 0.  1.
    -200001    2    1    2    0    0 -0.19509643576E+03 -0.15823870179E+03 -0.23955180140E+04  0.24853843734E+04  0.61280243311E+03 0.  0.
   -5000001    2    3    3    0    0  0.68148717362E+02  0.25630048559E+02 -0.66124427826E+02  0.13179536777E+03  0.87729310624E+02 0.  0.
     200001    1    1    2    0    0  0.19509643576E+03  0.15823870179E+03 -0.12062608229E+04  0.13762035746E+04  0.61300000000E+03 0. -1.
         13    1    4    4    0    0  0.65062131907E+01  0.41253079837E+02 -0.36615613373E+02  0.55541531423E+02  0.10566000000E+00 0.  1.
    -200003    1    4    4    0    0  0.61642504172E+02 -0.15623031278E+02 -0.29508814453E+02  0.76253836345E+02  0.30000000000E+02 0.  1.
    -200000    1    3    3    0    0 -0.26324515312E+03 -0.18386875035E+03 -0.23293935862E+04  0.23535890056E+04  0.10100000000E+03 0.  1.
<mgrwt>
<rscale>  0 0.13924980E+04</rscale>
<asrwt>0</asrwt>
<pdfrwt beam="1">  1        2 0.53309756E+00 0.13924980E+04</pdfrwt>
<pdfrwt beam="2">  1       -2 0.18557796E-01 0.13924980E+04</pdfrwt>
<totfact> 0.20775839E+01</totfact>
</mgrwt>
</event>
<event>
 8    2  0.4306980E-052  0.1671339E+04  0.7818608E-02  0.8777882E-01
         -2   -1    0    0    0  501 -0.00000000000E+00  0.00000000000E+00  0.22098604319E+04  0.22098604319E+04  0.25500000000E-02 0. -1.
          2   -1    0    0  501    0  0.00000000000E+00 -0.00000000000E+00 -0.31601240200E+03  0.31601240201E+03  0.25500000000E-02 0.  1.
    -200001    2    1    2    0    0  0.32928365152E+03  0.38489250108E+03  0.13349943494E+04  0.15539384756E+04  0.61314346825E+03 0.  0.
   -5000001    2    3    3    0    0 -0.13234218516E+03  0.15228253317E+03  0.18019510850E+03  0.28469929527E+03  0.88763662133E+02 0.  0.
     200001    1    1    2    0    0 -0.32928365152E+03 -0.38489250108E+03  0.55885368053E+03  0.97193435827E+03  0.61300000000E+03 0.  1.
         13    1    4    4    0    0 -0.10535120870E+03  0.78851971062E+02  0.79658136287E+02  0.15382438154E+03  0.10566000000E+00 0.  1.
    -200003    1    4    4    0    0 -0.26990976466E+02  0.73430562112E+02  0.10053697221E+03  0.13087491373E+03  0.30000000000E+02 0.  1.
    -200000    1    3    3    0    0  0.46162583668E+03  0.23260996790E+03  0.11547992409E+04  0.12692391804E+04  0.10100000000E+03 0. -1.
<mgrwt>
<rscale>  0 0.16713387E+04</rscale>
<asrwt>0</asrwt>
<pdfrwt beam="1">  1        2 0.45144626E-01 0.16713387E+04</pdfrwt>
<pdfrwt beam="2">  1       -2 0.31569437E+00 0.16713387E+04</pdfrwt>
<totfact> 0.27476854E+00</totfact>
</mgrwt>
</event>
<event>
 8    2  0.4306980E-052  0.1785486E+04  0.7818608E-02  0.8714056E-01
         -2   -1    0    0    0  501 -0.00000000000E+00  0.00000000000E+00  0.42400705977E+03  0.42400705978E+03  0.25500000000E-02 0. -1.
          2   -1    0    0  501    0  0.00000000000E+00 -0.00000000000E+00 -0.18796628471E+04  0.18796628471E+04  0.25500000000E-02 0.  1.
    -200001    2    1    2    0    0  0.30896336823E+03 -0.36575101183E+03 -0.12937762009E+04  0.15091850637E+04  0.61200533730E+03 0.  0.
   -5000001    2    3    3    0    0  0.30126398216E+03 -0.26724339164E+03 -0.13047805753E+04  0.13674630540E+04  0.72964629745E+02 0.  0.
     200001    1    1    2    0    0 -0.30896336823E+03  0.36575101183E+03 -0.16187958643E+03  0.79448484319E+03  0.61300000000E+03 0. -1.
         13    1    4    4    0    0  0.15725027608E+03 -0.17667958085E+03 -0.75375303794E+03  0.78999175754E+03  0.10566000000E+00 0.  1.
    -200003    1    4    4    0    0  0.14401370607E+03 -0.90563810791E+02 -0.55102753731E+03  0.57747129646E+03  0.30000000000E+02 0.  1.
    -200000    1    3    3    0    0  0.76993860689E+01 -0.98507620190E+02  0.11004374325E+02  0.14172200971E+03  0.10100000000E+03 0. -1.
<mgrwt>
<rscale>  0 0.17854863E+04</rscale>
<asrwt>0</asrwt>
<pdfrwt beam="1">  1        2 0.26852326E+00 0.17854863E+04</pdfrwt>
<pdfrwt beam="2">  1       -2 0.60572438E-01 0.17854863E+04</pdfrwt>
<totfact> 0.22267044E+01</totfact>
</mgrwt>
</event>
<event>
 8    2  0.4306980E-052  0.1435044E+04  0.7818608E-02  0.8928835E-01
         -2   -1    0    0    0  501 -0.00000000000E+00  0.00000000000E+00  0.24699349588E+03  0.24699349589E+03  0.25500000000E-02 0. -1.
          2   -1    0    0  501    0  0.00000000000E+00 -0.00000000000E+00 -0.20844184859E+04  0.20844184859E+04  0.25500000000E-02 0.  1.
    -200001    2    1    2    0    0  0.21385401680E+03 -0.30399567470E+03 -0.86266301911E+03  0.11214215642E+04  0.61257810063E+03 0.  0.
   -5000001    2    3    3    0    0  0.31451417621E+03 -0.40865882323E+03 -0.67600815379E+03  0.86426814481E+03  0.15508449729E+03 0.  0.
     200001    1    1    2    0    0 -0.21385401680E+03  0.30399567470E+03 -0.97476197088E+03  0.12099904176E+04  0.61300000000E+03 0. -1.
         13    1    4    4    0    0  0.20169721852E+03 -0.22689050441E+03 -0.50295997129E+03  0.58747749985E+03  0.10566000000E+00 0.  1.
    -200003    1    4    4    0    0  0.11281695770E+03 -0.18176831882E+03 -0.17304818250E+03  0.27679064496E+03  0.30000000000E+02 0.  1.
    -200000    1    3    3    0    0 -0.10066015942E+03  0.10466314853E+03 -0.18665486532E+03  0.25715341939E+03  0.10100000000E+03 0. -1.
<mgrwt>
<rscale>  0 0.14350440E+04</rscale>
<asrwt>0</asrwt>
<pdfrwt beam="1">  1        2 0.29777406E+00 0.14350440E+04</pdfrwt>
<pdfrwt beam="2">  1       -2 0.35284786E-01 0.14350440E+04</pdfrwt>
<totfact> 0.53216316E+01</totfact>
</mgrwt>
</event>
<event>
 8    2  0.4306980E-052  0.1570267E+04  0.7818608E-02  0.8839025E-01
         -2   -1    0    0    0  501 -0.00000000000E+00  0.00000000000E+00  0.62902422180E+03  0.62902422180E+03  0.25500000000E-02 0. -1.
          2   -1    0    0  501    0  0.00000000000E+00 -0.00000000000E+00 -0.97998545650E+03  0.97998545650E+03  0.25500000000E-02 0.  1.
    -200001    2    1    2    0    0 -0.43358183784E+03  0.19219659482E+03 -0.37981187266E+02  0.77315188462E+03  0.60941654469E+03 0.  0.
   -5000001    2    3    3    0    0 -0.25756826048E+03 -0.99070510823E+02  0.19253703771E+03  0.34988251615E+03  0.95869125875E+02 0.  0.
     200001    1    1    2    0    0  0.43358183784E+03 -0.19219659482E+03 -0.31298004743E+03  0.83585779368E+03  0.61300000000E+03 0.  1.
         13    1    4    4    0    0  0.37274605420E+01  0.70990240484E+01  0.89618138972E+01  0.12025613369E+02  0.10566000000E+00 0.  1.
    -200003    1    4    4    0    0 -0.26129572102E+03 -0.10616953487E+03  0.18357522381E+03  0.33785690278E+03  0.30000000000E+02 0.  1.
    -200000    1    3    3    0    0 -0.17601357736E+03  0.29126710564E+03 -0.23051822497E+03  0.42326936848E+03  0.10100000000E+03 0.  1.
<mgrwt>
<rscale>  0 0.15702670E+04</rscale>
<asrwt>0</asrwt>
<pdfrwt beam="1">  1        2 0.13999792E+00 0.15702670E+04</pdfrwt>
<pdfrwt beam="2">  1       -2 0.89860604E-01 0.15702670E+04</pdfrwt>
<totfact> 0.29532758E+01</totfact>
</mgrwt>
</event>
<event>
 8    2  0.4306980E-052  0.1338682E+04  0.7818608E-02  0.8999440E-01
          2   -1    0    0  501    0  0.00000000000E+00  0.00000000000E+00  0.46338043914E+03  0.46338043915E+03  0.25500000000E-02 0.  1.
         -2   -1    0    0    0  501 -0.00000000000E+00 -0.00000000000E+00 -0.96684546915E+03  0.96684546915E+03  0.25500000000E-02 0. -1.
    -200001    2    1    2    0    0 -0.11891525276E+03  0.18551040854E+03 -0.41730787998E+03  0.77315132842E+03  0.61242318778E+03 0.  0.
   -5000001    2    3    3    0    0 -0.25946263460E+02 -0.20646342797E+03 -0.22590630429E+03  0.31585242764E+03  0.73679997596E+02 0.  0.
     200001    1    1    2    0    0  0.11891525276E+03 -0.18551040854E+03 -0.86157150031E+02  0.65707457987E+03  0.61300000000E+03 0.  1.
         13    1    4    4    0    0  0.21148398732E+01 -0.83372354716E+02 -0.13016537960E+03  0.15459126524E+03  0.10566000000E+00 0.  1.
    -200003    1    4    4    0    0 -0.28061103333E+02 -0.12309107326E+03 -0.95740924699E+02  0.16126116240E+03  0.30000000000E+02 0.  1.
    -200000    1    3    3    0    0 -0.92968989296E+02  0.39197383652E+03 -0.19140157568E+03  0.45729890078E+03  0.10100000000E+03 0. -1.
<mgrwt>
<rscale>  0 0.13386819E+04</rscale>
<asrwt>0</asrwt>
<pdfrwt beam="1">  1        2 0.66197206E-01 0.13386819E+04</pdfrwt>
<pdfrwt beam="2">  1       -2 0.13812078E+00 0.13386819E+04</pdfrwt>
<totfact> 0.26656041E+01</totfact>
</mgrwt>
</event>
<event>
 8    2  0.4306980E-052  0.1581149E+04  0.7818608E-02  0.8832213E-01
          2   -1    0    0  501    0  0.00000000000E+00  0.00000000000E+00  0.16856375362E+04  0.16856375362E+04  0.25500000000E-02 0.  1.
         -2   -1    0    0    0  501 -0.00000000000E+00 -0.00000000000E+00 -0.37078427659E+03  0.37078427660E+03  0.25500000000E-02 0. -1.
    -200001    2    1    2    0    0  0.47969402597E+03  0.14102578267E+03  0.63821574769E+03  0.10154597806E+04  0.61142832413E+03 0.  0.
   -5000001    2    3    3    0    0  0.70990733231E+02 -0.88080137348E+02 -0.67351190384E+02  0.16249225007E+03  0.95235254435E+02 0.  0.
     200001    1    1    2    0    0 -0.47969402597E+03 -0.14102578267E+03  0.67663751196E+03  0.10409620322E+04  0.61300000000E+03 0.  1.
         13    1    4    4    0    0  0.47015790010E+02 -0.57925450017E+01 -0.52093671941E+02  0.70411646112E+02  0.10566000000E+00 0.  1.
    -200003    1    4    4    0    0  0.23974943221E+02 -0.82287592346E+02 -0.15257518443E+02  0.92080603960E+02  0.30000000000E+02 0. -1.
    -200000    1    3    3    0    0  0.40870329274E+03  0.22910592002E+03  0.70556693807E+03  0.85296753056E+03  0.10100000000E+03 0. -1.
<mgrwt>
<rscale>  0 0.15811488E+04</rscale>
<asrwt>0</asrwt>
<pdfrwt beam="1">  1        2 0.24080536E+00 0.15811488E+04</pdfrwt>
<pdfrwt beam="2">  1       -2 0.52969182E-01 0.15811488E+04</pdfrwt>
<totfact> 0.37733761E+01</totfact>
</mgrwt>
</event>
<event>
 8    2  0.4306980E-052  0.1741827E+04  0.7818608E-02  0.8737862E-01
          2   -1    0    0  501    0  0.00000000000E+00  0.00000000000E+00  0.98641761736E+03  0.98641761736E+03  0.25500000000E-02 0.  1.
         -2   -1    0    0    0  501 -0.00000000000E+00 -0.00000000000E+00 -0.76893461609E+03  0.76893461609E+03  0.25500000000E-02 0. -1.
    -200001    2    1    2    0    0 -0.25202460947E+03 -0.43806232706E+03 -0.25127869995E+03  0.83289814858E+03  0.61250578340E+03 0.  0.
   -5000001    2    3    3    0    0 -0.34176124900E+03 -0.47429028314E+03 -0.32650221577E+03  0.67407527049E+03  0.77599931615E+02 0.  0.
     200001    1    1    2    0    0  0.25202460947E+03  0.43806232706E+03  0.46876170122E+03  0.92245408487E+03  0.61300000000E+03 0.  1.
         13    1    4    4    0    0 -0.24543100654E+03 -0.30193257781E+03 -0.23328164360E+03  0.45367388829E+03  0.10566000000E+00 0.  1.
    -200003    1    4    4    0    0 -0.96330242458E+02 -0.17235770533E+03 -0.93220572164E+02  0.22040138220E+03  0.30000000000E+02 0.  1.
    -200000    1    3    3    0    0  0.89736639522E+02  0.36227956082E+02  0.75223515817E+02  0.15882287810E+03  0.10100000000E+03 0. -1.
<mgrwt>
<rscale>  0 0.17418274E+04</rscale>
<asrwt>0</asrwt>
<pdfrwt beam="1">  1        2 0.14091680E+00 0.17418274E+04</pdfrwt>
<pdfrwt beam="2">  1       -2 0.10984780E+00 0.17418274E+04</pdfrwt>
<totfact> 0.17958780E+01</totfact>
</mgrwt>
</event>
<event>
 8    2  0.4306980E-052  0.2134533E+04  0.7818608E-02  0.8546182E-01
          2   -1    0    0  501    0  0.00000000000E+00  0.00000000000E+00  0.18377232429E+04  0.18377232429E+04  0.25500000000E-02 0. -1.
         -2   -1    0    0    0  501 -0.00000000000E+00 -0.00000000000E+00 -0.61981980612E+03  0.61981980613E+03  0.25500000000E-02 0.  1.
    -200001    2    1    2    0    0 -0.20042294760E+01 -0.86939881846E+03  0.50968791128E+03  0.11795772619E+04  0.61299463898E+03 0.  0.
   -5000001    2    3    3    0    0 -0.16521002470E+03 -0.57846385929E+03  0.55263763956E+03  0.82840072336E+03  0.13756674394E+03 0.  0.
     200001    1    1    2    0    0  0.20042294760E+01  0.86939881846E+03  0.70821552548E+03  0.12779657871E+04  0.61300000000E+03 0. -1.
         13    1    4    4    0    0 -0.10560690294E+03 -0.50984909703E+03  0.45166808900E+03  0.68927715288E+03  0.10566000000E+00 0.  1.
    -200003    1    4    4    0    0 -0.59603121761E+02 -0.68614762252E+02  0.10096955056E+03  0.13912357048E+03  0.30000000000E+02 0.  1.
    -200000    1    3    3    0    0  0.16320579522E+03 -0.29093495918E+03 -0.42949728278E+02  0.35117653855E+03  0.10100000000E+03 0.  1.
<mgrwt>
<rscale>  0 0.21345325E+04</rscale>
<asrwt>0</asrwt>
<pdfrwt beam="1">  1        2 0.26253190E+00 0.21345325E+04</pdfrwt>
<pdfrwt beam="2">  1       -2 0.88545685E-01 0.21345325E+04</pdfrwt>
<totfact> 0.98549582E+00</totfact>
</mgrwt>
</event>
<event>
 8    2  0.4306980E-052  0.1271874E+04  0.7818608E-02  0.9052171E-01
          2   -1    0    0  501    0  0.00000000000E+00  0.00000000000E+00  0.13317664478E+04  0.13317664478E+04  0.25500000000E-02 0.  1.
         -2   -1    0    0    0  501 -0.00000000000E+00 -0.00000000000E+00 -0.30366879539E+03  0.30366879540E+03  0.25500000000E-02 0. -1.
    -200001    2    1    2    0    0  0.15719594000E+03 -0.66765652446E+02  0.50504053350E+03  0.81170836762E+03  0.61207541830E+03 0.  0.
   -5000001    2    3    3    0    0 -0.27407469927E+02  0.11786140125E+03  0.48549476602E+03  0.53108654926E+03  0.17805975305E+03 0.  0.
     200001    1    1    2    0    0 -0.15719594000E+03  0.66765652446E+02  0.52305711889E+03  0.82372687556E+03  0.61300000000E+03 0.  1.
         13    1    4    4    0    0  0.16756867847E+02  0.19893626192E+02 -0.63263016260E+01  0.26769053763E+02  0.10566000000E+00 0.  1.
    -200003    1    4    4    0    0 -0.44164337774E+02  0.97967775062E+02  0.49182106765E+03  0.50431749550E+03  0.30000000000E+02 0.  1.
    -200000    1    3    3    0    0  0.18460340993E+03 -0.18462705370E+03  0.19545767480E+02  0.28062181836E+03  0.10100000000E+03 0. -1.
<mgrwt>
<rscale>  0 0.12718741E+04</rscale>
<asrwt>0</asrwt>
<pdfrwt beam="1">  1        2 0.19025235E+00 0.12718741E+04</pdfrwt>
<pdfrwt beam="2">  1       -2 0.43381257E-01 0.12718741E+04</pdfrwt>
<totfact> 0.89197415E+01</totfact>
</mgrwt>
</event>
<event>
 8    2  0.4306980E-052  0.1365110E+04  0.7818608E-02  0.8979468E-01
         -2   -1    0    0    0  501 -0.00000000000E+00  0.00000000000E+00  0.37935148814E+03  0.37935148815E+03  0.25500000000E-02 0. -1.
          2   -1    0    0  501    0  0.00000000000E+00 -0.00000000000E+00 -0.12280991388E+04  0.12280991388E+04  0.25500000000E-02 0.  1.
    -200001    2    1    2    0    0  0.23488223244E+03  0.16682023198E+03 -0.52361242488E+03  0.85613140854E+03  0.61301905703E+03 0.  0.
   -5000001    2    3    3    0    0  0.29157033752E+03  0.32063332546E+03 -0.21200343746E+03  0.48983484833E+03  0.84697874974E+02 0.  0.
     200001    1    1    2    0    0 -0.23488223244E+03 -0.16682023198E+03 -0.32513522579E+03  0.75131921842E+03  0.61300000000E+03 0.  1.
         13    1    4    4    0    0  0.65503501810E+02  0.82932940296E+02 -0.89164348166E+02  0.13827101462E+03  0.10566000000E+00 0.  1.
    -200003    1    4    4    0    0  0.22606683571E+03  0.23770038516E+03 -0.12283908930E+03  0.35156383371E+03  0.30000000000E+02 0.  1.
    -200000    1    3    3    0    0 -0.56688105082E+02 -0.15381309348E+03 -0.31160898742E+03  0.36629656021E+03  0.10100000000E+03 0. -1.
<mgrwt>
<rscale>  0 0.13651099E+04</rscale>
<asrwt>0</asrwt>
<pdfrwt beam="1">  1        2 0.17544273E+00 0.13651099E+04</pdfrwt>
<pdfrwt beam="2">  1       -2 0.54193070E-01 0.13651099E+04</pdfrwt>
<totfact> 0.64491047E+01</totfact>
</mgrwt>
</event>
<event>
 8    2  0.4306980E-052  0.1366543E+04  0.7818608E-02  0.8978399E-01
         -2   -1    0    0    0  501 -0.00000000000E+00  0.00000000000E+00  0.20680364106E+03  0.20680364108E+03  0.25500000000E-02 0. -1.
          2   -1    0    0  501    0  0.00000000000E+00 -0.00000000000E+00 -0.22575046257E+04  0.22575046257E+04  0.25500000000E-02 0.  1.
    -200001    2    1    2    0    0 -0.15840709128E+03  0.44084059307E+02 -0.56877175145E+03  0.85219181222E+03  0.61293830743E+03 0.  0.
   -5000001    2    3    3    0    0 -0.10111386134E+03  0.19108147742E+02  0.10393900737E+03  0.16907610066E+03  0.84819079800E+02 0.  0.
     200001    1    1    2    0    0  0.15840709128E+03 -0.44084059307E+02 -0.14819292331E+04  0.16121164545E+04  0.61300000000E+03 0.  1.
         13    1    4    4    0    0 -0.80628727942E+02  0.41418762553E+02  0.73374465287E+02  0.11662044838E+03  0.10566000000E+00 0.  1.
    -200003    1    4    4    0    0 -0.20485133396E+02 -0.22310614812E+02  0.30564542079E+02  0.52455652279E+02  0.30000000000E+02 0.  1.
    -200000    1    3    3    0    0 -0.57293229945E+02  0.24975911565E+02 -0.67271075881E+03  0.68311571156E+03  0.10100000000E+03 0.  1.
<mgrwt>
<rscale>  0 0.13665433E+04</rscale>
<asrwt>0</asrwt>
<pdfrwt beam="1">  1        2 0.32250065E+00 0.13665433E+04</pdfrwt>
<pdfrwt beam="2">  1       -2 0.29543379E-01 0.13665433E+04</pdfrwt>
<totfact> 0.60904736E+01</totfact>
</mgrwt>
</event>
<event>
 8    2  0.4306980E-052  0.1532450E+04  0.7818608E-02  0.8863156E-01
         -2   -1    0    0    0  501 -0.00000000000E+00  0.00000000000E+00  0.20152737497E+03  0.20152737498E+03  0.25500000000E-02 0. -1.
          2   -1    0    0  501    0  0.00000000000E+00 -0.00000000000E+00 -0.29132563621E+04  0.29132563621E+04  0.25500000000E-02 0.  1.
    -200001    2    1    2    0    0  0.26907897505E+03 -0.11358969031E+03 -0.63112016281E+03  0.92617500266E+03  0.61170365626E+03 0.  0.
   -5000001    2    3    3    0    0  0.30083306317E+03 -0.31666737648E+03 -0.43927027947E+03  0.62741716348E+03  0.99574893346E+02 0.  0.
     200001    1    1    2    0    0 -0.26907897505E+03  0.11358969031E+03 -0.20806088243E+04  0.21886087344E+04  0.61300000000E+03 0.  1.
         13    1    4    4    0    0  0.22471660263E+03 -0.17677779154E+03 -0.27791346210E+03  0.39872778014E+03  0.10566000000E+00 0.  1.
    -200003    1    4    4    0    0  0.76116460538E+02 -0.13988958493E+03 -0.16135681737E+03  0.22868938334E+03  0.30000000000E+02 0.  1.
    -200000    1    3    3    0    0 -0.31754088122E+02  0.20307768617E+03 -0.19184988334E+03  0.29875783917E+03  0.10100000000E+03 0.  1.
<mgrwt>
<rscale>  0 0.15324502E+04</rscale>
<asrwt>0</asrwt>
<pdfrwt beam="1">  1        2 0.41617945E+00 0.15324502E+04</pdfrwt>
<pdfrwt beam="2">  1       -2 0.28789627E-01 0.15324502E+04</pdfrwt>
<totfact> 0.28288690E+01</totfact>
</mgrwt>
</event>
<event>
 8    2  0.4306980E-052  0.1439960E+04  0.7818608E-02  0.8925391E-01
         -2   -1    0    0    0  501 -0.00000000000E+00  0.00000000000E+00  0.80637754684E+03  0.80637754685E+03  0.25500000000E-02 0. -1.
          2   -1    0    0  501    0  0.00000000000E+00 -0.00000000000E+00 -0.64283958224E+03  0.64283958224E+03  0.25500000000E-02 0.  1.
    -200001    2    1    2    0    0  0.12776822234E+03 -0.28416883104E+03  0.29527272996E+03  0.74907450678E+03  0.61388108659E+03 0.  0.
   -5000001    2    3    3    0    0 -0.51410982125E+02  0.91910360290E+02 -0.10376925297E+03  0.16343276510E+03  0.69653481130E+02 0.  0.
     200001    1    1    2    0    0 -0.12776822234E+03  0.28416883104E+03 -0.13173476535E+03  0.70014262231E+03  0.61300000000E+03 0. -1.
         13    1    4    4    0    0  0.90430263212E+00  0.12278430560E+02  0.70906267642E+01  0.14207947501E+02  0.10566000000E+00 0.  1.
    -200003    1    4    4    0    0 -0.52315284757E+02  0.79631929730E+02 -0.11085987973E+03  0.14922481759E+03  0.30000000000E+02 0.  1.
    -200000    1    3    3    0    0  0.17917920446E+03 -0.37607919133E+03  0.39904198292E+03  0.58564174168E+03  0.10100000000E+03 0. -1.
<mgrwt>
<rscale>  0 0.14399603E+04</rscale>
<asrwt>0</asrwt>
<pdfrwt beam="1">  1        2 0.91834226E-01 0.14399603E+04</pdfrwt>
<pdfrwt beam="2">  1       -2 0.11519679E+00 0.14399603E+04</pdfrwt>
<totfact> 0.28517078E+01</totfact>
</mgrwt>
</event>
<event>
 8    2  0.4306980E-052  0.1525981E+04  0.7818608E-02  0.8867357E-01
          2   -1    0    0  501    0  0.00000000000E+00  0.00000000000E+00  0.41198888510E+03  0.41198888510E+03  0.25500000000E-02 0.  1.
         -2   -1    0    0    0  501 -0.00000000000E+00 -0.00000000000E+00 -0.14130347349E+04  0.14130347349E+04  0.25500000000E-02 0. -1.
    -200001    2    1    2    0    0  0.34028081301E+03  0.23432707481E+03 -0.72714874948E+03  0.10366779907E+04  0.61258121320E+03 0.  0.
   -5000001    2    3    3    0    0  0.15084279272E+03 -0.11706114544E+03 -0.55393499673E+03  0.58995162139E+03  0.68862726443E+02 0.  0.
     200001    1    1    2    0    0 -0.34028081301E+03 -0.23432707481E+03 -0.27389710029E+03  0.78834562930E+03  0.61300000000E+03 0.  1.
         13    1    4    4    0    0  0.31575545607E+01 -0.26735214623E+02 -0.62429870657E+02  0.67987070580E+02  0.10566000000E+00 0.  1.
    -200003    1    4    4    0    0  0.14768523816E+03 -0.90325930820E+02 -0.49150512607E+03  0.52196455081E+03  0.30000000000E+02 0.  1.
    -200000    1    3    3    0    0  0.18943802029E+03  0.35138822026E+03 -0.17321375276E+03  0.44672636928E+03  0.10100000000E+03 0.  1.
<mgrwt>
<rscale>  0 0.15259811E+04</rscale>
<asrwt>0</asrwt>
<pdfrwt beam="1">  1        2 0.58855555E-01 0.15259811E+04</pdfrwt>
<pdfrwt beam="2">  1       -2 0.20186210E+00 0.15259811E+04</pdfrwt>
<totfact> 0.10443394E+01</totfact>
</mgrwt>
</event>
<event>
 8    2  0.4306980E-052  0.2112366E+04  0.7818608E-02  0.8555815E-01
          2   -1    0    0  501    0  0.00000000000E+00  0.00000000000E+00  0.19553953096E+04  0.19553953096E+04  0.25500000000E-02 0.  1.
         -2   -1    0    0    0  501 -0.00000000000E+00 -0.00000000000E+00 -0.57048454494E+03  0.57048454494E+03  0.25500000000E-02 0. -1.
    -200001    2    1    2    0    0  0.24145491733E+03 -0.43124339572E+03  0.15339795368E+04  0.17244674500E+04  0.61353355514E+03 0.  0.
   -5000001    2    3    3    0    0  0.14565733845E+03  0.18550343779E+02  0.60621194596E+02  0.17770392936E+03  0.79646605553E+02 0.  0.
     200001    1    1    2    0    0 -0.24145491733E+03  0.43124339572E+03 -0.14906877208E+03  0.80141240461E+03  0.61300000000E+03 0. -1.
         13    1    4    4    0    0  0.40118167124E+02  0.16307958269E+01  0.52909258028E+02  0.66419331354E+02  0.10566000000E+00 0.  1.
    -200003    1    4    4    0    0  0.10553917132E+03  0.16919547952E+02  0.77119365679E+01  0.11128459800E+03  0.30000000000E+02 0.  1.
    -200000    1    3    3    0    0  0.95797578883E+02 -0.44979373950E+03  0.14733583422E+04  0.15467635206E+04  0.10100000000E+03 0.  1.
<mgrwt>
<rscale>  0 0.21123663E+04</rscale>
<asrwt>0</asrwt>
<pdfrwt beam="1">  1        2 0.27934219E+00 0.21123663E+04</pdfrwt>
<pdfrwt beam="2">  1       -2 0.81497792E-01 0.21123663E+04</pdfrwt>
<totfact> 0.10368252E+01</totfact>
</mgrwt>
</event>
<event>
 8    2  0.4306980E-052  0.1286101E+04  0.7818608E-02  0.9040660E-01
          2   -1    0    0  501    0  0.00000000000E+00  0.00000000000E+00  0.70486124801E+03  0.70486124801E+03  0.25500000000E-02 0. -1.
         -2   -1    0    0    0  501 -0.00000000000E+00 -0.00000000000E+00 -0.58666048565E+03  0.58666048565E+03  0.25500000000E-02 0.  1.
    -200001    2    1    2    0    0 -0.10886604951E+03 -0.48992014412E+02  0.21369174470E+03  0.65974680387E+03  0.61265785660E+03 0.  0.
   -5000001    2    3    3    0    0 -0.13811860512E+03 -0.26081126852E+03 -0.48284718984E+02  0.30682220010E+03  0.68623476466E+02 0.  0.
     200001    1    1    2    0    0  0.10886604951E+03  0.48992014412E+02 -0.95490982340E+02  0.63177492980E+03  0.61300000000E+03 0. -1.
         13    1    4    4    0    0 -0.36386088512E+02 -0.37348457281E+02  0.90140513470E+01  0.52916150504E+02  0.10566000000E+00 0.  1.
    -200003    1    4    4    0    0 -0.10173251661E+03 -0.22346281123E+03 -0.57298770331E+02  0.25390604960E+03  0.30000000000E+02 0.  1.
    -200000    1    3    3    0    0  0.29252555612E+02  0.21181925410E+03  0.26197646368E+03  0.35292460377E+03  0.10100000000E+03 0. -1.
<mgrwt>
<rscale>  0 0.12861015E+04</rscale>
<asrwt>0</asrwt>
<pdfrwt beam="1">  1        2 0.10069446E+00 0.12861015E+04</pdfrwt>
<pdfrwt beam="2">  1       -2 0.83808641E-01 0.12861015E+04</pdfrwt>
<totfact> 0.54560543E+01</totfact>
</mgrwt>
</event>
<event>
 8    2  0.4306980E-052  0.2214574E+04  0.7818608E-02  0.8512387E-01
         -2   -1    0    0    0  501 -0.00000000000E+00  0.00000000000E+00  0.20754860838E+04  0.20754860838E+04  0.25500000000E-02 0. -1.
          2   -1    0    0  501    0  0.00000000000E+00 -0.00000000000E+00 -0.59074555838E+03  0.59074555839E+03  0.25500000000E-02 0.  1.
    -200001    2    1    2    0    0 -0.49839780044E+03  0.45410553482E+03 -0.15399868799E+02  0.91101017279E+03  0.61244605863E+03 0.  0.
   -5000001    2    3    3    0    0 -0.59369652632E+03  0.41370502082E+03  0.56836230275E+02  0.74935281078E+03  0.18620383542E+03 0.  0.
     200001    1    1    2    0    0  0.49839780044E+03 -0.45410553482E+03  0.15001403942E+04  0.17552214694E+04  0.61300000000E+03 0. -1.
         13    1    4    4    0    0 -0.14819482504E+02 -0.16418126098E+02 -0.10363282885E+02  0.24425001994E+02  0.10566000000E+00 0.  1.
    -200003    1    4    4    0    0 -0.57887704382E+03  0.43012314692E+03  0.67199513161E+02  0.72492780878E+03  0.30000000000E+02 0.  1.
    -200000    1    3    3    0    0  0.95298725879E+02  0.40400513998E+02 -0.72236099075E+02  0.16165736202E+03  0.10100000000E+03 0. -1.
<mgrwt>
<rscale>  0 0.22145737E+04</rscale>
<asrwt>0</asrwt>
<pdfrwt beam="1">  1        2 0.84392224E-01 0.22145737E+04</pdfrwt>
<pdfrwt beam="2">  1       -2 0.29649801E+00 0.22145737E+04</pdfrwt>
<totfact> 0.16923915E+00</totfact>
</mgrwt>
</event>
<event>
 8    2  0.4306980E-052  0.1320194E+04  0.7818608E-02  0.9013703E-01
         -2   -1    0    0    0  501 -0.00000000000E+00  0.00000000000E+00  0.21376486800E+03  0.21376486801E+03  0.25500000000E-02 0. -1.
          2   -1    0    0  501    0  0.00000000000E+00 -0.00000000000E+00 -0.20383513584E+04  0.20383513584E+04  0.25500000000E-02 0.  1.
    -200001    2    1    2    0    0  0.21539513608E+03 -0.89109588480E+02 -0.10455508574E+04  0.12337837164E+04  0.61213567134E+03 0.  0.
   -5000001    2    3    3    0    0  0.32540965371E+03  0.80606493805E+01 -0.23998648929E+03  0.40875026234E+03  0.59387247176E+02 0.  0.
     200001    1    1    2    0    0 -0.21539513608E+03  0.89109588480E+02 -0.77903563305E+03  0.10183325100E+04  0.61300000000E+03 0. -1.
         13    1    4    4    0    0  0.19095898089E+02 -0.10750077240E+02 -0.22543941633E+02  0.31439751158E+02  0.10566000000E+00 0.  1.
    -200003    1    4    4    0    0  0.30631375562E+03  0.18810726621E+02 -0.21744254765E+03  0.37731051118E+03  0.30000000000E+02 0.  1.
    -200000    1    3    3    0    0 -0.11001451763E+03 -0.97170237861E+02 -0.80556436807E+03  0.82503345406E+03  0.10100000000E+03 0.  1.
<mgrwt>
<rscale>  0 0.13201938E+04</rscale>
<asrwt>0</asrwt>
<pdfrwt beam="1">  1        2 0.29119304E+00 0.13201938E+04</pdfrwt>
<pdfrwt beam="2">  1       -2 0.30537840E-01 0.13201938E+04</pdfrwt>
<totfact> 0.74491823E+01</totfact>
</mgrwt>
</event>
<event>
 8    2  0.4306980E-052  0.1471505E+04  0.7818608E-02  0.8903626E-01
          2   -1    0    0  501    0  0.00000000000E+00  0.00000000000E+00  0.32099918800E+04  0.32099918800E+04  0.25500000000E-02 0.  1.
         -2   -1    0    0    0  501 -0.00000000000E+00 -0.00000000000E+00 -0.16863963387E+03  0.16863963389E+03  0.25500000000E-02 0. -1.
    -200001    2    1    2    0    0 -0.20746346133E+02 -0.34485923263E+03  0.10282399307E+04  0.12460864391E+04  0.61326646540E+03 0.  0.
   -5000001    2    3    3    0    0 -0.95539082901E+02 -0.20140742645E+03  0.10140567946E+04  0.10548417385E+04  0.18624511488E+03 0.  0.
     200001    1    1    2    0    0  0.20746346133E+02  0.34485923263E+03  0.20131123154E+04  0.21325450747E+04  0.61300000000E+03 0. -1.
         13    1    4    4    0    0 -0.27420824988E+02 -0.61897789071E+02  0.69065104873E+02  0.96712138897E+02  0.10566000000E+00 0.  1.
    -200003    1    4    4    0    0 -0.68118257912E+02 -0.13950963738E+03  0.94499168975E+03  0.95812959963E+03  0.30000000000E+02 0.  1.
    -200000    1    3    3    0    0  0.74792736768E+02 -0.14345180617E+03  0.14183136054E+02  0.19124470062E+03  0.10100000000E+03 0. -1.
<mgrwt>
<rscale>  0 0.14715052E+04</rscale>
<asrwt>0</asrwt>
<pdfrwt beam="1">  1        2 0.45857024E+00 0.14715052E+04</pdfrwt>
<pdfrwt beam="2">  1       -2 0.24091378E-01 0.14715052E+04</pdfrwt>
<totfact> 0.26825274E+01</totfact>
</mgrwt>
</event>
<event>
 8    2  0.4306980E-052  0.1932571E+04  0.7818608E-02  0.8638812E-01
         -2   -1    0    0    0  501 -0.00000000000E+00  0.00000000000E+00  0.44185846715E+03  0.44185846716E+03  0.25500000000E-02 0. -1.
          2   -1    0    0  501    0  0.00000000000E+00 -0.00000000000E+00 -0.21131363953E+04  0.21131363953E+04  0.25500000000E-02 0.  1.
    -200001    2    1    2    0    0  0.58959263992E+03  0.59908545094E+02 -0.23548086875E+03  0.88511740870E+03  0.61381843636E+03 0.  0.
   -5000001    2    3    3    0    0 -0.14415837183E+02 -0.23294933161E+01  0.13466943285E+03  0.16684722304E+03  0.97410968535E+02 0.  0.
     200001    1    1    2    0    0 -0.58959263992E+03 -0.59908545094E+02 -0.14357970594E+04  0.16698774538E+04  0.61300000000E+03 0.  1.
         13    1    4    4    0    0 -0.19821086602E+02 -0.48111742546E+01 -0.72672540732E+01  0.21652875504E+02  0.10566000000E+00 0.  1.
    -200003    1    4    4    0    0  0.54052494191E+01  0.24816809385E+01  0.14193668692E+03  0.14519434753E+03  0.30000000000E+02 0.  1.
    -200000    1    3    3    0    0  0.60400847710E+03  0.62238038410E+02 -0.37015030159E+03  0.71827018566E+03  0.10100000000E+03 0. -1.
<mgrwt>
<rscale>  0 0.19325705E+04</rscale>
<asrwt>0</asrwt>
<pdfrwt beam="1">  1        2 0.30187662E+00 0.19325705E+04</pdfrwt>
<pdfrwt beam="2">  1       -2 0.63122640E-01 0.19325705E+04</pdfrwt>
<totfact> 0.15282926E+01</totfact>
</mgrwt>
</event>
<event>
 8    2  0.4306980E-052  0.1558268E+04  0.7818608E-02  0.8846604E-01
          2   -1    0    0  501    0  0.00000000000E+00  0.00000000000E+00  0.21925424641E+04  0.21925424641E+04  0.25500000000E-02 0.  1.
         -2   -1    0    0    0  501 -0.00000000000E+00 -0.00000000000E+00 -0.27687030306E+03  0.27687030308E+03  0.25500000000E-02 0. -1.
    -200001    2    1    2    0    0  0.10529071435E+03  0.29737698643E+03  0.37838621009E+03  0.78461714113E+03  0.61067890710E+03 0.  0.
   -5000001    2    3    3    0    0  0.34685600114E+03  0.16155419106E+03  0.21456023174E+03  0.44721297591E+03  0.86916687699E+02 0.  0.
     200001    1    1    2    0    0 -0.10529071435E+03 -0.29737698643E+03  0.15372859510E+04  0.16847956261E+04  0.61300000000E+03 0.  1.
         13    1    4    4    0    0  0.85915029323E+02  0.34963711484E+02  0.92887670797E+02  0.13127065146E+03  0.10566000000E+00 0.  1.
    -200003    1    4    4    0    0  0.26094097182E+03  0.12659047958E+03  0.12167256094E+03  0.31594232445E+03  0.30000000000E+02 0.  1.
    -200000    1    3    3    0    0 -0.24156528679E+03  0.13582279537E+03  0.16382597835E+03  0.33740416522E+03  0.10100000000E+03 0. -1.
<mgrwt>
<rscale>  0 0.15582681E+04</rscale>
<asrwt>0</asrwt>
<pdfrwt beam="1">  1        2 0.31322035E+00 0.15582681E+04</pdfrwt>
<pdfrwt beam="2">  1       -2 0.39552901E-01 0.15582681E+04</pdfrwt>
<totfact> 0.37185478E+01</totfact>
</mgrwt>
</event>
<event>
 8    2  0.4306980E-052  0.1264421E+04  0.7818608E-02  0.9058266E-01
          2   -1    0    0  501    0  0.00000000000E+00  0.00000000000E+00  0.10511602690E+04  0.10511602690E+04  0.25500000000E-02 0.  1.
         -2   -1    0    0    0  501 -0.00000000000E+00 -0.00000000000E+00 -0.38023700081E+03  0.38023700081E+03  0.25500000000E-02 0. -1.
    -200001    2    1    2    0    0 -0.10384665290E+03 -0.11361209920E+03  0.32988863217E+03  0.71322914232E+03  0.61333307706E+03 0.  0.
   -5000001    2    3    3    0    0 -0.15309016921E+03  0.66766379733E+02 -0.10339766919E+03  0.23063268719E+03  0.12085532274E+03 0.  0.
     200001    1    1    2    0    0  0.10384665290E+03  0.11361209920E+03  0.34103463605E+03  0.71816812753E+03  0.61300000000E+03 0. -1.
         13    1    4    4    0    0 -0.18625971150E+02  0.19402024246E+02 -0.78314892906E+02  0.82804582971E+02  0.10566000000E+00 0.  1.
    -200003    1    4    4    0    0 -0.13446419806E+03  0.47364355487E+02 -0.25082776285E+02  0.14782810422E+03  0.30000000000E+02 0.  1.
    -200000    1    3    3    0    0  0.49243516306E+02 -0.18037847893E+03  0.43328630136E+03  0.48259645513E+03  0.10100000000E+03 0.  1.
<mgrwt>
<rscale>  0 0.12644209E+04</rscale>
<asrwt>0</asrwt>
<pdfrwt beam="1">  1        2 0.15016575E+00 0.12644209E+04</pdfrwt>
<pdfrwt beam="2">  1       -2 0.54319572E-01 0.12644209E+04</pdfrwt>
<totfact> 0.81963086E+01</totfact>
</mgrwt>
</event>
<event>
 8    2  0.4306980E-052  0.1874770E+04  0.7818608E-02  0.8667518E-01
         -2   -1    0    0    0  501 -0.00000000000E+00  0.00000000000E+00  0.47816090142E+03  0.47816090143E+03  0.25500000000E-02 0. -1.
          2   -1    0    0  501    0  0.00000000000E+00 -0.00000000000E+00 -0.18376454814E+04  0.18376454814E+04  0.25500000000E-02 0.  1.
    -200001    2    1    2    0    0 -0.40922063602E+03 -0.57523375016E+03 -0.76403210257E+03  0.12073443631E+04  0.61284578905E+03 0.  0.
   -5000001    2    3    3    0    0 -0.40765549982E+03 -0.67166270022E+03 -0.68633436174E+03  0.10475353177E+04  0.94665708733E+02 0.  0.
     200001    1    1    2    0    0  0.40922063602E+03  0.57523375016E+03 -0.59545247743E+03  0.11084620197E+04  0.61300000000E+03 0. -1.
         13    1    4    4    0    0 -0.27453309160E+03 -0.38061880835E+03 -0.38666356280E+03  0.60806892505E+03  0.10566000000E+00 0.  1.
    -200003    1    4    4    0    0 -0.13312240822E+03 -0.29104389187E+03 -0.29967079893E+03  0.43946639268E+03  0.30000000000E+02 0.  1.
    -200000    1    3    3    0    0 -0.15651362027E+01  0.96428950052E+02 -0.77697740835E+02  0.15980904540E+03  0.10100000000E+03 0. -1.
<mgrwt>
<rscale>  0 0.18747696E+04</rscale>
<asrwt>0</asrwt>
<pdfrwt beam="1">  1        2 0.26252078E+00 0.18747696E+04</pdfrwt>
<pdfrwt beam="2">  1       -2 0.68308701E-01 0.18747696E+04</pdfrwt>
<totfact> 0.17962433E+01</totfact>
</mgrwt>
</event>
<event>
 8    2  0.4306980E-052  0.1465194E+04  0.7818608E-02  0.8907935E-01
         -2   -1    0    0    0  501 -0.00000000000E+00  0.00000000000E+00  0.69742432446E+03  0.69742432447E+03  0.25500000000E-02 0. -1.
          2   -1    0    0  501    0  0.00000000000E+00 -0.00000000000E+00 -0.76954300480E+03  0.76954300481E+03  0.25500000000E-02 0.  1.
    -200001    2    1    2    0    0 -0.27477158285E+03 -0.24515337913E+03 -0.19553926475E+03  0.74129437077E+03  0.61292914602E+03 0.  0.
   -5000001    2    3    3    0    0 -0.81880683423E+02 -0.25624773120E+02  0.19770837801E+03  0.24105001400E+03  0.10796032233E+03 0.  0.
     200001    1    1    2    0    0  0.27477158285E+03  0.24515337913E+03  0.12342058441E+03  0.72567295850E+03  0.61300000000E+03 0. -1.
         13    1    4    4    0    0 -0.55471666998E+02  0.26074051194E+02  0.14386538296E+03  0.15637845620E+03  0.10566000000E+00 0.  1.
    -200003    1    4    4    0    0 -0.26409016425E+02 -0.51698824314E+02  0.53842995054E+02  0.84671557800E+02  0.30000000000E+02 0.  1.
    -200000    1    3    3    0    0 -0.19289089943E+03 -0.21952860601E+03 -0.39324764277E+03  0.50024435677E+03  0.10100000000E+03 0.  1.
<mgrwt>
<rscale>  0 0.14651935E+04</rscale>
<asrwt>0</asrwt>
<pdfrwt beam="1">  1        2 0.10993471E+00 0.14651935E+04</pdfrwt>
<pdfrwt beam="2">  1       -2 0.99632047E-01 0.14651935E+04</pdfrwt>
<totfact> 0.32317843E+01</totfact>
</mgrwt>
</event>
<event>
 8    2  0.4306980E-052  0.1566066E+04  0.7818608E-02  0.8841670E-01
         -2   -1    0    0    0  501 -0.00000000000E+00  0.00000000000E+00  0.74039108919E+03  0.74039108919E+03  0.25500000000E-02 0. -1.
          2   -1    0    0  501    0  0.00000000000E+00 -0.00000000000E+00 -0.82813122682E+03  0.82813122682E+03  0.25500000000E-02 0.  1.
    -200001    2    1    2    0    0  0.24676196788E+03  0.42104297813E+03 -0.69517823651E+02  0.78476871255E+03  0.61062308028E+03 0.  0.
   -5000001    2    3    3    0    0  0.22737939526E+03 -0.65480294688E+02 -0.13393390077E+03  0.28333974440E+03  0.79712374180E+02 0.  0.
     200001    1    1    2    0    0 -0.24676196788E+03 -0.42104297813E+03 -0.18222313977E+02  0.78375360347E+03  0.61300000000E+03 0.  1.
         13    1    4    4    0    0  0.10430817926E+03  0.15472366542E+01 -0.38694310235E+02  0.11126477884E+03  0.10566000000E+00 0.  1.
    -200003    1    4    4    0    0  0.12307121600E+03 -0.67027531342E+02 -0.95239590533E+02  0.17207496555E+03  0.30000000000E+02 0.  1.
    -200000    1    3    3    0    0  0.19382572614E+02  0.48652327282E+03  0.64416077117E+02  0.50142896815E+03  0.10100000000E+03 0. -1.
<mgrwt>
<rscale>  0 0.15660664E+04</rscale>
<asrwt>0</asrwt>
<pdfrwt beam="1">  1        2 0.11830446E+00 0.15660664E+04</pdfrwt>
<pdfrwt beam="2">  1       -2 0.10577016E+00 0.15660664E+04</pdfrwt>
<totfact> 0.25292625E+01</totfact>
</mgrwt>
</event>
<event>
 8    2  0.4306980E-052  0.1632420E+04  0.7818608E-02  0.8800875E-01
          2   -1    0    0  501    0  0.00000000000E+00  0.00000000000E+00  0.15194489760E+04  0.15194489760E+04  0.25500000000E-02 0.  1.
         -2   -1    0    0    0  501 -0.00000000000E+00 -0.00000000000E+00 -0.43844784843E+03  0.43844784844E+03  0.25500000000E-02 0. -1.
    -200001    2    1    2    0    0 -0.38885460627E+03  0.37281664739E+03  0.50970979990E+03  0.96173271223E+03  0.61231166269E+03 0.  0.
   -5000001    2    3    3    0    0  0.72589222243E+02  0.24534043794E+03  0.15184245517E+02  0.26607682403E+03  0.71450607397E+02 0.  0.
     200001    1    1    2    0    0  0.38885460627E+03 -0.37281664739E+03  0.57129132765E+03  0.99616411220E+03  0.61300000000E+03 0. -1.
         13    1    4    4    0    0  0.37189453788E+02  0.16791413609E+03  0.30068024492E+02  0.17459183782E+03  0.10566000000E+00 0.  1.
    -200003    1    4    4    0    0  0.35399768456E+02  0.77426301851E+02 -0.14883778974E+02  0.91484986209E+02  0.30000000000E+02 0.  1.
    -200000    1    3    3    0    0 -0.46144382851E+03  0.12747620945E+03  0.49452555439E+03  0.69565588820E+03  0.10100000000E+03 0.  1.
<mgrwt>
<rscale>  0 0.16324205E+04</rscale>
<asrwt>0</asrwt>
<pdfrwt beam="1">  1        2 0.21706414E+00 0.16324205E+04</pdfrwt>
<pdfrwt beam="2">  1       -2 0.62635406E-01 0.16324205E+04</pdfrwt>
<totfact> 0.32342237E+01</totfact>
</mgrwt>
</event>
<event>
 8    2  0.4306980E-052  0.1464763E+04  0.7818608E-02  0.8908229E-01
          2   -1    0    0  501    0  0.00000000000E+00  0.00000000000E+00  0.17187441802E+04  0.17187441802E+04  0.25500000000E-02 0.  1.
         -2   -1    0    0    0  501 -0.00000000000E+00 -0.00000000000E+00 -0.31207814250E+03  0.31207814251E+03  0.25500000000E-02 0. -1.
    -200001    2    1    2    0    0  0.23074659619E+03 -0.19083828707E+02  0.11569064603E+04  0.13295684238E+04  0.61295305825E+03 0.  0.
   -5000001    2    3    3    0    0  0.35200280213E+03  0.10898915957E+03  0.44688921179E+03  0.59103524856E+03  0.11759289019E+03 0.  0.
     200001    1    1    2    0    0 -0.23074659619E+03  0.19083828707E+02  0.24975957741E+03  0.70125389887E+03  0.61300000000E+03 0. -1.
         13    1    4    4    0    0  0.28948974000E+03  0.83647138675E+02  0.40910684592E+03  0.50810390268E+03  0.10566000000E+00 0.  1.
    -200003    1    4    4    0    0  0.62513062128E+02  0.25342020894E+02  0.37782365863E+02  0.82931345882E+02  0.30000000000E+02 0.  1.
    -200000    1    3    3    0    0 -0.12125620593E+03 -0.12807298828E+03  0.71001724850E+03  0.73853317527E+03  0.10100000000E+03 0.  1.
<mgrwt>
<rscale>  0 0.14647628E+04</rscale>
<asrwt>0</asrwt>
<pdfrwt beam="1">  1        2 0.24553489E+00 0.14647628E+04</pdfrwt>
<pdfrwt beam="2">  1       -2 0.44582590E-01 0.14647628E+04</pdfrwt>
<totfact> 0.51891657E+01</totfact>
</mgrwt>
</event>
<event>
 8    2  0.4306980E-052  0.2750551E+04  0.7818608E-02  0.8318787E-01
          2   -1    0    0  501    0  0.00000000000E+00  0.00000000000E+00  0.95149697404E+03  0.95149697404E+03  0.25500000000E-02 0.  1.
         -2   -1    0    0    0  501 -0.00000000000E+00 -0.00000000000E+00 -0.19877966071E+04  0.19877966071E+04  0.25500000000E-02 0. -1.
    -200001    2    1    2    0    0 -0.17692961994E+03  0.22597607860E+03 -0.17973371167E+04  0.19208063058E+04  0.61376451115E+03 0.  0.
   -5000001    2    3    3    0    0  0.10006481812E+03  0.29369558873E+03 -0.10275869150E+04  0.10937463178E+04  0.20994302394E+03 0.  0.
     200001    1    1    2    0    0  0.17692961994E+03 -0.22597607860E+03  0.76103748360E+03  0.10184872753E+04  0.61300000000E+03 0.  1.
         13    1    4    4    0    0  0.10347473628E+03  0.70427932476E+02 -0.19914097870E+03  0.23521108665E+03  0.10566000000E+00 0.  1.
    -200003    1    4    4    0    0 -0.34099181625E+01  0.22326765625E+03 -0.82844593626E+03  0.85853523118E+03  0.30000000000E+02 0.  1.
    -200000    1    3    3    0    0 -0.27699443806E+03 -0.67719510130E+02 -0.76975020170E+03  0.82705998802E+03  0.10100000000E+03 0. -1.
<mgrwt>
<rscale>  0 0.27505508E+04</rscale>
<asrwt>0</asrwt>
<pdfrwt beam="1">  1        2 0.13592814E+00 0.27505508E+04</pdfrwt>
<pdfrwt beam="2">  1       -2 0.28397094E+00 0.27505508E+04</pdfrwt>
<totfact> 0.10542450E+00</totfact>
</mgrwt>
</event>
<event>
 8    2  0.4306980E-052  0.1250307E+04  0.7818608E-02  0.9069928E-01
          2   -1    0    0  501    0  0.00000000000E+00  0.00000000000E+00  0.70319439706E+03  0.70319439707E+03  0.25500000000E-02 0. -1.
         -2   -1    0    0    0  501 -0.00000000000E+00 -0.00000000000E+00 -0.55577318238E+03  0.55577318239E+03  0.25500000000E-02 0.  1.
    -200001    2    1    2    0    0  0.50251938414E+01 -0.21989632209E+02  0.16368779198E+03  0.64533707334E+03  0.62382485401E+03 0.  0.
   -5000001    2    3    3    0    0 -0.94031299465E+02 -0.81280715230E+02 -0.20143224480E+03  0.24930517733E+03  0.78292287318E+02 0.  0.
     200001    1    1    2    0    0 -0.50251938414E+01  0.21989632209E+02 -0.16266577304E+02  0.61363050612E+03  0.61300000000E+03 0.  1.
         13    1    4    4    0    0 -0.67772982249E+02 -0.66147408989E+02 -0.17542727060E+03  0.19935745602E+03  0.10566000000E+00 0.  1.
    -200003    1    4    4    0    0 -0.26258317216E+02 -0.15133306241E+02 -0.26004974199E+02  0.49947721308E+02  0.30000000000E+02 0. -1.
    -200000    1    3    3    0    0  0.99056493306E+02  0.59291083021E+02  0.36512003678E+03  0.39603189600E+03  0.10100000000E+03 0. -1.
<mgrwt>
<rscale>  0 0.12503065E+04</rscale>
<asrwt>0</asrwt>
<pdfrwt beam="1">  1        2 0.10045634E+00 0.12503065E+04</pdfrwt>
<pdfrwt beam="2">  1       -2 0.79396168E-01 0.12503065E+04</pdfrwt>
<totfact> 0.61979785E+01</totfact>
</mgrwt>
</event>
<event>
 8    2  0.4306980E-052  0.1392961E+04  0.7818608E-02  0.8958930E-01
         -2   -1    0    0    0  501 -0.00000000000E+00  0.00000000000E+00  0.12634388385E+03  0.12634388388E+03  0.25500000000E-02 0. -1.
          2   -1    0    0  501    0  0.00000000000E+00 -0.00000000000E+00 -0.38394025514E+04  0.38394025514E+04  0.25500000000E-02 0.  1.
    -200001    2    1    2    0    0  0.19544002538E+03  0.16113190646E+02 -0.11122061384E+04  0.12864444149E+04  0.61601972348E+03 0.  0.
   -5000001    2    3    3    0    0  0.87587897622E+01 -0.20661709526E+03 -0.14311005238E+03  0.26968146903E+03  0.97366663693E+02 0.  0.
     200001    1    1    2    0    0 -0.19544002538E+03 -0.16113190646E+02 -0.26008525291E+04  0.26793020204E+04  0.61300000000E+03 0.  1.
         13    1    4    4    0    0 -0.34994468830E+02 -0.79539505130E+02 -0.31519321024E+02  0.92437138028E+02  0.10566000000E+00 0.  1.
    -200003    1    4    4    0    0  0.43753258593E+02 -0.12707759013E+03 -0.11159073135E+03  0.17724433101E+03  0.30000000000E+02 0.  1.
    -200000    1    3    3    0    0  0.18668123562E+03  0.22273028590E+03 -0.96909608605E+03  0.10167629458E+04  0.10100000000E+03 0.  1.
<mgrwt>
<rscale>  0 0.13929609E+04</rscale>
<asrwt>0</asrwt>
<pdfrwt beam="1">  1        2 0.54848601E+00 0.13929609E+04</pdfrwt>
<pdfrwt beam="2">  1       -2 0.18049129E-01 0.13929609E+04</pdfrwt>
<totfact> 0.18578751E+01</totfact>
</mgrwt>
</event>
<event>
 8    2  0.4306980E-052  0.1753297E+04  0.7818608E-02  0.8731537E-01
          2   -1    0    0  501    0  0.00000000000E+00  0.00000000000E+00  0.11183903257E+04  0.11183903257E+04  0.25500000000E-02 0.  1.
         -2   -1    0    0    0  501 -0.00000000000E+00 -0.00000000000E+00 -0.68715979298E+03  0.68715979299E+03  0.25500000000E-02 0. -1.
    -200001    2    1    2    0    0  0.13344125716E+03 -0.57109275614E+03 -0.87295931289E+01  0.84988939563E+03  0.61504656229E+03 0.  0.
   -5000001    2    3    3    0    0  0.26696555897E+02 -0.25722257146E+02  0.22067885223E+03  0.24025618851E+03  0.87461646956E+02 0.  0.
     200001    1    1    2    0    0 -0.13344125716E+03  0.57109275614E+03  0.43996012581E+03  0.95566072302E+03  0.61300000000E+03 0.  1.
         13    1    4    4    0    0  0.27721960721E+02 -0.26971169261E+02  0.35001185125E+02  0.52163638693E+02  0.10566000000E+00 0.  1.
    -200003    1    4    4    0    0 -0.10254048236E+01  0.12489121149E+01  0.18567766710E+03  0.18809254982E+03  0.30000000000E+02 0.  1.
    -200000    1    3    3    0    0  0.10674470126E+03 -0.54537049899E+03 -0.22940844536E+03  0.60963320712E+03  0.10100000000E+03 0. -1.
<mgrwt>
<rscale>  0 0.17532973E+04</rscale>
<asrwt>0</asrwt>
<pdfrwt beam="1">  1        2 0.15977005E+00 0.17532973E+04</pdfrwt>
<pdfrwt beam="2">  1       -2 0.98165684E-01 0.17532973E+04</pdfrwt>
<totfact> 0.19546039E+01</totfact>
</mgrwt>
</event>
<event>
 8    2  0.4306980E-052  0.1347150E+04  0.7818608E-02  0.8992989E-01
         -2   -1    0    0    0  501 -0.00000000000E+00  0.00000000000E+00  0.73179973855E+03  0.73179973855E+03  0.25500000000E-02 0. -1.
          2   -1    0    0  501    0  0.00000000000E+00 -0.00000000000E+00 -0.61998255097E+03  0.61998255097E+03  0.25500000000E-02 0.  1.
    -200001    2    1    2    0    0 -0.13814766779E+03 -0.21915227176E+03  0.15967625775E+03  0.68457018912E+03  0.61321068175E+03 0.  0.
   -5000001    2    3    3    0    0  0.16664365959E+03  0.69504416995E+02  0.12492551826E+03  0.25140849748E+03  0.12246989111E+03 0.  0.
     200001    1    1    2    0    0  0.13814766779E+03  0.21915227176E+03 -0.47859070165E+02  0.66721210041E+03  0.61300000000E+03 0.  1.
         13    1    4    4    0    0  0.14607102843E+03  0.50465535887E+02  0.44034056249E+02  0.16069388579E+03  0.10566000000E+00 0.  1.
    -200003    1    4    4    0    0  0.20572631167E+02  0.19038881108E+02  0.80891462008E+02  0.90714611683E+02  0.30000000000E+02 0.  1.
    -200000    1    3    3    0    0 -0.30479132738E+03 -0.28865668875E+03  0.34750739490E+02  0.43316169164E+03  0.10100000000E+03 0.  1.
<mgrwt>
<rscale>  0 0.13471497E+04</rscale>
<asrwt>0</asrwt>
<pdfrwt beam="1">  1        2 0.88568935E-01 0.13471497E+04</pdfrwt>
<pdfrwt beam="2">  1       -2 0.10454282E+00 0.13471497E+04</pdfrwt>
<totfact> 0.37929861E+01</totfact>
</mgrwt>
</event>
<event>
 8    2  0.4306980E-052  0.1240366E+04  0.7818608E-02  0.9078240E-01
         -2   -1    0    0    0  501 -0.00000000000E+00  0.00000000000E+00  0.59066933341E+03  0.59066933342E+03  0.25500000000E-02 0. -1.
          2   -1    0    0  501    0  0.00000000000E+00 -0.00000000000E+00 -0.65117163156E+03  0.65117163156E+03  0.25500000000E-02 0.  1.
    -200001    2    1    2    0    0 -0.88577429549E+02 -0.30541565597E+02 -0.33424770771E+02  0.62113093546E+03  0.61311310166E+03 0.  0.
   -5000001    2    3    3    0    0  0.71551540823E+02 -0.13867949934E+03  0.22169488866E+03  0.28553871193E+03  0.89622016407E+02 0.  0.
     200001    1    1    2    0    0  0.88577429549E+02  0.30541565597E+02 -0.27077527379E+02  0.62071002952E+03  0.61300000000E+03 0. -1.
         13    1    4    4    0    0  0.56829467338E+02 -0.13482529951E+03  0.17963599043E+03  0.23168200182E+03  0.10566000000E+00 0.  1.
    -200003    1    4    4    0    0  0.14722073485E+02 -0.38541998279E+01  0.42058898223E+02  0.53856710109E+02  0.30000000000E+02 0. -1.
    -200000    1    3    3    0    0 -0.16012897037E+03  0.10813793374E+03 -0.25511965943E+03  0.33559222353E+03  0.10100000000E+03 0.  1.
<mgrwt>
<rscale>  0 0.12403663E+04</rscale>
<asrwt>0</asrwt>
<pdfrwt beam="1">  1        2 0.93024518E-01 0.12403663E+04</pdfrwt>
<pdfrwt beam="2">  1       -2 0.84381334E-01 0.12403663E+04</pdfrwt>
<totfact> 0.59383873E+01</totfact>
</mgrwt>
</event>
<event>
 8    2  0.4306980E-052  0.1268433E+04  0.7818608E-02  0.9054980E-01
         -2   -1    0    0    0  501 -0.00000000000E+00  0.00000000000E+00  0.13672464685E+03  0.13672464687E+03  0.25500000000E-02 0. -1.
          2   -1    0    0  501    0  0.00000000000E+00 -0.00000000000E+00 -0.29419021597E+04  0.29419021597E+04  0.25500000000E-02 0.  1.
    -200001    2    1    2    0    0 -0.63346534959E+02 -0.93633037194E+01 -0.17513075716E+04  0.18577618230E+04  0.61652276994E+03 0.  0.
   -5000001    2    3    3    0    0 -0.13861363092E+03 -0.10787938511E+03 -0.16628048424E+04  0.16749934256E+04  0.99153070427E+02 0.  0.
     200001    1    1    2    0    0  0.63346534959E+02  0.93633037194E+01 -0.10538699413E+04  0.12208649836E+04  0.61300000000E+03 0. -1.
         13    1    4    4    0    0 -0.92541462226E+01 -0.39369189102E+02 -0.17070215272E+03  0.17542750178E+03  0.10566000000E+00 0.  1.
    -200003    1    4    4    0    0 -0.12935948470E+03 -0.68510196010E+02 -0.14921026897E+04  0.14995659238E+04  0.30000000000E+02 0.  1.
    -200000    1    3    3    0    0  0.75267095959E+02  0.98516081393E+02 -0.88502729129E+02  0.18276839741E+03  0.10100000000E+03 0.  1.
<mgrwt>
<rscale>  0 0.12684329E+04</rscale>
<asrwt>0</asrwt>
<pdfrwt beam="1">  1        2 0.42027170E+00 0.12684329E+04</pdfrwt>
<pdfrwt beam="2">  1       -2 0.19532094E-01 0.12684329E+04</pdfrwt>
<totfact> 0.56137584E+01</totfact>
</mgrwt>
</event>
<event>
 8    2  0.4306980E-052  0.2063497E+04  0.7818608E-02  0.8577496E-01
         -2   -1    0    0    0  501 -0.00000000000E+00  0.00000000000E+00  0.23650090488E+03  0.23650090490E+03  0.25500000000E-02 0. -1.
          2   -1    0    0  501    0  0.00000000000E+00 -0.00000000000E+00 -0.45010590873E+04  0.45010590873E+04  0.25500000000E-02 0.  1.
    -200001    2    1    2    0    0 -0.16380320389E+03  0.61179342185E+03 -0.90072715262E+03  0.12601686024E+04  0.61285628205E+03 0.  0.
   -5000001    2    3    3    0    0 -0.66849302372E+02  0.54917638270E+03 -0.34628397282E+03  0.68490414825E+03  0.20764771590E+03 0.  0.
     200001    1    1    2    0    0  0.16380320389E+03 -0.61179342185E+03 -0.33638310298E+04  0.34773913898E+04  0.61300000000E+03 0.  1.
         13    1    4    4    0    0 -0.11937060245E+03  0.48334150804E+03 -0.26462325401E+03  0.56382074443E+03  0.10566000000E+00 0.  1.
    -200003    1    4    4    0    0  0.52521300080E+02  0.65834874652E+02 -0.81660718812E+02  0.12108340381E+03  0.30000000000E+02 0.  1.
    -200000    1    3    3    0    0 -0.96953901513E+02  0.62617039154E+02 -0.55444317980E+03  0.57526445418E+03  0.10100000000E+03 0. -1.
<mgrwt>
<rscale>  0 0.20634966E+04</rscale>
<asrwt>0</asrwt>
<pdfrwt beam="1">  1        2 0.64300839E+00 0.20634966E+04</pdfrwt>
<pdfrwt beam="2">  1       -2 0.33785846E-01 0.20634966E+04</pdfrwt>
<totfact> 0.18603184E+00</totfact>
</mgrwt>
</event>
<event>
 8    2  0.4306980E-052  0.1578938E+04  0.7818608E-02  0.8833593E-01
         -2   -1    0    0    0  501 -0.00000000000E+00  0.00000000000E+00  0.56328248935E+03  0.56328248935E+03  0.25500000000E-02 0. -1.
          2   -1    0    0  501    0  0.00000000000E+00 -0.00000000000E+00 -0.11064807842E+04  0.11064807842E+04  0.25500000000E-02 0.  1.
    -200001    2    1    2    0    0  0.40125570439E+03 -0.29152225341E+03 -0.24185647364E+03  0.82562628361E+03  0.61414399110E+03 0.  0.
   -5000001    2    3    3    0    0  0.42415569823E+02 -0.80229861238E+02 -0.14957669109E+03  0.38730302911E+03  0.34553514820E+03 0.  0.
     200001    1    1    2    0    0 -0.40125570439E+03  0.29152225341E+03 -0.30134182116E+03  0.84413698990E+03  0.61300000000E+03 0.  1.
         13    1    4    4    0    0  0.67641161515E+01 -0.29099024677E+02  0.11242299845E+03  0.11632475338E+03  0.10566000000E+00 0.  1.
    -200003    1    4    4    0    0  0.35651453672E+02 -0.51130836561E+02 -0.26199968954E+03  0.27097827573E+03  0.30000000000E+02 0.  1.
    -200000    1    3    3    0    0  0.35884013456E+03 -0.21129239218E+03 -0.92279782553E+02  0.43832325450E+03  0.10100000000E+03 0.  1.
<mgrwt>
<rscale>  0 0.15789379E+04</rscale>
<asrwt>0</asrwt>
<pdfrwt beam="1">  1        2 0.15806868E+00 0.15789379E+04</pdfrwt>
<pdfrwt beam="2">  1       -2 0.80468927E-01 0.15789379E+04</pdfrwt>
<totfact> 0.31805482E+01</totfact>
</mgrwt>
</event>
<event>
 8    2  0.4306980E-052  0.1881772E+04  0.7818608E-02  0.8663983E-01
          2   -1    0    0  501    0  0.00000000000E+00  0.00000000000E+00  0.19421357962E+04  0.19421357962E+04  0.25500000000E-02 0.  1.
         -2   -1    0    0    0  501 -0.00000000000E+00 -0.00000000000E+00 -0.45582090433E+03  0.45582090434E+03  0.25500000000E-02 0. -1.
    -200001    2    1    2    0    0  0.19188312785E+03  0.48836199082E+03  0.12749403511E+03  0.81761506356E+03  0.61394062770E+03 0.  0.
   -5000001    2    3    3    0    0  0.79687019810E+02 -0.10522454757E+03 -0.21049274340E+02  0.18737775905E+03  0.13132069944E+03 0.  0.
     200001    1    1    2    0    0 -0.19188312785E+03 -0.48836199082E+03  0.13588208568E+04  0.15803416370E+04  0.61300000000E+03 0.  1.
         13    1    4    4    0    0 -0.13761789809E+02 -0.78505546573E+02  0.11612829263E+02  0.80544252862E+02  0.10566000000E+00 0.  1.
    -200003    1    4    4    0    0  0.93448809619E+02 -0.26719000995E+02 -0.32662103603E+02  0.10683350619E+03  0.30000000000E+02 0.  1.
    -200000    1    3    3    0    0  0.11219610804E+03  0.59358653839E+03  0.14854330945E+03  0.63023730451E+03  0.10100000000E+03 0. -1.
<mgrwt>
<rscale>  0 0.18817716E+04</rscale>
<asrwt>0</asrwt>
<pdfrwt beam="1">  1        2 0.27744797E+00 0.18817716E+04</pdfrwt>
<pdfrwt beam="2">  1       -2 0.65117271E-01 0.18817716E+04</pdfrwt>
<totfact> 0.17584183E+01</totfact>
</mgrwt>
</event>
<event>
 8    2  0.4306980E-052  0.2286158E+04  0.7818608E-02  0.8483399E-01
         -2   -1    0    0    0  501 -0.00000000000E+00  0.00000000000E+00  0.77523380134E+03  0.77523380135E+03  0.25500000000E-02 0. -1.
          2   -1    0    0  501    0  0.00000000000E+00 -0.00000000000E+00 -0.16854656493E+04  0.16854656493E+04  0.25500000000E-02 0.  1.
    -200001    2    1    2    0    0 -0.42798394755E+03  0.32997971041E+03 -0.13152862235E+04  0.15486167155E+04  0.61333434037E+03 0.  0.
   -5000001    2    3    3    0    0 -0.28974083856E+03  0.20555805419E+03 -0.12825343659E+04  0.13344541840E+04  0.98334644098E+02 0.  0.
     200001    1    1    2    0    0  0.42798394755E+03 -0.32997971041E+03  0.40505437555E+03  0.91208273517E+03  0.61300000000E+03 0. -1.
         13    1    4    4    0    0 -0.12146855510E+03  0.35436092780E+02 -0.48714360236E+03  0.50330828230E+03  0.10566000000E+00 0.  1.
    -200003    1    4    4    0    0 -0.16827228346E+03  0.17012196141E+03 -0.79539076357E+03  0.83114590170E+03  0.30000000000E+02 0.  1.
    -200000    1    3    3    0    0 -0.13824310899E+03  0.12442165621E+03 -0.32751857588E+02  0.21416253149E+03  0.10100000000E+03 0.  1.
<mgrwt>
<rscale>  0 0.22861583E+04</rscale>
<asrwt>0</asrwt>
<pdfrwt beam="1">  1        2 0.24078081E+00 0.22861583E+04</pdfrwt>
<pdfrwt beam="2">  1       -2 0.11074769E+00 0.22861583E+04</pdfrwt>
<totfact> 0.68839365E+00</totfact>
</mgrwt>
</event>
<event>
 8    2  0.4306980E-052  0.1261795E+04  0.7818608E-02  0.9060423E-01
         -2   -1    0    0    0  501 -0.00000000000E+00  0.00000000000E+00  0.17827226548E+03  0.17827226550E+03  0.25500000000E-02 0.  1.
          2   -1    0    0  501    0  0.00000000000E+00 -0.00000000000E+00 -0.22327173609E+04  0.22327173609E+04  0.25500000000E-02 0. -1.
    -200001    2    1    2    0    0 -0.48834228247E+02 -0.67236418181E+01 -0.13047994878E+04  0.14413672637E+04  0.61041616652E+03 0.  0.
   -5000001    2    3    3    0    0  0.88033698314E+02 -0.19507068497E+03 -0.10490129062E+04  0.10810407266E+04  0.14972799051E+03 0.  0.
     200001    1    1    2    0    0  0.48834228247E+02  0.67236418181E+01 -0.74964560766E+03  0.96962236272E+03  0.61300000000E+03 0.  1.
         13    1    4    4    0    0 -0.97959930107E+01 -0.16518334687E+02 -0.39381974458E+03  0.39428773662E+03  0.10566000000E+00 0.  1.
    -200003    1    4    4    0    0  0.97829691325E+02 -0.17855235028E+03 -0.65519316158E+03  0.68675299000E+03  0.30000000000E+02 0.  1.
    -200000    1    3    3    0    0 -0.13686792656E+03  0.18834704315E+03 -0.25578658159E+03  0.36032653706E+03  0.10100000000E+03 0.  1.
<mgrwt>
<rscale>  0 0.12617949E+04</rscale>
<asrwt>0</asrwt>
<pdfrwt beam="1">  1        2 0.31895961E+00 0.12617949E+04</pdfrwt>
<pdfrwt beam="2">  1       -2 0.25467468E-01 0.12617949E+04</pdfrwt>
<totfact> 0.83062867E+01</totfact>
</mgrwt>
</event>
<event>
 8    2  0.4306980E-052  0.1336434E+04  0.7818608E-02  0.9001161E-01
         -2   -1    0    0    0  501 -0.00000000000E+00  0.00000000000E+00  0.13153493099E+03  0.13153493101E+03  0.25500000000E-02 0. -1.
          2   -1    0    0  501    0  0.00000000000E+00 -0.00000000000E+00 -0.33946424103E+04  0.33946424103E+04  0.25500000000E-02 0.  1.
    -200001    2    1    2    0    0  0.15322537706E+02 -0.25458541434E+03 -0.14380128317E+04  0.15840681821E+04  0.61346767494E+03 0.  0.
   -5000001    2    3    3    0    0  0.16967703588E+03  0.56082172527E+02 -0.15639870015E+03  0.25249939203E+03  0.85789760375E+02 0.  0.
     200001    1    1    2    0    0 -0.15322537706E+02  0.25458541434E+03 -0.18250946477E+04  0.19421091592E+04  0.61300000000E+03 0. -1.
         13    1    4    4    0    0  0.89058813099E+02  0.27974090921E+02 -0.12645708338E+03  0.15717960127E+03  0.10566000000E+00 0.  1.
    -200003    1    4    4    0    0  0.80618222782E+02  0.28108081606E+02 -0.29941616774E+02  0.95319790763E+02  0.30000000000E+02 0.  1.
    -200000    1    3    3    0    0 -0.15435449818E+03 -0.31066758687E+03 -0.12816141315E+04  0.13315687901E+04  0.10100000000E+03 0.  1.
<mgrwt>
<rscale>  0 0.13364341E+04</rscale>
<asrwt>0</asrwt>
<pdfrwt beam="1">  1        2 0.48494886E+00 0.13364341E+04</pdfrwt>
<pdfrwt beam="2">  1       -2 0.18790707E-01 0.13364341E+04</pdfrwt>
<totfact> 0.32932498E+01</totfact>
</mgrwt>
</event>
<event>
 8    2  0.4306980E-052  0.1465199E+04  0.7818608E-02  0.8907931E-01
         -2   -1    0    0    0  501 -0.00000000000E+00  0.00000000000E+00  0.36592240287E+03  0.36592240288E+03  0.25500000000E-02 0. -1.
          2   -1    0    0  501    0  0.00000000000E+00 -0.00000000000E+00 -0.14667097542E+04  0.14667097542E+04  0.25500000000E-02 0.  1.
    -200001    2    1    2    0    0 -0.33648181424E+03  0.13013998473E+03 -0.33175629933E+03  0.78509495685E+03  0.61331510839E+03 0.  0.
   -5000001    2    3    3    0    0 -0.29957884028E+03 -0.17778291333E+03 -0.22413125140E+03  0.44163827606E+03  0.15315124295E+03 0.  0.
     200001    1    1    2    0    0  0.33648181424E+03 -0.13013998473E+03 -0.76903105205E+03  0.10475372003E+04  0.61300000000E+03 0.  1.
         13    1    4    4    0    0 -0.24910465867E+01 -0.58690961678E+02 -0.41339421046E+02  0.71831700469E+02  0.10566000000E+00 0.  1.
    -200003    1    4    4    0    0 -0.29708779369E+03 -0.11909195165E+03 -0.18279183035E+03  0.36980657559E+03  0.30000000000E+02 0.  1.
    -200000    1    3    3    0    0 -0.36902973965E+02  0.30792289806E+03 -0.10762504793E+03  0.34345668079E+03  0.10100000000E+03 0. -1.
<mgrwt>
<rscale>  0 0.14651989E+04</rscale>
<asrwt>0</asrwt>
<pdfrwt beam="1">  1        2 0.20952996E+00 0.14651989E+04</pdfrwt>
<pdfrwt beam="2">  1       -2 0.52274630E-01 0.14651989E+04</pdfrwt>
<totfact> 0.51017917E+01</totfact>
</mgrwt>
</event>
<event>
 8    2  0.4306980E-052  0.1349975E+04  0.7818608E-02  0.8990847E-01
         -2   -1    0    0    0  501 -0.00000000000E+00  0.00000000000E+00  0.24162066394E+03  0.24162066395E+03  0.25500000000E-02 0. -1.
          2   -1    0    0  501    0  0.00000000000E+00 -0.00000000000E+00 -0.18856349627E+04  0.18856349627E+04  0.25500000000E-02 0.  1.
    -200001    2    1    2    0    0 -0.21918829931E+03  0.19997859110E+02 -0.53806726073E+03  0.84377158863E+03  0.61154778373E+03 0.  0.
   -5000001    2    3    3    0    0 -0.51020711215E+02  0.10354294115E+02  0.12462094030E+03  0.15259144727E+03  0.71017227762E+02 0.  0.
     200001    1    1    2    0    0  0.21918829931E+03 -0.19997859110E+02 -0.11059470380E+04  0.12834840380E+04  0.61300000000E+03 0.  1.
         13    1    4    4    0    0 -0.11840236933E+02 -0.89749470166E+01  0.85340400052E+02  0.86624107093E+02  0.10566000000E+00 0.  1.
    -200003    1    4    4    0    0 -0.39180474282E+02  0.19329241131E+02  0.39280540246E+02  0.65967340174E+02  0.30000000000E+02 0. -1.
    -200000    1    3    3    0    0 -0.16816758810E+03  0.96435649956E+01 -0.66268820103E+03  0.69118014136E+03  0.10100000000E+03 0.  1.
<mgrwt>
<rscale>  0 0.13499754E+04</rscale>
<asrwt>0</asrwt>
<pdfrwt beam="1">  1        2 0.26937642E+00 0.13499754E+04</pdfrwt>
<pdfrwt beam="2">  1       -2 0.34517239E-01 0.13499754E+04</pdfrwt>
<totfact> 0.70662673E+01</totfact>
</mgrwt>
</event>
<event>
 8    2  0.4306980E-052  0.3284077E+04  0.7818608E-02  0.8166959E-01
         -2   -1    0    0    0  501 -0.00000000000E+00  0.00000000000E+00  0.16522886778E+04  0.16522886778E+04  0.25500000000E-02 0. -1.
          2   -1    0    0  501    0  0.00000000000E+00 -0.00000000000E+00 -0.16318518171E+04  0.16318518171E+04  0.25500000000E-02 0.  1.
    -200001    2    1    2    0    0  0.13291504880E+04 -0.33854358316E+02  0.75415698902E+03  0.16464893220E+04  0.61187187054E+03 0.  0.
   -5000001    2    3    3    0    0  0.65608525955E+03 -0.68863460999E+02  0.58736074318E+02  0.67280883659E+03  0.11845573059E+03 0.  0.
     200001    1    1    2    0    0 -0.13291504880E+04  0.33854358316E+02 -0.73372012833E+03  0.16376511729E+04  0.61300000000E+03 0.  1.
         13    1    4    4    0    0  0.22570206476E+03 -0.77592878769E+02  0.25119611823E+02  0.23998558901E+03  0.10566000000E+00 0.  1.
    -200003    1    4    4    0    0  0.43038319479E+03  0.87294177702E+01  0.33616462495E+02  0.43282324758E+03  0.30000000000E+02 0.  1.
    -200000    1    3    3    0    0  0.67306522847E+03  0.35009102683E+02  0.69542091470E+03  0.97368048540E+03  0.10100000000E+03 0. -1.
<mgrwt>
<rscale>  0 0.32840769E+04</rscale>
<asrwt>0</asrwt>
<pdfrwt beam="1">  1        2 0.23312169E+00 0.32840769E+04</pdfrwt>
<pdfrwt beam="2">  1       -2 0.23604124E+00 0.32840769E+04</pdfrwt>
<totfact> 0.82332710E-01</totfact>
</mgrwt>
</event>
<event>
 8    2  0.4306980E-052  0.1650001E+04  0.7818608E-02  0.8790406E-01
         -2   -1    0    0    0  501 -0.00000000000E+00  0.00000000000E+00  0.15105387391E+04  0.15105387391E+04  0.25500000000E-02 0. -1.
          2   -1    0    0  501    0  0.00000000000E+00 -0.00000000000E+00 -0.45058483592E+03  0.45058483593E+03  0.25500000000E-02 0.  1.
    -200001    2    1    2    0    0  0.52817583220E+03  0.28063436615E+02  0.71762404344E+03  0.10820809145E+04  0.61331686069E+03 0.  0.
   -5000001    2    3    3    0    0  0.49263915490E+03  0.19696148627E+03  0.69604978658E+03  0.88094450515E+03  0.10045273385E+03 0.  0.
     200001    1    1    2    0    0 -0.52817583220E+03 -0.28063436615E+02  0.34232985978E+03  0.87904266057E+03  0.61300000000E+03 0. -1.
         13    1    4    4    0    0  0.74945336201E+02  0.64076769550E+02  0.99646256768E+02  0.14018567497E+03  0.10566000000E+00 0.  1.
    -200003    1    4    4    0    0  0.41769381870E+03  0.13288471672E+03  0.59640352981E+03  0.74075883018E+03  0.30000000000E+02 0.  1.
    -200000    1    3    3    0    0  0.35536677300E+02 -0.16889804965E+03  0.21574256859E+02  0.20113640936E+03  0.10100000000E+03 0. -1.
<mgrwt>
<rscale>  0 0.16500010E+04</rscale>
<asrwt>0</asrwt>
<pdfrwt beam="1">  1        2 0.64369262E-01 0.16500010E+04</pdfrwt>
<pdfrwt beam="2">  1       -2 0.21579125E+00 0.16500010E+04</pdfrwt>
<totfact> 0.76053109E+00</totfact>
</mgrwt>
</event>
<event>
 8    2  0.4306980E-052  0.1979514E+04  0.7818608E-02  0.8616259E-01
         -2   -1    0    0    0  501 -0.00000000000E+00  0.00000000000E+00  0.74917124465E+03  0.74917124465E+03  0.25500000000E-02 0. -1.
          2   -1    0    0  501    0  0.00000000000E+00 -0.00000000000E+00 -0.13076037771E+04  0.13076037771E+04  0.25500000000E-02 0.  1.
    -200001    2    1    2    0    0  0.96545849240E+02  0.39423684995E+03 -0.96807404591E+03  0.12151581466E+04  0.61212594133E+03 0.  0.
   -5000001    2    3    3    0    0 -0.13409067733E+03  0.36102645578E+03 -0.27863171571E+03  0.48042835659E+03  0.69680422657E+02 0.  0.
     200001    1    1    2    0    0 -0.96545849240E+02 -0.39423684995E+03  0.40964151350E+03  0.84161687510E+03  0.61300000000E+03 0. -1.
         13    1    4    4    0    0 -0.85049267181E+02  0.14844718977E+03 -0.12653600613E+03  0.21279407419E+03  0.10566000000E+00 0.  1.
    -200003    1    4    4    0    0 -0.49041410151E+02  0.21257926600E+03 -0.15209570958E+03  0.26763428240E+03  0.30000000000E+02 0.  1.
    -200000    1    3    3    0    0  0.23063652657E+03  0.33210394179E+02 -0.68944233021E+03  0.73472979003E+03  0.10100000000E+03 0. -1.
<mgrwt>
<rscale>  0 0.19795142E+04</rscale>
<asrwt>0</asrwt>
<pdfrwt beam="1">  1        2 0.18680054E+00 0.19795142E+04</pdfrwt>
<pdfrwt beam="2">  1       -2 0.10702446E+00 0.19795142E+04</pdfrwt>
<totfact> 0.12196425E+01</totfact>
</mgrwt>
</event>
<event>
 8    2  0.4306980E-052  0.1481367E+04  0.7818608E-02  0.8896939E-01
         -2   -1    0    0    0  501 -0.00000000000E+00  0.00000000000E+00  0.11747772527E+04  0.11747772527E+04  0.25500000000E-02 0. -1.
          2   -1    0    0  501    0  0.00000000000E+00 -0.00000000000E+00 -0.46699210976E+03  0.46699210977E+03  0.25500000000E-02 0.  1.
    -200001    2    1    2    0    0 -0.18199354393E+02 -0.29251489674E+03  0.68052279638E+03  0.96176317364E+03  0.61317285040E+03 0.  0.
   -5000001    2    3    3    0    0 -0.11583887873E+03 -0.17434833672E+03  0.73678972237E+03  0.76976374765E+03  0.76558107802E+02 0.  0.
     200001    1    1    2    0    0  0.18199354393E+02  0.29251489674E+03  0.27262346563E+02  0.68000618883E+03  0.61300000000E+03 0.  1.
         13    1    4    4    0    0 -0.10180610952E+02  0.47876212020E+01  0.62067207893E+02  0.63078646274E+02  0.10566000000E+00 0.  1.
    -200003    1    4    4    0    0 -0.10565826778E+03 -0.17913595792E+03  0.67472251448E+03  0.70668510138E+03  0.30000000000E+02 0.  1.
    -200000    1    3    3    0    0  0.97639524337E+02 -0.11816656002E+03 -0.56266925988E+02  0.19199942599E+03  0.10100000000E+03 0.  1.
<mgrwt>
<rscale>  0 0.14813665E+04</rscale>
<asrwt>0</asrwt>
<pdfrwt beam="1">  1        2 0.66713159E-01 0.14813665E+04</pdfrwt>
<pdfrwt beam="2">  1       -2 0.16782532E+00 0.14813665E+04</pdfrwt>
<totfact> 0.15531048E+01</totfact>
</mgrwt>
</event>
<event>
 8    2  0.4306980E-052  0.1920549E+04  0.7818608E-02  0.8644695E-01
         -2   -1    0    0    0  501 -0.00000000000E+00  0.00000000000E+00  0.67871398438E+03  0.67871398438E+03  0.25500000000E-02 0. -1.
          2   -1    0    0  501    0  0.00000000000E+00 -0.00000000000E+00 -0.13586384086E+04  0.13586384086E+04  0.25500000000E-02 0.  1.
    -200001    2    1    2    0    0 -0.61675113777E+03 -0.74452774725E+02  0.82667334523E+02  0.87836992025E+03  0.61544670525E+03 0.  0.
   -5000001    2    3    3    0    0 -0.11487294805E+03  0.15524192347E+03  0.17713546350E+03  0.30936500017E+03  0.16441983428E+03 0.  0.
     200001    1    1    2    0    0  0.61675113777E+03  0.74452774725E+02 -0.76259175875E+03  0.11589824727E+04  0.61300000000E+03 0.  1.
         13    1    4    4    0    0  0.19801808845E+02  0.85720921238E+02  0.11013877993E+03  0.14096364772E+03  0.10566000000E+00 0.  1.
    -200003    1    4    4    0    0 -0.13467475690E+03  0.69521002229E+02  0.66996683570E+02  0.16840135244E+03  0.30000000000E+02 0.  1.
    -200000    1    3    3    0    0 -0.50187818972E+03 -0.22969469819E+03 -0.94468128972E+02  0.56900492008E+03  0.10100000000E+03 0.  1.
<mgrwt>
<rscale>  0 0.19205488E+04</rscale>
<asrwt>0</asrwt>
<pdfrwt beam="1">  1        2 0.19409120E+00 0.19205488E+04</pdfrwt>
<pdfrwt beam="2">  1       -2 0.96959141E-01 0.19205488E+04</pdfrwt>
<totfact> 0.14532097E+01</totfact>
</mgrwt>
</event>
<event>
 8    2  0.4306980E-052  0.1724926E+04  0.7818608E-02  0.8747274E-01
          2   -1    0    0  501    0  0.00000000000E+00  0.00000000000E+00  0.33768405065E+04  0.33768405065E+04  0.25500000000E-02 0.  1.
         -2   -1    0    0    0  501 -0.00000000000E+00 -0.00000000000E+00 -0.22027768431E+03  0.22027768433E+03  0.25500000000E-02 0. -1.
    -200001    2    1    2    0    0 -0.15327271262E+02 -0.60624118016E+03  0.14772516877E+04  0.17093633921E+04  0.60982568298E+03 0.  0.
   -5000001    2    3    3    0    0  0.24623500844E+03 -0.22858774175E+03  0.90474007663E+03  0.96841299529E+03  0.79906746386E+02 0.  0.
     200001    1    1    2    0    0  0.15327271262E+02  0.60624118016E+03  0.16793111345E+04  0.18877547987E+04  0.61300000000E+03 0.  1.
         13    1    4    4    0    0  0.16691594982E+03 -0.13912651328E+03  0.49648591701E+03  0.54195516231E+03  0.10566000000E+00 0.  1.
    -200003    1    4    4    0    0  0.79319058630E+02 -0.89461228474E+02  0.40825415962E+03  0.42645783298E+03  0.30000000000E+02 0.  1.
    -200000    1    3    3    0    0 -0.26156227971E+03 -0.37765343841E+03  0.57251161110E+03  0.74095039682E+03  0.10100000000E+03 0.  1.
<mgrwt>
<rscale>  0 0.17249262E+04</rscale>
<asrwt>0</asrwt>
<pdfrwt beam="1">  1        2 0.48240575E+00 0.17249262E+04</pdfrwt>
<pdfrwt beam="2">  1       -2 0.31468243E-01 0.17249262E+04</pdfrwt>
<totfact> 0.12807892E+01</totfact>
</mgrwt>
</event>
<event>
 8    2  0.4306980E-052  0.1546039E+04  0.7818608E-02  0.8854402E-01
          2   -1    0    0  501    0  0.00000000000E+00  0.00000000000E+00  0.81210630758E+03  0.81210630758E+03  0.25500000000E-02 0.  1.
         -2   -1    0    0    0  501 -0.00000000000E+00 -0.00000000000E+00 -0.73581420775E+03  0.73581420776E+03  0.25500000000E-02 0. -1.
    -200001    2    1    2    0    0  0.36175922289E+03  0.75811500485E+02 -0.24591794801E+03  0.76293297794E+03  0.62046270857E+03 0.  0.
   -5000001    2    3    3    0    0  0.18547578306E+02 -0.42497328351E+01 -0.36700095197E+03  0.37684214937E+03  0.83416029040E+02 0.  0.
     200001    1    1    2    0    0 -0.36175922289E+03 -0.75811500485E+02  0.32221004784E+03  0.78498753740E+03  0.61300000000E+03 0.  1.
         13    1    4    4    0    0 -0.19716097784E+02 -0.22837674103E+02 -0.18874757236E+03  0.19114377078E+03  0.10566000000E+00 0.  1.
    -200003    1    4    4    0    0  0.38263676090E+02  0.18587941268E+02 -0.17825337961E+03  0.18569837859E+03  0.30000000000E+02 0.  1.
    -200000    1    3    3    0    0  0.34321164458E+03  0.80061233320E+02  0.12108300397E+03  0.38609082857E+03  0.10100000000E+03 0. -1.
<mgrwt>
<rscale>  0 0.15460393E+04</rscale>
<asrwt>0</asrwt>
<pdfrwt beam="1">  1        2 0.11601519E+00 0.15460393E+04</pdfrwt>
<pdfrwt beam="2">  1       -2 0.10511632E+00 0.15460393E+04</pdfrwt>
<totfact> 0.26374630E+01</totfact>
</mgrwt>
</event>
<event>
 8    2  0.4306980E-052  0.2076845E+04  0.7818608E-02  0.8571513E-01
          2   -1    0    0  501    0  0.00000000000E+00  0.00000000000E+00  0.36378377573E+04  0.36378377573E+04  0.25500000000E-02 0.  1.
         -2   -1    0    0    0  501 -0.00000000000E+00 -0.00000000000E+00 -0.29641809454E+03  0.29641809455E+03  0.25500000000E-02 0. -1.
    -200001    2    1    2    0    0 -0.12223027476E+03  0.47241264622E+03  0.29615922550E+04  0.30635367192E+04  0.61328182451E+03 0.  0.
   -5000001    2    3    3    0    0  0.18256181614E+03  0.28790143508E+03  0.83433651816E+03  0.90428671610E+03  0.73491403203E+02 0.  0.
     200001    1    1    2    0    0  0.12223027476E+03 -0.47241264622E+03  0.37982740774E+03  0.87071913270E+03  0.61300000000E+03 0. -1.
         13    1    4    4    0    0  0.57086231335E+02  0.81612975515E+02  0.32315049032E+03  0.33815050811E+03  0.10566000000E+00 0.  1.
    -200003    1    4    4    0    0  0.12547558480E+03  0.20628845957E+03  0.51118602784E+03  0.56613620799E+03  0.30000000000E+02 0.  1.
    -200000    1    3    3    0    0 -0.30479209090E+03  0.18451121113E+03  0.21272557369E+04  0.21592500031E+04  0.10100000000E+03 0.  1.
<mgrwt>
<rscale>  0 0.20768447E+04</rscale>
<asrwt>0</asrwt>
<pdfrwt beam="1">  1        2 0.51969108E+00 0.20768447E+04</pdfrwt>
<pdfrwt beam="2">  1       -2 0.42345445E-01 0.20768447E+04</pdfrwt>
<totfact> 0.48503727E+00</totfact>
</mgrwt>
</event>
<event>
 8    2  0.4306980E-052  0.1517899E+04  0.7818608E-02  0.8872637E-01
         -2   -1    0    0    0  501 -0.00000000000E+00  0.00000000000E+00  0.61386037490E+03  0.61386037490E+03  0.25500000000E-02 0. -1.
          2   -1    0    0  501    0  0.00000000000E+00 -0.00000000000E+00 -0.93833126947E+03  0.93833126948E+03  0.25500000000E-02 0.  1.
    -200001    2    1    2    0    0 -0.20038820342E+03  0.36546588350E+03 -0.32552215298E+03  0.81091514454E+03  0.61473405265E+03 0.  0.
   -5000001    2    3    3    0    0 -0.23879301612E+03  0.47133359997E+03 -0.32560395641E+03  0.65964085815E+03  0.22345169122E+03 0.  0.
     200001    1    1    2    0    0  0.20038820342E+03 -0.36546588350E+03  0.10512584095E+01  0.74127649984E+03  0.61300000000E+03 0. -1.
         13    1    4    4    0    0 -0.19462632696E+03  0.48016524781E+03 -0.28035218401E+03  0.58909713172E+03  0.10566000000E+00 0.  1.
    -200003    1    4    4    0    0 -0.44166689158E+02 -0.88316478383E+01 -0.45251772398E+02  0.70543726439E+02  0.30000000000E+02 0.  1.
    -200000    1    3    3    0    0  0.38404812698E+02 -0.10586771647E+03  0.81803426096E-01  0.15127428639E+03  0.10100000000E+03 0. -1.
<mgrwt>
<rscale>  0 0.15178991E+04</rscale>
<asrwt>0</asrwt>
<pdfrwt beam="1">  1        2 0.13404732E+00 0.15178991E+04</pdfrwt>
<pdfrwt beam="2">  1       -2 0.87694339E-01 0.15178991E+04</pdfrwt>
<totfact> 0.33319548E+01</totfact>
</mgrwt>
</event>
<event>
 8    2  0.4306980E-052  0.1316422E+04  0.7818608E-02  0.9016643E-01
         -2   -1    0    0    0  501 -0.00000000000E+00  0.00000000000E+00  0.54692181884E+03  0.54692181885E+03  0.25500000000E-02 0. -1.
          2   -1    0    0  501    0  0.00000000000E+00 -0.00000000000E+00 -0.79214581251E+03  0.79214581251E+03  0.25500000000E-02 0.  1.
    -200001    2    1    2    0    0  0.23759147632E+03  0.27979025615E+02 -0.13421152080E+03  0.67174064657E+03  0.61318042080E+03 0.  0.
   -5000001    2    3    3    0    0 -0.58465558975E+02  0.22920834229E+03  0.45893239650E+02  0.25848318352E+03  0.93555763867E+02 0.  0.
     200001    1    1    2    0    0 -0.23759147632E+03 -0.27979025615E+02 -0.11101247287E+03  0.66732698479E+03  0.61300000000E+03 0.  1.
         13    1    4    4    0    0 -0.48154129989E+01  0.15291603612E+03  0.48437250025E+02  0.16047641776E+03  0.10566000000E+00 0.  1.
    -200003    1    4    4    0    0 -0.53650145976E+02  0.76292306177E+02 -0.25440103748E+01  0.98006765756E+02  0.30000000000E+02 0.  1.
    -200000    1    3    3    0    0  0.29605703529E+03 -0.20122931668E+03 -0.18010476045E+03  0.41325746305E+03  0.10100000000E+03 0.  1.
<mgrwt>
<rscale>  0 0.13164222E+04</rscale>
<asrwt>0</asrwt>
<pdfrwt beam="1">  1        2 0.11316369E+00 0.13164222E+04</pdfrwt>
<pdfrwt beam="2">  1       -2 0.78131689E-01 0.13164222E+04</pdfrwt>
<totfact> 0.55028625E+01</totfact>
</mgrwt>
</event>
<event>
 8    2  0.4306980E-052  0.1494419E+04  0.7818608E-02  0.8888173E-01
         -2   -1    0    0    0  501 -0.00000000000E+00  0.00000000000E+00  0.12546242065E+04  0.12546242065E+04  0.25500000000E-02 0. -1.
          2   -1    0    0  501    0  0.00000000000E+00 -0.00000000000E+00 -0.44501108871E+03  0.44501108871E+03  0.25500000000E-02 0.  1.
    -200001    2    1    2    0    0 -0.22298364331E+03  0.36102129910E+03  0.34693266501E+03  0.82219567624E+03  0.61285020388E+03 0.  0.
   -5000001    2    3    3    0    0 -0.74457842463E+02  0.42026766673E+03  0.93143348014E+02  0.50568333365E+03  0.25469799498E+03 0.  0.
     200001    1    1    2    0    0  0.22298364331E+03 -0.36102129910E+03  0.46268045281E+03  0.87743961901E+03  0.61300000000E+03 0. -1.
         13    1    4    4    0    0 -0.14461104636E+03  0.20807223057E+03 -0.18498173727E+02  0.25406416799E+03  0.10566000000E+00 0.  1.
    -200003    1    4    4    0    0  0.70153203901E+02  0.21219543617E+03  0.11164152174E+03  0.25161916565E+03  0.30000000000E+02 0.  1.
    -200000    1    3    3    0    0 -0.14852580084E+03 -0.59246367635E+02  0.25378931699E+03  0.31651234259E+03  0.10100000000E+03 0.  1.
<mgrwt>
<rscale>  0 0.14944185E+04</rscale>
<asrwt>0</asrwt>
<pdfrwt beam="1">  1        2 0.63573012E-01 0.14944185E+04</pdfrwt>
<pdfrwt beam="2">  1       -2 0.17923203E+00 0.14944185E+04</pdfrwt>
<totfact> 0.13618617E+01</totfact>
</mgrwt>
</event>
<event>
 8    2  0.4306980E-052  0.1875644E+04  0.7818608E-02  0.8667076E-01
          2   -1    0    0  501    0  0.00000000000E+00  0.00000000000E+00  0.25418902161E+04  0.25418902161E+04  0.25500000000E-02 0.  1.
         -2   -1    0    0    0  501 -0.00000000000E+00 -0.00000000000E+00 -0.34600633363E+03  0.34600633364E+03  0.25500000000E-02 0. -1.
    -200001    2    1    2    0    0  0.14604882477E+03  0.42238022119E+03  0.19465888319E+04  0.20893651899E+04  0.61359881487E+03 0.  0.
   -5000001    2    3    3    0    0  0.26584409171E+03  0.15112850145E+03  0.15371553662E+04  0.15738410252E+04  0.14358289566E+03 0.  0.
     200001    1    1    2    0    0 -0.14604882477E+03 -0.42238022119E+03  0.24929505054E+03  0.79853135987E+03  0.61300000000E+03 0. -1.
         13    1    4    4    0    0  0.24565474938E+03  0.11798447852E+03  0.10716281691E+04  0.11057366490E+04  0.10566000000E+00 0.  1.
    -200003    1    4    4    0    0  0.20189342330E+02  0.33144022932E+02  0.46552719708E+03  0.46810437620E+03  0.30000000000E+02 0.  1.
    -200000    1    3    3    0    0 -0.11979526694E+03  0.27125171975E+03  0.40943346576E+03  0.51552416464E+03  0.10100000000E+03 0.  1.
<mgrwt>
<rscale>  0 0.18756440E+04</rscale>
<asrwt>0</asrwt>
<pdfrwt beam="1">  1        2 0.36312717E+00 0.18756440E+04</pdfrwt>
<pdfrwt beam="2">  1       -2 0.49429477E-01 0.18756440E+04</pdfrwt>
<totfact> 0.15279618E+01</totfact>
</mgrwt>
</event>
<event>
 8    2  0.4306980E-052  0.1799920E+04  0.7818608E-02  0.8706342E-01
          2   -1    0    0  501    0  0.00000000000E+00  0.00000000000E+00  0.15899867312E+04  0.15899867312E+04  0.25500000000E-02 0.  1.
         -2   -1    0    0    0  501 -0.00000000000E+00 -0.00000000000E+00 -0.50939275756E+03  0.50939275757E+03  0.25500000000E-02 0. -1.
    -200001    2    1    2    0    0 -0.14801499286E+03  0.54656658187E+03  0.14716770826E+03  0.84730239072E+03  0.61287807959E+03 0.  0.
   -5000001    2    3    3    0    0 -0.87993714957E+02 -0.79190622903E+02 -0.84850652968E+02  0.16965340115E+03  0.86997669997E+02 0.  0.
     200001    1    1    2    0    0  0.14801499286E+03 -0.54656658187E+03  0.93342626535E+03  0.12520770980E+04  0.61300000000E+03 0. -1.
         13    1    4    4    0    0 -0.98561509198E+01  0.23652460407E+01  0.13521390149E+02  0.16899031197E+02  0.10566000000E+00 0.  1.
    -200003    1    4    4    0    0 -0.78137564038E+02 -0.81555868943E+02 -0.98372043117E+02  0.15275436995E+03  0.30000000000E+02 0.  1.
    -200000    1    3    3    0    0 -0.60021277902E+02  0.62575720477E+03  0.23201836123E+03  0.67764898957E+03  0.10100000000E+03 0. -1.
<mgrwt>
<rscale>  0 0.17999197E+04</rscale>
<asrwt>0</asrwt>
<pdfrwt beam="1">  1        2 0.22714096E+00 0.17999197E+04</pdfrwt>
<pdfrwt beam="2">  1       -2 0.72770394E-01 0.17999197E+04</pdfrwt>
<totfact> 0.21172390E+01</totfact>
</mgrwt>
</event>
<event>
 8    2  0.4306980E-052  0.1560939E+04  0.7818608E-02  0.8844911E-01
         -2   -1    0    0    0  501 -0.00000000000E+00  0.00000000000E+00  0.29101242737E+03  0.29101242738E+03  0.25500000000E-02 0. -1.
          2   -1    0    0  501    0  0.00000000000E+00 -0.00000000000E+00 -0.20931486921E+04  0.20931486921E+04  0.25500000000E-02 0.  1.
    -200001    2    1    2    0    0  0.38406059326E+03  0.17532475483E+03 -0.12595226822E+04  0.14630531948E+04  0.61309538812E+03 0.  0.
   -5000001    2    3    3    0    0  0.22950241822E+03  0.17262087122E+03 -0.12411015788E+04  0.12774841308E+04  0.95724867951E+02 0.  0.
     200001    1    1    2    0    0 -0.38406059326E+03 -0.17532475483E+03 -0.54261358255E+03  0.92110792468E+03  0.61300000000E+03 0. -1.
         13    1    4    4    0    0 -0.67374577520E+01  0.62935003301E+01 -0.82992329227E+02  0.83502930236E+02  0.10566000000E+00 0.  1.
    -200003    1    4    4    0    0  0.23623987597E+03  0.16632737089E+03 -0.11581092496E+04  0.11939812006E+04  0.30000000000E+02 0.  1.
    -200000    1    3    3    0    0  0.15455817504E+03  0.27038836081E+01 -0.18421103347E+02  0.18556906399E+03  0.10100000000E+03 0. -1.
<mgrwt>
<rscale>  0 0.15609385E+04</rscale>
<asrwt>0</asrwt>
<pdfrwt beam="1">  1        2 0.29902123E+00 0.15609385E+04</pdfrwt>
<pdfrwt beam="2">  1       -2 0.41573205E-01 0.15609385E+04</pdfrwt>
<totfact> 0.37937948E+01</totfact>
</mgrwt>
</event>
<event>
 8    2  0.4306980E-052  0.1704695E+04  0.7818608E-02  0.8758691E-01
          2   -1    0    0  501    0  0.00000000000E+00  0.00000000000E+00  0.78847764857E+03  0.78847764858E+03  0.25500000000E-02 0.  1.
         -2   -1    0    0    0  501 -0.00000000000E+00 -0.00000000000E+00 -0.92139091708E+03  0.92139091708E+03  0.25500000000E-02 0. -1.
    -200001    2    1    2    0    0  0.18709817144E+03  0.48326010614E+03  0.22127289030E+03  0.83250724269E+03  0.61282996109E+03 0.  0.
   -5000001    2    3    3    0    0  0.20303004847E+03  0.21791742589E+02  0.17285087509E+03  0.35737298080E+03  0.23694290823E+03 0.  0.
     200001    1    1    2    0    0 -0.18709817144E+03 -0.48326010614E+03 -0.35418615881E+03  0.87736132297E+03  0.61300000000E+03 0. -1.
         13    1    4    4    0    0  0.14804165319E+03  0.45832257424E+02 -0.17105878075E+02  0.15591519851E+03  0.10566000000E+00 0.  1.
    -200003    1    4    4    0    0  0.54988395284E+02 -0.24040514835E+02  0.18995675317E+03  0.20145778229E+03  0.30000000000E+02 0.  1.
    -200000    1    3    3    0    0 -0.15931877032E+02  0.46146836355E+03  0.48422015210E+02  0.47513426189E+03  0.10100000000E+03 0.  1.
<mgrwt>
<rscale>  0 0.17046949E+04</rscale>
<asrwt>0</asrwt>
<pdfrwt beam="1">  1        2 0.11263966E+00 0.17046949E+04</pdfrwt>
<pdfrwt beam="2">  1       -2 0.13162727E+00 0.17046949E+04</pdfrwt>
<totfact> 0.15541934E+01</totfact>
</mgrwt>
</event>
<event>
 8    2  0.4306980E-052  0.2533803E+04  0.7818608E-02  0.8391041E-01
          2   -1    0    0  501    0  0.00000000000E+00  0.00000000000E+00  0.76753739357E+03  0.76753739357E+03  0.25500000000E-02 0.  1.
         -2   -1    0    0    0  501 -0.00000000000E+00 -0.00000000000E+00 -0.20911552380E+04  0.20911552380E+04  0.25500000000E-02 0. -1.
    -200001    2    1    2    0    0 -0.82120436895E+02 -0.67254533239E+03 -0.16520535534E+04  0.18877652372E+04  0.61263011461E+03 0.  0.
   -5000001    2    3    3    0    0 -0.24029254750E+03 -0.61467753444E+02 -0.38811243383E+03  0.47136756080E+03  0.10018644111E+03 0.  0.
     200001    1    1    2    0    0  0.82120436895E+02  0.67254533239E+03  0.32843570892E+03  0.97092739439E+03  0.61300000000E+03 0.  1.
         13    1    4    4    0    0 -0.13481447153E+03 -0.74950821923E+02 -0.25881311427E+03  0.30129189621E+03  0.10566000000E+00 0.  1.
    -200003    1    4    4    0    0 -0.10547807597E+03  0.13483068479E+02 -0.12929931956E+03  0.17007566459E+03  0.30000000000E+02 0.  1.
    -200000    1    3    3    0    0  0.15817211061E+03 -0.61107757895E+03 -0.12639411196E+04  0.14163976764E+04  0.10100000000E+03 0. -1.
<mgrwt>
<rscale>  0 0.25338033E+04</rscale>
<asrwt>0</asrwt>
<pdfrwt beam="1">  1        2 0.10964820E+00 0.25338033E+04</pdfrwt>
<pdfrwt beam="2">  1       -2 0.29873646E+00 0.25338033E+04</pdfrwt>
<totfact> 0.11594640E+00</totfact>
</mgrwt>
</event>
<event>
 8    2  0.4306980E-052  0.1878516E+04  0.7818608E-02  0.8665625E-01
         -2   -1    0    0    0  501 -0.00000000000E+00  0.00000000000E+00  0.39173402020E+03  0.39173402021E+03  0.25500000000E-02 0.  1.
          2   -1    0    0  501    0  0.00000000000E+00 -0.00000000000E+00 -0.22520515407E+04  0.22520515407E+04  0.25500000000E-02 0. -1.
    -200001    2    1    2    0    0  0.22981491728E+03  0.65499859335E+03 -0.11595864178E+04  0.14824797735E+04  0.60931729423E+03 0.  0.
   -5000001    2    3    3    0    0 -0.19039752073E+03  0.19114741102E+03 -0.28618357085E+03  0.40323469223E+03  0.88930490607E+02 0.  0.
     200001    1    1    2    0    0 -0.22981491728E+03 -0.65499859335E+03 -0.70073110267E+03  0.11613057874E+04  0.61300000000E+03 0.  1.
         13    1    4    4    0    0 -0.46009296152E+02  0.16210191178E+02 -0.21341357521E+02  0.53245566345E+02  0.10566000000E+00 0.  1.
    -200003    1    4    4    0    0 -0.14438822458E+03  0.17493721984E+03 -0.26484221333E+03  0.34998912589E+03  0.30000000000E+02 0.  1.
    -200000    1    3    3    0    0  0.42021243801E+03  0.46385118234E+03 -0.87340284694E+03  0.10792450813E+04  0.10100000000E+03 0. -1.
<mgrwt>
<rscale>  0 0.18785156E+04</rscale>
<asrwt>0</asrwt>
<pdfrwt beam="1">  1        2 0.32172164E+00 0.18785156E+04</pdfrwt>
<pdfrwt beam="2">  1       -2 0.55962004E-01 0.18785156E+04</pdfrwt>
<totfact> 0.16772297E+01</totfact>
</mgrwt>
</event>
<event>
 8    2  0.4306980E-052  0.1816142E+04  0.7818608E-02  0.8697762E-01
          2   -1    0    0  501    0  0.00000000000E+00  0.00000000000E+00  0.79263236182E+03  0.79263236183E+03  0.25500000000E-02 0.  1.
         -2   -1    0    0    0  501 -0.00000000000E+00 -0.00000000000E+00 -0.10403226328E+04  0.10403226328E+04  0.25500000000E-02 0. -1.
    -200001    2    1    2    0    0 -0.30269312181E+03 -0.51495141472E+03 -0.42979434775E+03  0.95789557929E+03  0.61322318446E+03 0.  0.
   -5000001    2    3    3    0    0 -0.45476323877E+03 -0.33072675732E+03 -0.40281070953E+03  0.69714059545E+03  0.86941076403E+02 0.  0.
     200001    1    1    2    0    0  0.30269312181E+03  0.51495141472E+03  0.18210407681E+03  0.87505941530E+03  0.61300000000E+03 0.  1.
         13    1    4    4    0    0 -0.17877874774E+03 -0.12204596027E+03 -0.10964318126E+03  0.24264932603E+03  0.10566000000E+00 0.  1.
    -200003    1    4    4    0    0 -0.27598449103E+03 -0.20868079705E+03 -0.29316752827E+03  0.45449126942E+03  0.30000000000E+02 0.  1.
    -200000    1    3    3    0    0  0.15207011696E+03 -0.18422465740E+03 -0.26983638216E+02  0.26075498384E+03  0.10100000000E+03 0. -1.
<mgrwt>
<rscale>  0 0.18161425E+04</rscale>
<asrwt>0</asrwt>
<pdfrwt beam="1">  1        2 0.11323320E+00 0.18161425E+04</pdfrwt>
<pdfrwt beam="2">  1       -2 0.14861752E+00 0.18161425E+04</pdfrwt>
<totfact> 0.11168169E+01</totfact>
</mgrwt>
</event>
<event>
 8    2  0.4306980E-052  0.2038672E+04  0.7818608E-02  0.8588751E-01
         -2   -1    0    0    0  501 -0.00000000000E+00  0.00000000000E+00  0.59763600021E+03  0.59763600022E+03  0.25500000000E-02 0. -1.
          2   -1    0    0  501    0  0.00000000000E+00 -0.00000000000E+00 -0.17385924090E+04  0.17385924090E+04  0.25500000000E-02 0.  1.
    -200001    2    1    2    0    0  0.62336705108E+03 -0.13006855707E+03  0.11148163117E+02  0.88412019889E+03  0.61322095092E+03 0.  0.
   -5000001    2    3    3    0    0  0.73376521742E+02 -0.13140480203E+03 -0.22315510410E+03  0.27782786929E+03  0.68838859144E+02 0.  0.
     200001    1    1    2    0    0 -0.62336705108E+03  0.13006855707E+03 -0.11521045719E+04  0.14521082103E+04  0.61300000000E+03 0.  1.
         13    1    4    4    0    0  0.38545514256E+02 -0.78733883488E+02 -0.80742343403E+02  0.11918103146E+03  0.10566000000E+00 0.  1.
    -200003    1    4    4    0    0  0.34831007487E+02 -0.52670918538E+02 -0.14241276070E+03  0.15864683783E+03  0.30000000000E+02 0.  1.
    -200000    1    3    3    0    0  0.54999052933E+03  0.13362449574E+01  0.23430326722E+03  0.60629232960E+03  0.10100000000E+03 0. -1.
<mgrwt>
<rscale>  0 0.20386715E+04</rscale>
<asrwt>0</asrwt>
<pdfrwt beam="1">  1        2 0.24837034E+00 0.20386715E+04</pdfrwt>
<pdfrwt beam="2">  1       -2 0.85376572E-01 0.20386715E+04</pdfrwt>
<totfact> 0.12148901E+01</totfact>
</mgrwt>
</event>
<event>
 8    2  0.4306980E-052  0.1750054E+04  0.7818608E-02  0.8733320E-01
         -2   -1    0    0    0  501 -0.00000000000E+00  0.00000000000E+00  0.45111489547E+03  0.45111489547E+03  0.25500000000E-02 0. -1.
          2   -1    0    0  501    0  0.00000000000E+00 -0.00000000000E+00 -0.16972891341E+04  0.16972891341E+04  0.25500000000E-02 0.  1.
    -200001    2    1    2    0    0 -0.14810736726E+03  0.55324171778E+03 -0.31733570523E+03  0.89679617897E+03  0.61280441111E+03 0.  0.
   -5000001    2    3    3    0    0 -0.14557733077E+03  0.35811648165E+03  0.11523104582E+03  0.41162069219E+03  0.81934282532E+02 0.  0.
     200001    1    1    2    0    0  0.14810736726E+03 -0.55324171778E+03 -0.92883853336E+03  0.12516078506E+04  0.61300000000E+03 0. -1.
         13    1    4    4    0    0 -0.37423055734E+02  0.14921253767E+03  0.16403079518E+02  0.15470597493E+03  0.10566000000E+00 0.  1.
    -200003    1    4    4    0    0 -0.10815427504E+03  0.20890394398E+03  0.98827966300E+02  0.25691471725E+03  0.30000000000E+02 0.  1.
    -200000    1    3    3    0    0 -0.25300364895E+01  0.19512523614E+03 -0.43256675105E+03  0.48517548678E+03  0.10100000000E+03 0.  1.
<mgrwt>
<rscale>  0 0.17500542E+04</rscale>
<asrwt>0</asrwt>
<pdfrwt beam="1">  1        2 0.24246987E+00 0.17500542E+04</pdfrwt>
<pdfrwt beam="2">  1       -2 0.64444986E-01 0.17500542E+04</pdfrwt>
<totfact> 0.24319565E+01</totfact>
</mgrwt>
</event>
<event>
 8    2  0.4306980E-052  0.1369473E+04  0.7818608E-02  0.8976217E-01
          2   -1    0    0  501    0  0.00000000000E+00  0.00000000000E+00  0.19364132254E+04  0.19364132254E+04  0.25500000000E-02 0.  1.
         -2   -1    0    0    0  501 -0.00000000000E+00 -0.00000000000E+00 -0.24213027364E+03  0.24213027366E+03  0.25500000000E-02 0. -1.
    -200001    2    1    2    0    0 -0.20084431322E+03  0.54637368716E+02  0.12009948776E+04  0.13646480486E+04  0.61363826500E+03 0.  0.
   -5000001    2    3    3    0    0  0.17360366663E+03  0.15146242846E+03  0.54054095073E+03  0.59264625369E+03  0.77239641954E+02 0.  0.
     200001    1    1    2    0    0  0.20084431322E+03 -0.54637368716E+02  0.49328807418E+03  0.81389545050E+03  0.61300000000E+03 0. -1.
         13    1    4    4    0    0  0.20382244728E+02  0.29707665892E+02  0.37303770441E+02  0.51861004291E+02  0.10566000000E+00 0.  1.
    -200003    1    4    4    0    0  0.15322142190E+03  0.12175476256E+03  0.50323718029E+03  0.54078524940E+03  0.30000000000E+02 0.  1.
    -200000    1    3    3    0    0 -0.37444797986E+03 -0.96825059741E+02  0.66045392687E+03  0.77200179490E+03  0.10100000000E+03 0. -1.
<mgrwt>
<rscale>  0 0.13694733E+04</rscale>
<asrwt>0</asrwt>
<pdfrwt beam="1">  1        2 0.27663047E+00 0.13694733E+04</pdfrwt>
<pdfrwt beam="2">  1       -2 0.34590038E-01 0.13694733E+04</pdfrwt>
<totfact> 0.66179075E+01</totfact>
</mgrwt>
</event>
<event>
 8    2  0.4306980E-052  0.1780552E+04  0.7818608E-02  0.8716711E-01
         -2   -1    0    0    0  501 -0.00000000000E+00  0.00000000000E+00  0.92576033885E+03  0.92576033886E+03  0.25500000000E-02 0. -1.
          2   -1    0    0  501    0  0.00000000000E+00 -0.00000000000E+00 -0.85615160212E+03  0.85615160213E+03  0.25500000000E-02 0.  1.
    -200001    2    1    2    0    0 -0.59074490738E+03  0.15740114316E+03 -0.17506802985E+03  0.88225067941E+03  0.61152496333E+03 0.  0.
   -5000001    2    3    3    0    0 -0.24146460093E+03  0.35133698382E+03  0.20507770619E+01  0.43371983930E+03  0.79786362311E+02 0.  0.
     200001    1    1    2    0    0  0.59074490738E+03 -0.15740114316E+03  0.24467676658E+03  0.89966126157E+03  0.61300000000E+03 0. -1.
         13    1    4    4    0    0 -0.13884931067E+03  0.14530425183E+03  0.12484199035E+02  0.20136614180E+03  0.10566000000E+00 0.  1.
    -200003    1    4    4    0    0 -0.10261529026E+03  0.20603273200E+03 -0.10433421973E+02  0.23235369750E+03  0.30000000000E+02 0. -1.
    -200000    1    3    3    0    0 -0.34928030645E+03 -0.19393584066E+03 -0.17711880691E+03  0.44853084011E+03  0.10100000000E+03 0.  1.
<mgrwt>
<rscale>  0 0.17805518E+04</rscale>
<asrwt>0</asrwt>
<pdfrwt beam="1">  1        2 0.12230737E+00 0.17805518E+04</pdfrwt>
<pdfrwt beam="2">  1       -2 0.13225148E+00 0.17805518E+04</pdfrwt>
<totfact> 0.13710561E+01</totfact>
</mgrwt>
</event>
<event>
 8    2  0.4306980E-052  0.1293521E+04  0.7818608E-02  0.9034719E-01
          2   -1    0    0  501    0  0.00000000000E+00  0.00000000000E+00  0.60843895885E+03  0.60843895885E+03  0.25500000000E-02 0.  1.
         -2   -1    0    0    0  501 -0.00000000000E+00 -0.00000000000E+00 -0.68749565013E+03  0.68749565014E+03  0.25500000000E-02 0. -1.
    -200001    2    1    2    0    0 -0.18034153067E+03  0.12113936790E+02 -0.13951281346E+03  0.65398931704E+03  0.61283634564E+03 0.  0.
   -5000001    2    3    3    0    0 -0.29736284945E+03  0.19851005914E+03 -0.65843833339E+02  0.40087744038E+03  0.16892721512E+03 0.  0.
     200001    1    1    2    0    0  0.18034153067E+03 -0.12113936790E+02  0.60456122173E+02  0.64194529195E+03  0.61300000000E+03 0.  1.
         13    1    4    4    0    0 -0.17125270676E+03  0.11771766870E+03 -0.11860770781E+03  0.23927544507E+03  0.10566000000E+00 0.  1.
    -200003    1    4    4    0    0 -0.12611014269E+03  0.80792390435E+02  0.52763874467E+02  0.16160199531E+03  0.30000000000E+02 0.  1.
    -200000    1    3    3    0    0  0.11702131878E+03 -0.18639612235E+03 -0.73668980116E+02  0.25311187666E+03  0.10100000000E+03 0.  1.
<mgrwt>
<rscale>  0 0.12935210E+04</rscale>
<asrwt>0</asrwt>
<pdfrwt beam="1">  1        2 0.86919852E-01 0.12935210E+04</pdfrwt>
<pdfrwt beam="2">  1       -2 0.98213664E-01 0.12935210E+04</pdfrwt>
<totfact> 0.45177579E+01</totfact>
</mgrwt>
</event>
<event>
 8    2  0.4306980E-052  0.1522370E+04  0.7818608E-02  0.8869712E-01
          2   -1    0    0  501    0  0.00000000000E+00  0.00000000000E+00  0.46125945059E+03  0.46125945060E+03  0.25500000000E-02 0. -1.
         -2   -1    0    0    0  501 -0.00000000000E+00 -0.00000000000E+00 -0.12561309580E+04  0.12561309580E+04  0.25500000000E-02 0.  1.
    -200001    2    1    2    0    0  0.12016414187E+03  0.22504727089E+03  0.22376370041E+02  0.66441899954E+03  0.61307928516E+03 0.  0.
   -5000001    2    3    3    0    0 -0.10198727803E+03  0.18364917456E+03  0.24428391164E+03  0.33199004057E+03  0.80089533368E+02 0.  0.
     200001    1    1    2    0    0 -0.12016414187E+03 -0.22504727089E+03 -0.81724787749E+03  0.10529714091E+04  0.61300000000E+03 0.  1.
         13    1    4    4    0    0 -0.51882988113E+01  0.69313605363E+02  0.54356517551E+02  0.88237953836E+02  0.10566000000E+00 0.  1.
    -200003    1    4    4    0    0 -0.96798979218E+02  0.11433556919E+03  0.18992739409E+03  0.24375208673E+03  0.30000000000E+02 0.  1.
    -200000    1    3    3    0    0  0.22215141990E+03  0.41398096333E+02 -0.22190754160E+03  0.33242895897E+03  0.10100000000E+03 0.  1.
<mgrwt>
<rscale>  0 0.15223696E+04</rscale>
<asrwt>0</asrwt>
<pdfrwt beam="1">  1        2 0.65894208E-01 0.15223696E+04</pdfrwt>
<pdfrwt beam="2">  1       -2 0.17944728E+00 0.15223696E+04</pdfrwt>
<totfact> 0.13004762E+01</totfact>
</mgrwt>
</event>
<event>
 8    2  0.4306980E-052  0.1736561E+04  0.7818608E-02  0.8740783E-01
          2   -1    0    0  501    0  0.00000000000E+00  0.00000000000E+00  0.30197368675E+04  0.30197368675E+04  0.25500000000E-02 0.  1.
         -2   -1    0    0    0  501 -0.00000000000E+00 -0.00000000000E+00 -0.24966106995E+03  0.24966106996E+03  0.25500000000E-02 0. -1.
    -200001    2    1    2    0    0  0.59569269418E+03  0.15242978109E+03  0.13786425553E+04  0.16292942542E+04  0.61307409631E+03 0.  0.
   -5000001    2    3    3    0    0  0.41100782782E+03  0.36787757449E+03  0.83474815100E+03  0.10075641081E+04  0.11882597394E+03 0.  0.
     200001    1    1    2    0    0 -0.59569269418E+03 -0.15242978109E+03  0.13914332423E+04  0.16401036833E+04  0.61300000000E+03 0.  1.
         13    1    4    4    0    0  0.23891812410E+03  0.15153175426E+03  0.47507645409E+03  0.55293886730E+03  0.10566000000E+00 0.  1.
    -200003    1    4    4    0    0  0.17208970372E+03  0.21634582023E+03  0.35967169691E+03  0.45462524085E+03  0.30000000000E+02 0.  1.
    -200000    1    3    3    0    0  0.18468486636E+03 -0.21544779340E+03  0.54389440426E+03  0.62173014607E+03  0.10100000000E+03 0.  1.
<mgrwt>
<rscale>  0 0.17365607E+04</rscale>
<asrwt>0</asrwt>
<pdfrwt beam="1">  1        2 0.43139095E+00 0.17365607E+04</pdfrwt>
<pdfrwt beam="2">  1       -2 0.35665870E-01 0.17365607E+04</pdfrwt>
<totfact> 0.16202580E+01</totfact>
</mgrwt>
</event>
<event>
 8    2  0.4306980E-052  0.1397912E+04  0.7818608E-02  0.8955331E-01
          2   -1    0    0  501    0  0.00000000000E+00  0.00000000000E+00  0.82359501281E+03  0.82359501282E+03  0.25500000000E-02 0.  1.
         -2   -1    0    0    0  501 -0.00000000000E+00 -0.00000000000E+00 -0.59317915369E+03  0.59317915370E+03  0.25500000000E-02 0. -1.
    -200001    2    1    2    0    0  0.17741719175E+03  0.15055891315E+02  0.40379415843E+03  0.75531171523E+03  0.61297840500E+03 0.  0.
   -5000001    2    3    3    0    0 -0.77773721876E+02 -0.12978575506E+03 -0.70425152981E+02  0.18857856795E+03  0.87801367214E+02 0.  0.
     200001    1    1    2    0    0 -0.17741719175E+03 -0.15055891315E+02 -0.17337829931E+03  0.66146245129E+03  0.61300000000E+03 0.  1.
         13    1    4    4    0    0 -0.12166388171E+02  0.10632019826E+02 -0.12473951903E+02  0.20412532592E+02  0.10566000000E+00 0.  1.
    -200003    1    4    4    0    0 -0.65607333705E+02 -0.14041777489E+03 -0.57951201078E+02  0.16816603535E+03  0.30000000000E+02 0.  1.
    -200000    1    3    3    0    0  0.25519091362E+03  0.14484164638E+03  0.47421931141E+03  0.56673314729E+03  0.10100000000E+03 0.  1.
<mgrwt>
<rscale>  0 0.13979119E+04</rscale>
<asrwt>0</asrwt>
<pdfrwt beam="1">  1        2 0.11765643E+00 0.13979119E+04</pdfrwt>
<pdfrwt beam="2">  1       -2 0.84739879E-01 0.13979119E+04</pdfrwt>
<totfact> 0.43309574E+01</totfact>
</mgrwt>
</event>
<event>
 8    2  0.4306980E-052  0.1367326E+04  0.7818608E-02  0.8977815E-01
          2   -1    0    0  501    0  0.00000000000E+00  0.00000000000E+00  0.16143530125E+04  0.16143530125E+04  0.25500000000E-02 0.  1.
         -2   -1    0    0    0  501 -0.00000000000E+00 -0.00000000000E+00 -0.28952462279E+03  0.28952462281E+03  0.25500000000E-02 0. -1.
    -200001    2    1    2    0    0 -0.24060299442E+03  0.43510533906E+02  0.91164433322E+03  0.11252422701E+04  0.61261065006E+03 0.  0.
   -5000001    2    3    3    0    0 -0.11223214929E+03  0.31426861122E+03  0.50540070815E+03  0.61043755639E+03  0.76441605966E+02 0.  0.
     200001    1    1    2    0    0  0.24060299442E+03 -0.43510533906E+02  0.41318405650E+03  0.77863536526E+03  0.61300000000E+03 0. -1.
         13    1    4    4    0    0 -0.40273571329E+02  0.48769049967E+02  0.12440347109E+03  0.13955864562E+03  0.10566000000E+00 0.  1.
    -200003    1    4    4    0    0 -0.71958577961E+02  0.26549956126E+03  0.38099723705E+03  0.47087891077E+03  0.30000000000E+02 0.  1.
    -200000    1    3    3    0    0 -0.12837084513E+03 -0.27075807732E+03  0.40624362507E+03  0.51480471368E+03  0.10100000000E+03 0.  1.
<mgrwt>
<rscale>  0 0.13673258E+04</rscale>
<asrwt>0</asrwt>
<pdfrwt beam="1">  1        2 0.23062187E+00 0.13673258E+04</pdfrwt>
<pdfrwt beam="2">  1       -2 0.41360659E-01 0.13673258E+04</pdfrwt>
<totfact> 0.68732180E+01</totfact>
</mgrwt>
</event>
<event>
 8    2  0.4306980E-052  0.1428727E+04  0.7818608E-02  0.8933283E-01
          2   -1    0    0  501    0  0.00000000000E+00  0.00000000000E+00  0.20567873138E+04  0.20567873138E+04  0.25500000000E-02 0. -1.
         -2   -1    0    0    0  501 -0.00000000000E+00 -0.00000000000E+00 -0.24811283338E+03  0.24811283339E+03  0.25500000000E-02 0.  1.
    -200001    2    1    2    0    0 -0.10023499157E+03  0.32516502589E+03  0.11269005096E+04  0.13269614503E+04  0.61248884429E+03 0.  0.
   -5000001    2    3    3    0    0 -0.31617934723E+03  0.32130996679E+03  0.70630850179E+03  0.84348915194E+03  0.96916331791E+02 0.  0.
     200001    1    1    2    0    0  0.10023499157E+03 -0.32516502589E+03  0.68177397075E+03  0.97793869684E+03  0.61300000000E+03 0.  1.
         13    1    4    4    0    0 -0.25031881964E+02  0.51090993111E+02  0.13990827383E+03  0.15103384039E+03  0.10566000000E+00 0.  1.
    -200003    1    4    4    0    0 -0.29114746526E+03  0.27021897368E+03  0.56640022796E+03  0.69245531155E+03  0.30000000000E+02 0.  1.
    -200000    1    3    3    0    0  0.21594435566E+03  0.38550590934E+01  0.42059200784E+03  0.48347229836E+03  0.10100000000E+03 0. -1.
<mgrwt>
<rscale>  0 0.14287272E+04</rscale>
<asrwt>0</asrwt>
<pdfrwt beam="1">  1        2 0.29382675E+00 0.14287272E+04</pdfrwt>
<pdfrwt beam="2">  1       -2 0.35444691E-01 0.14287272E+04</pdfrwt>
<totfact> 0.54537650E+01</totfact>
</mgrwt>
</event>
<event>
 8    2  0.4306980E-052  0.1599741E+04  0.7818608E-02  0.8820707E-01
         -2   -1    0    0    0  501 -0.00000000000E+00  0.00000000000E+00  0.31869222870E+03  0.31869222871E+03  0.25500000000E-02 0. -1.
          2   -1    0    0  501    0  0.00000000000E+00 -0.00000000000E+00 -0.20075561912E+04  0.20075561912E+04  0.25500000000E-02 0.  1.
    -200001    2    1    2    0    0 -0.15018629574E+03  0.30382083197E+03 -0.14064849161E+04  0.15710200126E+04  0.61240594331E+03 0.  0.
   -5000001    2    3    3    0    0 -0.26729956007E+03 -0.58317644832E+02 -0.70103930237E+03  0.76311264971E+03  0.12662863096E+03 0.  0.
     200001    1    1    2    0    0  0.15018629574E+03 -0.30382083197E+03 -0.28237904639E+03  0.75522840731E+03  0.61300000000E+03 0. -1.
         13    1    4    4    0    0  0.98556758756E+01 -0.32415475548E+01 -0.54525829620E+01  0.11721083675E+02  0.10566000000E+00 0.  1.
    -200003    1    4    4    0    0 -0.27715523595E+03 -0.55076097278E+02 -0.69558671940E+03  0.75139156604E+03  0.30000000000E+02 0.  1.
    -200000    1    3    3    0    0  0.11711326433E+03  0.36213847680E+03 -0.70544561369E+03  0.80790736284E+03  0.10100000000E+03 0.  1.
<mgrwt>
<rscale>  0 0.15997407E+04</rscale>
<asrwt>0</asrwt>
<pdfrwt beam="1">  1        2 0.28679374E+00 0.15997407E+04</pdfrwt>
<pdfrwt beam="2">  1       -2 0.45527462E-01 0.15997407E+04</pdfrwt>
<totfact> 0.34949095E+01</totfact>
</mgrwt>
</event>
<event>
 8    2  0.4306980E-052  0.1847272E+04  0.7818608E-02  0.8681557E-01
          2   -1    0    0  501    0  0.00000000000E+00  0.00000000000E+00  0.89412091869E+03  0.89412091869E+03  0.25500000000E-02 0.  1.
         -2   -1    0    0    0  501 -0.00000000000E+00 -0.00000000000E+00 -0.95412549907E+03  0.95412549908E+03  0.25500000000E-02 0. -1.
    -200001    2    1    2    0    0  0.63134474091E+03 -0.18956916115E+03 -0.23636400185E+03  0.93096549337E+03  0.61342983277E+03 0.  0.
   -5000001    2    3    3    0    0  0.57487318075E+01 -0.14536492191E+03 -0.18953202802E+02  0.25955441443E+03  0.21411506653E+03 0.  0.
     200001    1    1    2    0    0 -0.63134474091E+03  0.18956916115E+03  0.17635942146E+03  0.91728092440E+03  0.61300000000E+03 0.  1.
         13    1    4    4    0    0 -0.54848415694E+01 -0.15006731869E+03  0.69419772523E+02  0.16543699589E+03  0.10566000000E+00 0.  1.
    -200003    1    4    4    0    0  0.11233573377E+02  0.47023967834E+01 -0.88372975324E+02  0.94117418547E+02  0.30000000000E+02 0.  1.
    -200000    1    3    3    0    0  0.62559600910E+03 -0.44204239235E+02 -0.21741079905E+03  0.67141107893E+03  0.10100000000E+03 0. -1.
<mgrwt>
<rscale>  0 0.18472721E+04</rscale>
<asrwt>0</asrwt>
<pdfrwt beam="1">  1        2 0.12773156E+00 0.18472721E+04</pdfrwt>
<pdfrwt beam="2">  1       -2 0.13630364E+00 0.18472721E+04</pdfrwt>
<totfact> 0.11914993E+01</totfact>
</mgrwt>
</event>
<event>
 8    2  0.4306980E-052  0.1540920E+04  0.7818608E-02  0.8857688E-01
          2   -1    0    0  501    0  0.00000000000E+00  0.00000000000E+00  0.19962537125E+04  0.19962537125E+04  0.25500000000E-02 0.  1.
         -2   -1    0    0    0  501 -0.00000000000E+00 -0.00000000000E+00 -0.29736148213E+03  0.29736148214E+03  0.25500000000E-02 0. -1.
    -200001    2    1    2    0    0  0.41206511070E+03 -0.16868539022E+03  0.10578251910E+04  0.13011493941E+04  0.61297895123E+03 0.  0.
   -5000001    2    3    3    0    0  0.18044981336E+03 -0.33378763824E+03  0.84046783859E+03  0.92919561078E+03  0.11420145706E+03 0.  0.
     200001    1    1    2    0    0 -0.41206511070E+03  0.16868539022E+03  0.64106703935E+03  0.99246580055E+03  0.61300000000E+03 0.  1.
         13    1    4    4    0    0  0.14509698091E+03 -0.30468100303E+03  0.67061632574E+03  0.75073957867E+03  0.10566000000E+00 0.  1.
    -200003    1    4    4    0    0  0.35352832445E+02 -0.29106635216E+02  0.16985151286E+03  0.17845603211E+03  0.30000000000E+02 0.  1.
    -200000    1    3    3    0    0  0.23161529734E+03  0.16510224803E+03  0.21735735243E+03  0.37195378331E+03  0.10100000000E+03 0.  1.
<mgrwt>
<rscale>  0 0.15409205E+04</rscale>
<asrwt>0</asrwt>
<pdfrwt beam="1">  1        2 0.28517910E+00 0.15409205E+04</pdfrwt>
<pdfrwt beam="2">  1       -2 0.42480212E-01 0.15409205E+04</pdfrwt>
<totfact> 0.40839873E+01</totfact>
</mgrwt>
</event>
<event>
 8    2  0.4306980E-052  0.1541479E+04  0.7818608E-02  0.8857329E-01
          2   -1    0    0  501    0  0.00000000000E+00  0.00000000000E+00  0.15649893035E+04  0.15649893035E+04  0.25500000000E-02 0.  1.
         -2   -1    0    0    0  501 -0.00000000000E+00 -0.00000000000E+00 -0.37958024961E+03  0.37958024962E+03  0.25500000000E-02 0. -1.
    -200001    2    1    2    0    0  0.27775187118E+03  0.82118856315E+02  0.13006375610E+03  0.69021222521E+03  0.61285130878E+03 0.  0.
   -5000001    2    3    3    0    0 -0.11713586385E+03  0.20419816126E+03  0.57499963734E+02  0.25858022462E+03  0.90220768507E+02 0.  0.
     200001    1    1    2    0    0 -0.27775187118E+03 -0.82118856315E+02  0.10553452978E+04  0.12543573279E+04  0.61300000000E+03 0.  1.
         13    1    4    4    0    0 -0.51415893001E+01 -0.72376048181E+00  0.19383251666E+02  0.20066922508E+02  0.10566000000E+00 0.  1.
    -200003    1    4    4    0    0 -0.11199427455E+03  0.20492192175E+03  0.38116712068E+02  0.23851330211E+03  0.30000000000E+02 0.  1.
    -200000    1    3    3    0    0  0.39488773503E+03 -0.12207930495E+03  0.72563792371E+02  0.43163200059E+03  0.10100000000E+03 0. -1.
<mgrwt>
<rscale>  0 0.15414786E+04</rscale>
<asrwt>0</asrwt>
<pdfrwt beam="1">  1        2 0.22356990E+00 0.15414786E+04</pdfrwt>
<pdfrwt beam="2">  1       -2 0.54225751E-01 0.15414786E+04</pdfrwt>
<totfact> 0.41706907E+01</totfact>
</mgrwt>
</event>
<event>
 8    2  0.4306980E-052  0.1474534E+04  0.7818608E-02  0.8901566E-01
          2   -1    0    0  501    0  0.00000000000E+00  0.00000000000E+00  0.55402902403E+03  0.55402902403E+03  0.25500000000E-02 0.  1.
         -2   -1    0    0    0  501 -0.00000000000E+00 -0.00000000000E+00 -0.98110884523E+03  0.98110884523E+03  0.25500000000E-02 0. -1.
    -200001    2    1    2    0    0 -0.60817763933E+01 -0.10012054181E+03 -0.63219055366E+03  0.88099681150E+03  0.60533410183E+03 0.  0.
   -5000001    2    3    3    0    0 -0.22705657261E+03  0.12833579592E+03 -0.27043924562E+03  0.38897326768E+03  0.10068790253E+03 0.  0.
     200001    1    1    2    0    0  0.60817763933E+01  0.10012054181E+03  0.20511073245E+03  0.65414105777E+03  0.61300000000E+03 0.  1.
         13    1    4    4    0    0 -0.15901467332E+02  0.34040446629E+02 -0.78202277290E+02  0.86759529778E+02  0.10566000000E+00 0.  1.
    -200003    1    4    4    0    0 -0.21115510528E+03  0.94295349290E+02 -0.19223696833E+03  0.30221373790E+03  0.30000000000E+02 0.  1.
    -200000    1    3    3    0    0  0.22097479621E+03 -0.22845633773E+03 -0.36175130803E+03  0.49202354382E+03  0.10100000000E+03 0.  1.
<mgrwt>
<rscale>  0 0.14745342E+04</rscale>
<asrwt>0</asrwt>
<pdfrwt beam="1">  1        2 0.79147004E-01 0.14745342E+04</pdfrwt>
<pdfrwt beam="2">  1       -2 0.14015841E+00 0.14745342E+04</pdfrwt>
<totfact> 0.20692649E+01</totfact>
</mgrwt>
</event>
<event>
 8    2  0.4306980E-052  0.1609040E+04  0.7818608E-02  0.8815014E-01
          2   -1    0    0  501    0  0.00000000000E+00  0.00000000000E+00  0.18060753828E+04  0.18060753828E+04  0.25500000000E-02 0.  1.
         -2   -1    0    0    0  501 -0.00000000000E+00 -0.00000000000E+00 -0.35837498003E+03  0.35837498004E+03  0.25500000000E-02 0. -1.
    -200001    2    1    2    0    0 -0.34926999451E+03 -0.38271125818E+03  0.80264237882E+03  0.11347289003E+04  0.61230503238E+03 0.  0.
   -5000001    2    3    3    0    0 -0.29231548452E+03 -0.44328506956E+03  0.84008504472E+03  0.99865555219E+03  0.98081772938E+02 0.  0.
     200001    1    1    2    0    0  0.34926999451E+03  0.38271125818E+03  0.64505802398E+03  0.10297214626E+04  0.61300000000E+03 0.  1.
         13    1    4    4    0    0 -0.11135153587E+03 -0.15489741736E+03  0.38339398883E+03  0.42823280618E+03  0.10566000000E+00 0.  1.
    -200003    1    4    4    0    0 -0.18096394864E+03 -0.28838765220E+03  0.45669105588E+03  0.57042274602E+03  0.30000000000E+02 0.  1.
    -200000    1    3    3    0    0 -0.56954509992E+02  0.60573811384E+02 -0.37442665895E+02  0.13607334810E+03  0.10100000000E+03 0. -1.
<mgrwt>
<rscale>  0 0.16090397E+04</rscale>
<asrwt>0</asrwt>
<pdfrwt beam="1">  1        2 0.25801077E+00 0.16090397E+04</pdfrwt>
<pdfrwt beam="2">  1       -2 0.51196425E-01 0.16090397E+04</pdfrwt>
<totfact> 0.34971449E+01</totfact>
</mgrwt>
</event>
<event>
 8    2  0.4306980E-052  0.2111423E+04  0.7818608E-02  0.8556228E-01
         -2   -1    0    0    0  501 -0.00000000000E+00  0.00000000000E+00  0.48070246209E+03  0.48070246210E+03  0.25500000000E-02 0. -1.
          2   -1    0    0  501    0  0.00000000000E+00 -0.00000000000E+00 -0.23185380443E+04  0.23185380443E+04  0.25500000000E-02 0.  1.
    -200001    2    1    2    0    0  0.13594328130E+03  0.79479173484E+03 -0.52406644400E+03  0.11403454446E+04  0.61283571845E+03 0.  0.
   -5000001    2    3    3    0    0 -0.18255415828E+03  0.18913058178E+03 -0.31846659423E+03  0.41872341780E+03  0.69368085614E+02 0.  0.
     200001    1    1    2    0    0 -0.13594328130E+03 -0.79479173484E+03 -0.13137691382E+04  0.16588950618E+04  0.61300000000E+03 0.  1.
         13    1    4    4    0    0 -0.26139116085E+02  0.64598650651E+02 -0.81091794454E+02  0.10692113611E+03  0.10566000000E+00 0.  1.
    -200003    1    4    4    0    0 -0.15641504220E+03  0.12453193113E+03 -0.23737479978E+03  0.31180228169E+03  0.30000000000E+02 0.  1.
    -200000    1    3    3    0    0  0.31849743959E+03  0.60566115306E+03 -0.20559984977E+03  0.72162202681E+03  0.10100000000E+03 0.  1.
<mgrwt>
<rscale>  0 0.21114232E+04</rscale>
<asrwt>0</asrwt>
<pdfrwt beam="1">  1        2 0.33121971E+00 0.21114232E+04</pdfrwt>
<pdfrwt beam="2">  1       -2 0.68671782E-01 0.21114232E+04</pdfrwt>
<totfact> 0.98338336E+00</totfact>
</mgrwt>
</event>
<event>
 8    2  0.4306980E-052  0.2164430E+04  0.7818608E-02  0.8533381E-01
         -2   -1    0    0    0  501 -0.00000000000E+00  0.00000000000E+00  0.71479567569E+03  0.71479567570E+03  0.25500000000E-02 0. -1.
          2   -1    0    0  501    0  0.00000000000E+00 -0.00000000000E+00 -0.16384955767E+04  0.16384955767E+04  0.25500000000E-02 0.  1.
    -200001    2    1    2    0    0 -0.52347758868E+03  0.43533944267E+03 -0.10881435193E+04  0.14225066802E+04  0.61312292439E+03 0.  0.
   -5000001    2    3    3    0    0 -0.23188876362E+03  0.43274350942E+03 -0.30824212694E+03  0.58377074823E+03  0.68816669737E+02 0.  0.
     200001    1    1    2    0    0  0.52347758868E+03 -0.43533944267E+03  0.16444361832E+03  0.93078457218E+03  0.61300000000E+03 0. -1.
         13    1    4    4    0    0 -0.26272620748E+02  0.51574274970E+02 -0.61362451580E+02  0.84353530261E+02  0.10566000000E+00 0.  1.
    -200003    1    4    4    0    0 -0.20561614287E+03  0.38116923445E+03 -0.24687967536E+03  0.49941721797E+03  0.30000000000E+02 0.  1.
    -200000    1    3    3    0    0 -0.29158882507E+03  0.25959332591E+01 -0.77990139236E+03  0.83873593197E+03  0.10100000000E+03 0.  1.
<mgrwt>
<rscale>  0 0.21644302E+04</rscale>
<asrwt>0</asrwt>
<pdfrwt beam="1">  1        2 0.23407080E+00 0.21644302E+04</pdfrwt>
<pdfrwt beam="2">  1       -2 0.10211367E+00 0.21644302E+04</pdfrwt>
<totfact> 0.89410848E+00</totfact>
</mgrwt>
</event>
<event>
 8    2  0.4306980E-052  0.2854522E+04  0.7818608E-02  0.8286539E-01
         -2   -1    0    0    0  501 -0.00000000000E+00  0.00000000000E+00  0.17010829373E+04  0.17010829373E+04  0.25500000000E-02 0. -1.
          2   -1    0    0  501    0  0.00000000000E+00 -0.00000000000E+00 -0.11975160370E+04  0.11975160370E+04  0.25500000000E-02 0.  1.
    -200001    2    1    2    0    0  0.11170430991E+03 -0.12087865379E+04 -0.18716917003E+03  0.13733029159E+04  0.61423599163E+03 0.  0.
   -5000001    2    3    3    0    0 -0.66067762717E+02  0.99106366698E+01  0.26399832314E+02  0.11925410026E+03  0.95191487505E+02 0.  0.
     200001    1    1    2    0    0 -0.11170430991E+03  0.12087865379E+04  0.69073607033E+03  0.15252960585E+04  0.61300000000E+03 0. -1.
         13    1    4    4    0    0 -0.59784375649E+02 -0.23322007234E+02  0.35205500914E+02  0.73195123142E+02  0.10566000000E+00 0.  1.
    -200003    1    4    4    0    0 -0.62833870687E+01  0.33232643903E+02 -0.88056686000E+01  0.46058977120E+02  0.30000000000E+02 0.  1.
    -200000    1    3    3    0    0  0.17777207262E+03 -0.12186971746E+04 -0.21356900234E+03  0.12540488156E+04  0.10100000000E+03 0.  1.
<mgrwt>
<rscale>  0 0.28545221E+04</rscale>
<asrwt>0</asrwt>
<pdfrwt beam="1">  1        2 0.17107372E+00 0.28545221E+04</pdfrwt>
<pdfrwt beam="2">  1       -2 0.24301185E+00 0.28545221E+04</pdfrwt>
<totfact> 0.13267642E+00</totfact>
</mgrwt>
</event>
<event>
 8    2  0.4306980E-052  0.1310293E+04  0.7818608E-02  0.9021442E-01
          2   -1    0    0  501    0  0.00000000000E+00  0.00000000000E+00  0.43612393275E+03  0.43612393276E+03  0.25500000000E-02 0.  1.
         -2   -1    0    0    0  501 -0.00000000000E+00 -0.00000000000E+00 -0.98416309339E+03  0.98416309339E+03  0.25500000000E-02 0. -1.
    -200001    2    1    2    0    0  0.98871773579E+02  0.12441375904E+03 -0.92026638248E+02  0.63992119423E+03  0.61300556411E+03 0.  0.
   -5000001    2    3    3    0    0 -0.34150160947E+02 -0.17810097045E+03 -0.19962191006E+03  0.27799891094E+03  0.67441073104E+02 0.  0.
     200001    1    1    2    0    0 -0.98871773579E+02 -0.12441375904E+03 -0.45601252239E+03  0.78036583192E+03  0.61300000000E+03 0. -1.
         13    1    4    4    0    0  0.10801580119E+02 -0.59442667647E+02 -0.85701860050E+02  0.10485668720E+03  0.10566000000E+00 0.  1.
    -200003    1    4    4    0    0 -0.44951741067E+02 -0.11865830280E+03 -0.11392005001E+03  0.17314222374E+03  0.30000000000E+02 0.  1.
    -200000    1    3    3    0    0  0.13302193453E+03  0.30251472949E+03  0.10759527181E+03  0.36192228329E+03  0.10100000000E+03 0.  1.
<mgrwt>
<rscale>  0 0.13102932E+04</rscale>
<asrwt>0</asrwt>
<pdfrwt beam="1">  1        2 0.62303419E-01 0.13102932E+04</pdfrwt>
<pdfrwt beam="2">  1       -2 0.14059473E+00 0.13102932E+04</pdfrwt>
<totfact> 0.27315424E+01</totfact>
</mgrwt>
</event>
<event>
 8    2  0.4306980E-052  0.1280518E+04  0.7818608E-02  0.9045158E-01
         -2   -1    0    0    0  501 -0.00000000000E+00  0.00000000000E+00  0.90381513832E+02  0.90381513868E+02  0.25500000000E-02 0. -1.
          2   -1    0    0  501    0  0.00000000000E+00 -0.00000000000E+00 -0.45355718106E+04  0.45355718106E+04  0.25500000000E-02 0.  1.
    -200001    2    1    2    0    0 -0.16877078509E+03  0.68781385158E+02 -0.23289778944E+04  0.24152207787E+04  0.61313858187E+03 0.  0.
   -5000001    2    3    3    0    0 -0.60483936318E+02 -0.19027864678E+03 -0.17522974713E+04  0.17659138774E+04  0.89672316814E+02 0.  0.
     200001    1    1    2    0    0  0.16877078509E+03 -0.68781385158E+02 -0.21162124024E+04  0.22107325458E+04  0.61300000000E+03 0. -1.
         13    1    4    4    0    0 -0.39555878429E+02 -0.15157360705E+03 -0.14935682876E+04  0.15017607888E+04  0.10566000000E+00 0.  1.
    -200003    1    4    4    0    0 -0.20928057889E+02 -0.38705039732E+02 -0.25872918368E+03  0.26415308856E+03  0.30000000000E+02 0. -1.
    -200000    1    3    3    0    0 -0.10828684877E+03  0.25906003194E+03 -0.57668042307E+03  0.64930690133E+03  0.10100000000E+03 0. -1.
<mgrwt>
<rscale>  0 0.12805184E+04</rscale>
<asrwt>0</asrwt>
<pdfrwt beam="1">  1        2 0.64793869E+00 0.12805184E+04</pdfrwt>
<pdfrwt beam="2">  1       -2 0.12911648E-01 0.12805184E+04</pdfrwt>
<totfact> 0.10516326E+01</totfact>
</mgrwt>
</event>
<event>
 8    2  0.4306980E-052  0.1475233E+04  0.7818608E-02  0.8901092E-01
          2   -1    0    0  501    0  0.00000000000E+00  0.00000000000E+00  0.13190129237E+04  0.13190129237E+04  0.25500000000E-02 0.  1.
         -2   -1    0    0    0  501 -0.00000000000E+00 -0.00000000000E+00 -0.41248898298E+03  0.41248898299E+03  0.25500000000E-02 0. -1.
    -200001    2    1    2    0    0  0.32084033272E+03 -0.21625325390E+03  0.29448873150E+03  0.78278694094E+03  0.61345561617E+03 0.  0.
   -5000001    2    3    3    0    0  0.42742423961E+02 -0.34103040108E+03  0.95592090690E+01  0.35349261758E+03  0.82079247937E+02 0.  0.
     200001    1    1    2    0    0 -0.32084033272E+03  0.21625325390E+03  0.61203520926E+03  0.94871496578E+03  0.61300000000E+03 0.  1.
         13    1    4    4    0    0  0.20110950968E+02 -0.28611346765E+03  0.79414766945E+01  0.28692933788E+03  0.10566000000E+00 0.  1.
    -200003    1    4    4    0    0  0.22631472993E+02 -0.54916933432E+02  0.16177323745E+01  0.66563279708E+02  0.30000000000E+02 0. -1.
    -200000    1    3    3    0    0  0.27809790876E+03  0.12477714718E+03  0.28492952243E+03  0.42929432336E+03  0.10100000000E+03 0.  1.
<mgrwt>
<rscale>  0 0.14752333E+04</rscale>
<asrwt>0</asrwt>
<pdfrwt beam="1">  1        2 0.18843042E+00 0.14752333E+04</pdfrwt>
<pdfrwt beam="2">  1       -2 0.58926998E-01 0.14752333E+04</pdfrwt>
<totfact> 0.47791015E+01</totfact>
</mgrwt>
</event>
<event>
 8    2  0.4306980E-052  0.1460304E+04  0.7818608E-02  0.8911288E-01
         -2   -1    0    0    0  501 -0.00000000000E+00  0.00000000000E+00  0.18756203337E+03  0.18756203338E+03  0.25500000000E-02 0. -1.
          2   -1    0    0  501    0  0.00000000000E+00 -0.00000000000E+00 -0.28423765830E+04  0.28423765830E+04  0.25500000000E-02 0.  1.
    -200001    2    1    2    0    0  0.94784984906E+02 -0.21791105272E+03 -0.66829491283E+03  0.93745237087E+03  0.61296772907E+03 0.  0.
   -5000001    2    3    3    0    0  0.15672217482E+03 -0.36840282170E+03 -0.61817445768E+03  0.73946992708E+03  0.66284491517E+02 0.  0.
     200001    1    1    2    0    0 -0.94784984906E+02  0.21791105272E+03 -0.19865196368E+04  0.20924862455E+04  0.61300000000E+03 0.  1.
         13    1    4    4    0    0  0.76437317566E+02 -0.23046059574E+03 -0.35058644008E+03  0.42645704688E+03  0.10566000000E+00 0.  1.
    -200003    1    4    4    0    0  0.80284857256E+02 -0.13794222596E+03 -0.26758801760E+03  0.31301288020E+03  0.30000000000E+02 0.  1.
    -200000    1    3    3    0    0 -0.61937189915E+02  0.15049176897E+03 -0.50120455145E+02  0.19798244379E+03  0.10100000000E+03 0. -1.
<mgrwt>
<rscale>  0 0.14603040E+04</rscale>
<asrwt>0</asrwt>
<pdfrwt beam="1">  1        2 0.40605377E+00 0.14603040E+04</pdfrwt>
<pdfrwt beam="2">  1       -2 0.26794578E-01 0.14603040E+04</pdfrwt>
<totfact> 0.35529366E+01</totfact>
</mgrwt>
</event>
<event>
 8    2  0.4306980E-052  0.1439079E+04  0.7818608E-02  0.8926007E-01
         -2   -1    0    0    0  501 -0.00000000000E+00  0.00000000000E+00  0.20540196973E+03  0.20540196974E+03  0.25500000000E-02 0. -1.
          2   -1    0    0  501    0  0.00000000000E+00 -0.00000000000E+00 -0.25206055257E+04  0.25206055257E+04  0.25500000000E-02 0.  1.
    -200001    2    1    2    0    0  0.15301656575E+03  0.22187346416E+03 -0.65757939917E+03  0.93823548852E+03  0.61256286389E+03 0.  0.
   -5000001    2    3    3    0    0  0.34024948744E+03  0.38621842128E+02 -0.20510537608E+03  0.40572157742E+03  0.72666517039E+02 0.  0.
     200001    1    1    2    0    0 -0.15301656575E+03 -0.22187346416E+03 -0.16576241568E+04  0.17877720069E+04  0.61300000000E+03 0.  1.
         13    1    4    4    0    0  0.50170862116E+02 -0.60873941704E+00 -0.62180493195E+01  0.50558493555E+02  0.10566000000E+00 0.  1.
    -200003    1    4    4    0    0  0.29007862532E+03  0.39230581545E+02 -0.19888732676E+03  0.35516308387E+03  0.30000000000E+02 0.  1.
    -200000    1    3    3    0    0 -0.18723292169E+03  0.18325162204E+03 -0.45247402309E+03  0.53251391110E+03  0.10100000000E+03 0. -1.
<mgrwt>
<rscale>  0 0.14390793E+04</rscale>
<asrwt>0</asrwt>
<pdfrwt beam="1">  1        2 0.36008649E+00 0.14390793E+04</pdfrwt>
<pdfrwt beam="2">  1       -2 0.29343140E-01 0.14390793E+04</pdfrwt>
<totfact> 0.44732816E+01</totfact>
</mgrwt>
</event>
<event>
 8    2  0.4306980E-052  0.2164477E+04  0.7818608E-02  0.8533361E-01
          2   -1    0    0  501    0  0.00000000000E+00  0.00000000000E+00  0.17882828545E+04  0.17882828545E+04  0.25500000000E-02 0.  1.
         -2   -1    0    0    0  501 -0.00000000000E+00 -0.00000000000E+00 -0.65495271222E+03  0.65495271223E+03  0.25500000000E-02 0. -1.
    -200001    2    1    2    0    0  0.74033760684E+02  0.71817030545E+03 -0.25201328960E+02  0.94683530103E+03  0.61205587566E+03 0.  0.
   -5000001    2    3    3    0    0  0.50301431882E+02  0.90244322771E+02 -0.20357595657E+03  0.28587178393E+03  0.17206171833E+03 0.  0.
     200001    1    1    2    0    0 -0.74033760684E+02 -0.71817030545E+03  0.11585314713E+04  0.14964002657E+04  0.61300000000E+03 0.  1.
         13    1    4    4    0    0 -0.18741378671E+02 -0.41266318918E+02 -0.72572218733E+02  0.85562178837E+02  0.10566000000E+00 0.  1.
    -200003    1    4    4    0    0  0.69042810554E+02  0.13151064169E+03 -0.13100373783E+03  0.20030960509E+03  0.30000000000E+02 0.  1.
    -200000    1    3    3    0    0  0.23732328801E+02  0.62792598268E+03  0.17837462761E+03  0.66096351710E+03  0.10100000000E+03 0.  1.
<mgrwt>
<rscale>  0 0.21644775E+04</rscale>
<asrwt>0</asrwt>
<pdfrwt beam="1">  1        2 0.25546898E+00 0.21644775E+04</pdfrwt>
<pdfrwt beam="2">  1       -2 0.93564673E-01 0.21644775E+04</pdfrwt>
<totfact> 0.91796144E+00</totfact>
</mgrwt>
</event>
<event>
 8    2  0.4306980E-052  0.1437788E+04  0.7818608E-02  0.8926911E-01
         -2   -1    0    0    0  501 -0.00000000000E+00  0.00000000000E+00  0.27563603570E+03  0.27563603571E+03  0.25500000000E-02 0. -1.
          2   -1    0    0  501    0  0.00000000000E+00 -0.00000000000E+00 -0.18749682738E+04  0.18749682738E+04  0.25500000000E-02 0.  1.
    -200001    2    1    2    0    0 -0.19807509973E+03 -0.11262672469E+03 -0.12456961234E+04  0.14071353956E+04  0.61347588839E+03 0.  0.
   -5000001    2    3    3    0    0  0.13560764761E+03  0.46044316254E+02 -0.38093180141E+03  0.46133467263E+03  0.21728122261E+03 0.  0.
     200001    1    1    2    0    0  0.19807509973E+03  0.11262672469E+03 -0.35363611474E+03  0.74346891387E+03  0.61300000000E+03 0. -1.
         13    1    4    4    0    0 -0.32027693095E+02  0.67155813079E+02 -0.19299529122E+03  0.20684020391E+03  0.10566000000E+00 0.  1.
    -200003    1    4    4    0    0  0.16763534070E+03 -0.21111496825E+02 -0.18793651019E+03  0.25449446873E+03  0.30000000000E+02 0.  1.
    -200000    1    3    3    0    0 -0.33368274734E+03 -0.15867104094E+03 -0.86476432197E+03  0.94580072301E+03  0.10100000000E+03 0.  1.
<mgrwt>
<rscale>  0 0.14377883E+04</rscale>
<asrwt>0</asrwt>
<pdfrwt beam="1">  1        2 0.26785260E+00 0.14377883E+04</pdfrwt>
<pdfrwt beam="2">  1       -2 0.39376577E-01 0.14377883E+04</pdfrwt>
<totfact> 0.55155031E+01</totfact>
</mgrwt>
</event>
<event>
 8    2  0.4306980E-052  0.1325733E+04  0.7818608E-02  0.9009404E-01
         -2   -1    0    0    0  501 -0.00000000000E+00  0.00000000000E+00  0.37353066757E+03  0.37353066758E+03  0.25500000000E-02 0. -1.
          2   -1    0    0  501    0  0.00000000000E+00 -0.00000000000E+00 -0.11763211444E+04  0.11763211444E+04  0.25500000000E-02 0.  1.
    -200001    2    1    2    0    0 -0.22288763344E+03 -0.11098274254E+03 -0.35179403264E+03  0.74912535496E+03  0.61272643958E+03 0.  0.
   -5000001    2    3    3    0    0 -0.13836562930E+03  0.19904811277E+03 -0.24209695519E+03  0.39486902230E+03  0.19632985125E+03 0.  0.
     200001    1    1    2    0    0  0.22288763344E+03  0.11098274254E+03 -0.45099644417E+03  0.80072645700E+03  0.61300000000E+03 0.  1.
         13    1    4    4    0    0 -0.16348710338E+02  0.18351998591E+03 -0.15956579260E+03  0.24373780767E+03  0.10566000000E+00 0.  1.
    -200003    1    4    4    0    0 -0.12201691896E+03  0.15528126866E+02 -0.82531162599E+02  0.15113121463E+03  0.30000000000E+02 0.  1.
    -200000    1    3    3    0    0 -0.84522004140E+02 -0.31003085531E+03 -0.10969707745E+03  0.35425633266E+03  0.10100000000E+03 0.  1.
<mgrwt>
<rscale>  0 0.13257330E+04</rscale>
<asrwt>0</asrwt>
<pdfrwt beam="1">  1        2 0.16804588E+00 0.13257330E+04</pdfrwt>
<pdfrwt beam="2">  1       -2 0.53361525E-01 0.13257330E+04</pdfrwt>
<totfact> 0.71466368E+01</totfact>
</mgrwt>
</event>
<event>
 8    2  0.4306980E-052  0.1536587E+04  0.7818608E-02  0.8860481E-01
          2   -1    0    0  501    0  0.00000000000E+00  0.00000000000E+00  0.20264422772E+04  0.20264422772E+04  0.25500000000E-02 0.  1.
         -2   -1    0    0    0  501 -0.00000000000E+00 -0.00000000000E+00 -0.29128615381E+03  0.29128615382E+03  0.25500000000E-02 0. -1.
    -200001    2    1    2    0    0 -0.12314959724E+03  0.43889999804E+03  0.75300559006E+03  0.10734665206E+04  0.61442161472E+03 0.  0.
   -5000001    2    3    3    0    0 -0.27375473566E+03  0.41044424748E+03  0.29417273130E+03  0.57928008845E+03  0.74977926387E+02 0.  0.
     200001    1    1    2    0    0  0.12314959724E+03 -0.43889999804E+03  0.98215053335E+03  0.12442619104E+04  0.61300000000E+03 0.  1.
         13    1    4    4    0    0 -0.13886624969E+03  0.15610092002E+03  0.13786158310E+03  0.25031412224E+03  0.10566000000E+00 0.  1.
    -200003    1    4    4    0    0 -0.13488848597E+03  0.25434332745E+03  0.15631114820E+03  0.32896596620E+03  0.30000000000E+02 0.  1.
    -200000    1    3    3    0    0  0.15060513842E+03  0.28455750566E+02  0.45883285876E+03  0.49418643217E+03  0.10100000000E+03 0. -1.
<mgrwt>
<rscale>  0 0.15365866E+04</rscale>
<asrwt>0</asrwt>
<pdfrwt beam="1">  1        2 0.28949175E+00 0.15365866E+04</pdfrwt>
<pdfrwt beam="2">  1       -2 0.41612308E-01 0.15365866E+04</pdfrwt>
<totfact> 0.41058017E+01</totfact>
</mgrwt>
</event>
<event>
 8    2  0.4306980E-052  0.2007185E+04  0.7818608E-02  0.8603269E-01
         -2   -1    0    0    0  501 -0.00000000000E+00  0.00000000000E+00  0.85750444875E+03  0.85750444875E+03  0.25500000000E-02 0. -1.
          2   -1    0    0  501    0  0.00000000000E+00 -0.00000000000E+00 -0.11745687199E+04  0.11745687200E+04  0.25500000000E-02 0.  1.
    -200001    2    1    2    0    0 -0.29926438693E+02  0.17235792272E+03 -0.94327974435E+03  0.11384750129E+04  0.61298110379E+03 0.  0.
   -5000001    2    3    3    0    0 -0.27606854639E+03  0.19863239171E+03 -0.55396320548E+03  0.66619897883E+03  0.14586698402E+03 0.  0.
     200001    1    1    2    0    0  0.29926438693E+02 -0.17235792272E+03  0.62621547316E+03  0.89359815581E+03  0.61300000000E+03 0. -1.
         13    1    4    4    0    0 -0.24948064385E+03  0.21163568490E+03 -0.50351473070E+03  0.60046427869E+03  0.10566000000E+00 0.  1.
    -200003    1    4    4    0    0 -0.26587902544E+02 -0.13003293198E+02 -0.50448474780E+02  0.65734700146E+02  0.30000000000E+02 0. -1.
    -200000    1    3    3    0    0  0.24614210770E+03 -0.26274468991E+02 -0.38931653887E+03  0.47227603405E+03  0.10100000000E+03 0. -1.
<mgrwt>
<rscale>  0 0.20071850E+04</rscale>
<asrwt>0</asrwt>
<pdfrwt beam="1">  1        2 0.16779553E+00 0.20071850E+04</pdfrwt>
<pdfrwt beam="2">  1       -2 0.12250064E+00 0.20071850E+04</pdfrwt>
<totfact> 0.10393317E+01</totfact>
</mgrwt>
</event>
<event>
 8    2  0.4306980E-052  0.1422322E+04  0.7818608E-02  0.8937818E-01
         -2   -1    0    0    0  501 -0.00000000000E+00  0.00000000000E+00  0.14370494060E+04  0.14370494060E+04  0.25500000000E-02 0. -1.
          2   -1    0    0  501    0  0.00000000000E+00 -0.00000000000E+00 -0.35193615095E+03  0.35193615095E+03  0.25500000000E-02 0.  1.
    -200001    2    1    2    0    0  0.58977294205E+02 -0.13679655338E+03  0.95591634076E+03  0.11450504197E+04  0.61251350595E+03 0.  0.
   -5000001    2    3    3    0    0 -0.17664666246E+03 -0.22374611570E+03  0.25066924791E+03  0.38963441692E+03  0.87826757620E+02 0.  0.
     200001    1    1    2    0    0 -0.58977294205E+02  0.13679655338E+03  0.12919691427E+03  0.64393513719E+03  0.61300000000E+03 0.  1.
         13    1    4    4    0    0 -0.16991072840E+02 -0.75845634268E+02  0.78994105536E+02  0.11082119232E+03  0.10566000000E+00 0.  1.
    -200003    1    4    4    0    0 -0.15965558962E+03 -0.14790048144E+03  0.17167514237E+03  0.27881322460E+03  0.30000000000E+02 0.  1.
    -200000    1    3    3    0    0  0.23562395666E+03  0.86949562327E+02  0.70524709285E+03  0.75541600282E+03  0.10100000000E+03 0. -1.
<mgrwt>
<rscale>  0 0.14223215E+04</rscale>
<asrwt>0</asrwt>
<pdfrwt beam="1">  1        2 0.50276593E-01 0.14223215E+04</pdfrwt>
<pdfrwt beam="2">  1       -2 0.20529277E+00 0.14223215E+04</pdfrwt>
<totfact> 0.11923386E+01</totfact>
</mgrwt>
</event>
<event>
 8    2  0.4306980E-052  0.1425392E+04  0.7818608E-02  0.8935641E-01
          2   -1    0    0  501    0  0.00000000000E+00  0.00000000000E+00  0.66972680442E+03  0.66972680442E+03  0.25500000000E-02 0.  1.
         -2   -1    0    0    0  501 -0.00000000000E+00 -0.00000000000E+00 -0.75842213337E+03  0.75842213338E+03  0.25500000000E-02 0. -1.
    -200001    2    1    2    0    0  0.14959602148E+03 -0.19370860080E+03 -0.31374450639E+03  0.73078380824E+03  0.61294972668E+03 0.  0.
   -5000001    2    3    3    0    0  0.26989528106E+03 -0.26398352247E+03 -0.15669327122E+02  0.38660320309E+03  0.81766410891E+02 0.  0.
     200001    1    1    2    0    0 -0.14959602148E+03  0.19370860080E+03  0.22504917743E+03  0.69736512956E+03  0.61300000000E+03 0.  1.
         13    1    4    4    0    0  0.11893134714E+03 -0.15841018736E+03  0.92530536308E+01  0.19830300793E+03  0.10566000000E+00 0.  1.
    -200003    1    4    4    0    0  0.15096393392E+03 -0.10557333512E+03 -0.24922380753E+02  0.18830019515E+03  0.30000000000E+02 0.  1.
    -200000    1    3    3    0    0 -0.12029925958E+03  0.70274921677E+02 -0.29807517926E+03  0.34418060515E+03  0.10100000000E+03 0. -1.
<mgrwt>
<rscale>  0 0.14253921E+04</rscale>
<asrwt>0</asrwt>
<pdfrwt beam="1">  1        2 0.95675258E-01 0.14253921E+04</pdfrwt>
<pdfrwt beam="2">  1       -2 0.10834602E+00 0.14253921E+04</pdfrwt>
<totfact> 0.31526906E+01</totfact>
</mgrwt>
</event>
<event>
 8    2  0.4306980E-052  0.1739431E+04  0.7818608E-02  0.8739190E-01
          2   -1    0    0  501    0  0.00000000000E+00  0.00000000000E+00  0.19105949321E+04  0.19105949321E+04  0.25500000000E-02 0. -1.
         -2   -1    0    0    0  501 -0.00000000000E+00 -0.00000000000E+00 -0.39590017955E+03  0.39590017956E+03  0.25500000000E-02 0.  1.
    -200001    2    1    2    0    0 -0.46322326018E+03  0.13458537257E+02  0.12975040821E+04  0.15079353403E+04  0.61285824344E+03 0.  0.
   -5000001    2    3    3    0    0 -0.25202627457E+03  0.23136472973E+03  0.10204763850E+04  0.10848128753E+04  0.13564675017E+03 0.  0.
     200001    1    1    2    0    0  0.46322326018E+03 -0.13458537257E+02  0.21719067040E+03  0.79855977128E+03  0.61300000000E+03 0.  1.
         13    1    4    4    0    0 -0.22128025028E+02  0.29000440254E+01  0.21350107876E+03  0.21466434623E+03  0.10566000000E+00 0.  1.
    -200003    1    4    4    0    0 -0.22989824955E+03  0.22846468570E+03  0.80697530629E+03  0.87014852911E+03  0.30000000000E+02 0.  1.
    -200000    1    3    3    0    0 -0.21119698560E+03 -0.21790619247E+03  0.27702769706E+03  0.42312246499E+03  0.10100000000E+03 0.  1.
<mgrwt>
<rscale>  0 0.17394308E+04</rscale>
<asrwt>0</asrwt>
<pdfrwt beam="1">  1        2 0.27294213E+00 0.17394308E+04</pdfrwt>
<pdfrwt beam="2">  1       -2 0.56557168E-01 0.17394308E+04</pdfrwt>
<totfact> 0.24884610E+01</totfact>
</mgrwt>
</event>
<event>
 8    2  0.4306980E-052  0.1418955E+04  0.7818608E-02  0.8940211E-01
         -2   -1    0    0    0  501 -0.00000000000E+00  0.00000000000E+00  0.27189848981E+03  0.27189848982E+03  0.25500000000E-02 0. -1.
          2   -1    0    0  501    0  0.00000000000E+00 -0.00000000000E+00 -0.18512727959E+04  0.18512727959E+04  0.25500000000E-02 0.  1.
    -200001    2    1    2    0    0  0.12837398915E+02  0.31241953419E+03 -0.52931225547E+03  0.86771516372E+03  0.61236212930E+03 0.  0.
   -5000001    2    3    3    0    0 -0.56963304396E+02  0.42884056859E+03 -0.53130758432E+03  0.69850825850E+03  0.13593008030E+03 0.  0.
     200001    1    1    2    0    0 -0.12837398915E+02 -0.31241953419E+03 -0.10500620507E+04  0.12554561220E+04  0.61300000000E+03 0. -1.
         13    1    4    4    0    0 -0.54119564966E+02  0.25019910264E+03 -0.39946248479E+03  0.47444578846E+03  0.10566000000E+00 0.  1.
    -200003    1    4    4    0    0 -0.28437394299E+01  0.17864146595E+03 -0.13184509953E+03  0.22406247004E+03  0.30000000000E+02 0. -1.
    -200000    1    3    3    0    0  0.69800703311E+02 -0.11642103440E+03  0.19953288442E+01  0.16920690521E+03  0.10100000000E+03 0. -1.
<mgrwt>
<rscale>  0 0.14189549E+04</rscale>
<asrwt>0</asrwt>
<pdfrwt beam="1">  1        2 0.26446753E+00 0.14189549E+04</pdfrwt>
<pdfrwt beam="2">  1       -2 0.38842642E-01 0.14189549E+04</pdfrwt>
<totfact> 0.58337494E+01</totfact>
</mgrwt>
</event>
<event>
 8    2  0.4306980E-052  0.1560841E+04  0.7818608E-02  0.8844973E-01
          2   -1    0    0  501    0  0.00000000000E+00  0.00000000000E+00  0.37910735267E+04  0.37910735267E+04  0.25500000000E-02 0.  1.
         -2   -1    0    0    0  501 -0.00000000000E+00 -0.00000000000E+00 -0.16065531551E+03  0.16065531553E+03  0.25500000000E-02 0. -1.
    -200001    2    1    2    0    0  0.47155573927E+03  0.76627100098E+02  0.19973075475E+04  0.21431227581E+04  0.61278151840E+03 0.  0.
   -5000001    2    3    3    0    0 -0.26014802127E+02 -0.90679044196E+02  0.10320365452E+04  0.10397112767E+04  0.83669881751E+02 0.  0.
     200001    1    1    2    0    0 -0.47155573927E+03 -0.76627100098E+02  0.16331106637E+04  0.18086060841E+04  0.61300000000E+03 0.  1.
         13    1    4    4    0    0  0.11794507556E+01 -0.63366606241E+02  0.80445840547E+03  0.80695108599E+03  0.10566000000E+00 0.  1.
    -200003    1    4    4    0    0 -0.27194252882E+02 -0.27312437955E+02  0.22757813977E+03  0.23276019066E+03  0.30000000000E+02 0. -1.
    -200000    1    3    3    0    0  0.49757054139E+03  0.16730614429E+03  0.96527100225E+03  0.11034114814E+04  0.10100000000E+03 0. -1.
<mgrwt>
<rscale>  0 0.15608409E+04</rscale>
<asrwt>0</asrwt>
<pdfrwt beam="1">  1        2 0.54158205E+00 0.15608409E+04</pdfrwt>
<pdfrwt beam="2">  1       -2 0.22950755E-01 0.15608409E+04</pdfrwt>
<totfact> 0.12851130E+01</totfact>
</mgrwt>
</event>
<event>
 8    2  0.4306980E-052  0.1583858E+04  0.7818608E-02  0.8830527E-01
         -2   -1    0    0    0  501 -0.00000000000E+00  0.00000000000E+00  0.37168610804E+03  0.37168610805E+03  0.25500000000E-02 0. -1.
          2   -1    0    0  501    0  0.00000000000E+00 -0.00000000000E+00 -0.16873141610E+04  0.16873141610E+04  0.25500000000E-02 0.  1.
    -200001    2    1    2    0    0  0.18162385734E+03 -0.19722349367E+03 -0.10817069632E+03  0.67856316431E+03  0.61389146957E+03 0.  0.
   -5000001    2    3    3    0    0  0.28958372019E+03 -0.30947868338E+03  0.28483311852E+02  0.44805963386E+03  0.14251438516E+03 0.  0.
     200001    1    1    2    0    0 -0.18162385734E+03  0.19722349367E+03 -0.12074573566E+04  0.13804371047E+04  0.61300000000E+03 0.  1.
         13    1    4    4    0    0  0.15743587579E+03 -0.24847080801E+03  0.48454353051E+02  0.29811345645E+03  0.10566000000E+00 0.  1.
    -200003    1    4    4    0    0  0.13214784439E+03 -0.61007875366E+02 -0.19971041200E+02  0.14994617741E+03  0.30000000000E+02 0.  1.
    -200000    1    3    3    0    0 -0.10795986285E+03  0.11225518970E+03 -0.13665400817E+03  0.23050353045E+03  0.10100000000E+03 0.  1.
<mgrwt>
<rscale>  0 0.15838576E+04</rscale>
<asrwt>0</asrwt>
<pdfrwt beam="1">  1        2 0.24104488E+00 0.15838576E+04</pdfrwt>
<pdfrwt beam="2">  1       -2 0.53098016E-01 0.15838576E+04</pdfrwt>
<totfact> 0.37462069E+01</totfact>
</mgrwt>
</event>
<event>
 8    2  0.4306980E-052  0.1289933E+04  0.7818608E-02  0.9037586E-01
         -2   -1    0    0    0  501 -0.00000000000E+00  0.00000000000E+00  0.27932079151E+03  0.27932079152E+03  0.25500000000E-02 0. -1.
          2   -1    0    0  501    0  0.00000000000E+00 -0.00000000000E+00 -0.14892628056E+04  0.14892628056E+04  0.25500000000E-02 0.  1.
    -200001    2    1    2    0    0  0.11996716568E+03 -0.20891399327E+02 -0.39024862432E+03  0.73780970115E+03  0.61419914923E+03 0.  0.
   -5000001    2    3    3    0    0 -0.22232219594E+03 -0.11016220233E+03 -0.14963282607E+03  0.29823235218E+03  0.70637692610E+02 0.  0.
     200001    1    1    2    0    0 -0.11996716568E+03  0.20891399327E+02 -0.81969338976E+03  0.10307738960E+04  0.61300000000E+03 0.  1.
         13    1    4    4    0    0 -0.13688963565E+03 -0.70132818360E+02 -0.61373962695E+02  0.16560241248E+03  0.10566000000E+00 0.  1.
    -200003    1    4    4    0    0 -0.85432560294E+02 -0.40029383974E+02 -0.88258863377E+02  0.13262993970E+03  0.30000000000E+02 0. -1.
    -200000    1    3    3    0    0  0.34228936163E+03  0.89270803007E+02 -0.24061579825E+03  0.43957734896E+03  0.10100000000E+03 0.  1.
<mgrwt>
<rscale>  0 0.12899334E+04</rscale>
<asrwt>0</asrwt>
<pdfrwt beam="1">  1        2 0.21275183E+00 0.12899334E+04</pdfrwt>
<pdfrwt beam="2">  1       -2 0.39902971E-01 0.12899334E+04</pdfrwt>
<totfact> 0.86324011E+01</totfact>
</mgrwt>
</event>
<event>
 8    2  0.4306980E-052  0.1658094E+04  0.7818608E-02  0.8785633E-01
         -2   -1    0    0    0  501 -0.00000000000E+00  0.00000000000E+00  0.35023928747E+03  0.35023928748E+03  0.25500000000E-02 0. -1.
          2   -1    0    0  501    0  0.00000000000E+00 -0.00000000000E+00 -0.19624255264E+04  0.19624255264E+04  0.25500000000E-02 0.  1.
    -200001    2    1    2    0    0 -0.28974005357E+03 -0.36146847668E+03 -0.37243561091E+03  0.85411780472E+03  0.61335159720E+03 0.  0.
   -5000001    2    3    3    0    0 -0.69664980156E+02 -0.34256939750E+03 -0.43906591750E+03  0.60226306308E+03  0.21848321601E+03 0.  0.
     200001    1    1    2    0    0  0.28974005357E+03  0.36146847668E+03 -0.12397506280E+04  0.14585470092E+04  0.61300000000E+03 0.  1.
         13    1    4    4    0    0 -0.82382752035E+02 -0.34934848728E+03 -0.44138032643E+03  0.56890059512E+03  0.10566000000E+00 0.  1.
    -200003    1    4    4    0    0  0.12717771879E+02  0.67790897852E+01  0.23144089307E+01  0.33362467963E+02  0.30000000000E+02 0.  1.
    -200000    1    3    3    0    0 -0.22007507341E+03 -0.18899079187E+02  0.66630306590E+02  0.25185474164E+03  0.10100000000E+03 0.  1.
<mgrwt>
<rscale>  0 0.16580935E+04</rscale>
<asrwt>0</asrwt>
<pdfrwt beam="1">  1        2 0.28034650E+00 0.16580935E+04</pdfrwt>
<pdfrwt beam="2">  1       -2 0.50034185E-01 0.16580935E+04</pdfrwt>
<totfact> 0.30328381E+01</totfact>
</mgrwt>
</event>
<event>
 8    2  0.4306980E-052  0.1532114E+04  0.7818608E-02  0.8863374E-01
          2   -1    0    0  501    0  0.00000000000E+00  0.00000000000E+00  0.33731385556E+03  0.33731385557E+03  0.25500000000E-02 0.  1.
         -2   -1    0    0    0  501 -0.00000000000E+00 -0.00000000000E+00 -0.17397547448E+04  0.17397547448E+04  0.25500000000E-02 0. -1.
    -200001    2    1    2    0    0  0.43626570787E+03 -0.54668316706E+02 -0.88118928558E+03  0.11601233310E+04  0.61324969905E+03 0.  0.
   -5000001    2    3    3    0    0  0.41607202172E+03 -0.19107104905E+03 -0.31657966729E+03  0.57020934455E+03  0.12366057506E+03 0.  0.
     200001    1    1    2    0    0 -0.43626570787E+03  0.54668316706E+02 -0.52125160367E+03  0.91694526938E+03  0.61300000000E+03 0. -1.
         13    1    4    4    0    0  0.23313013582E+03 -0.56435963687E+02 -0.20422207135E+03  0.31502594149E+03  0.10566000000E+00 0.  1.
    -200003    1    4    4    0    0  0.18294188590E+03 -0.13463508536E+03 -0.11235759594E+03  0.25518340305E+03  0.30000000000E+02 0.  1.
    -200000    1    3    3    0    0  0.20193686153E+02  0.13640273234E+03 -0.56460961829E+03  0.58991398645E+03  0.10100000000E+03 0. -1.
<mgrwt>
<rscale>  0 0.15321141E+04</rscale>
<asrwt>0</asrwt>
<pdfrwt beam="1">  1        2 0.48187695E-01 0.15321141E+04</pdfrwt>
<pdfrwt beam="2">  1       -2 0.24853639E+00 0.15321141E+04</pdfrwt>
<totfact> 0.66347245E+00</totfact>
</mgrwt>
</event>
<event>
 8    2  0.4306980E-052  0.1343584E+04  0.7818608E-02  0.8995699E-01
         -2   -1    0    0    0  501 -0.00000000000E+00  0.00000000000E+00  0.14401185664E+04  0.14401185664E+04  0.25500000000E-02 0. -1.
          2   -1    0    0  501    0  0.00000000000E+00 -0.00000000000E+00 -0.31338013511E+03  0.31338013512E+03  0.25500000000E-02 0.  1.
    -200001    2    1    2    0    0 -0.14107516227E+03  0.23516756382E+03  0.53192069216E+03  0.85640164587E+03  0.61259951992E+03 0.  0.
   -5000001    2    3    3    0    0 -0.61463876999E+02  0.74219764534E+02 -0.11713425929E+03  0.17543506750E+03  0.88151271046E+02 0.  0.
     200001    1    1    2    0    0  0.14107516227E+03 -0.23516756382E+03  0.59481773911E+03  0.89709705565E+03  0.61300000000E+03 0. -1.
         13    1    4    4    0    0 -0.44013619826E+02 -0.12945718776E+01 -0.60652237357E+02  0.74950515054E+02  0.10566000000E+00 0.  1.
    -200003    1    4    4    0    0 -0.17450257173E+02  0.75514336411E+02 -0.56482021935E+02  0.10048455245E+03  0.30000000000E+02 0.  1.
    -200000    1    3    3    0    0 -0.79611285275E+02  0.16094779929E+03  0.64905495146E+03  0.68096657836E+03  0.10100000000E+03 0. -1.
<mgrwt>
<rscale>  0 0.13435841E+04</rscale>
<asrwt>0</asrwt>
<pdfrwt beam="1">  1        2 0.44768591E-01 0.13435841E+04</pdfrwt>
<pdfrwt beam="2">  1       -2 0.20573122E+00 0.13435841E+04</pdfrwt>
<totfact> 0.13557242E+01</totfact>
</mgrwt>
</event>
<event>
 8    2  0.4306980E-052  0.1293711E+04  0.7818608E-02  0.9034568E-01
         -2   -1    0    0    0  501 -0.00000000000E+00  0.00000000000E+00  0.90936641162E+03  0.90936641162E+03  0.25500000000E-02 0. -1.
          2   -1    0    0  501    0  0.00000000000E+00 -0.00000000000E+00 -0.46012461537E+03  0.46012461538E+03  0.25500000000E-02 0.  1.
    -200001    2    1    2    0    0  0.87211163789E+01 -0.12280999309E+03  0.39997402314E+03  0.74231109608E+03  0.61309721244E+03 0.  0.
   -5000001    2    3    3    0    0  0.80816290771E+01 -0.15583894543E+03  0.53456421272E+03  0.57082687008E+03  0.12543256532E+03 0.  0.
     200001    1    1    2    0    0 -0.87211163789E+01  0.12280999309E+03  0.49267773111E+02  0.62717993091E+03  0.61300000000E+03 0.  1.
         13    1    4    4    0    0  0.13072148869E+02 -0.32901061976E+02  0.19492861378E+02  0.40414647888E+02  0.10566000000E+00 0.  1.
    -200003    1    4    4    0    0 -0.49905197921E+01 -0.12293788345E+03  0.51507135134E+03  0.53041222219E+03  0.30000000000E+02 0.  1.
    -200000    1    3    3    0    0  0.63948730190E+00  0.33028952334E+02 -0.13459018958E+03  0.17148422600E+03  0.10100000000E+03 0.  1.
<mgrwt>
<rscale>  0 0.12937107E+04</rscale>
<asrwt>0</asrwt>
<pdfrwt beam="1">  1        2 0.65732089E-01 0.12937107E+04</pdfrwt>
<pdfrwt beam="2">  1       -2 0.12990949E+00 0.12937107E+04</pdfrwt>
<totfact> 0.31526391E+01</totfact>
</mgrwt>
</event>
<event>
 8    2  0.4306980E-052  0.1313511E+04  0.7818608E-02  0.9018919E-01
         -2   -1    0    0    0  501 -0.00000000000E+00  0.00000000000E+00  0.58032763786E+03  0.58032763787E+03  0.25500000000E-02 0. -1.
          2   -1    0    0  501    0  0.00000000000E+00 -0.00000000000E+00 -0.74324824899E+03  0.74324824900E+03  0.25500000000E-02 0.  1.
    -200001    2    1    2    0    0  0.70578088224E+02 -0.31127594799E+02 -0.29214277206E+03  0.69237262280E+03  0.62296248349E+03 0.  0.
   -5000001    2    3    3    0    0 -0.20607302898E+03 -0.39714115485E+02 -0.32821042119E+03  0.39553690341E+03  0.68440171971E+02 0.  0.
     200001    1    1    2    0    0 -0.70578088224E+02  0.31127594799E+02  0.12922216093E+03  0.63120326407E+03  0.61300000000E+03 0. -1.
         13    1    4    4    0    0 -0.11001001625E+03 -0.28835953601E+02 -0.12822309662E+03  0.17139104284E+03  0.10566000000E+00 0.  1.
    -200003    1    4    4    0    0 -0.96063012726E+02 -0.10878161883E+02 -0.19998732457E+03  0.22414586057E+03  0.30000000000E+02 0.  1.
    -200000    1    3    3    0    0  0.27665111720E+03  0.85865206855E+01  0.36067649136E+02  0.29683571938E+03  0.10100000000E+03 0.  1.
<mgrwt>
<rscale>  0 0.13135106E+04</rscale>
<asrwt>0</asrwt>
<pdfrwt beam="1">  1        2 0.10617832E+00 0.13135106E+04</pdfrwt>
<pdfrwt beam="2">  1       -2 0.82903948E-01 0.13135106E+04</pdfrwt>
<totfact> 0.52234939E+01</totfact>
</mgrwt>
</event>
<event>
 8    2  0.4306980E-052  0.1713810E+04  0.7818608E-02  0.8753527E-01
          2   -1    0    0  501    0  0.00000000000E+00  0.00000000000E+00  0.87227035975E+03  0.87227035976E+03  0.25500000000E-02 0.  1.
         -2   -1    0    0    0  501 -0.00000000000E+00 -0.00000000000E+00 -0.84181079619E+03  0.84181079619E+03  0.25500000000E-02 0. -1.
    -200001    2    1    2    0    0  0.64861259093E+02  0.59276891123E+03  0.69645415061E+02  0.85799325392E+03  0.61296001084E+03 0.  0.
   -5000001    2    3    3    0    0  0.26504718024E+02  0.66903032503E+03 -0.53670490083E+02  0.67717610888E+03  0.85923716442E+02 0.  0.
     200001    1    1    2    0    0 -0.64861259093E+02 -0.59276891123E+03 -0.39185851498E+02  0.85608790203E+03  0.61300000000E+03 0. -1.
         13    1    4    4    0    0  0.17239427035E+02  0.13652088580E+03  0.18644480562E+02  0.13886244245E+03  0.10566000000E+00 0.  1.
    -200003    1    4    4    0    0  0.92652909887E+01  0.53250943923E+03 -0.72314970646E+02  0.53831366643E+03  0.30000000000E+02 0.  1.
    -200000    1    3    3    0    0  0.38356541069E+02 -0.76261413803E+02  0.12331590514E+03  0.18081714504E+03  0.10100000000E+03 0. -1.
<mgrwt>
<rscale>  0 0.17138105E+04</rscale>
<asrwt>0</asrwt>
<pdfrwt beam="1">  1        2 0.12461005E+00 0.17138105E+04</pdfrwt>
<pdfrwt beam="2">  1       -2 0.12025869E+00 0.17138105E+04</pdfrwt>
<totfact> 0.17076317E+01</totfact>
</mgrwt>
</event>
<event>
 8    2  0.4306980E-052  0.1836312E+04  0.7818608E-02  0.8687224E-01
          2   -1    0    0  501    0  0.00000000000E+00  0.00000000000E+00  0.37336749388E+04  0.37336749388E+04  0.25500000000E-02 0.  1.
         -2   -1    0    0    0  501 -0.00000000000E+00 -0.00000000000E+00 -0.22578576095E+03  0.22578576097E+03  0.25500000000E-02 0. -1.
    -200001    2    1    2    0    0  0.36874011411E+03  0.55880935752E+03  0.20506443708E+04  0.22426122506E+04  0.61313147137E+03 0.  0.
   -5000001    2    3    3    0    0  0.25287397245E+03  0.57074659063E+03  0.19721925803E+04  0.20696291770E+04  0.64221801335E+02 0.  0.
     200001    1    1    2    0    0 -0.36874011411E+03 -0.55880935752E+03  0.14572448071E+04  0.17168484492E+04  0.61300000000E+03 0. -1.
         13    1    4    4    0    0  0.19296409004E+03  0.43468923015E+03  0.14675780275E+04  0.15427168064E+04  0.10566000000E+00 0.  1.
    -200003    1    4    4    0    0  0.59909882413E+02  0.13605736048E+03  0.50461455284E+03  0.52691237060E+03  0.30000000000E+02 0. -1.
    -200000    1    3    3    0    0  0.11586614166E+03 -0.11937233110E+02  0.78451790475E+02  0.17298307358E+03  0.10100000000E+03 0. -1.
<mgrwt>
<rscale>  0 0.18363122E+04</rscale>
<asrwt>0</asrwt>
<pdfrwt beam="1">  1        2 0.53338207E+00 0.18363122E+04</pdfrwt>
<pdfrwt beam="2">  1       -2 0.32255112E-01 0.18363122E+04</pdfrwt>
<totfact> 0.72900475E+00</totfact>
</mgrwt>
</event>
<event>
 8    2  0.4306980E-052  0.1672277E+04  0.7818608E-02  0.8777336E-01
          2   -1    0    0  501    0  0.00000000000E+00  0.00000000000E+00  0.56838617816E+03  0.56838617817E+03  0.25500000000E-02 0.  1.
         -2   -1    0    0    0  501 -0.00000000000E+00 -0.00000000000E+00 -0.12300221568E+04  0.12300221568E+04  0.25500000000E-02 0. -1.
    -200001    2    1    2    0    0 -0.30761103672E+03 -0.39212665391E+03 -0.33359071342E+02  0.78900814929E+03  0.61076441398E+03 0.  0.
   -5000001    2    3    3    0    0  0.60939885655E+02 -0.35334470867E+03  0.50488195941E+02  0.39586035788E+03  0.15996941020E+03 0.  0.
     200001    1    1    2    0    0  0.30761103672E+03  0.39212665391E+03 -0.62827690731E+03  0.10094001857E+04  0.61300000000E+03 0. -1.
         13    1    4    4    0    0  0.10385681839E+03 -0.15251838938E+03  0.13163443390E+02  0.18499023009E+03  0.10566000000E+00 0.  1.
    -200003    1    4    4    0    0 -0.42916932739E+02 -0.20082631930E+03  0.37324752551E+02  0.21087012778E+03  0.30000000000E+02 0.  1.
    -200000    1    3    3    0    0 -0.36855092238E+03 -0.38781945243E+02 -0.83847267284E+02  0.39314779141E+03  0.10100000000E+03 0.  1.
<mgrwt>
<rscale>  0 0.16722770E+04</rscale>
<asrwt>0</asrwt>
<pdfrwt beam="1">  1        2 0.81198026E-01 0.16722770E+04</pdfrwt>
<pdfrwt beam="2">  1       -2 0.17571745E+00 0.16722770E+04</pdfrwt>
<totfact> 0.10731767E+01</totfact>
</mgrwt>
</event>
<event>
 8    2  0.4306980E-052  0.1383592E+04  0.7818608E-02  0.8965782E-01
          2   -1    0    0  501    0  0.00000000000E+00  0.00000000000E+00  0.29191126366E+04  0.29191126366E+04  0.25500000000E-02 0.  1.
         -2   -1    0    0    0  501 -0.00000000000E+00 -0.00000000000E+00 -0.16394771520E+03  0.16394771522E+03  0.25500000000E-02 0. -1.
    -200001    2    1    2    0    0 -0.23720234851E+03 -0.10345089526E+03  0.94581418728E+03  0.11552413456E+04  0.61077904986E+03 0.  0.
   -5000001    2    3    3    0    0 -0.22053308789E+03 -0.26809532247E+03  0.88075403621E+03  0.95074324063E+03  0.87607605333E+02 0.  0.
     200001    1    1    2    0    0  0.23720234851E+03  0.10345089526E+03  0.18093507341E+04  0.19278190062E+04  0.61300000000E+03 0.  1.
         13    1    4    4    0    0 -0.18053132226E+03 -0.17718012329E+03  0.58613399558E+03  0.63838658064E+03  0.10566000000E+00 0.  1.
    -200003    1    4    4    0    0 -0.40001765631E+02 -0.90915199179E+02  0.29462004063E+03  0.31235665999E+03  0.30000000000E+02 0. -1.
    -200000    1    3    3    0    0 -0.16669260619E+02  0.16464442721E+03  0.65060151075E+02  0.20449810493E+03  0.10100000000E+03 0. -1.
<mgrwt>
<rscale>  0 0.13835922E+04</rscale>
<asrwt>0</asrwt>
<pdfrwt beam="1">  1        2 0.41701609E+00 0.13835922E+04</pdfrwt>
<pdfrwt beam="2">  1       -2 0.23421102E-01 0.13835922E+04</pdfrwt>
<totfact> 0.41445622E+01</totfact>
</mgrwt>
</event>
<event>
 8    2  0.4306980E-052  0.1548305E+04  0.7818608E-02  0.8852951E-01
         -2   -1    0    0    0  501 -0.00000000000E+00  0.00000000000E+00  0.23550116377E+03  0.23550116378E+03  0.25500000000E-02 0. -1.
          2   -1    0    0  501    0  0.00000000000E+00 -0.00000000000E+00 -0.25448364108E+04  0.25448364109E+04  0.25500000000E-02 0.  1.
    -200001    2    1    2    0    0  0.44124356200E+03 -0.63769134584E+01 -0.14618790205E+04  0.16451338035E+04  0.61207713141E+03 0.  0.
   -5000001    2    3    3    0    0  0.45157754655E+03 -0.30166081446E+02 -0.14706095670E+04  0.15404918511E+04  0.74768788751E+02 0.  0.
     200001    1    1    2    0    0 -0.44124356200E+03  0.63769134584E+01 -0.84745622661E+03  0.11352037712E+04  0.61300000000E+03 0. -1.
         13    1    4    4    0    0  0.34889611951E+03 -0.20818164202E+02 -0.11801132160E+04  0.12307839420E+04  0.10566000000E+00 0.  1.
    -200003    1    4    4    0    0  0.10268142703E+03 -0.93479172439E+01 -0.29049635103E+03  0.30970790913E+03  0.30000000000E+02 0. -1.
    -200000    1    3    3    0    0 -0.10333984543E+02  0.23789167987E+02  0.87305465329E+01  0.10464195236E+03  0.10100000000E+03 0. -1.
<mgrwt>
<rscale>  0 0.15483048E+04</rscale>
<asrwt>0</asrwt>
<pdfrwt beam="1">  1        2 0.36354804E+00 0.15483048E+04</pdfrwt>
<pdfrwt beam="2">  1       -2 0.33643025E-01 0.15483048E+04</pdfrwt>
<totfact> 0.33299882E+01</totfact>
</mgrwt>
</event>
<event>
 8    2  0.4306980E-052  0.1724694E+04  0.7818608E-02  0.8747404E-01
          2   -1    0    0  501    0  0.00000000000E+00  0.00000000000E+00  0.36831389233E+04  0.36831389233E+04  0.25500000000E-02 0.  1.
         -2   -1    0    0    0  501 -0.00000000000E+00 -0.00000000000E+00 -0.20190454075E+03  0.20190454077E+03  0.25500000000E-02 0. -1.
    -200001    2    1    2    0    0  0.98412836898E+01  0.58735399697E+03  0.20812880810E+04  0.22477590612E+04  0.61284512931E+03 0.  0.
   -5000001    2    3    3    0    0 -0.17977880145E+03  0.39832338011E+03  0.66427147870E+03  0.80213621898E+03  0.10575435587E+03 0.  0.
     200001    1    1    2    0    0 -0.98412836898E+01 -0.58735399697E+03  0.13999463016E+04  0.16372844029E+04  0.61300000000E+03 0. -1.
         13    1    4    4    0    0 -0.15213857028E+02  0.25629002228E+02  0.11236877774E+02  0.31852563272E+02  0.10566000000E+00 0.  1.
    -200003    1    4    4    0    0 -0.16456494442E+03  0.37269437789E+03  0.65303460093E+03  0.77028365570E+03  0.30000000000E+02 0.  1.
    -200000    1    3    3    0    0  0.18962008514E+03  0.18903061686E+03  0.14170166023E+04  0.14456228422E+04  0.10100000000E+03 0.  1.
<mgrwt>
<rscale>  0 0.17246941E+04</rscale>
<asrwt>0</asrwt>
<pdfrwt beam="1">  1        2 0.52616270E+00 0.17246941E+04</pdfrwt>
<pdfrwt beam="2">  1       -2 0.28843506E-01 0.17246941E+04</pdfrwt>
<totfact> 0.97798686E+00</totfact>
</mgrwt>
</event>
<event>
 8    2  0.4306980E-052  0.1328551E+04  0.7818608E-02  0.9007226E-01
         -2   -1    0    0    0  501 -0.00000000000E+00  0.00000000000E+00  0.92075499767E+02  0.92075499802E+02  0.25500000000E-02 0. -1.
          2   -1    0    0  501    0  0.00000000000E+00 -0.00000000000E+00 -0.47923893238E+04  0.47923893238E+04  0.25500000000E-02 0.  1.
    -200001    2    1    2    0    0  0.86329364543E+02 -0.23542095322E+03 -0.21501869568E+04  0.22497367876E+04  0.61248337133E+03 0.  0.
   -5000001    2    3    3    0    0  0.76060202960E+01  0.74708986437E+02 -0.16097865038E+04  0.16136459184E+04  0.82469859976E+02 0.  0.
     200001    1    1    2    0    0 -0.86329364543E+02  0.23542095322E+03 -0.25501268672E+04  0.26347280359E+04  0.61300000000E+03 0.  1.
         13    1    4    4    0    0 -0.17492346359E+02 -0.85972609663E+01 -0.29127618583E+03  0.29192759834E+03  0.10566000000E+00 0.  1.
    -200003    1    4    4    0    0  0.25098366655E+02  0.83306247403E+02 -0.13185103180E+04  0.13217183201E+04  0.30000000000E+02 0.  1.
    -200000    1    3    3    0    0  0.78723344247E+02 -0.31012993965E+03 -0.54040045293E+03  0.63609086924E+03  0.10100000000E+03 0. -1.
<mgrwt>
<rscale>  0 0.13285506E+04</rscale>
<asrwt>0</asrwt>
<pdfrwt beam="1">  1        2 0.68462689E+00 0.13285506E+04</pdfrwt>
<pdfrwt beam="2">  1       -2 0.13153646E-01 0.13285506E+04</pdfrwt>
<totfact> 0.61801836E+00</totfact>
</mgrwt>
</event>
<event>
 8    2  0.4306980E-052  0.1498940E+04  0.7818608E-02  0.8885158E-01
          2   -1    0    0  501    0  0.00000000000E+00  0.00000000000E+00  0.74139201855E+03  0.74139201855E+03  0.25500000000E-02 0.  1.
         -2   -1    0    0    0  501 -0.00000000000E+00 -0.00000000000E+00 -0.75763555046E+03  0.75763555046E+03  0.25500000000E-02 0. -1.
    -200001    2    1    2    0    0 -0.35953052366E+02  0.37751935606E+03 -0.21356067276E+03  0.75168792719E+03  0.61287281940E+03 0.  0.
   -5000001    2    3    3    0    0  0.61692080092E+01 -0.10983176674E+03 -0.19075361890E+03  0.25168136381E+03  0.12188309830E+03 0.  0.
     200001    1    1    2    0    0  0.35953052366E+02 -0.37751935606E+03  0.19731714085E+03  0.74733964183E+03  0.61300000000E+03 0.  1.
         13    1    4    4    0    0 -0.31622037580E+01 -0.33825587787E+02  0.94332992912E+01  0.35258590744E+02  0.10566000000E+00 0.  1.
    -200003    1    4    4    0    0  0.93314117672E+01 -0.76006178958E+02 -0.20018691819E+03  0.21642277306E+03  0.30000000000E+02 0.  1.
    -200000    1    3    3    0    0 -0.42122260375E+02  0.48735112280E+03 -0.22807053858E+02  0.50000656338E+03  0.10100000000E+03 0. -1.
<mgrwt>
<rscale>  0 0.14989396E+04</rscale>
<asrwt>0</asrwt>
<pdfrwt beam="1">  1        2 0.10591315E+00 0.14989396E+04</pdfrwt>
<pdfrwt beam="2">  1       -2 0.10823365E+00 0.14989396E+04</pdfrwt>
<totfact> 0.27715439E+01</totfact>
</mgrwt>
</event>
<event>
 8    2  0.4306980E-052  0.1784201E+04  0.7818608E-02  0.8714746E-01
         -2   -1    0    0    0  501 -0.00000000000E+00  0.00000000000E+00  0.23140994807E+03  0.23140994809E+03  0.25500000000E-02 0. -1.
          2   -1    0    0  501    0  0.00000000000E+00 -0.00000000000E+00 -0.34391068220E+04  0.34391068220E+04  0.25500000000E-02 0.  1.
    -200001    2    1    2    0    0 -0.46872133833E+03  0.42556106296E+03 -0.13177106863E+04  0.15851825760E+04  0.61289512590E+03 0.  0.
   -5000001    2    3    3    0    0 -0.53068912340E+03  0.12727374184E+03 -0.91622334617E+03  0.10711704978E+04  0.10055577656E+03 0.  0.
     200001    1    1    2    0    0  0.46872133833E+03 -0.42556106296E+03 -0.18899861876E+04  0.20853341940E+04  0.61300000000E+03 0. -1.
         13    1    4    4    0    0 -0.20008549354E+03  0.20388970721E+01 -0.32513301874E+03  0.38177199068E+03  0.10566000000E+00 0.  1.
    -200003    1    4    4    0    0 -0.33060362986E+03  0.12523484477E+03 -0.59109032743E+03  0.68939850711E+03  0.30000000000E+02 0.  1.
    -200000    1    3    3    0    0  0.61967785069E+02  0.29828732113E+03 -0.40148734010E+03  0.51401207826E+03  0.10100000000E+03 0. -1.
<mgrwt>
<rscale>  0 0.17842013E+04</rscale>
<asrwt>0</asrwt>
<pdfrwt beam="1">  1        2 0.49130094E+00 0.17842013E+04</pdfrwt>
<pdfrwt beam="2">  1       -2 0.33058566E-01 0.17842013E+04</pdfrwt>
<totfact> 0.10653364E+01</totfact>
</mgrwt>
</event>
<event>
 8    2  0.4306980E-052  0.1242404E+04  0.7818608E-02  0.9076529E-01
         -2   -1    0    0    0  501 -0.00000000000E+00  0.00000000000E+00  0.19165483348E+03  0.19165483350E+03  0.25500000000E-02 0. -1.
          2   -1    0    0  501    0  0.00000000000E+00 -0.00000000000E+00 -0.20134731205E+04  0.20134731205E+04  0.25500000000E-02 0.  1.
    -200001    2    1    2    0    0 -0.65905811600E+02  0.20946725313E+02 -0.82718552958E+03  0.10347238941E+04  0.61776637601E+03 0.  0.
   -5000001    2    3    3    0    0 -0.25779244305E+03 -0.11586887005E+03 -0.22453649853E+03  0.37979959228E+03  0.11810398971E+03 0.  0.
     200001    1    1    2    0    0  0.65905811600E+02 -0.20946725313E+02 -0.99463275743E+03  0.11704040599E+04  0.61300000000E+03 0.  1.
         13    1    4    4    0    0 -0.70064158511E+02  0.15689202683E+02 -0.78323612513E+02  0.10625317327E+03  0.10566000000E+00 0.  1.
    -200003    1    4    4    0    0 -0.18772828454E+03 -0.13155807273E+03 -0.14621288602E+03  0.27354641901E+03  0.30000000000E+02 0.  1.
    -200000    1    3    3    0    0  0.19188663145E+03  0.13681559536E+03 -0.60264903105E+03  0.65492430180E+03  0.10100000000E+03 0.  1.
<mgrwt>
<rscale>  0 0.12424039E+04</rscale>
<asrwt>0</asrwt>
<pdfrwt beam="1">  1        2 0.28763901E+00 0.12424039E+04</pdfrwt>
<pdfrwt beam="2">  1       -2 0.27379263E-01 0.12424039E+04</pdfrwt>
<totfact> 0.94449174E+01</totfact>
</mgrwt>
</event>
<event>
 8    2  0.4306980E-052  0.1447439E+04  0.7818608E-02  0.8920178E-01
          2   -1    0    0  501    0  0.00000000000E+00  0.00000000000E+00  0.45311329485E+03  0.45311329486E+03  0.25500000000E-02 0.  1.
         -2   -1    0    0    0  501 -0.00000000000E+00 -0.00000000000E+00 -0.11559365518E+04  0.11559365518E+04  0.25500000000E-02 0. -1.
    -200001    2    1    2    0    0 -0.21976158635E+03  0.30728397888E+03 -0.27028616038E+03  0.76906416917E+03  0.61293269556E+03 0.  0.
   -5000001    2    3    3    0    0  0.17574962883E+02 -0.90264997051E+02  0.10408233780E+03  0.16513818174E+03  0.89335530521E+02 0.  0.
     200001    1    1    2    0    0  0.21976158635E+03 -0.30728397888E+03 -0.43253709661E+03  0.83998567753E+03  0.61300000000E+03 0. -1.
         13    1    4    4    0    0  0.24754661510E+02 -0.93574182182E+02  0.84189663672E+02  0.12828418247E+03  0.10566000000E+00 0.  1.
    -200003    1    4    4    0    0 -0.71796986265E+01  0.33091851303E+01  0.19892674124E+02  0.36853999273E+02  0.30000000000E+02 0. -1.
    -200000    1    3    3    0    0 -0.23733654924E+03  0.39754897593E+03 -0.37436849817E+03  0.60392598743E+03  0.10100000000E+03 0. -1.
<mgrwt>
<rscale>  0 0.14474394E+04</rscale>
<asrwt>0</asrwt>
<pdfrwt beam="1">  1        2 0.64730471E-01 0.14474394E+04</pdfrwt>
<pdfrwt beam="2">  1       -2 0.16513379E+00 0.14474394E+04</pdfrwt>
<totfact> 0.16848189E+01</totfact>
</mgrwt>
</event>
<event>
 8    2  0.4306980E-052  0.1444774E+04  0.7818608E-02  0.8922031E-01
          2   -1    0    0  501    0  0.00000000000E+00  0.00000000000E+00  0.41578969721E+04  0.41578969721E+04  0.25500000000E-02 0.  1.
         -2   -1    0    0    0  501 -0.00000000000E+00 -0.00000000000E+00 -0.12550653298E+03  0.12550653300E+03  0.25500000000E-02 0. -1.
    -200001    2    1    2    0    0  0.19209502910E+03  0.32028985130E+03  0.22591087094E+04  0.23703475253E+04  0.61277168714E+03 0.  0.
   -5000001    2    3    3    0    0  0.32064278025E+03  0.10484327538E+03  0.66727068414E+03  0.75569863152E+03  0.10966472013E+03 0.  0.
     200001    1    1    2    0    0 -0.19209502910E+03 -0.32028985130E+03  0.17732817297E+04  0.19130559798E+04  0.61300000000E+03 0.  1.
         13    1    4    4    0    0  0.24109155699E+02 -0.11051142532E+02  0.18318357366E+02  0.32232786420E+02  0.10566000000E+00 0.  1.
    -200003    1    4    4    0    0  0.29653362455E+03  0.11589441792E+03  0.64895232678E+03  0.72346584510E+03  0.30000000000E+02 0.  1.
    -200000    1    3    3    0    0 -0.12854775115E+03  0.21544657592E+03  0.15918380253E+04  0.16146488938E+04  0.10100000000E+03 0.  1.
<mgrwt>
<rscale>  0 0.14447744E+04</rscale>
<asrwt>0</asrwt>
<pdfrwt beam="1">  1        2 0.59398523E+00 0.14447744E+04</pdfrwt>
<pdfrwt beam="2">  1       -2 0.17929506E-01 0.14447744E+04</pdfrwt>
<totfact> 0.11341476E+01</totfact>
</mgrwt>
</event>
<event>
 8    2  0.4306980E-052  0.1977823E+04  0.7818608E-02  0.8617060E-01
          2   -1    0    0  501    0  0.00000000000E+00  0.00000000000E+00  0.14351043506E+04  0.14351043506E+04  0.25500000000E-02 0. -1.
         -2   -1    0    0    0  501 -0.00000000000E+00 -0.00000000000E+00 -0.68144571466E+03  0.68144571466E+03  0.25500000000E-02 0.  1.
    -200001    2    1    2    0    0  0.64968256318E+03  0.42214453072E+03  0.42319707672E+03  0.10747884419E+04  0.61300978081E+03 0.  0.
   -5000001    2    3    3    0    0  0.22427042453E+03 -0.54394067741E+02 -0.79830485830E+02  0.25545807372E+03  0.75033212883E+02 0.  0.
     200001    1    1    2    0    0 -0.64968256318E+03 -0.42214453072E+03  0.33046155918E+03  0.10417616233E+04  0.61300000000E+03 0.  1.
         13    1    4    4    0    0  0.12115929902E+03  0.13901579621E+01 -0.31866052764E+02  0.12528752835E+03  0.10566000000E+00 0.  1.
    -200003    1    4    4    0    0  0.10311112551E+03 -0.55784225703E+02 -0.47964433067E+02  0.13017054537E+03  0.30000000000E+02 0.  1.
    -200000    1    3    3    0    0  0.42541213865E+03  0.47653859846E+03  0.50302756255E+03  0.81933036818E+03  0.10100000000E+03 0. -1.
<mgrwt>
<rscale>  0 0.19778228E+04</rscale>
<asrwt>0</asrwt>
<pdfrwt beam="1">  1        2 0.20501490E+00 0.19778228E+04</pdfrwt>
<pdfrwt beam="2">  1       -2 0.97349390E-01 0.19778228E+04</pdfrwt>
<totfact> 0.13025630E+01</totfact>
</mgrwt>
</event>
<event>
 8    2  0.4306980E-052  0.1301582E+04  0.7818608E-02  0.9028312E-01
          2   -1    0    0  501    0  0.00000000000E+00  0.00000000000E+00  0.20237264354E+04  0.20237264354E+04  0.25500000000E-02 0.  1.
         -2   -1    0    0    0  501 -0.00000000000E+00 -0.00000000000E+00 -0.20928170948E+03  0.20928170949E+03  0.25500000000E-02 0. -1.
    -200001    2    1    2    0    0 -0.84026370826E+02 -0.11444084134E+02  0.12534270722E+04  0.13977230404E+04  0.61266538514E+03 0.  0.
   -5000001    2    3    3    0    0 -0.12342753588E+03  0.22871518988E+03  0.28145523741E+03  0.39066833661E+03  0.76548702572E+02 0.  0.
     200001    1    1    2    0    0  0.84026370826E+02  0.11444084134E+02  0.56101765366E+03  0.83528510448E+03  0.61300000000E+03 0. -1.
         13    1    4    4    0    0 -0.47281960305E+02  0.14205133138E+03  0.18010839714E+03  0.23420762242E+03  0.10566000000E+00 0.  1.
    -200003    1    4    4    0    0 -0.76145575574E+02  0.86663858504E+02  0.10134684027E+03  0.15646071419E+03  0.30000000000E+02 0.  1.
    -200000    1    3    3    0    0  0.39401165053E+02 -0.24015927402E+03  0.97197183482E+03  0.10070547038E+04  0.10100000000E+03 0.  1.
<mgrwt>
<rscale>  0 0.13015820E+04</rscale>
<asrwt>0</asrwt>
<pdfrwt beam="1">  1        2 0.28910377E+00 0.13015820E+04</pdfrwt>
<pdfrwt beam="2">  1       -2 0.29897388E-01 0.13015820E+04</pdfrwt>
<totfact> 0.78955216E+01</totfact>
</mgrwt>
</event>
<event>
 8    2  0.4306980E-052  0.1688422E+04  0.7818608E-02  0.8767995E-01
         -2   -1    0    0    0  501 -0.00000000000E+00  0.00000000000E+00  0.30864457614E+03  0.30864457615E+03  0.25500000000E-02 0.  1.
          2   -1    0    0  501    0  0.00000000000E+00 -0.00000000000E+00 -0.23091028142E+04  0.23091028142E+04  0.25500000000E-02 0. -1.
    -200001    2    1    2    0    0  0.12273174132E+03  0.20633888151E+03 -0.18252120196E+04  0.19364845545E+04  0.60077841106E+03 0.  0.
   -5000001    2    3    3    0    0  0.75721044937E-02  0.34260939065E+03 -0.15584489933E+04  0.15973763335E+04  0.73937078543E+02 0.  0.
     200001    1    1    2    0    0 -0.12273174132E+03 -0.20633888151E+03 -0.17524621848E+03  0.68126283580E+03  0.61300000000E+03 0.  1.
         13    1    4    4    0    0  0.19058192881E+02  0.18951310191E+03 -0.95403469214E+03  0.97286208451E+03  0.10566000000E+00 0.  1.
    -200003    1    4    4    0    0 -0.19050620776E+02  0.15309628874E+03 -0.60441430112E+03  0.62451424898E+03  0.30000000000E+02 0.  1.
    -200000    1    3    3    0    0  0.12272416922E+03 -0.13627050914E+03 -0.26676302630E+03  0.33910822104E+03  0.10100000000E+03 0.  1.
<mgrwt>
<rscale>  0 0.16884218E+04</rscale>
<asrwt>0</asrwt>
<pdfrwt beam="1">  1        2 0.32987182E+00 0.16884218E+04</pdfrwt>
<pdfrwt beam="2">  1       -2 0.44092084E-01 0.16884218E+04</pdfrwt>
<totfact> 0.25855390E+01</totfact>
</mgrwt>
</event>
<event>
 8    2  0.4306980E-052  0.1406723E+04  0.7818608E-02  0.8948967E-01
         -2   -1    0    0    0  501 -0.00000000000E+00  0.00000000000E+00  0.16626873698E+03  0.16626873700E+03  0.25500000000E-02 0. -1.
          2   -1    0    0  501    0  0.00000000000E+00 -0.00000000000E+00 -0.29754070866E+04  0.29754070866E+04  0.25500000000E-02 0.  1.
    -200001    2    1    2    0    0  0.14809406613E+02  0.31110285720E+03 -0.17365243595E+04  0.18675980873E+04  0.61270013740E+03 0.  0.
   -5000001    2    3    3    0    0  0.13837672524E+03  0.28387464483E+03 -0.36026858432E+03  0.48185236155E+03  0.51529733378E+02 0.  0.
     200001    1    1    2    0    0 -0.14809406613E+02 -0.31110285720E+03 -0.10726139901E+04  0.12740777363E+04  0.61300000000E+03 0.  1.
         13    1    4    4    0    0  0.16920063765E+02  0.69812963990E+02 -0.88306104133E+02  0.11383372826E+03  0.10566000000E+00 0.  1.
    -200003    1    4    4    0    0  0.12145666148E+03  0.21406168084E+03 -0.27196248018E+03  0.36801863329E+03  0.30000000000E+02 0.  1.
    -200000    1    3    3    0    0 -0.12356731863E+03  0.27228212379E+02 -0.13762557752E+04  0.13857457258E+04  0.10100000000E+03 0.  1.
<mgrwt>
<rscale>  0 0.14067227E+04</rscale>
<asrwt>0</asrwt>
<pdfrwt beam="1">  1        2 0.42505812E+00 0.14067227E+04</pdfrwt>
<pdfrwt beam="2">  1       -2 0.23752678E-01 0.14067227E+04</pdfrwt>
<totfact> 0.37544999E+01</totfact>
</mgrwt>
</event>
<event>
 8    2  0.4306980E-052  0.1513159E+04  0.7818608E-02  0.8875749E-01
         -2   -1    0    0    0  501 -0.00000000000E+00  0.00000000000E+00  0.91137646295E+03  0.91137646295E+03  0.25500000000E-02 0. -1.
          2   -1    0    0  501    0  0.00000000000E+00 -0.00000000000E+00 -0.62807475535E+03  0.62807475535E+03  0.25500000000E-02 0.  1.
    -200001    2    1    2    0    0 -0.40264863528E+03 -0.17060087210E+03  0.67277502915E+02  0.75608282600E+03  0.61311042750E+03 0.  0.
   -5000001    2    3    3    0    0 -0.34697324076E+03 -0.79868188132E+02  0.30515234870E+03  0.47658754562E+03  0.85137391604E+02 0.  0.
     200001    1    1    2    0    0  0.40264863528E+03  0.17060087210E+03  0.21602420468E+03  0.78336839231E+03  0.61300000000E+03 0. -1.
         13    1    4    4    0    0 -0.27154735772E+03 -0.68821200881E+02  0.20463071720E+03  0.34691218884E+03  0.10566000000E+00 0.  1.
    -200003    1    4    4    0    0 -0.75425883036E+02 -0.11046987251E+02  0.10052163150E+03  0.12967535679E+03  0.30000000000E+02 0. -1.
    -200000    1    3    3    0    0 -0.55675394525E+02 -0.90732683964E+02 -0.23787484578E+03  0.27949528037E+03  0.10100000000E+03 0.  1.
<mgrwt>
<rscale>  0 0.15131590E+04</rscale>
<asrwt>0</asrwt>
<pdfrwt beam="1">  1        2 0.89724965E-01 0.15131590E+04</pdfrwt>
<pdfrwt beam="2">  1       -2 0.13019664E+00 0.15131590E+04</pdfrwt>
<totfact> 0.21491340E+01</totfact>
</mgrwt>
</event>
<event>
 8    2  0.4306980E-052  0.1482065E+04  0.7818608E-02  0.8896468E-01
          2   -1    0    0  501    0  0.00000000000E+00  0.00000000000E+00  0.28380752200E+04  0.28380752200E+04  0.25500000000E-02 0.  1.
         -2   -1    0    0    0  501 -0.00000000000E+00 -0.00000000000E+00 -0.19348658908E+03  0.19348658909E+03  0.25500000000E-02 0. -1.
    -200001    2    1    2    0    0  0.29769924813E+03  0.83694538736E+02  0.75458929147E+03  0.10207171803E+04  0.61386394676E+03 0.  0.
   -5000001    2    3    3    0    0  0.27655740801E+03 -0.22088237430E+03  0.42357695735E+03  0.55921502566E+03  0.89615751563E+02 0.  0.
     200001    1    1    2    0    0 -0.29769924813E+03 -0.83694538736E+02  0.18899993394E+04  0.20108446288E+04  0.61300000000E+03 0.  1.
         13    1    4    4    0    0  0.93084201228E+01 -0.39788385925E+02  0.49609070752E+02  0.64271559843E+02  0.10566000000E+00 0.  1.
    -200003    1    4    4    0    0  0.26724898788E+03 -0.18109398838E+03  0.37396788660E+03  0.49494346582E+03  0.30000000000E+02 0.  1.
    -200000    1    3    3    0    0  0.21141840123E+02  0.30457691304E+03  0.33101233412E+03  0.46150215460E+03  0.10100000000E+03 0. -1.
<mgrwt>
<rscale>  0 0.14820654E+04</rscale>
<asrwt>0</asrwt>
<pdfrwt beam="1">  1        2 0.40543930E+00 0.14820654E+04</pdfrwt>
<pdfrwt beam="2">  1       -2 0.27640943E-01 0.14820654E+04</pdfrwt>
<totfact> 0.33675632E+01</totfact>
</mgrwt>
</event>
<event>
 8    2  0.4306980E-052  0.1493010E+04  0.7818608E-02  0.8889115E-01
          2   -1    0    0  501    0  0.00000000000E+00  0.00000000000E+00  0.19127263946E+04  0.19127263946E+04  0.25500000000E-02 0.  1.
         -2   -1    0    0    0  501 -0.00000000000E+00 -0.00000000000E+00 -0.29134824854E+03  0.29134824855E+03  0.25500000000E-02 0. -1.
    -200001    2    1    2    0    0 -0.71042705125E+02 -0.17765458746E+03  0.13778257600E+04  0.15172741021E+04  0.60589492299E+03 0.  0.
   -5000001    2    3    3    0    0  0.30081968325E+02 -0.15664369374E+03  0.13590372155E+04  0.13715975198E+04  0.94103302597E+02 0.  0.
     200001    1    1    2    0    0  0.71042705125E+02  0.17765458746E+03  0.24355238609E+03  0.68680054104E+03  0.61300000000E+03 0. -1.
         13    1    4    4    0    0  0.64620756071E+01 -0.88123359473E+02  0.41474576987E+03  0.42405371086E+03  0.10566000000E+00 0.  1.
    -200003    1    4    4    0    0  0.23619892717E+02 -0.68520334266E+02  0.94429144562E+03  0.94754380891E+03  0.30000000000E+02 0.  1.
    -200000    1    3    3    0    0 -0.10112467345E+03 -0.21010893725E+02  0.18788544469E+02  0.14567658233E+03  0.10100000000E+03 0. -1.
<mgrwt>
<rscale>  0 0.14930097E+04</rscale>
<asrwt>0</asrwt>
<pdfrwt beam="1">  1        2 0.27324663E+00 0.14930097E+04</pdfrwt>
<pdfrwt beam="2">  1       -2 0.41621178E-01 0.14930097E+04</pdfrwt>
<totfact> 0.47113957E+01</totfact>
</mgrwt>
</event>
<event>
 8    2  0.4306980E-052  0.1520901E+04  0.7818608E-02  0.8870672E-01
         -2   -1    0    0    0  501 -0.00000000000E+00  0.00000000000E+00  0.21316448725E+03  0.21316448726E+03  0.25500000000E-02 0. -1.
          2   -1    0    0  501    0  0.00000000000E+00 -0.00000000000E+00 -0.27128577055E+04  0.27128577055E+04  0.25500000000E-02 0.  1.
    -200001    2    1    2    0    0  0.27437040526E+03 -0.27066732801E+03 -0.17028605506E+04  0.18493368989E+04  0.60973189947E+03 0.  0.
   -5000001    2    3    3    0    0  0.41333566611E+02 -0.46299689392E+02 -0.39733822925E+02  0.15203359141E+03  0.13297861206E+03 0.  0.
     200001    1    1    2    0    0 -0.27437040526E+03  0.27066732801E+03 -0.79683266769E+03  0.10766852939E+04  0.61300000000E+03 0. -1.
         13    1    4    4    0    0  0.79378928889E+02  0.85974830456E-01 -0.16725821547E+02  0.81122043944E+02  0.10566000000E+00 0.  1.
    -200003    1    4    4    0    0 -0.38045362279E+02 -0.46385664223E+02 -0.23008001377E+02  0.70911547464E+02  0.30000000000E+02 0.  1.
    -200000    1    3    3    0    0  0.23303683865E+03 -0.22436763861E+03 -0.16631267277E+04  0.16973033075E+04  0.10100000000E+03 0.  1.
<mgrwt>
<rscale>  0 0.15209009E+04</rscale>
<asrwt>0</asrwt>
<pdfrwt beam="1">  1        2 0.38755108E+00 0.15209009E+04</pdfrwt>
<pdfrwt beam="2">  1       -2 0.30452071E-01 0.15209009E+04</pdfrwt>
<totfact> 0.32774962E+01</totfact>
</mgrwt>
</event>
<event>
 8    2  0.4306980E-052  0.1266024E+04  0.7818608E-02  0.9056951E-01
         -2   -1    0    0    0  501 -0.00000000000E+00  0.00000000000E+00  0.49848867038E+03  0.49848867038E+03  0.25500000000E-02 0. -1.
          2   -1    0    0  501    0  0.00000000000E+00 -0.00000000000E+00 -0.80383780026E+03  0.80383780026E+03  0.25500000000E-02 0.  1.
    -200001    2    1    2    0    0 -0.91887208587E+02 -0.10593719848E+03 -0.80116148630E+02  0.63437074983E+03  0.61346695253E+03 0.  0.
   -5000001    2    3    3    0    0 -0.11237315826E+03 -0.20931761629E+03  0.19224693623E+03  0.32535645419E+03  0.11160800423E+03 0.  0.
     200001    1    1    2    0    0  0.91887208587E+02  0.10593719848E+03 -0.22523298125E+03  0.66795572081E+03  0.61300000000E+03 0. -1.
         13    1    4    4    0    0 -0.12041220536E+03 -0.15238670101E+03  0.12012730001E+03  0.22836677783E+03  0.10566000000E+00 0.  1.
    -200003    1    4    4    0    0  0.80390470998E+01 -0.56930915280E+02  0.72119636216E+02  0.96989676362E+02  0.30000000000E+02 0.  1.
    -200000    1    3    3    0    0  0.20485949672E+02  0.10338041781E+03 -0.27236308486E+03  0.30901429565E+03  0.10100000000E+03 0.  1.
<mgrwt>
<rscale>  0 0.12660238E+04</rscale>
<asrwt>0</asrwt>
<pdfrwt beam="1">  1        2 0.11483397E+00 0.12660238E+04</pdfrwt>
<pdfrwt beam="2">  1       -2 0.71212667E-01 0.12660238E+04</pdfrwt>
<totfact> 0.66530264E+01</totfact>
</mgrwt>
</event>
<event>
 8    2  0.4306980E-052  0.2310540E+04  0.7818608E-02  0.8473777E-01
         -2   -1    0    0    0  501 -0.00000000000E+00  0.00000000000E+00  0.17577535876E+04  0.17577535876E+04  0.25500000000E-02 0. -1.
          2   -1    0    0  501    0  0.00000000000E+00 -0.00000000000E+00 -0.75929254179E+03  0.75929254179E+03  0.25500000000E-02 0.  1.
    -200001    2    1    2    0    0  0.46901367466E+02  0.10328533162E+03  0.15587839815E+04  0.16788347061E+04  0.61303415190E+03 0.  0.
   -5000001    2    3    3    0    0  0.25026868602E+03  0.18187322952E+03  0.53977615039E+03  0.63188089440E+03  0.11046667082E+03 0.  0.
     200001    1    1    2    0    0 -0.46901367466E+02 -0.10328533162E+03 -0.56032293565E+03  0.83821142334E+03  0.61300000000E+03 0.  1.
         13    1    4    4    0    0  0.14743656135E+03  0.12957172090E+03  0.24510118215E+03  0.31400791573E+03  0.10566000000E+00 0.  1.
    -200003    1    4    4    0    0  0.10283212466E+03  0.52301508614E+02  0.29467496824E+03  0.31787297867E+03  0.30000000000E+02 0.  1.
    -200000    1    3    3    0    0 -0.20336731855E+03 -0.78587897897E+02  0.10190078311E+04  0.10469538117E+04  0.10100000000E+03 0. -1.
<mgrwt>
<rscale>  0 0.23105404E+04</rscale>
<asrwt>0</asrwt>
<pdfrwt beam="1">  1        2 0.10847036E+00 0.23105404E+04</pdfrwt>
<pdfrwt beam="2">  1       -2 0.25110765E+00 0.23105404E+04</pdfrwt>
<totfact> 0.23389438E+00</totfact>
</mgrwt>
</event>
<event>
 8    2  0.4306980E-052  0.1453859E+04  0.7818608E-02  0.8915729E-01
         -2   -1    0    0    0  501 -0.00000000000E+00  0.00000000000E+00  0.45627074644E+03  0.45627074645E+03  0.25500000000E-02 0. -1.
          2   -1    0    0  501    0  0.00000000000E+00 -0.00000000000E+00 -0.11581431851E+04  0.11581431851E+04  0.25500000000E-02 0.  1.
    -200001    2    1    2    0    0  0.57152359131E+02 -0.30519906686E+03 -0.88206413754E+02  0.69312795386E+03  0.61337845286E+03 0.  0.
   -5000001    2    3    3    0    0  0.22963956824E+03 -0.31607239851E+03 -0.21761339990E+03  0.45476429323E+03  0.82576498990E+02 0.  0.
     200001    1    1    2    0    0 -0.57152359131E+02  0.30519906686E+03 -0.61366602490E+03  0.92128597769E+03  0.61300000000E+03 0.  1.
         13    1    4    4    0    0  0.28536883567E+02 -0.73559284071E+02 -0.70338122602E+02  0.10570139380E+03  0.10566000000E+00 0.  1.
    -200003    1    4    4    0    0  0.20110268467E+03 -0.24251311444E+03 -0.14727527730E+03  0.34906289943E+03  0.30000000000E+02 0.  1.
    -200000    1    3    3    0    0 -0.17248720910E+03  0.10873331646E+02  0.12940698614E+03  0.23836366063E+03  0.10100000000E+03 0. -1.
<mgrwt>
<rscale>  0 0.14538595E+04</rscale>
<asrwt>0</asrwt>
<pdfrwt beam="1">  1        2 0.16544902E+00 0.14538595E+04</pdfrwt>
<pdfrwt beam="2">  1       -2 0.65181536E-01 0.14538595E+04</pdfrwt>
<totfact> 0.47600571E+01</totfact>
</mgrwt>
</event>
<event>
 8    2  0.4306980E-052  0.1546538E+04  0.7818608E-02  0.8854082E-01
          2   -1    0    0  501    0  0.00000000000E+00  0.00000000000E+00  0.11262293952E+04  0.11262293952E+04  0.25500000000E-02 0.  1.
         -2   -1    0    0    0  501 -0.00000000000E+00 -0.00000000000E+00 -0.53092620892E+03  0.53092620892E+03  0.25500000000E-02 0. -1.
    -200001    2    1    2    0    0 -0.13440296924E+03 -0.23486053844E+03 -0.11514930362E+03  0.68056184463E+03  0.61374378334E+03 0.  0.
   -5000001    2    3    3    0    0  0.18881994067E+03 -0.91959507068E+02  0.10304892953E+03  0.25312152925E+03  0.96653534650E+02 0.  0.
     200001    1    1    2    0    0  0.13440296924E+03  0.23486053844E+03  0.71045248989E+03  0.97659375948E+03  0.61300000000E+03 0.  1.
         13    1    4    4    0    0  0.42451902079E+01 -0.15660909838E+02 -0.12460928236E+02  0.20459023276E+02  0.10566000000E+00 0.  1.
    -200003    1    4    4    0    0  0.18457475046E+03 -0.76298597230E+02  0.11550985777E+03  0.23266250598E+03  0.30000000000E+02 0.  1.
    -200000    1    3    3    0    0 -0.32322290991E+03 -0.14290103138E+03 -0.21819823316E+03  0.42744031538E+03  0.10100000000E+03 0. -1.
<mgrwt>
<rscale>  0 0.15465377E+04</rscale>
<asrwt>0</asrwt>
<pdfrwt beam="1">  1        2 0.16088992E+00 0.15465377E+04</pdfrwt>
<pdfrwt beam="2">  1       -2 0.75846601E-01 0.15465377E+04</pdfrwt>
<totfact> 0.35432356E+01</totfact>
</mgrwt>
</event>
<event>
 8    2  0.4306980E-052  0.2209125E+04  0.7818608E-02  0.8514640E-01
          2   -1    0    0  501    0  0.00000000000E+00  0.00000000000E+00  0.96538228260E+03  0.96538228260E+03  0.25500000000E-02 0.  1.
         -2   -1    0    0    0  501 -0.00000000000E+00 -0.00000000000E+00 -0.12638080082E+04  0.12638080082E+04  0.25500000000E-02 0. -1.
    -200001    2    1    2    0    0 -0.90373371228E+03 -0.11587256196E+03 -0.26795484278E+03  0.11306191515E+04  0.61346458313E+03 0.  0.
   -5000001    2    3    3    0    0 -0.34754984226E+03 -0.33139320881E+03 -0.65423155639E+02  0.49264600886E+03  0.88360336421E+02 0.  0.
     200001    1    1    2    0    0  0.90373371228E+03  0.11587256196E+03 -0.30470882830E+02  0.10985711393E+04  0.61300000000E+03 0.  1.
         13    1    4    4    0    0 -0.22017633158E+03 -0.16830914894E+03 -0.14922615981E+02  0.27753969488E+03  0.10566000000E+00 0.  1.
    -200003    1    4    4    0    0 -0.12737351068E+03 -0.16308405987E+03 -0.50500539659E+02  0.21510631398E+03  0.30000000000E+02 0.  1.
    -200000    1    3    3    0    0 -0.55618387002E+03  0.21552064686E+03 -0.20253168714E+03  0.63797314268E+03  0.10100000000E+03 0. -1.
<mgrwt>
<rscale>  0 0.22091246E+04</rscale>
<asrwt>0</asrwt>
<pdfrwt beam="1">  1        2 0.13791175E+00 0.22091246E+04</pdfrwt>
<pdfrwt beam="2">  1       -2 0.18054400E+00 0.22091246E+04</pdfrwt>
<totfact> 0.48675383E+00</totfact>
</mgrwt>
</event>
<event>
 8    2  0.4306980E-052  0.1318740E+04  0.7818608E-02  0.9014835E-01
          2   -1    0    0  501    0  0.00000000000E+00  0.00000000000E+00  0.16078732622E+04  0.16078732622E+04  0.25500000000E-02 0.  1.
         -2   -1    0    0    0  501 -0.00000000000E+00 -0.00000000000E+00 -0.27039985299E+03  0.27039985301E+03  0.25500000000E-02 0. -1.
    -200001    2    1    2    0    0 -0.23853123094E+03 -0.10739027269E+02  0.72221358914E+03  0.97753668259E+03  0.61398128851E+03 0.  0.
   -5000001    2    3    3    0    0 -0.18410665264E+03  0.11462180551E+03  0.22947259577E+03  0.45631498344E+03  0.32944236834E+03 0.  0.
     200001    1    1    2    0    0  0.23853123094E+03  0.10739027269E+02  0.61525982005E+03  0.90073643260E+03  0.61300000000E+03 0.  1.
         13    1    4    4    0    0 -0.84375775614E+02  0.21601954089E+03  0.73894465680E+02  0.24340114375E+03  0.10566000000E+00 0.  1.
    -200003    1    4    4    0    0 -0.99730877028E+02 -0.10139773537E+03  0.15557813009E+03  0.21291383969E+03  0.30000000000E+02 0.  1.
    -200000    1    3    3    0    0 -0.54424578301E+02 -0.12536083278E+03  0.49274099337E+03  0.52122169915E+03  0.10100000000E+03 0.  1.
<mgrwt>
<rscale>  0 0.13187398E+04</rscale>
<asrwt>0</asrwt>
<pdfrwt beam="1">  1        2 0.22969619E+00 0.13187398E+04</pdfrwt>
<pdfrwt beam="2">  1       -2 0.38628549E-01 0.13187398E+04</pdfrwt>
<totfact> 0.79446251E+01</totfact>
</mgrwt>
</event>
<event>
 8    2  0.4306980E-052  0.1663509E+04  0.7818608E-02  0.8782455E-01
         -2   -1    0    0    0  501 -0.00000000000E+00  0.00000000000E+00  0.47158209490E+03  0.47158209490E+03  0.25500000000E-02 0. -1.
          2   -1    0    0  501    0  0.00000000000E+00 -0.00000000000E+00 -0.14670099350E+04  0.14670099350E+04  0.25500000000E-02 0.  1.
    -200001    2    1    2    0    0  0.18335931918E+03 -0.48811876445E+03 -0.25184959418E+03  0.84289217322E+03  0.61250177914E+03 0.  0.
   -5000001    2    3    3    0    0  0.34051252493E+03 -0.45303632755E+03 -0.30434012031E+03  0.64570149700E+03  0.55828493545E+02 0.  0.
     200001    1    1    2    0    0 -0.18335931918E+03  0.48811876445E+03 -0.74357824594E+03  0.10956998567E+04  0.61300000000E+03 0. -1.
         13    1    4    4    0    0  0.50085817767E+02 -0.42692367390E+02 -0.37962151283E+02  0.75976071686E+02  0.10566000000E+00 0.  1.
    -200003    1    4    4    0    0  0.29042670716E+03 -0.41034396016E+03 -0.26637796903E+03  0.56972542532E+03  0.30000000000E+02 0. -1.
    -200000    1    3    3    0    0 -0.15715320575E+03 -0.35082436903E+02  0.52490526126E+02  0.19719067622E+03  0.10100000000E+03 0. -1.
<mgrwt>
<rscale>  0 0.16635091E+04</rscale>
<asrwt>0</asrwt>
<pdfrwt beam="1">  1        2 0.20957285E+00 0.16635091E+04</pdfrwt>
<pdfrwt beam="2">  1       -2 0.67368871E-01 0.16635091E+04</pdfrwt>
<totfact> 0.29425517E+01</totfact>
</mgrwt>
</event>
<event>
 8    2  0.4306980E-052  0.1720328E+04  0.7818608E-02  0.8749854E-01
         -2   -1    0    0    0  501 -0.00000000000E+00  0.00000000000E+00  0.29584878549E+03  0.29584878550E+03  0.25500000000E-02 0. -1.
          2   -1    0    0  501    0  0.00000000000E+00 -0.00000000000E+00 -0.25008806345E+04  0.25008806345E+04  0.25500000000E-02 0.  1.
    -200001    2    1    2    0    0  0.12496417805E+03  0.58865857449E+03 -0.11837328509E+04  0.14622049329E+04  0.61211505489E+03 0.  0.
   -5000001    2    3    3    0    0  0.28091407297E+03  0.22266786411E+03 -0.85036372951E+03  0.93342753089E+03  0.14026684870E+03 0.  0.
     200001    1    1    2    0    0 -0.12496417805E+03 -0.58865857449E+03 -0.10212989981E+04  0.13345244871E+04  0.61300000000E+03 0.  1.
         13    1    4    4    0    0  0.16278571933E+03  0.43967039406E+02 -0.37110307102E+03  0.40761475863E+03  0.10566000000E+00 0.  1.
    -200003    1    4    4    0    0  0.11812835364E+03  0.17870082471E+03 -0.47926065849E+03  0.52581277225E+03  0.30000000000E+02 0.  1.
    -200000    1    3    3    0    0 -0.15594989492E+03  0.36599071038E+03 -0.33336912142E+03  0.52877740206E+03  0.10100000000E+03 0. -1.
<mgrwt>
<rscale>  0 0.17203285E+04</rscale>
<asrwt>0</asrwt>
<pdfrwt beam="1">  1        2 0.35726865E+00 0.17203285E+04</pdfrwt>
<pdfrwt beam="2">  1       -2 0.42264114E-01 0.17203285E+04</pdfrwt>
<totfact> 0.22267119E+01</totfact>
</mgrwt>
</event>
<event>
 8    2  0.4306980E-052  0.1264612E+04  0.7818608E-02  0.9058109E-01
          2   -1    0    0  501    0  0.00000000000E+00  0.00000000000E+00  0.56739058977E+03  0.56739058978E+03  0.25500000000E-02 0.  1.
         -2   -1    0    0    0  501 -0.00000000000E+00 -0.00000000000E+00 -0.70464824613E+03  0.70464824614E+03  0.25500000000E-02 0. -1.
    -200001    2    1    2    0    0  0.83957468509E+02 -0.58220456116E+02  0.49783575780E+02  0.62304584632E+03  0.61259223319E+03 0.  0.
   -5000001    2    3    3    0    0 -0.17490350263E+03 -0.90618262589E+02 -0.16666908779E+03  0.26933498161E+03  0.77200017813E+02 0.  0.
     200001    1    1    2    0    0 -0.83957468509E+02  0.58220456116E+02 -0.18704123214E+03  0.64899298960E+03  0.61300000000E+03 0. -1.
         13    1    4    4    0    0 -0.12413379505E+03 -0.74117272182E+02 -0.14395078789E+03  0.20402061074E+03  0.10566000000E+00 0.  1.
    -200003    1    4    4    0    0 -0.50769707579E+02 -0.16500990407E+02 -0.22718299897E+02  0.65314370871E+02  0.30000000000E+02 0. -1.
    -200000    1    3    3    0    0  0.25886097113E+03  0.32397806473E+02  0.21645266357E+03  0.35371086470E+03  0.10100000000E+03 0.  1.
<mgrwt>
<rscale>  0 0.12646119E+04</rscale>
<asrwt>0</asrwt>
<pdfrwt beam="1">  1        2 0.81055799E-01 0.12646119E+04</pdfrwt>
<pdfrwt beam="2">  1       -2 0.10066403E+00 0.12646119E+04</pdfrwt>
<totfact> 0.46377711E+01</totfact>
</mgrwt>
</event>
<event>
 8    2  0.4306980E-052  0.1415560E+04  0.7818608E-02  0.8942632E-01
          2   -1    0    0  501    0  0.00000000000E+00  0.00000000000E+00  0.69930793820E+03  0.69930793821E+03  0.25500000000E-02 0.  1.
         -2   -1    0    0    0  501 -0.00000000000E+00 -0.00000000000E+00 -0.71635456854E+03  0.71635456854E+03  0.25500000000E-02 0. -1.
    -200001    2    1    2    0    0 -0.98407101921E+02 -0.24879868134E+03  0.22282534182E+03  0.70510476485E+03  0.61313689737E+03 0.  0.
   -5000001    2    3    3    0    0  0.16776889100E+03 -0.21106679464E+03  0.29880558815E+03  0.40804020568E+03  0.67204444437E+02 0.  0.
     200001    1    1    2    0    0  0.98407101921E+02  0.24879868134E+03 -0.23987197216E+03  0.71055774190E+03  0.61300000000E+03 0.  1.
         13    1    4    4    0    0  0.99977994637E+02 -0.15241914473E+03  0.17950468797E+03  0.25583029386E+03  0.10566000000E+00 0.  1.
    -200003    1    4    4    0    0  0.67790896364E+02 -0.58647649906E+02  0.11930090019E+03  0.15220991182E+03  0.30000000000E+02 0.  1.
    -200000    1    3    3    0    0 -0.26617599292E+03 -0.37731886702E+02 -0.75980246335E+02  0.29706455917E+03  0.10100000000E+03 0. -1.
<mgrwt>
<rscale>  0 0.14155599E+04</rscale>
<asrwt>0</asrwt>
<pdfrwt beam="1">  1        2 0.99901134E-01 0.14155599E+04</pdfrwt>
<pdfrwt beam="2">  1       -2 0.10233637E+00 0.14155599E+04</pdfrwt>
<totfact> 0.34315266E+01</totfact>
</mgrwt>
</event>
<event>
 8    2  0.4306980E-052  0.1312698E+04  0.7818608E-02  0.9019556E-01
         -2   -1    0    0    0  501 -0.00000000000E+00  0.00000000000E+00  0.36459262013E+03  0.36459262014E+03  0.25500000000E-02 0. -1.
          2   -1    0    0  501    0  0.00000000000E+00 -0.00000000000E+00 -0.11815759745E+04  0.11815759745E+04  0.25500000000E-02 0.  1.
    -200001    2    1    2    0    0  0.68699316183E+02 -0.10344851451E+03 -0.64127037023E+03  0.89650310840E+03  0.61405939813E+03 0.  0.
   -5000001    2    3    3    0    0 -0.11031137600E+03 -0.15544087302E+03 -0.11751146673E+03  0.33146114335E+03  0.24439124383E+03 0.  0.
     200001    1    1    2    0    0 -0.68699316183E+02  0.10344851451E+03 -0.17571298412E+03  0.64966548622E+03  0.61300000000E+03 0. -1.
         13    1    4    4    0    0  0.68945724479E+02 -0.95847775548E+02 -0.34957962524E+02  0.12313561349E+03  0.10566000000E+00 0.  1.
    -200003    1    4    4    0    0 -0.17925710048E+03 -0.59593097468E+02 -0.82553504204E+02  0.20832552987E+03  0.30000000000E+02 0.  1.
    -200000    1    3    3    0    0  0.17901069218E+03  0.51992358505E+02 -0.52375890350E+03  0.56504196504E+03  0.10100000000E+03 0.  1.
<mgrwt>
<rscale>  0 0.13126978E+04</rscale>
<asrwt>0</asrwt>
<pdfrwt beam="1">  1        2 0.16879657E+00 0.13126978E+04</pdfrwt>
<pdfrwt beam="2">  1       -2 0.52084661E-01 0.13126978E+04</pdfrwt>
<totfact> 0.74667946E+01</totfact>
</mgrwt>
</event>
<event>
 8    2  0.4306980E-052  0.1460437E+04  0.7818608E-02  0.8911197E-01
          2   -1    0    0  501    0  0.00000000000E+00  0.00000000000E+00  0.17808321287E+04  0.17808321287E+04  0.25500000000E-02 0.  1.
         -2   -1    0    0    0  501 -0.00000000000E+00 -0.00000000000E+00 -0.29942124203E+03  0.29942124204E+03  0.25500000000E-02 0. -1.
    -200001    2    1    2    0    0 -0.25270846683E+03  0.13026437296E+03  0.34719629147E+03  0.76001016435E+03  0.61338390021E+03 0.  0.
   -5000001    2    3    3    0    0  0.91589826724E+02 -0.10409555113E+03  0.28062883113E+03  0.32630736780E+03  0.92192067409E+02 0.  0.
     200001    1    1    2    0    0  0.25270846683E+03 -0.13026437296E+03  0.11342145952E+04  0.13202432064E+04  0.61300000000E+03 0.  1.
         13    1    4    4    0    0  0.37268286977E+02  0.16646719119E+01  0.32266424929E+02  0.49323723384E+02  0.10566000000E+00 0.  1.
    -200003    1    4    4    0    0  0.54321539747E+02 -0.10576022304E+03  0.24836240620E+03  0.27698364441E+03  0.30000000000E+02 0.  1.
    -200000    1    3    3    0    0 -0.34429829355E+03  0.23435992408E+03  0.66567460335E+02  0.43370279655E+03  0.10100000000E+03 0. -1.
<mgrwt>
<rscale>  0 0.14604369E+04</rscale>
<asrwt>0</asrwt>
<pdfrwt beam="1">  1        2 0.25440458E+00 0.14604369E+04</pdfrwt>
<pdfrwt beam="2">  1       -2 0.42774464E-01 0.14604369E+04</pdfrwt>
<totfact> 0.52335103E+01</totfact>
</mgrwt>
</event>
<event>
 8    2  0.4306980E-052  0.1429471E+04  0.7818608E-02  0.8932758E-01
         -2   -1    0    0    0  501 -0.00000000000E+00  0.00000000000E+00  0.17496293737E+03  0.17496293739E+03  0.25500000000E-02 0.  1.
          2   -1    0    0  501    0  0.00000000000E+00 -0.00000000000E+00 -0.29197440443E+04  0.29197440443E+04  0.25500000000E-02 0. -1.
    -200001    2    1    2    0    0  0.11441002668E+03 -0.33567231389E+03 -0.15945346709E+04  0.17439289022E+04  0.61072223035E+03 0.  0.
   -5000001    2    3    3    0    0 -0.56004021900E+02  0.10984331495E+03 -0.14219406431E+03  0.21193041621E+03  0.97433798448E+02 0.  0.
     200001    1    1    2    0    0 -0.11441002668E+03  0.33567231389E+03 -0.11502464361E+04  0.13507780796E+04  0.61300000000E+03 0. -1.
         13    1    4    4    0    0  0.98742287249E+01  0.77014455372E+02 -0.71902840412E+02  0.10582417660E+03  0.10566000000E+00 0.  1.
    -200003    1    4    4    0    0 -0.65878250625E+02  0.32828859574E+02 -0.70291223900E+02  0.10610623961E+03  0.30000000000E+02 0.  1.
    -200000    1    3    3    0    0  0.17041404858E+03 -0.44551562883E+03 -0.14523406066E+04  0.15319984860E+04  0.10100000000E+03 0. -1.
<mgrwt>
<rscale>  0 0.14294712E+04</rscale>
<asrwt>0</asrwt>
<pdfrwt beam="1">  1        2 0.41710626E+00 0.14294712E+04</pdfrwt>
<pdfrwt beam="2">  1       -2 0.24994707E-01 0.14294712E+04</pdfrwt>
<totfact> 0.36680002E+01</totfact>
</mgrwt>
</event>
<event>
 8    2  0.4306980E-052  0.1409395E+04  0.7818608E-02  0.8947046E-01
         -2   -1    0    0    0  501 -0.00000000000E+00  0.00000000000E+00  0.10100936912E+04  0.10100936913E+04  0.25500000000E-02 0. -1.
          2   -1    0    0  501    0  0.00000000000E+00 -0.00000000000E+00 -0.49163580241E+03  0.49163580241E+03  0.25500000000E-02 0.  1.
    -200001    2    1    2    0    0 -0.14670543167E+03 -0.25427658822E+03  0.60848124087E+02  0.68236708069E+03  0.61297901401E+03 0.  0.
   -5000001    2    3    3    0    0  0.18315407485E+03 -0.11142198235E+03  0.41565286516E+02  0.30848533430E+03  0.21788817121E+03 0.  0.
     200001    1    1    2    0    0  0.14670543167E+03  0.25427658822E+03  0.45760976475E+03  0.81936241297E+03  0.61300000000E+03 0.  1.
         13    1    4    4    0    0 -0.75113212147E+01  0.16232634732E+02 -0.54927678232E+02  0.57766593951E+02  0.10566000000E+00 0.  1.
    -200003    1    4    4    0    0  0.19066539606E+03 -0.12765461708E+03  0.96492964748E+02  0.25071874035E+03  0.30000000000E+02 0.  1.
    -200000    1    3    3    0    0 -0.32985950652E+03 -0.14285460586E+03  0.19282837570E+02  0.37388174639E+03  0.10100000000E+03 0.  1.
<mgrwt>
<rscale>  0 0.14093945E+04</rscale>
<asrwt>0</asrwt>
<pdfrwt beam="1">  1        2 0.70233686E-01 0.14093945E+04</pdfrwt>
<pdfrwt beam="2">  1       -2 0.14429910E+00 0.14093945E+04</pdfrwt>
<totfact> 0.22119145E+01</totfact>
</mgrwt>
</event>
<event>
 8    2  0.4306980E-052  0.2303920E+04  0.7818608E-02  0.8476377E-01
          2   -1    0    0  501    0  0.00000000000E+00  0.00000000000E+00  0.22265740712E+04  0.22265740712E+04  0.25500000000E-02 0.  1.
         -2   -1    0    0    0  501 -0.00000000000E+00 -0.00000000000E+00 -0.59598832514E+03  0.59598832514E+03  0.25500000000E-02 0. -1.
    -200001    2    1    2    0    0  0.75877098232E+03  0.46838193158E+03  0.33115643018E+03  0.11315861740E+04  0.61294995762E+03 0.  0.
   -5000001    2    3    3    0    0  0.63106774461E+03  0.56751811418E+03  0.15940870663E+03  0.87500406209E+03  0.14105908232E+03 0.  0.
     200001    1    1    2    0    0 -0.75877098232E+03 -0.46838193158E+03  0.12994293159E+04  0.16909762223E+04  0.61300000000E+03 0. -1.
         13    1    4    4    0    0  0.42192756325E+03  0.29987942254E+03  0.12323570602E+03  0.53210674408E+03  0.10566000000E+00 0.  1.
    -200003    1    4    4    0    0  0.20914018136E+03  0.26763869164E+03  0.36173000610E+02  0.34289731801E+03  0.30000000000E+02 0.  1.
    -200000    1    3    3    0    0  0.12770323771E+03 -0.99136182602E+02  0.17174772354E+03  0.25658211194E+03  0.10100000000E+03 0.  1.
<mgrwt>
<rscale>  0 0.23039203E+04</rscale>
<asrwt>0</asrwt>
<pdfrwt beam="1">  1        2 0.31808201E+00 0.23039203E+04</pdfrwt>
<pdfrwt beam="2">  1       -2 0.85141189E-01 0.23039203E+04</pdfrwt>
<totfact> 0.66983824E+00</totfact>
</mgrwt>
</event>
<event>
 8    2  0.4306980E-052  0.1692748E+04  0.7818608E-02  0.8765511E-01
         -2   -1    0    0    0  501 -0.00000000000E+00  0.00000000000E+00  0.32796457339E+03  0.32796457340E+03  0.25500000000E-02 0. -1.
          2   -1    0    0  501    0  0.00000000000E+00 -0.00000000000E+00 -0.21842273045E+04  0.21842273045E+04  0.25500000000E-02 0.  1.
    -200001    2    1    2    0    0  0.49304313998E+02 -0.29546834868E+03 -0.16748164288E+04  0.18062002200E+04  0.60631403086E+03 0.  0.
   -5000001    2    3    3    0    0 -0.95557584567E+02 -0.12634606897E+03 -0.14856582582E+04  0.14970576499E+04  0.94374603192E+02 0.  0.
     200001    1    1    2    0    0 -0.49304313998E+02  0.29546834868E+03 -0.18144630231E+03  0.70599165794E+03  0.61300000000E+03 0. -1.
         13    1    4    4    0    0 -0.14387112441E+02 -0.44317875250E+01 -0.49057844307E+03  0.49080938226E+03  0.10566000000E+00 0.  1.
    -200003    1    4    4    0    0 -0.81170472126E+02 -0.12191428145E+03 -0.99507981517E+03  0.10062482676E+04  0.30000000000E+02 0.  1.
    -200000    1    3    3    0    0  0.14486189857E+03 -0.16912227971E+03 -0.18915817058E+03  0.30914257010E+03  0.10100000000E+03 0. -1.
<mgrwt>
<rscale>  0 0.16927483E+04</rscale>
<asrwt>0</asrwt>
<pdfrwt beam="1">  1        2 0.31203246E+00 0.16927483E+04</pdfrwt>
<pdfrwt beam="2">  1       -2 0.46852083E-01 0.16927483E+04</pdfrwt>
<totfact> 0.26561298E+01</totfact>
</mgrwt>
</event>
<event>
 8    2  0.4306980E-052  0.1659607E+04  0.7818608E-02  0.8784743E-01
          2   -1    0    0  501    0  0.00000000000E+00  0.00000000000E+00  0.23725242118E+04  0.23725242118E+04  0.25500000000E-02 0.  1.
         -2   -1    0    0    0  501 -0.00000000000E+00 -0.00000000000E+00 -0.29022836919E+03  0.29022836920E+03  0.25500000000E-02 0. -1.
    -200001    2    1    2    0    0  0.25564473067E+03  0.24936699813E+03  0.35057249137E+03  0.79134324755E+03  0.61301299796E+03 0.  0.
   -5000001    2    3    3    0    0  0.10295512326E+03  0.35776011300E+03  0.28779826275E+03  0.56952172619E+03  0.32083500541E+03 0.  0.
     200001    1    1    2    0    0 -0.25564473067E+03 -0.24936699813E+03  0.17317233512E+04  0.18714093334E+04  0.61300000000E+03 0. -1.
         13    1    4    4    0    0  0.90619066327E+02  0.41470680232E+03  0.26349799567E+03  0.49962461105E+03  0.10566000000E+00 0.  1.
    -200003    1    4    4    0    0  0.12336056933E+02 -0.56946689319E+02  0.24300267077E+02  0.69897115141E+02  0.30000000000E+02 0.  1.
    -200000    1    3    3    0    0  0.15268960741E+03 -0.10839311487E+03  0.62774228615E+02  0.22182152136E+03  0.10100000000E+03 0.  1.
<mgrwt>
<rscale>  0 0.16596070E+04</rscale>
<asrwt>0</asrwt>
<pdfrwt beam="1">  1        2 0.33893203E+00 0.16596070E+04</pdfrwt>
<pdfrwt beam="2">  1       -2 0.41461195E-01 0.16596070E+04</pdfrwt>
<totfact> 0.27130924E+01</totfact>
</mgrwt>
</event>
<event>
 8    2  0.4306980E-052  0.1725990E+04  0.7818608E-02  0.8746679E-01
         -2   -1    0    0    0  501 -0.00000000000E+00  0.00000000000E+00  0.31283329550E+03  0.31283329552E+03  0.25500000000E-02 0. -1.
          2   -1    0    0  501    0  0.00000000000E+00 -0.00000000000E+00 -0.23806930003E+04  0.23806930003E+04  0.25500000000E-02 0.  1.
    -200001    2    1    2    0    0 -0.48464518986E+03  0.96578738590E+02 -0.15852209016E+04  0.17699909001E+04  0.61297150568E+03 0.  0.
   -5000001    2    3    3    0    0 -0.57772635875E+03  0.72288618336E+02 -0.96448478705E+03  0.11337767555E+04  0.12737910670E+03 0.  0.
     200001    1    1    2    0    0  0.48464518986E+03 -0.96578738590E+02 -0.48263880321E+03  0.92353539573E+03  0.61300000000E+03 0. -1.
         13    1    4    4    0    0 -0.30878582617E+03  0.16902512646E+02 -0.40253887405E+03  0.50761396520E+03  0.10566000000E+00 0.  1.
    -200003    1    4    4    0    0 -0.26894053258E+03  0.55386105689E+02 -0.56194591300E+03  0.62616279026E+03  0.30000000000E+02 0.  1.
    -200000    1    3    3    0    0  0.93081168891E+02  0.24290120255E+02 -0.62073611453E+03  0.63621414463E+03  0.10100000000E+03 0.  1.
<mgrwt>
<rscale>  0 0.17259896E+04</rscale>
<asrwt>0</asrwt>
<pdfrwt beam="1">  1        2 0.34009899E+00 0.17259896E+04</pdfrwt>
<pdfrwt beam="2">  1       -2 0.44690472E-01 0.17259896E+04</pdfrwt>
<totfact> 0.23030380E+01</totfact>
</mgrwt>
</event>
<event>
 8    2  0.4306980E-052  0.1575269E+04  0.7818608E-02  0.8835887E-01
          2   -1    0    0  501    0  0.00000000000E+00  0.00000000000E+00  0.10055922462E+04  0.10055922462E+04  0.25500000000E-02 0.  1.
         -2   -1    0    0    0  501 -0.00000000000E+00 -0.00000000000E+00 -0.61691784232E+03  0.61691784233E+03  0.25500000000E-02 0. -1.
    -200001    2    1    2    0    0 -0.10089156547E+03  0.33913873350E+03 -0.16372002229E+03  0.72467781546E+03  0.61086782693E+03 0.  0.
   -5000001    2    3    3    0    0  0.19274407968E+03  0.21458956673E+03  0.29006701632E+02  0.33857034705E+03  0.17489862424E+03 0.  0.
     200001    1    1    2    0    0  0.10089156547E+03 -0.33913873350E+03  0.55239442622E+03  0.89783227312E+03  0.61300000000E+03 0.  1.
         13    1    4    4    0    0  0.49497506105E+02  0.38979870613E+02  0.82488334891E+02  0.10379677250E+03  0.10566000000E+00 0.  1.
    -200003    1    4    4    0    0  0.14324657358E+03  0.17560969612E+03 -0.53481633259E+02  0.23477357456E+03  0.30000000000E+02 0.  1.
    -200000    1    3    3    0    0 -0.29363564515E+03  0.12454916676E+03 -0.19272672393E+03  0.38610746841E+03  0.10100000000E+03 0. -1.
<mgrwt>
<rscale>  0 0.15752686E+04</rscale>
<asrwt>0</asrwt>
<pdfrwt beam="1">  1        2 0.14365603E+00 0.15752686E+04</pdfrwt>
<pdfrwt beam="2">  1       -2 0.88131122E-01 0.15752686E+04</pdfrwt>
<totfact> 0.29762076E+01</totfact>
</mgrwt>
</event>
<event>
 8    2  0.4306980E-052  0.1273301E+04  0.7818608E-02  0.9051010E-01
          2   -1    0    0  501    0  0.00000000000E+00  0.00000000000E+00  0.17125512311E+04  0.17125512311E+04  0.25500000000E-02 0.  1.
         -2   -1    0    0    0  501 -0.00000000000E+00 -0.00000000000E+00 -0.23667826786E+03  0.23667826788E+03  0.25500000000E-02 0. -1.
    -200001    2    1    2    0    0 -0.14422146539E+02 -0.12400730739E+03  0.56132745484E+03  0.84119145923E+03  0.61394523284E+03 0.  0.
   -5000001    2    3    3    0    0  0.81983460077E+02 -0.33700468339E+03  0.39328288786E+03  0.53606542025E+03  0.11136094716E+03 0.  0.
     200001    1    1    2    0    0  0.14422146539E+02  0.12400730739E+03  0.91454550837E+03  0.11080380397E+04  0.61300000000E+03 0.  1.
         13    1    4    4    0    0  0.95838324870E+02 -0.18717398355E+03  0.21263505700E+03  0.29905311110E+03  0.10566000000E+00 0.  1.
    -200003    1    4    4    0    0 -0.13854864793E+02 -0.14983069985E+03  0.18064783086E+03  0.23701230915E+03  0.30000000000E+02 0.  1.
    -200000    1    3    3    0    0 -0.96405606615E+02  0.21299737600E+03  0.16804456698E+03  0.30512603898E+03  0.10100000000E+03 0. -1.
<mgrwt>
<rscale>  0 0.12733007E+04</rscale>
<asrwt>0</asrwt>
<pdfrwt beam="1">  1        2 0.24465019E+00 0.12733007E+04</pdfrwt>
<pdfrwt beam="2">  1       -2 0.33811180E-01 0.12733007E+04</pdfrwt>
<totfact> 0.90779912E+01</totfact>
</mgrwt>
</event>
<event>
 8    2  0.4306980E-052  0.1460174E+04  0.7818608E-02  0.8911378E-01
          2   -1    0    0  501    0  0.00000000000E+00  0.00000000000E+00  0.63233199404E+03  0.63233199405E+03  0.25500000000E-02 0.  1.
         -2   -1    0    0    0  501 -0.00000000000E+00 -0.00000000000E+00 -0.84295385181E+03  0.84295385181E+03  0.25500000000E-02 0. -1.
    -200001    2    1    2    0    0 -0.72428032155E+02 -0.98934039971E+02 -0.48538228119E+03  0.79242710909E+03  0.61425646128E+03 0.  0.
   -5000001    2    3    3    0    0 -0.26124428694E+03 -0.24430314597E+03 -0.31464286344E+03  0.48236791503E+03  0.75802832014E+02 0.  0.
     200001    1    1    2    0    0  0.72428032155E+02  0.98934039971E+02  0.27476042342E+03  0.68285873677E+03  0.61300000000E+03 0.  1.
         13    1    4    4    0    0 -0.15707190458E+03 -0.10474763885E+03 -0.16849129763E+03  0.25304738607E+03  0.10566000000E+00 0.  1.
    -200003    1    4    4    0    0 -0.10417238236E+03 -0.13955550711E+03 -0.14615156581E+03  0.22932052896E+03  0.30000000000E+02 0. -1.
    -200000    1    3    3    0    0  0.18881625479E+03  0.14536910600E+03 -0.17073941775E+03  0.31005919406E+03  0.10100000000E+03 0. -1.
<mgrwt>
<rscale>  0 0.14601735E+04</rscale>
<asrwt>0</asrwt>
<pdfrwt beam="1">  1        2 0.90333142E-01 0.14601735E+04</pdfrwt>
<pdfrwt beam="2">  1       -2 0.12042198E+00 0.14601735E+04</pdfrwt>
<totfact> 0.26038139E+01</totfact>
</mgrwt>
</event>
<event>
 8    2  0.4306980E-052  0.2450844E+04  0.7818608E-02  0.8420710E-01
         -2   -1    0    0    0  501 -0.00000000000E+00  0.00000000000E+00  0.12231061832E+04  0.12231061832E+04  0.25500000000E-02 0. -1.
          2   -1    0    0  501    0  0.00000000000E+00 -0.00000000000E+00 -0.12277421311E+04  0.12277421311E+04  0.25500000000E-02 0.  1.
    -200001    2    1    2    0    0 -0.34710293583E+03 -0.29603713142E+03  0.95599604048E+03  0.12233707184E+04  0.61203680760E+03 0.  0.
   -5000001    2    3    3    0    0 -0.21769272232E+02  0.16519379404E+03  0.16993592980E+03  0.25040234431E+03  0.77847434099E+02 0.  0.
     200001    1    1    2    0    0  0.34710293583E+03  0.29603713142E+03 -0.96063198842E+03  0.12274775959E+04  0.61300000000E+03 0.  1.
         13    1    4    4    0    0 -0.37271611382E+02  0.10159450009E+03  0.12581561416E+03  0.16595238894E+03  0.10566000000E+00 0.  1.
    -200003    1    4    4    0    0  0.15502339150E+02  0.63599293950E+02  0.44120315637E+02  0.84449955370E+02  0.30000000000E+02 0.  1.
    -200000    1    3    3    0    0 -0.32533366360E+03 -0.46123092546E+03  0.78606011068E+03  0.97296837404E+03  0.10100000000E+03 0. -1.
<mgrwt>
<rscale>  0 0.24508439E+04</rscale>
<asrwt>0</asrwt>
<pdfrwt beam="1">  1        2 0.17539173E+00 0.24508439E+04</pdfrwt>
<pdfrwt beam="2">  1       -2 0.17472946E+00 0.24508439E+04</pdfrwt>
<totfact> 0.36622420E+00</totfact>
</mgrwt>
</event>
<event>
 8    2  0.4306980E-052  0.1883972E+04  0.7818608E-02  0.8662876E-01
         -2   -1    0    0    0  501 -0.00000000000E+00  0.00000000000E+00  0.68416748731E+03  0.68416748731E+03  0.25500000000E-02 0. -1.
          2   -1    0    0  501    0  0.00000000000E+00 -0.00000000000E+00 -0.12969594988E+04  0.12969594988E+04  0.25500000000E-02 0.  1.
    -200001    2    1    2    0    0 -0.58698673084E+03 -0.20986193851E+03  0.62107967241E+02  0.87665677978E+03  0.61324893357E+03 0.  0.
   -5000001    2    3    3    0    0 -0.47998078216E+03  0.43746882514E+02  0.22782578251E+03  0.53986143918E+03  0.85149547073E+02 0.  0.
     200001    1    1    2    0    0  0.58698673084E+03  0.20986193851E+03 -0.67489997878E+03  0.11044702064E+04  0.61300000000E+03 0.  1.
         13    1    4    4    0    0 -0.19871311567E+03 -0.18577615235E+02  0.85248837349E+02  0.21702397462E+03  0.10566000000E+00 0.  1.
    -200003    1    4    4    0    0 -0.28126766649E+03  0.62324497749E+02  0.14257694516E+03  0.32283746456E+03  0.30000000000E+02 0.  1.
    -200000    1    3    3    0    0 -0.10700594869E+03 -0.25360882102E+03 -0.16571781527E+03  0.33679534060E+03  0.10100000000E+03 0. -1.
<mgrwt>
<rscale>  0 0.18839719E+04</rscale>
<asrwt>0</asrwt>
<pdfrwt beam="1">  1        2 0.18527993E+00 0.18839719E+04</pdfrwt>
<pdfrwt beam="2">  1       -2 0.97738214E-01 0.18839719E+04</pdfrwt>
<totfact> 0.15465626E+01</totfact>
</mgrwt>
</event>
<event>
 8    2  0.4306980E-052  0.1800409E+04  0.7818608E-02  0.8706082E-01
          2   -1    0    0  501    0  0.00000000000E+00  0.00000000000E+00  0.11305246036E+04  0.11305246036E+04  0.25500000000E-02 0.  1.
         -2   -1    0    0    0  501 -0.00000000000E+00 -0.00000000000E+00 -0.71680743497E+03  0.71680743497E+03  0.25500000000E-02 0. -1.
    -200001    2    1    2    0    0 -0.35786229616E+03 -0.20018710627E+03  0.73642025129E+03  0.10423186349E+04  0.61316641264E+03 0.  0.
   -5000001    2    3    3    0    0 -0.26628460405E+03  0.13014582192E+03  0.47231310942E+03  0.59795403287E+03  0.21592574366E+03 0.  0.
     200001    1    1    2    0    0  0.35786229616E+03  0.20018710627E+03 -0.32270308267E+03  0.80501340368E+03  0.61300000000E+03 0. -1.
         13    1    4    4    0    0 -0.14584662857E+02 -0.52359449298E+02  0.69826183245E+02  0.88486899325E+02  0.10566000000E+00 0.  1.
    -200003    1    4    4    0    0 -0.25169994119E+03  0.18250527122E+03  0.40248692618E+03  0.50946713354E+03  0.30000000000E+02 0.  1.
    -200000    1    3    3    0    0 -0.91577692116E+02 -0.33033292819E+03  0.26410714186E+03  0.44436460202E+03  0.10100000000E+03 0. -1.
<mgrwt>
<rscale>  0 0.18004093E+04</rscale>
<asrwt>0</asrwt>
<pdfrwt beam="1">  1        2 0.16150352E+00 0.18004093E+04</pdfrwt>
<pdfrwt beam="2">  1       -2 0.10240106E+00 0.18004093E+04</pdfrwt>
<totfact> 0.17331628E+01</totfact>
</mgrwt>
</event>
<event>
 8    2  0.4306980E-052  0.1283271E+04  0.7818608E-02  0.9042938E-01
          2   -1    0    0  501    0  0.00000000000E+00  0.00000000000E+00  0.76302703170E+03  0.76302703171E+03  0.25500000000E-02 0.  1.
         -2   -1    0    0    0  501 -0.00000000000E+00 -0.00000000000E+00 -0.53955643077E+03  0.53955643078E+03  0.25500000000E-02 0. -1.
    -200001    2    1    2    0    0  0.96293962531E+02  0.16352478369E+03  0.15746913446E+03  0.65749581288E+03  0.60950088888E+03 0.  0.
   -5000001    2    3    3    0    0  0.20357759241E+03 -0.10567806509E+03 -0.91533036561E+02  0.26229582274E+03  0.88369181707E+02 0.  0.
     200001    1    1    2    0    0 -0.96293962531E+02 -0.16352478369E+03  0.66001466470E+02  0.64508764961E+03  0.61300000000E+03 0. -1.
         13    1    4    4    0    0 -0.49169844262E+01 -0.16212022415E+02 -0.56888751535E+01  0.17871230265E+02  0.10566000000E+00 0.  1.
    -200003    1    4    4    0    0  0.20849457683E+03 -0.89466042674E+02 -0.85844161408E+02  0.24442459248E+03  0.30000000000E+02 0.  1.
    -200000    1    3    3    0    0 -0.10728362988E+03  0.26920284878E+03  0.24900217102E+03  0.39519999013E+03  0.10100000000E+03 0.  1.
<mgrwt>
<rscale>  0 0.12832710E+04</rscale>
<asrwt>0</asrwt>
<pdfrwt beam="1">  1        2 0.10900386E+00 0.12832710E+04</pdfrwt>
<pdfrwt beam="2">  1       -2 0.77079490E-01 0.12832710E+04</pdfrwt>
<totfact> 0.59641730E+01</totfact>
</mgrwt>
</event>
<event>
 8    2  0.4306980E-052  0.1441849E+04  0.7818608E-02  0.8924071E-01
          2   -1    0    0  501    0  0.00000000000E+00  0.00000000000E+00  0.37759923450E+04  0.37759923450E+04  0.25500000000E-02 0.  1.
         -2   -1    0    0    0  501 -0.00000000000E+00 -0.00000000000E+00 -0.13764127021E+03  0.13764127024E+03  0.25500000000E-02 0. -1.
    -200001    2    1    2    0    0  0.49484790210E+02 -0.19567068327E+03  0.26909694018E+04  0.27673191754E+04  0.61319110895E+03 0.  0.
   -5000001    2    3    3    0    0 -0.94929204362E+01  0.15791535047E+03  0.16929640528E+04  0.17020881534E+04  0.77132510944E+02 0.  0.
     200001    1    1    2    0    0 -0.49484790210E+02  0.19567068327E+03  0.94738167294E+03  0.11463144398E+04  0.61300000000E+03 0. -1.
         13    1    4    4    0    0 -0.11384556349E+02  0.29376858027E+02  0.13893082965E+03  0.14245839569E+03  0.10566000000E+00 0.  1.
    -200003    1    4    4    0    0  0.18916359127E+01  0.12853849244E+03  0.15540332232E+04  0.15596297577E+04  0.30000000000E+02 0.  1.
    -200000    1    3    3    0    0  0.58977710646E+02 -0.35358603374E+03  0.99800534899E+03  0.10652310220E+04  0.10100000000E+03 0.  1.
<mgrwt>
<rscale>  0 0.14418493E+04</rscale>
<asrwt>0</asrwt>
<pdfrwt beam="1">  1        2 0.53942740E+00 0.14418493E+04</pdfrwt>
<pdfrwt beam="2">  1       -2 0.19663041E-01 0.14418493E+04</pdfrwt>
<totfact> 0.17499139E+01</totfact>
</mgrwt>
</event>
<event>
 8    2  0.4306980E-052  0.1631049E+04  0.7818608E-02  0.8801697E-01
         -2   -1    0    0    0  501 -0.00000000000E+00  0.00000000000E+00  0.56232763735E+03  0.56232763735E+03  0.25500000000E-02 0. -1.
          2   -1    0    0  501    0  0.00000000000E+00 -0.00000000000E+00 -0.11827279207E+04  0.11827279207E+04  0.25500000000E-02 0.  1.
    -200001    2    1    2    0    0 -0.45381906927E+03  0.28484210110E+03 -0.24634002478E+03  0.84907740697E+03  0.61087008850E+03 0.  0.
   -5000001    2    3    3    0    0 -0.23433160864E+03  0.21457195924E+03 -0.42514076002E+03  0.54039740903E+03  0.10164775132E+03 0.  0.
     200001    1    1    2    0    0  0.45381906927E+03 -0.28484210110E+03 -0.37406025858E+03  0.89597815109E+03  0.61300000000E+03 0.  1.
         13    1    4    4    0    0 -0.10864044647E+03  0.58699187079E+02 -0.21924538987E+03  0.25162848272E+03  0.10566000000E+00 0.  1.
    -200003    1    4    4    0    0 -0.12569116217E+03  0.15587277216E+03 -0.20589537015E+03  0.28876892631E+03  0.30000000000E+02 0.  1.
    -200000    1    3    3    0    0 -0.21948746063E+03  0.70270141855E+02  0.17880073524E+03  0.30867999794E+03  0.10100000000E+03 0. -1.
<mgrwt>
<rscale>  0 0.16310495E+04</rscale>
<asrwt>0</asrwt>
<pdfrwt beam="1">  1        2 0.16896113E+00 0.16310495E+04</pdfrwt>
<pdfrwt beam="2">  1       -2 0.80332520E-01 0.16310495E+04</pdfrwt>
<totfact> 0.28714844E+01</totfact>
</mgrwt>
</event>
<event>
 8    2  0.4306980E-052  0.1297392E+04  0.7818608E-02  0.9031636E-01
          2   -1    0    0  501    0  0.00000000000E+00  0.00000000000E+00  0.79456396477E+03  0.79456396477E+03  0.25500000000E-02 0.  1.
         -2   -1    0    0    0  501 -0.00000000000E+00 -0.00000000000E+00 -0.52960684329E+03  0.52960684330E+03  0.25500000000E-02 0. -1.
    -200001    2    1    2    0    0 -0.48866790159E+02  0.19713415126E+03  0.70339309751E+02  0.64971181791E+03  0.61312966904E+03 0.  0.
   -5000001    2    3    3    0    0  0.17183941951E+03  0.29561034220E+03  0.12980783762E+03  0.38111119063E+03  0.10715131545E+03 0.  0.
     200001    1    1    2    0    0  0.48866790159E+02 -0.19713415126E+03  0.19461781172E+03  0.67445899016E+03  0.61300000000E+03 0.  1.
         13    1    4    4    0    0  0.30680737643E+02  0.14937736434E+03  0.46674640092E+02  0.15947864381E+03  0.10566000000E+00 0.  1.
    -200003    1    4    4    0    0  0.14115868186E+03  0.14623297787E+03  0.83133197523E+02  0.22163254682E+03  0.30000000000E+02 0.  1.
    -200000    1    3    3    0    0 -0.22070620966E+03 -0.98476190947E+02 -0.59468527865E+02  0.26860062728E+03  0.10100000000E+03 0. -1.
<mgrwt>
<rscale>  0 0.12973920E+04</rscale>
<asrwt>0</asrwt>
<pdfrwt beam="1">  1        2 0.11350914E+00 0.12973920E+04</pdfrwt>
<pdfrwt beam="2">  1       -2 0.75658120E-01 0.12973920E+04</pdfrwt>
<totfact> 0.58964626E+01</totfact>
</mgrwt>
</event>
<event>
 8    2  0.4306980E-052  0.1302336E+04  0.7818608E-02  0.9027715E-01
          2   -1    0    0  501    0  0.00000000000E+00  0.00000000000E+00  0.20280931412E+04  0.20280931412E+04  0.25500000000E-02 0.  1.
         -2   -1    0    0    0  501 -0.00000000000E+00 -0.00000000000E+00 -0.20907297157E+03  0.20907297159E+03  0.25500000000E-02 0. -1.
    -200001    2    1    2    0    0 -0.69722476241E+01 -0.23079580355E+03  0.82427065619E+03  0.10461115760E+04  0.60134183255E+03 0.  0.
   -5000001    2    3    3    0    0  0.63139181160E+02  0.69013274956E+02  0.59439130382E+03  0.64881242843E+03  0.24270796631E+03 0.  0.
     200001    1    1    2    0    0  0.69722476241E+01  0.23079580355E+03  0.99474951347E+03  0.11910545368E+04  0.61300000000E+03 0.  1.
         13    1    4    4    0    0 -0.27132542130E+02 -0.78346266532E+02  0.22787495367E+03  0.24248983071E+03  0.10566000000E+00 0.  1.
    -200003    1    4    4    0    0  0.90271723290E+02  0.14735954149E+03  0.36651635015E+03  0.40632259772E+03  0.30000000000E+02 0.  1.
    -200000    1    3    3    0    0 -0.70111428784E+02 -0.29980907851E+03  0.22987935237E+03  0.39729914756E+03  0.10100000000E+03 0. -1.
<mgrwt>
<rscale>  0 0.13023355E+04</rscale>
<asrwt>0</asrwt>
<pdfrwt beam="1">  1        2 0.28972758E+00 0.13023355E+04</pdfrwt>
<pdfrwt beam="2">  1       -2 0.29867568E-01 0.13023355E+04</pdfrwt>
<totfact> 0.78690716E+01</totfact>
</mgrwt>
</event>
<event>
 8    2  0.4306980E-052  0.1334683E+04  0.7818608E-02  0.9002504E-01
         -2   -1    0    0    0  501 -0.00000000000E+00  0.00000000000E+00  0.22047479079E+03  0.22047479080E+03  0.25500000000E-02 0. -1.
          2   -1    0    0  501    0  0.00000000000E+00 -0.00000000000E+00 -0.20199354325E+04  0.20199354325E+04  0.25500000000E-02 0.  1.
    -200001    2    1    2    0    0  0.20694482031E+03 -0.16414633642E+03 -0.88449806669E+03  0.11078486611E+04  0.61255338344E+03 0.  0.
   -5000001    2    3    3    0    0  0.24653997652E+03  0.15354854859E+03 -0.45408444639E+03  0.56199639091E+03  0.15902245798E+03 0.  0.
     200001    1    1    2    0    0 -0.20694482031E+03  0.16414633642E+03 -0.91496257500E+03  0.11325615622E+04  0.61300000000E+03 0.  1.
         13    1    4    4    0    0  0.33387464683E+02  0.10190948959E+03 -0.11684526823E+03  0.15859727216E+03  0.10566000000E+00 0.  1.
    -200003    1    4    4    0    0  0.21315251184E+03  0.51639059006E+02 -0.33723917816E+03  0.40339911875E+03  0.30000000000E+02 0.  1.
    -200000    1    3    3    0    0 -0.39595156211E+02 -0.31769488502E+03 -0.43041362030E+03  0.54585227021E+03  0.10100000000E+03 0.  1.
<mgrwt>
<rscale>  0 0.13346832E+04</rscale>
<asrwt>0</asrwt>
<pdfrwt beam="1">  1        2 0.28856219E+00 0.13346832E+04</pdfrwt>
<pdfrwt beam="2">  1       -2 0.31496400E-01 0.13346832E+04</pdfrwt>
<totfact> 0.71771140E+01</totfact>
</mgrwt>
</event>
<event>
 8    2  0.4306980E-052  0.1701878E+04  0.7818608E-02  0.8760294E-01
          2   -1    0    0  501    0  0.00000000000E+00  0.00000000000E+00  0.10436675255E+04  0.10436675255E+04  0.25500000000E-02 0.  1.
         -2   -1    0    0    0  501 -0.00000000000E+00 -0.00000000000E+00 -0.69380024283E+03  0.69380024283E+03  0.25500000000E-02 0. -1.
    -200001    2    1    2    0    0  0.39328385320E+03  0.18723503513E+03 -0.23079617713E+03  0.78737924555E+03  0.61397887046E+03 0.  0.
   -5000001    2    3    3    0    0  0.10287885163E+03 -0.13339821149E+03  0.89466741177E+02  0.23973877898E+03  0.14522824597E+03 0.  0.
     200001    1    1    2    0    0 -0.39328385320E+03 -0.18723503513E+03  0.58066345980E+03  0.95008852278E+03  0.61300000000E+03 0.  1.
         13    1    4    4    0    0  0.97339440359E+02 -0.12563262588E+03  0.15903686924E+02  0.15972307835E+03  0.10566000000E+00 0.  1.
    -200003    1    4    4    0    0  0.55394112753E+01 -0.77655856109E+01  0.73563054253E+02  0.80015700635E+02  0.30000000000E+02 0. -1.
    -200000    1    3    3    0    0  0.29040500157E+03  0.32063324662E+03 -0.32026291831E+03  0.54764046657E+03  0.10100000000E+03 0. -1.
<mgrwt>
<rscale>  0 0.17018775E+04</rscale>
<asrwt>0</asrwt>
<pdfrwt beam="1">  1        2 0.14909536E+00 0.17018775E+04</pdfrwt>
<pdfrwt beam="2">  1       -2 0.99114321E-01 0.17018775E+04</pdfrwt>
<totfact> 0.21255622E+01</totfact>
</mgrwt>
</event>
<event>
 8    2  0.4306980E-052  0.1367987E+04  0.7818608E-02  0.8977323E-01
          2   -1    0    0  501    0  0.00000000000E+00  0.00000000000E+00  0.35876535323E+04  0.35876535323E+04  0.25500000000E-02 0.  1.
         -2   -1    0    0    0  501 -0.00000000000E+00 -0.00000000000E+00 -0.13040482792E+03  0.13040482794E+03  0.25500000000E-02 0. -1.
    -200001    2    1    2    0    0 -0.17929817760E+03 -0.22039059272E+03  0.20233456590E+04  0.21329505426E+04  0.61223403346E+03 0.  0.
   -5000001    2    3    3    0    0 -0.29315854730E+03 -0.32025190156E+03  0.13022319570E+04  0.13892150816E+04  0.21355856066E+03 0.  0.
     200001    1    1    2    0    0  0.17929817760E+03  0.22039059272E+03  0.14339030454E+04  0.15851078176E+04  0.61300000000E+03 0. -1.
         13    1    4    4    0    0 -0.30497172333E+03 -0.33040757668E+03  0.11957113606E+04  0.12774594270E+04  0.10566000000E+00 0.  1.
    -200003    1    4    4    0    0  0.11813176034E+02  0.10155675125E+02  0.10652059645E+03  0.11175565459E+03  0.30000000000E+02 0.  1.
    -200000    1    3    3    0    0  0.11386036970E+03  0.99861308843E+02  0.72111370196E+03  0.74373546100E+03  0.10100000000E+03 0.  1.
<mgrwt>
<rscale>  0 0.13679873E+04</rscale>
<asrwt>0</asrwt>
<pdfrwt beam="1">  1        2 0.51252183E+00 0.13679873E+04</pdfrwt>
<pdfrwt beam="2">  1       -2 0.18629265E-01 0.13679873E+04</pdfrwt>
<totfact> 0.25470642E+01</totfact>
</mgrwt>
</event>
<event>
 8    2  0.4306980E-052  0.1385347E+04  0.7818608E-02  0.8964494E-01
          2   -1    0    0  501    0  0.00000000000E+00  0.00000000000E+00  0.57585338179E+03  0.57585338180E+03  0.25500000000E-02 0.  1.
         -2   -1    0    0    0  501 -0.00000000000E+00 -0.00000000000E+00 -0.83319198038E+03  0.83319198038E+03  0.25500000000E-02 0. -1.
    -200001    2    1    2    0    0 -0.26025458953E+03  0.14990532458E+03 -0.24738326053E+03  0.72635057938E+03  0.61333728801E+03 0.  0.
   -5000001    2    3    3    0    0 -0.24729987570E+03 -0.86762169963E+02 -0.34851614210E+03  0.44956873872E+03  0.10937845706E+03 0.  0.
     200001    1    1    2    0    0  0.26025458953E+03 -0.14990532458E+03 -0.99553380553E+01  0.68269478280E+03  0.61300000000E+03 0.  1.
         13    1    4    4    0    0  0.10317828954E+02 -0.70097814831E+01 -0.12317711768E+02  0.17530881837E+02  0.10566000000E+00 0.  1.
    -200003    1    4    4    0    0 -0.25761770465E+03 -0.79752388480E+02 -0.33619843033E+03  0.43203785688E+03  0.30000000000E+02 0.  1.
    -200000    1    3    3    0    0 -0.12954713830E+02  0.23666749454E+03  0.10113288158E+03  0.27678184066E+03  0.10100000000E+03 0.  1.
<mgrwt>
<rscale>  0 0.13853468E+04</rscale>
<asrwt>0</asrwt>
<pdfrwt beam="1">  1        2 0.82264769E-01 0.13853468E+04</pdfrwt>
<pdfrwt beam="2">  1       -2 0.11902742E+00 0.13853468E+04</pdfrwt>
<totfact> 0.30119189E+01</totfact>
</mgrwt>
</event>
<event>
 8    2  0.4306980E-052  0.1324991E+04  0.7818608E-02  0.9009978E-01
          2   -1    0    0  501    0  0.00000000000E+00  0.00000000000E+00  0.12045097079E+04  0.12045097079E+04  0.25500000000E-02 0.  1.
         -2   -1    0    0    0  501 -0.00000000000E+00 -0.00000000000E+00 -0.36438087403E+03  0.36438087404E+03  0.25500000000E-02 0. -1.
    -200001    2    1    2    0    0 -0.18487723089E+03  0.88944270364E+02  0.24877786998E+03  0.69278805585E+03  0.61316734095E+03 0.  0.
   -5000001    2    3    3    0    0 -0.24716379166E+03  0.95804272335E+02 -0.11157441951E+03  0.31333918207E+03  0.12435511015E+03 0.  0.
     200001    1    1    2    0    0  0.18487723089E+03 -0.88944270364E+02  0.59135096389E+03  0.87610252609E+03  0.61300000000E+03 0.  1.
         13    1    4    4    0    0 -0.19480382031E+03  0.10118186356E+03 -0.12309090718E+03  0.25166978466E+03  0.10566000000E+00 0.  1.
    -200003    1    4    4    0    0 -0.52359971356E+02 -0.53775912205E+01  0.11516487664E+02  0.61669397402E+02  0.30000000000E+02 0. -1.
    -200000    1    3    3    0    0  0.62286560775E+02 -0.68600019707E+01  0.36035228949E+03  0.37944887379E+03  0.10100000000E+03 0.  1.
<mgrwt>
<rscale>  0 0.13249910E+04</rscale>
<asrwt>0</asrwt>
<pdfrwt beam="1">  1        2 0.17207282E+00 0.13249910E+04</pdfrwt>
<pdfrwt beam="2">  1       -2 0.52054410E-01 0.13249910E+04</pdfrwt>
<totfact> 0.72471970E+01</totfact>
</mgrwt>
</event>
<event>
 8    2  0.4306980E-052  0.1341076E+04  0.7818608E-02  0.8997611E-01
          2   -1    0    0  501    0  0.00000000000E+00  0.00000000000E+00  0.24664190806E+04  0.24664190806E+04  0.25500000000E-02 0.  1.
         -2   -1    0    0    0  501 -0.00000000000E+00 -0.00000000000E+00 -0.18229719980E+03  0.18229719982E+03  0.25500000000E-02 0. -1.
    -200001    2    1    2    0    0 -0.11492066588E+03  0.75195158893E+01  0.65509846910E+03  0.90436838551E+03  0.61275188285E+03 0.  0.
   -5000001    2    3    3    0    0  0.17495575309E+03  0.12554426490E+03  0.40199961333E+03  0.48937656578E+03  0.17752424069E+03 0.  0.
     200001    1    1    2    0    0  0.11492066588E+03 -0.75195158893E+01  0.16290234117E+04  0.17443478949E+04  0.61300000000E+03 0.  1.
         13    1    4    4    0    0  0.13224484282E+03 -0.10835127658E+02  0.17888878257E+03  0.22272697667E+03  0.10566000000E+00 0.  1.
    -200003    1    4    4    0    0  0.42710910268E+02  0.13637939256E+03  0.22311083076E+03  0.26664958911E+03  0.30000000000E+02 0.  1.
    -200000    1    3    3    0    0 -0.28987641897E+03 -0.11802474901E+03  0.25309885576E+03  0.41499181973E+03  0.10100000000E+03 0. -1.
<mgrwt>
<rscale>  0 0.13410761E+04</rscale>
<asrwt>0</asrwt>
<pdfrwt beam="1">  1        2 0.35234559E+00 0.13410761E+04</pdfrwt>
<pdfrwt beam="2">  1       -2 0.26042457E-01 0.13410761E+04</pdfrwt>
<totfact> 0.59960027E+01</totfact>
</mgrwt>
</event>
<event>
 8    2  0.4306980E-052  0.1463227E+04  0.7818608E-02  0.8909282E-01
          2   -1    0    0  501    0  0.00000000000E+00  0.00000000000E+00  0.22768404046E+04  0.22768404046E+04  0.25500000000E-02 0.  1.
         -2   -1    0    0    0  501 -0.00000000000E+00 -0.00000000000E+00 -0.23508813705E+03  0.23508813706E+03  0.25500000000E-02 0. -1.
    -200001    2    1    2    0    0 -0.66094344991E+02  0.11169485261E+03  0.16692668077E+04  0.17829850457E+04  0.61297617837E+03 0.  0.
   -5000001    2    3    3    0    0  0.77267151050E+02  0.23890748115E+03  0.14497399769E+04  0.14745557980E+04  0.97579728665E+02 0.  0.
     200001    1    1    2    0    0  0.66094344991E+02 -0.11169485261E+03  0.37248545983E+03  0.72894349598E+03  0.61300000000E+03 0. -1.
         13    1    4    4    0    0  0.32087876029E+02  0.97168913608E+02  0.35866938234E+03  0.37298145604E+03  0.10566000000E+00 0.  1.
    -200003    1    4    4    0    0  0.45179275021E+02  0.14173856755E+03  0.10910705946E+04  0.11015743419E+04  0.30000000000E+02 0.  1.
    -200000    1    3    3    0    0 -0.14336149604E+03 -0.12721262854E+03  0.21952683078E+03  0.30842924770E+03  0.10100000000E+03 0. -1.
<mgrwt>
<rscale>  0 0.14632268E+04</rscale>
<asrwt>0</asrwt>
<pdfrwt beam="1">  1        2 0.32526292E+00 0.14632268E+04</pdfrwt>
<pdfrwt beam="2">  1       -2 0.33584019E-01 0.14632268E+04</pdfrwt>
<totfact> 0.46429727E+01</totfact>
</mgrwt>
</event>
<event>
 8    2  0.4306980E-052  0.1253494E+04  0.7818608E-02  0.9067280E-01
          2   -1    0    0  501    0  0.00000000000E+00  0.00000000000E+00  0.64140104145E+03  0.64140104146E+03  0.25500000000E-02 0.  1.
         -2   -1    0    0    0  501 -0.00000000000E+00 -0.00000000000E+00 -0.61242744426E+03  0.61242744427E+03  0.25500000000E-02 0. -1.
    -200001    2    1    2    0    0 -0.90202711854E+02  0.90052269775E+02 -0.34954306118E+02  0.62446236228E+03  0.61031590006E+03 0.  0.
   -5000001    2    3    3    0    0  0.18061030134E+03 -0.61292389939E+02 -0.14081964996E+03  0.28145599913E+03  0.15169201566E+03 0.  0.
     200001    1    1    2    0    0  0.90202711854E+02 -0.90052269775E+02  0.63927903310E+02  0.62936612344E+03  0.61300000000E+03 0. -1.
         13    1    4    4    0    0  0.24783342829E+02 -0.80134140556E+02 -0.47102601295E+02  0.96199588238E+02  0.10566000000E+00 0.  1.
    -200003    1    4    4    0    0  0.15582695851E+03  0.18841750617E+02 -0.93717048669E+02  0.18525641089E+03  0.30000000000E+02 0.  1.
    -200000    1    3    3    0    0 -0.27081301319E+03  0.15134465971E+03  0.10586534385E+03  0.34300636315E+03  0.10100000000E+03 0. -1.
<mgrwt>
<rscale>  0 0.12534937E+04</rscale>
<asrwt>0</asrwt>
<pdfrwt beam="1">  1        2 0.91628720E-01 0.12534937E+04</pdfrwt>
<pdfrwt beam="2">  1       -2 0.87489635E-01 0.12534937E+04</pdfrwt>
<totfact> 0.55636167E+01</totfact>
</mgrwt>
</event>
<event>
 8    2  0.4306980E-052  0.1678697E+04  0.7818608E-02  0.8773608E-01
         -2   -1    0    0    0  501 -0.00000000000E+00  0.00000000000E+00  0.38957025927E+03  0.38957025928E+03  0.25500000000E-02 0. -1.
          2   -1    0    0  501    0  0.00000000000E+00 -0.00000000000E+00 -0.18084175910E+04  0.18084175910E+04  0.25500000000E-02 0.  1.
    -200001    2    1    2    0    0 -0.19460508007E+03 -0.53391966608E+03 -0.60396409107E+03  0.10306211371E+04  0.61193623688E+03 0.  0.
   -5000001    2    3    3    0    0  0.12426994501E+03 -0.17288619397E+03 -0.36831975602E+03  0.48495117989E+03  0.23277789609E+03 0.  0.
     200001    1    1    2    0    0  0.19460508007E+03  0.53391966608E+03 -0.81488324066E+03  0.11673667131E+04  0.61300000000E+03 0. -1.
         13    1    4    4    0    0  0.15551314617E+03 -0.10485420516E+03 -0.35731930538E+03  0.40355401142E+03  0.10566000000E+00 0.  1.
    -200003    1    4    4    0    0 -0.31243201169E+02 -0.68031988809E+02 -0.11000450640E+02  0.81397168469E+02  0.30000000000E+02 0.  1.
    -200000    1    3    3    0    0 -0.31887502508E+03 -0.36103347212E+03 -0.23564433505E+03  0.54566995725E+03  0.10100000000E+03 0.  1.
<mgrwt>
<rscale>  0 0.16786968E+04</rscale>
<asrwt>0</asrwt>
<pdfrwt beam="1">  1        2 0.25834537E+00 0.16786968E+04</pdfrwt>
<pdfrwt beam="2">  1       -2 0.55652895E-01 0.16786968E+04</pdfrwt>
<totfact> 0.29195348E+01</totfact>
</mgrwt>
</event>
<event>
 8    2  0.4306980E-052  0.2150973E+04  0.7818608E-02  0.8539116E-01
         -2   -1    0    0    0  501 -0.00000000000E+00  0.00000000000E+00  0.73946476536E+03  0.73946476537E+03  0.25500000000E-02 0. -1.
          2   -1    0    0  501    0  0.00000000000E+00 -0.00000000000E+00 -0.15642011594E+04  0.15642011594E+04  0.25500000000E-02 0.  1.
    -200001    2    1    2    0    0 -0.12227687338E+03 -0.58560126574E+03 -0.11085625881E+04  0.14013318488E+04  0.61395395807E+03 0.  0.
   -5000001    2    3    3    0    0 -0.31949216192E+03 -0.40759946487E+03 -0.92143503241E+03  0.10610433929E+04  0.92509444639E+02 0.  0.
     200001    1    1    2    0    0  0.12227687338E+03  0.58560126574E+03  0.28382619404E+03  0.90233407595E+03  0.61300000000E+03 0. -1.
         13    1    4    4    0    0 -0.84033665455E+02 -0.81020449098E+02 -0.14718087299E+03  0.18785151221E+03  0.10566000000E+00 0.  1.
    -200003    1    4    4    0    0 -0.23545849647E+03 -0.32657901577E+03 -0.77425415942E+03  0.87319188068E+03  0.30000000000E+02 0.  1.
    -200000    1    3    3    0    0  0.19721528854E+03 -0.17800180087E+03 -0.18712755564E+03  0.34028845591E+03  0.10100000000E+03 0. -1.
<mgrwt>
<rscale>  0 0.21509734E+04</rscale>
<asrwt>0</asrwt>
<pdfrwt beam="1">  1        2 0.22345731E+00 0.21509734E+04</pdfrwt>
<pdfrwt beam="2">  1       -2 0.10563782E+00 0.21509734E+04</pdfrwt>
<totfact> 0.90287852E+00</totfact>
</mgrwt>
</event>
<event>
 8    2  0.4306980E-052  0.1461681E+04  0.7818608E-02  0.8910342E-01
         -2   -1    0    0    0  501 -0.00000000000E+00  0.00000000000E+00  0.24462710808E+03  0.24462710809E+03  0.25500000000E-02 0. -1.
          2   -1    0    0  501    0  0.00000000000E+00 -0.00000000000E+00 -0.21834361327E+04  0.21834361327E+04  0.25500000000E-02 0.  1.
    -200001    2    1    2    0    0 -0.10912983044E+02  0.26827461055E+03 -0.48465666914E+03  0.82730765895E+03  0.61437408453E+03 0.  0.
   -5000001    2    3    3    0    0 -0.57561624522E+02  0.42132537970E+03 -0.37539579640E+03  0.60881378718E+03  0.22114205231E+03 0.  0.
     200001    1    1    2    0    0  0.10912983044E+02 -0.26827461055E+03 -0.14541523555E+04  0.16007555819E+04  0.61300000000E+03 0.  1.
         13    1    4    4    0    0  0.24471404897E+02  0.35121195271E+03 -0.34461771117E+03  0.49265613099E+03  0.10566000000E+00 0.  1.
    -200003    1    4    4    0    0 -0.82033029419E+02  0.70113426995E+02 -0.30778085230E+02  0.11615765619E+03  0.30000000000E+02 0.  1.
    -200000    1    3    3    0    0  0.46648641479E+02 -0.15305076915E+03 -0.10926087274E+03  0.21849387177E+03  0.10100000000E+03 0.  1.
<mgrwt>
<rscale>  0 0.14616808E+04</rscale>
<asrwt>0</asrwt>
<pdfrwt beam="1">  1        2 0.31191944E+00 0.14616808E+04</pdfrwt>
<pdfrwt beam="2">  1       -2 0.34946731E-01 0.14616808E+04</pdfrwt>
<totfact> 0.48104473E+01</totfact>
</mgrwt>
</event>
<event>
 8    2  0.4306980E-052  0.1941145E+04  0.7818608E-02  0.8634643E-01
         -2   -1    0    0    0  501 -0.00000000000E+00  0.00000000000E+00  0.59805600267E+03  0.59805600268E+03  0.25500000000E-02 0. -1.
          2   -1    0    0  501    0  0.00000000000E+00 -0.00000000000E+00 -0.15751216220E+04  0.15751216220E+04  0.25500000000E-02 0.  1.
    -200001    2    1    2    0    0 -0.67111471877E+03 -0.33041343781E+03 -0.58216283211E+03  0.11285316478E+04  0.61245580364E+03 0.  0.
   -5000001    2    3    3    0    0 -0.58300804473E+03 -0.33782219322E+03 -0.17802144517E+03  0.70268080972E+03  0.89702123512E+02 0.  0.
     200001    1    1    2    0    0  0.67111471877E+03  0.33041343781E+03 -0.39490278724E+03  0.10446459769E+04  0.61300000000E+03 0. -1.
         13    1    4    4    0    0 -0.16164652176E+03 -0.60561820207E+02 -0.22999856631E+02  0.17414458543E+03  0.10566000000E+00 0.  1.
    -200003    1    4    4    0    0 -0.42136152297E+03 -0.27726037301E+03 -0.15502158854E+03  0.52853622430E+03  0.30000000000E+02 0.  1.
    -200000    1    3    3    0    0 -0.88106674034E+02  0.74087554060E+01 -0.40414138694E+03  0.42585083809E+03  0.10100000000E+03 0.  1.
<mgrwt>
<rscale>  0 0.19411450E+04</rscale>
<asrwt>0</asrwt>
<pdfrwt beam="1">  1        2 0.22501737E+00 0.19411450E+04</pdfrwt>
<pdfrwt beam="2">  1       -2 0.85436572E-01 0.19411450E+04</pdfrwt>
<totfact> 0.14882353E+01</totfact>
</mgrwt>
</event>
<event>
 8    2  0.4306980E-052  0.1282434E+04  0.7818608E-02  0.9043613E-01
          2   -1    0    0  501    0  0.00000000000E+00  0.00000000000E+00  0.22206513493E+04  0.22206513493E+04  0.25500000000E-02 0.  1.
         -2   -1    0    0    0  501 -0.00000000000E+00 -0.00000000000E+00 -0.18515240045E+03  0.18515240047E+03  0.25500000000E-02 0. -1.
    -200001    2    1    2    0    0  0.15262385496E+03  0.10852041411E+03  0.97317891561E+03  0.11650928348E+04  0.61261194132E+03 0.  0.
   -5000001    2    3    3    0    0  0.32791764295E+03 -0.63621034661E+02  0.36548245962E+03  0.50187599767E+03  0.82002878814E+02 0.  0.
     200001    1    1    2    0    0 -0.15262385496E+03 -0.10852041411E+03  0.10623200333E+04  0.12407109149E+04  0.61300000000E+03 0. -1.
         13    1    4    4    0    0  0.12293821618E+03  0.11746893603E+02  0.12987367185E+03  0.17921767857E+03  0.10566000000E+00 0.  1.
    -200003    1    4    4    0    0  0.20497942678E+03 -0.75367928264E+02  0.23560878777E+03  0.32265831910E+03  0.30000000000E+02 0.  1.
    -200000    1    3    3    0    0 -0.17529378799E+03  0.17214144877E+03  0.60769645599E+03  0.66321683718E+03  0.10100000000E+03 0. -1.
<mgrwt>
<rscale>  0 0.12824335E+04</rscale>
<asrwt>0</asrwt>
<pdfrwt beam="1">  1        2 0.31723588E+00 0.12824335E+04</pdfrwt>
<pdfrwt beam="2">  1       -2 0.26450345E-01 0.12824335E+04</pdfrwt>
<totfact> 0.78519885E+01</totfact>
</mgrwt>
</event>
<event>
 8    2  0.4306980E-052  0.1317647E+04  0.7818608E-02  0.9015687E-01
         -2   -1    0    0    0  501 -0.00000000000E+00  0.00000000000E+00  0.12270510732E+03  0.12270510734E+03  0.25500000000E-02 0. -1.
          2   -1    0    0  501    0  0.00000000000E+00 -0.00000000000E+00 -0.35373299296E+04  0.35373299296E+04  0.25500000000E-02 0.  1.
    -200001    2    1    2    0    0 -0.11343402055E+03  0.21881239927E+02 -0.11442670284E+04  0.13055415505E+04  0.61785568056E+03 0.  0.
   -5000001    2    3    3    0    0 -0.26362965067E+03  0.87749179249E+02 -0.24358735176E+03  0.38449747298E+03  0.10631555681E+03 0.  0.
     200001    1    1    2    0    0  0.11343402055E+03 -0.21881239927E+02 -0.22703577939E+04  0.23544934865E+04  0.61300000000E+03 0.  1.
         13    1    4    4    0    0 -0.19731873420E+03  0.26687878636E+02 -0.19099017781E+03  0.27590611613E+03  0.10566000000E+00 0.  1.
    -200003    1    4    4    0    0 -0.66310916462E+02  0.61061300614E+02 -0.52597173945E+02  0.10859135685E+03  0.30000000000E+02 0.  1.
    -200000    1    3    3    0    0  0.15019563012E+03 -0.65867939322E+02 -0.90067967666E+03  0.92104407750E+03  0.10100000000E+03 0.  1.
<mgrwt>
<rscale>  0 0.13176471E+04</rscale>
<asrwt>0</asrwt>
<pdfrwt beam="1">  1        2 0.50533278E+00 0.13176471E+04</pdfrwt>
<pdfrwt beam="2">  1       -2 0.17529303E-01 0.13176471E+04</pdfrwt>
<totfact> 0.30548699E+01</totfact>
</mgrwt>
</event>
<event>
 8    2  0.4306980E-052  0.1536494E+04  0.7818608E-02  0.8860541E-01
         -2   -1    0    0    0  501 -0.00000000000E+00  0.00000000000E+00  0.30774905915E+03  0.30774905916E+03  0.25500000000E-02 0. -1.
          2   -1    0    0  501    0  0.00000000000E+00 -0.00000000000E+00 -0.19178064684E+04  0.19178064684E+04  0.25500000000E-02 0.  1.
    -200001    2    1    2    0    0  0.15066709806E+03 -0.10107751752E+02 -0.17447910958E+03  0.65728999024E+03  0.61545465349E+03 0.  0.
   -5000001    2    3    3    0    0 -0.21693953553E+03 -0.60478662632E+02 -0.12426516806E+02  0.23999643823E+03  0.81996593431E+02 0.  0.
     200001    1    1    2    0    0 -0.15066709806E+03  0.10107751752E+02 -0.14355782997E+04  0.15682655373E+04  0.61300000000E+03 0.  1.
         13    1    4    4    0    0 -0.14059399895E+03 -0.11986175957E+02  0.12036703369E+02  0.14161650450E+03  0.10566000000E+00 0.  1.
    -200003    1    4    4    0    0 -0.76345536576E+02 -0.48492486674E+02 -0.24463220175E+02  0.98379933728E+02  0.30000000000E+02 0. -1.
    -200000    1    3    3    0    0  0.36760663359E+03  0.50370910879E+02 -0.16205259278E+03  0.41729355201E+03  0.10100000000E+03 0. -1.
<mgrwt>
<rscale>  0 0.15364936E+04</rscale>
<asrwt>0</asrwt>
<pdfrwt beam="1">  1        2 0.27397235E+00 0.15364936E+04</pdfrwt>
<pdfrwt beam="2">  1       -2 0.43964152E-01 0.15364936E+04</pdfrwt>
<totfact> 0.41880099E+01</totfact>
</mgrwt>
</event>
<event>
 8    2  0.4306980E-052  0.1263418E+04  0.7818608E-02  0.9059089E-01
         -2   -1    0    0    0  501 -0.00000000000E+00  0.00000000000E+00  0.50416556491E+03  0.50416556492E+03  0.25500000000E-02 0.  1.
          2   -1    0    0  501    0  0.00000000000E+00 -0.00000000000E+00 -0.79151777170E+03  0.79151777171E+03  0.25500000000E-02 0. -1.
    -200001    2    1    2    0    0  0.61322933461E+02 -0.26900167391E+02 -0.25480216330E+01  0.61644365502E+03  0.61279047498E+03 0.  0.
   -5000001    2    3    3    0    0 -0.22060880198E+03  0.71264359176E+02  0.49262516289E+02  0.29705813631E+03  0.17908067576E+03 0.  0.
     200001    1    1    2    0    0 -0.61322933461E+02  0.26900167391E+02 -0.28480418516E+03  0.67923968160E+03  0.61300000000E+03 0. -1.
         13    1    4    4    0    0 -0.15530881095E+03  0.12537668710E+03  0.12856323347E+02  0.20001359114E+03  0.10566000000E+00 0.  1.
    -200003    1    4    4    0    0 -0.65299991038E+02 -0.54112327921E+02  0.36406192942E+02  0.97044545170E+02  0.30000000000E+02 0.  1.
    -200000    1    3    3    0    0  0.28193173545E+03 -0.98164526567E+02 -0.51810537922E+02  0.31938551872E+03  0.10100000000E+03 0. -1.
<mgrwt>
<rscale>  0 0.12634176E+04</rscale>
<asrwt>0</asrwt>
<pdfrwt beam="1">  1        2 0.11307397E+00 0.12634176E+04</pdfrwt>
<pdfrwt beam="2">  1       -2 0.72023652E-01 0.12634176E+04</pdfrwt>
<totfact> 0.66217323E+01</totfact>
</mgrwt>
</event>
<event>
 8    2  0.4306980E-052  0.1408969E+04  0.7818608E-02  0.8947352E-01
          2   -1    0    0  501    0  0.00000000000E+00  0.00000000000E+00  0.76185207216E+03  0.76185207217E+03  0.25500000000E-02 0.  1.
         -2   -1    0    0    0  501 -0.00000000000E+00 -0.00000000000E+00 -0.65143704087E+03  0.65143704088E+03  0.25500000000E-02 0. -1.
    -200001    2    1    2    0    0  0.26519228540E+03  0.14596647145E+03  0.22278413962E+03  0.72044787904E+03  0.61463746593E+03 0.  0.
   -5000001    2    3    3    0    0  0.11070665309E+03  0.63108283145E+02 -0.17813312679E+03  0.27137445023E+03  0.16023127952E+03 0.  0.
     200001    1    1    2    0    0 -0.26519228540E+03 -0.14596647145E+03 -0.11236910833E+03  0.69284123400E+03  0.61300000000E+03 0. -1.
         13    1    4    4    0    0 -0.62477979922E+01  0.57768056412E+02 -0.12792286339E+03  0.14050072407E+03  0.10566000000E+00 0.  1.
    -200003    1    4    4    0    0  0.11695445108E+03  0.53402267330E+01 -0.50210263401E+02  0.13087372616E+03  0.30000000000E+02 0.  1.
    -200000    1    3    3    0    0  0.15448563232E+03  0.82858188305E+02  0.40091726641E+03  0.44907342881E+03  0.10100000000E+03 0.  1.
<mgrwt>
<rscale>  0 0.14089694E+04</rscale>
<asrwt>0</asrwt>
<pdfrwt beam="1">  1        2 0.10883601E+00 0.14089694E+04</pdfrwt>
<pdfrwt beam="2">  1       -2 0.93062435E-01 0.14089694E+04</pdfrwt>
<totfact> 0.38569542E+01</totfact>
</mgrwt>
</event>
<event>
 8    2  0.4306980E-052  0.1348695E+04  0.7818608E-02  0.8991817E-01
          2   -1    0    0  501    0  0.00000000000E+00  0.00000000000E+00  0.28090841283E+04  0.28090841283E+04  0.25500000000E-02 0.  1.
         -2   -1    0    0    0  501 -0.00000000000E+00 -0.00000000000E+00 -0.16188344818E+03  0.16188344820E+03  0.25500000000E-02 0. -1.
    -200001    2    1    2    0    0  0.19743663823E+03 -0.12073285825E+02  0.88623745855E+03  0.10958975890E+04  0.61355334103E+03 0.  0.
   -5000001    2    3    3    0    0  0.28033309583E+03 -0.11687306168E+03  0.21068094789E+03  0.39988579685E+03  0.15256549923E+03 0.  0.
     200001    1    1    2    0    0 -0.19743663823E+03  0.12073285825E+02  0.17609632216E+04  0.18750699875E+04  0.61300000000E+03 0.  1.
         13    1    4    4    0    0  0.14947281883E+03 -0.38759932330E+01  0.15599750560E+03  0.21608419611E+03  0.10566000000E+00 0.  1.
    -200003    1    4    4    0    0  0.13086027701E+03 -0.11299706844E+03  0.54683442289E+02  0.18380160075E+03  0.30000000000E+02 0.  1.
    -200000    1    3    3    0    0 -0.82896457604E+02  0.10479977585E+03  0.67555651066E+03  0.69601179214E+03  0.10100000000E+03 0.  1.
<mgrwt>
<rscale>  0 0.13486945E+04</rscale>
<asrwt>0</asrwt>
<pdfrwt beam="1">  1        2 0.40129770E+00 0.13486945E+04</pdfrwt>
<pdfrwt beam="2">  1       -2 0.23126209E-01 0.13486945E+04</pdfrwt>
<totfact> 0.48830042E+01</totfact>
</mgrwt>
</event>
<event>
 8    2  0.4306980E-052  0.2015356E+04  0.7818608E-02  0.8599475E-01
         -2   -1    0    0    0  501 -0.00000000000E+00  0.00000000000E+00  0.17012535804E+04  0.17012535804E+04  0.25500000000E-02 0.  1.
          2   -1    0    0  501    0  0.00000000000E+00 -0.00000000000E+00 -0.59686277274E+03  0.59686277274E+03  0.25500000000E-02 0. -1.
    -200001    2    1    2    0    0 -0.22318387464E+03 -0.42291645191E+03  0.12833168242E+04  0.15003363794E+04  0.61272980402E+03 0.  0.
   -5000001    2    3    3    0    0 -0.29886965448E+03 -0.51236178023E+03  0.10566970422E+04  0.12259528346E+04  0.18577957235E+03 0.  0.
     200001    1    1    2    0    0  0.22318387464E+03  0.42291645191E+03 -0.17892601654E+03  0.79777997380E+03  0.61300000000E+03 0. -1.
         13    1    4    4    0    0 -0.25220282333E+03 -0.28243374476E+03  0.56252225250E+03  0.67809024473E+03  0.10566000000E+00 0.  1.
    -200003    1    4    4    0    0 -0.46666831155E+02 -0.22992803547E+03  0.49417478970E+03  0.54786258989E+03  0.30000000000E+02 0.  1.
    -200000    1    3    3    0    0  0.75685779841E+02  0.89445328319E+02  0.22661978203E+03  0.27438354476E+03  0.10100000000E+03 0.  1.
<mgrwt>
<rscale>  0 0.20153560E+04</rscale>
<asrwt>0</asrwt>
<pdfrwt beam="1">  1        2 0.85266110E-01 0.20153560E+04</pdfrwt>
<pdfrwt beam="2">  1       -2 0.24303623E+00 0.20153560E+04</pdfrwt>
<totfact> 0.36055968E+00</totfact>
</mgrwt>
</event>
<event>
 8    2  0.4306980E-052  0.1938450E+04  0.7818608E-02  0.8635951E-01
          2   -1    0    0  501    0  0.00000000000E+00  0.00000000000E+00  0.61803001131E+03  0.61803001131E+03  0.25500000000E-02 0.  1.
         -2   -1    0    0    0  501 -0.00000000000E+00 -0.00000000000E+00 -0.15199856003E+04  0.15199856003E+04  0.25500000000E-02 0. -1.
    -200001    2    1    2    0    0 -0.28590366533E+03  0.44574220581E+03  0.13605076667E+03  0.82133295650E+03  0.61290373994E+03 0.  0.
   -5000001    2    3    3    0    0 -0.39931666032E+03  0.35629337735E+03 -0.62736370267E+02  0.55566224649E+03  0.13574208657E+03 0.  0.
     200001    1    1    2    0    0  0.28590366533E+03 -0.44574220581E+03 -0.10380063557E+04  0.13166826551E+04  0.61300000000E+03 0. -1.
         13    1    4    4    0    0 -0.21392486085E+03  0.10724158278E+03 -0.11664970956E+02  0.23958440241E+03  0.10566000000E+00 0.  1.
    -200003    1    4    4    0    0 -0.18539179947E+03  0.24905179457E+03 -0.51071399311E+02  0.31607784408E+03  0.30000000000E+02 0.  1.
    -200000    1    3    3    0    0  0.11341299499E+03  0.89448828458E+02  0.19878713694E+03  0.26567071001E+03  0.10100000000E+03 0.  1.
<mgrwt>
<rscale>  0 0.19384496E+04</rscale>
<asrwt>0</asrwt>
<pdfrwt beam="1">  1        2 0.88290002E-01 0.19384496E+04</pdfrwt>
<pdfrwt beam="2">  1       -2 0.21714080E+00 0.19384496E+04</pdfrwt>
<totfact> 0.50535782E+00</totfact>
</mgrwt>
</event>
<event>
 8    2  0.4306980E-052  0.1520554E+04  0.7818608E-02  0.8870899E-01
          2   -1    0    0  501    0  0.00000000000E+00  0.00000000000E+00  0.80366010893E+03  0.80366010894E+03  0.25500000000E-02 0.  1.
         -2   -1    0    0    0  501 -0.00000000000E+00 -0.00000000000E+00 -0.71923563338E+03  0.71923563339E+03  0.25500000000E-02 0. -1.
    -200001    2    1    2    0    0  0.30122867948E+03  0.92748276957E+01  0.37557317949E+03  0.78035866744E+03  0.61406815332E+03 0.  0.
   -5000001    2    3    3    0    0  0.91887573552E+02  0.46027269578E+02 -0.12722692658E+03  0.22521599453E+03  0.15483448462E+03 0.  0.
     200001    1    1    2    0    0 -0.30122867948E+03 -0.92748276957E+01 -0.29114870394E+03  0.74253707489E+03  0.61300000000E+03 0. -1.
         13    1    4    4    0    0  0.15977102849E+02 -0.21323753336E+02  0.27156512550E+02  0.38045467663E+02  0.10566000000E+00 0.  1.
    -200003    1    4    4    0    0  0.75910470703E+02  0.67351022914E+02 -0.15438343913E+03  0.18717052687E+03  0.30000000000E+02 0.  1.
    -200000    1    3    3    0    0  0.20934110593E+03 -0.36752441883E+02  0.50280010607E+03  0.55514267291E+03  0.10100000000E+03 0.  1.
<mgrwt>
<rscale>  0 0.15205538E+04</rscale>
<asrwt>0</asrwt>
<pdfrwt beam="1">  1        2 0.11480859E+00 0.15205538E+04</pdfrwt>
<pdfrwt beam="2">  1       -2 0.10274795E+00 0.15205538E+04</pdfrwt>
<totfact> 0.28288888E+01</totfact>
</mgrwt>
</event>
<event>
 8    2  0.4306980E-052  0.1493962E+04  0.7818608E-02  0.8888478E-01
         -2   -1    0    0    0  501 -0.00000000000E+00  0.00000000000E+00  0.44504045390E+03  0.44504045391E+03  0.25500000000E-02 0. -1.
          2   -1    0    0  501    0  0.00000000000E+00 -0.00000000000E+00 -0.12537753005E+04  0.12537753005E+04  0.25500000000E-02 0.  1.
    -200001    2    1    2    0    0 -0.16472268777E+03  0.10360539498E+03  0.26679345055E+02  0.64451337210E+03  0.61385507868E+03 0.  0.
   -5000001    2    3    3    0    0  0.10485660402E+03 -0.13134559413E+03  0.11382317544E+03  0.26284596581E+03  0.16699016130E+03 0.  0.
     200001    1    1    2    0    0  0.16472268777E+03 -0.10360539498E+03 -0.83541419163E+03  0.10543023823E+04  0.61300000000E+03 0.  1.
         13    1    4    4    0    0  0.13703335161E+03 -0.13377133788E+03  0.81113047458E+02  0.20797174790E+03  0.10566000000E+00 0.  1.
    -200003    1    4    4    0    0 -0.32176747594E+02  0.24257437548E+01  0.32710127982E+02  0.54874217908E+02  0.30000000000E+02 0.  1.
    -200000    1    3    3    0    0 -0.26957929179E+03  0.23495098911E+03 -0.87143830384E+02  0.38166740628E+03  0.10100000000E+03 0. -1.
<mgrwt>
<rscale>  0 0.14939622E+04</rscale>
<asrwt>0</asrwt>
<pdfrwt beam="1">  1        2 0.17911076E+00 0.14939622E+04</pdfrwt>
<pdfrwt beam="2">  1       -2 0.63577208E-01 0.14939622E+04</pdfrwt>
<totfact> 0.44163058E+01</totfact>
</mgrwt>
</event>
<event>
 8    2  0.4306980E-052  0.1659430E+04  0.7818608E-02  0.8784847E-01
          2   -1    0    0  501    0  0.00000000000E+00  0.00000000000E+00  0.78033322377E+03  0.78033322377E+03  0.25500000000E-02 0.  1.
         -2   -1    0    0    0  501 -0.00000000000E+00 -0.00000000000E+00 -0.88222224139E+03  0.88222224139E+03  0.25500000000E-02 0. -1.
    -200001    2    1    2    0    0 -0.20134406715E+02 -0.65304918928E+02 -0.60706821456E+03  0.86528189368E+03  0.61278936970E+03 0.  0.
   -5000001    2    3    3    0    0 -0.99497253814E+02  0.96217445162E+02 -0.63721562829E+03  0.65672062653E+03  0.77978997809E+02 0.  0.
     200001    1    1    2    0    0  0.20134406715E+02  0.65304918928E+02  0.50517919694E+03  0.79727357149E+03  0.61300000000E+03 0.  1.
         13    1    4    4    0    0 -0.62001907423E+02  0.90116343225E+02 -0.40487959474E+03  0.41939562377E+03  0.10566000000E+00 0.  1.
    -200003    1    4    4    0    0 -0.37495346391E+02  0.61011019371E+01 -0.23233603355E+03  0.23732500276E+03  0.30000000000E+02 0.  1.
    -200000    1    3    3    0    0  0.79362847099E+02 -0.16152236409E+03  0.30147413724E+02  0.20856126715E+03  0.10100000000E+03 0.  1.
<mgrwt>
<rscale>  0 0.16594304E+04</rscale>
<asrwt>0</asrwt>
<pdfrwt beam="1">  1        2 0.11147617E+00 0.16594304E+04</pdfrwt>
<pdfrwt beam="2">  1       -2 0.12603175E+00 0.16594304E+04</pdfrwt>
<totfact> 0.17640212E+01</totfact>
</mgrwt>
</event>
<event>
 8    2  0.4306980E-052  0.1473805E+04  0.7818608E-02  0.8902062E-01
          2   -1    0    0  501    0  0.00000000000E+00  0.00000000000E+00  0.24414759463E+04  0.24414759464E+04  0.25500000000E-02 0.  1.
         -2   -1    0    0    0  501 -0.00000000000E+00 -0.00000000000E+00 -0.22241680685E+03  0.22241680686E+03  0.25500000000E-02 0. -1.
    -200001    2    1    2    0    0  0.27744566147E+03 -0.25757219390E+03  0.83097225741E+03  0.10999638154E+04  0.61325848757E+03 0.  0.
   -5000001    2    3    3    0    0  0.16520767095E+03 -0.37943731466E+03  0.79370056305E+03  0.90238179862E+03  0.11430693943E+03 0.  0.
     200001    1    1    2    0    0 -0.27744566147E+03  0.25757219390E+03  0.13880868821E+04  0.15639289378E+04  0.61300000000E+03 0.  1.
         13    1    4    4    0    0  0.47512460588E+02 -0.18994315719E+03  0.28136741940E+03  0.34278779549E+03  0.10566000000E+00 0.  1.
    -200003    1    4    4    0    0  0.11769521036E+03 -0.18949415747E+03  0.51233314364E+03  0.55959400312E+03  0.30000000000E+02 0.  1.
    -200000    1    3    3    0    0  0.11223799052E+03  0.12186512076E+03  0.37271694363E+02  0.19758201683E+03  0.10100000000E+03 0. -1.
<mgrwt>
<rscale>  0 0.14738050E+04</rscale>
<asrwt>0</asrwt>
<pdfrwt beam="1">  1        2 0.34878227E+00 0.14738050E+04</pdfrwt>
<pdfrwt beam="2">  1       -2 0.31773830E-01 0.14738050E+04</pdfrwt>
<totfact> 0.42295119E+01</totfact>
</mgrwt>
</event>
<event>
 8    2  0.4306980E-052  0.2035062E+04  0.7818608E-02  0.8590401E-01
          2   -1    0    0  501    0  0.00000000000E+00  0.00000000000E+00  0.24725675729E+04  0.24725675730E+04  0.25500000000E-02 0.  1.
         -2   -1    0    0    0  501 -0.00000000000E+00 -0.00000000000E+00 -0.41874271299E+03  0.41874271300E+03  0.25500000000E-02 0. -1.
    -200001    2    1    2    0    0  0.65758650065E+01 -0.77593576340E+03  0.13674398206E+04  0.16875607384E+04  0.61306609101E+03 0.  0.
   -5000001    2    3    3    0    0  0.18279227227E+03 -0.66638185561E+03  0.12063580880E+04  0.14061311638E+04  0.21077765780E+03 0.  0.
     200001    1    1    2    0    0 -0.65758650065E+01  0.77593576340E+03  0.68638503932E+03  0.12037495475E+04  0.61300000000E+03 0. -1.
         13    1    4    4    0    0  0.95438131475E+02 -0.25576848913E+03  0.29299875330E+03  0.40046752375E+03  0.10566000000E+00 0.  1.
    -200003    1    4    4    0    0  0.87354140792E+02 -0.41061336648E+03  0.91335933468E+03  0.10056636400E+04  0.30000000000E+02 0.  1.
    -200000    1    3    3    0    0 -0.17621640726E+03 -0.10955390779E+03  0.16108173265E+03  0.28142957466E+03  0.10100000000E+03 0. -1.
<mgrwt>
<rscale>  0 0.20350623E+04</rscale>
<asrwt>0</asrwt>
<pdfrwt beam="1">  1        2 0.35322393E+00 0.20350623E+04</pdfrwt>
<pdfrwt beam="2">  1       -2 0.59820390E-01 0.20350623E+04</pdfrwt>
<totfact> 0.11046827E+01</totfact>
</mgrwt>
</event>
<event>
 8    2  0.4306980E-052  0.1293759E+04  0.7818608E-02  0.9034529E-01
          2   -1    0    0  501    0  0.00000000000E+00  0.00000000000E+00  0.93235812835E+03  0.93235812836E+03  0.25500000000E-02 0.  1.
         -2   -1    0    0    0  501 -0.00000000000E+00 -0.00000000000E+00 -0.44881144288E+03  0.44881144289E+03  0.25500000000E-02 0. -1.
    -200001    2    1    2    0    0  0.11864861209E+03 -0.19159116449E+03  0.21664531318E+03  0.67562721959E+03  0.59895933139E+03 0.  0.
   -5000001    2    3    3    0    0  0.64010025687E+02  0.16229129765E+03  0.12785190453E+03  0.29313089078E+03  0.19784807545E+03 0.  0.
     200001    1    1    2    0    0 -0.11864861209E+03  0.19159116449E+03  0.26690137228E+03  0.70554235166E+03  0.61300000000E+03 0. -1.
         13    1    4    4    0    0 -0.55306719529E+02  0.11309814430E+03  0.32912162183E+02  0.13012780277E+03  0.10566000000E+00 0.  1.
    -200003    1    4    4    0    0  0.11931674522E+03  0.49193153346E+02  0.94939742352E+02  0.16300308802E+03  0.30000000000E+02 0.  1.
    -200000    1    3    3    0    0  0.54638586404E+02 -0.35388246213E+03  0.88793408648E+02  0.38249632880E+03  0.10100000000E+03 0. -1.
<mgrwt>
<rscale>  0 0.12937589E+04</rscale>
<asrwt>0</asrwt>
<pdfrwt beam="1">  1        2 0.13319402E+00 0.12937589E+04</pdfrwt>
<pdfrwt beam="2">  1       -2 0.64115921E-01 0.12937589E+04</pdfrwt>
<totfact> 0.68387446E+01</totfact>
</mgrwt>
</event>
<event>
 8    2  0.4306980E-052  0.1648037E+04  0.7818608E-02  0.8791569E-01
          2   -1    0    0  501    0  0.00000000000E+00  0.00000000000E+00  0.16555683851E+04  0.16555683851E+04  0.25500000000E-02 0.  1.
         -2   -1    0    0    0  501 -0.00000000000E+00 -0.00000000000E+00 -0.41013477110E+03  0.41013477111E+03  0.25500000000E-02 0. -1.
    -200001    2    1    2    0    0 -0.85036814679E+02  0.51828672813E+03  0.83028724712E+03  0.11579763811E+04  0.61292739697E+03 0.  0.
   -5000001    2    3    3    0    0  0.30283750808E+02  0.18149964048E+03  0.75364631258E+03  0.78008855633E+03  0.81830105684E+02 0.  0.
     200001    1    1    2    0    0  0.85036814679E+02 -0.51828672813E+03  0.41514636689E+03  0.90772677517E+03  0.61300000000E+03 0. -1.
         13    1    4    4    0    0  0.13220068543E+02  0.46290506249E+02  0.91435063806E+02  0.10333423072E+03  0.10566000000E+00 0.  1.
    -200003    1    4    4    0    0  0.17063682265E+02  0.13520913423E+03  0.66221124877E+03  0.67675432561E+03  0.30000000000E+02 0.  1.
    -200000    1    3    3    0    0 -0.11532056549E+03  0.33678708765E+03  0.76640934539E+02  0.37788782473E+03  0.10100000000E+03 0. -1.
<mgrwt>
<rscale>  0 0.16480366E+04</rscale>
<asrwt>0</asrwt>
<pdfrwt beam="1">  1        2 0.23650977E+00 0.16480366E+04</pdfrwt>
<pdfrwt beam="2">  1       -2 0.58590682E-01 0.16480366E+04</pdfrwt>
<totfact> 0.31548543E+01</totfact>
</mgrwt>
</event>
<event>
 8    2  0.4306980E-052  0.1582169E+04  0.7818608E-02  0.8831578E-01
         -2   -1    0    0    0  501 -0.00000000000E+00  0.00000000000E+00  0.34095696283E+03  0.34095696284E+03  0.25500000000E-02 0. -1.
          2   -1    0    0  501    0  0.00000000000E+00 -0.00000000000E+00 -0.18354657904E+04  0.18354657904E+04  0.25500000000E-02 0.  1.
    -200001    2    1    2    0    0  0.88993487007E+02  0.29633368572E+03 -0.12875669228E+04  0.14592564922E+04  0.61308028465E+03 0.  0.
   -5000001    2    3    3    0    0  0.70287860645E+02 -0.17259232701E+03 -0.32451475014E+03  0.38319330026E+03  0.82454760978E+02 0.  0.
     200001    1    1    2    0    0 -0.88993487007E+02 -0.29633368572E+03 -0.20694190482E+03  0.71716626105E+03  0.61300000000E+03 0. -1.
         13    1    4    4    0    0  0.38305070257E+02 -0.94751796214E+02 -0.10661426095E+03  0.14768816166E+03  0.10566000000E+00 0.  1.
    -200003    1    4    4    0    0  0.31982790388E+02 -0.77840530792E+02 -0.21790048919E+03  0.23550513860E+03  0.30000000000E+02 0.  1.
    -200000    1    3    3    0    0  0.18705626362E+02  0.46892601273E+03 -0.96305217262E+03  0.10760631919E+04  0.10100000000E+03 0.  1.
<mgrwt>
<rscale>  0 0.15821692E+04</rscale>
<asrwt>0</asrwt>
<pdfrwt beam="1">  1        2 0.26220939E+00 0.15821692E+04</pdfrwt>
<pdfrwt beam="2">  1       -2 0.48708139E-01 0.15821692E+04</pdfrwt>
<totfact> 0.37456718E+01</totfact>
</mgrwt>
</event>
<event>
 8    2  0.4306980E-052  0.1944396E+04  0.7818608E-02  0.8633068E-01
          2   -1    0    0  501    0  0.00000000000E+00  0.00000000000E+00  0.18492499423E+04  0.18492499423E+04  0.25500000000E-02 0.  1.
         -2   -1    0    0    0  501 -0.00000000000E+00 -0.00000000000E+00 -0.51110927012E+03  0.51110927013E+03  0.25500000000E-02 0. -1.
    -200001    2    1    2    0    0  0.73074150618E+03  0.16908281925E+03  0.77074594181E+03  0.12377382039E+04  0.61267806067E+03 0.  0.
   -5000001    2    3    3    0    0  0.45962263613E+03  0.34278089646E+02  0.72527367524E+03  0.91533087795E+03  0.31524713647E+03 0.  0.
     200001    1    1    2    0    0 -0.73074150618E+03 -0.16908281925E+03  0.56739473034E+03  0.11226210085E+04  0.61300000000E+03 0. -1.
         13    1    4    4    0    0  0.48510272343E+03  0.73898963021E+02  0.69788240657E+03  0.85312693872E+03  0.10566000000E+00 0.  1.
    -200003    1    4    4    0    0 -0.25480087293E+02 -0.39620873376E+02  0.27391268668E+02  0.62203939223E+02  0.30000000000E+02 0.  1.
    -200000    1    3    3    0    0  0.27111887005E+03  0.13480472960E+03  0.45472266567E+02  0.32240732598E+03  0.10100000000E+03 0. -1.
<mgrwt>
<rscale>  0 0.19443958E+04</rscale>
<asrwt>0</asrwt>
<pdfrwt beam="1">  1        2 0.26417856E+00 0.19443958E+04</pdfrwt>
<pdfrwt beam="2">  1       -2 0.73015610E-01 0.19443958E+04</pdfrwt>
<totfact> 0.15229707E+01</totfact>
</mgrwt>
</event>
<event>
 8    2  0.4306980E-052  0.1815641E+04  0.7818608E-02  0.8698026E-01
          2   -1    0    0  501    0  0.00000000000E+00  0.00000000000E+00  0.21738183964E+04  0.21738183964E+04  0.25500000000E-02 0.  1.
         -2   -1    0    0    0  501 -0.00000000000E+00 -0.00000000000E+00 -0.37911989023E+03  0.37911989024E+03  0.25500000000E-02 0. -1.
    -200001    2    1    2    0    0  0.22954043381E+03 -0.61682735042E+03  0.10691708823E+04  0.13973760322E+04  0.61348888232E+03 0.  0.
   -5000001    2    3    3    0    0 -0.19202722214E+03 -0.22696941603E+03  0.30410514125E+03  0.43548462162E+03  0.93687506514E+02 0.  0.
     200001    1    1    2    0    0 -0.22954043381E+03  0.61682735042E+03  0.72552762389E+03  0.11555622545E+04  0.61300000000E+03 0.  1.
         13    1    4    4    0    0 -0.46986310444E+02 -0.69133850025E+02  0.14309018148E+03  0.16571666720E+03  0.10566000000E+00 0.  1.
    -200003    1    4    4    0    0 -0.14504091170E+03 -0.15783556600E+03  0.16101495977E+03  0.26976795442E+03  0.30000000000E+02 0.  1.
    -200000    1    3    3    0    0  0.42156765595E+03 -0.38985793440E+03  0.76506574106E+03  0.96189141056E+03  0.10100000000E+03 0.  1.
<mgrwt>
<rscale>  0 0.18156407E+04</rscale>
<asrwt>0</asrwt>
<pdfrwt beam="1">  1        2 0.31054549E+00 0.18156407E+04</pdfrwt>
<pdfrwt beam="2">  1       -2 0.54159983E-01 0.18156407E+04</pdfrwt>
<totfact> 0.19806052E+01</totfact>
</mgrwt>
</event>
<event>
 8    2  0.4306980E-052  0.1467283E+04  0.7818608E-02  0.8906506E-01
         -2   -1    0    0    0  501 -0.00000000000E+00  0.00000000000E+00  0.10217133954E+04  0.10217133954E+04  0.25500000000E-02 0. -1.
          2   -1    0    0  501    0  0.00000000000E+00 -0.00000000000E+00 -0.52679133264E+03  0.52679133264E+03  0.25500000000E-02 0.  1.
    -200001    2    1    2    0    0 -0.23756386369E+03 -0.30592180057E+02 -0.96597428504E+02  0.66361107378E+03  0.61129053913E+03 0.  0.
   -5000001    2    3    3    0    0  0.93533470081E+02 -0.20233987108E+03 -0.10706138621E+03  0.27704515674E+03  0.12490774596E+03 0.  0.
     200001    1    1    2    0    0  0.23756386369E+03  0.30592180057E+02  0.59151949126E+03  0.88489365426E+03  0.61300000000E+03 0. -1.
         13    1    4    4    0    0  0.80842269909E+02 -0.46453969333E+02 -0.60416195897E+02  0.11110162808E+03  0.10566000000E+00 0.  1.
    -200003    1    4    4    0    0  0.12691200172E+02 -0.15588590175E+03 -0.46645190316E+02  0.16594352866E+03  0.30000000000E+02 0.  1.
    -200000    1    3    3    0    0 -0.33109733377E+03  0.17174769102E+03  0.10463957709E+02  0.38656591703E+03  0.10100000000E+03 0.  1.
<mgrwt>
<rscale>  0 0.14672829E+04</rscale>
<asrwt>0</asrwt>
<pdfrwt beam="1">  1        2 0.75255904E-01 0.14672829E+04</pdfrwt>
<pdfrwt beam="2">  1       -2 0.14595906E+00 0.14672829E+04</pdfrwt>
<totfact> 0.19741825E+01</totfact>
</mgrwt>
</event>
<event>
 8    2  0.4306980E-052  0.1340926E+04  0.7818608E-02  0.8997726E-01
         -2   -1    0    0    0  501 -0.00000000000E+00  0.00000000000E+00  0.43986658477E+03  0.43986658477E+03  0.25500000000E-02 0. -1.
          2   -1    0    0  501    0  0.00000000000E+00 -0.00000000000E+00 -0.10219476009E+04  0.10219476009E+04  0.25500000000E-02 0.  1.
    -200001    2    1    2    0    0 -0.62263808754E+02  0.23630255639E+03 -0.16314619876E+03  0.68015501364E+03  0.61341542234E+03 0.  0.
   -5000001    2    3    3    0    0 -0.12388864573E+03 -0.13634548768E+03 -0.15614877121E+03  0.28911262556E+03  0.15895025308E+03 0.  0.
     200001    1    1    2    0    0  0.62263808754E+02 -0.23630255639E+03 -0.41893481738E+03  0.78165917205E+03  0.61300000000E+03 0.  1.
         13    1    4    4    0    0 -0.32978143280E+02 -0.26436715228E+02 -0.13545413141E+03  0.14189535132E+03  0.10566000000E+00 0.  1.
    -200003    1    4    4    0    0 -0.90910502454E+02 -0.10990877245E+03 -0.20694639803E+02  0.14721727424E+03  0.30000000000E+02 0.  1.
    -200000    1    3    3    0    0  0.61624836980E+02  0.37264804407E+03 -0.69974275492E+01  0.39104238808E+03  0.10100000000E+03 0. -1.
<mgrwt>
<rscale>  0 0.13409260E+04</rscale>
<asrwt>0</asrwt>
<pdfrwt beam="1">  1        2 0.14599251E+00 0.13409260E+04</pdfrwt>
<pdfrwt beam="2">  1       -2 0.62838084E-01 0.13409260E+04</pdfrwt>
<totfact> 0.62535936E+01</totfact>
</mgrwt>
</event>
<event>
 8    2  0.4306980E-052  0.1280070E+04  0.7818608E-02  0.9045521E-01
         -2   -1    0    0    0  501 -0.00000000000E+00  0.00000000000E+00  0.10279669808E+04  0.10279669808E+04  0.25500000000E-02 0. -1.
          2   -1    0    0  501    0  0.00000000000E+00 -0.00000000000E+00 -0.39849985058E+03  0.39849985059E+03  0.25500000000E-02 0.  1.
    -200001    2    1    2    0    0  0.51096001500E+02 -0.24465945485E+02  0.12008429267E+03  0.62743663230E+03  0.61322679846E+03 0.  0.
   -5000001    2    3    3    0    0 -0.22232866903E+03  0.11123837595E+03  0.15349213520E+03  0.30418162885E+03  0.84632230300E+02 0.  0.
     200001    1    1    2    0    0 -0.51096001500E+02  0.24465945485E+02  0.50938283751E+03  0.79903019906E+03  0.61300000000E+03 0. -1.
         13    1    4    4    0    0 -0.47679662047E+02  0.18092019689E+01  0.41376591238E+01  0.47893159968E+02  0.10566000000E+00 0.  1.
    -200003    1    4    4    0    0 -0.17464900698E+03  0.10942917398E+03  0.14935447607E+03  0.25628846888E+03  0.30000000000E+02 0.  1.
    -200000    1    3    3    0    0  0.27342467053E+03 -0.13570432144E+03 -0.33407842528E+02  0.32325500345E+03  0.10100000000E+03 0.  1.
<mgrwt>
<rscale>  0 0.12800698E+04</rscale>
<asrwt>0</asrwt>
<pdfrwt beam="1">  1        2 0.56928551E-01 0.12800698E+04</pdfrwt>
<pdfrwt beam="2">  1       -2 0.14685242E+00 0.12800698E+04</pdfrwt>
<totfact> 0.27024398E+01</totfact>
</mgrwt>
</event>
<event>
 8    2  0.4306980E-052  0.1669282E+04  0.7818608E-02  0.8779081E-01
          2   -1    0    0  501    0  0.00000000000E+00  0.00000000000E+00  0.21571554073E+04  0.21571554073E+04  0.25500000000E-02 0.  1.
         -2   -1    0    0    0  501 -0.00000000000E+00 -0.00000000000E+00 -0.32293710749E+03  0.32293710750E+03  0.25500000000E-02 0. -1.
    -200001    2    1    2    0    0  0.24241111937E+03  0.45686260754E+03  0.12602728047E+04  0.14938526736E+04  0.61304296367E+03 0.  0.
   -5000001    2    3    3    0    0  0.22424701626E+03 -0.66598156057E+02  0.57637299183E+03  0.62652282882E+03  0.74853127081E+02 0.  0.
     200001    1    1    2    0    0 -0.24241111937E+03 -0.45686260754E+03  0.57394549512E+03  0.98623984118E+03  0.61300000000E+03 0.  1.
         13    1    4    4    0    0  0.14908887207E+03 -0.53097773697E+02  0.31411603840E+03  0.35173251497E+03  0.10566000000E+00 0.  1.
    -200003    1    4    4    0    0  0.75158144188E+02 -0.13500382360E+02  0.26225695344E+03  0.27479031385E+03  0.30000000000E+02 0.  1.
    -200000    1    3    3    0    0  0.18164103113E+02  0.52346076359E+03  0.68389981288E+03  0.86732984482E+03  0.10100000000E+03 0. -1.
<mgrwt>
<rscale>  0 0.16692819E+04</rscale>
<asrwt>0</asrwt>
<pdfrwt beam="1">  1        2 0.30816506E+00 0.16692819E+04</pdfrwt>
<pdfrwt beam="2">  1       -2 0.46133873E-01 0.16692819E+04</pdfrwt>
<totfact> 0.28347777E+01</totfact>
</mgrwt>
</event>
<event>
 8    2  0.4306980E-052  0.1605114E+04  0.7818608E-02  0.8817412E-01
          2   -1    0    0  501    0  0.00000000000E+00  0.00000000000E+00  0.12986713838E+04  0.12986713838E+04  0.25500000000E-02 0.  1.
         -2   -1    0    0    0  501 -0.00000000000E+00 -0.00000000000E+00 -0.49596666888E+03  0.49596666888E+03  0.25500000000E-02 0. -1.
    -200001    2    1    2    0    0  0.51100559374E+03  0.77943771369E+02  0.42409280004E+03  0.90789235608E+03  0.61417577195E+03 0.  0.
   -5000001    2    3    3    0    0  0.62913757707E+03  0.66619939775E+02  0.29481353832E+03  0.70541390746E+03  0.10218341942E+03 0.  0.
     200001    1    1    2    0    0 -0.51100559374E+03 -0.77943771369E+02  0.37861191486E+03  0.88674569658E+03  0.61300000000E+03 0.  1.
         13    1    4    4    0    0  0.44810648760E+03  0.79204387846E+02  0.23398634663E+03  0.51168582241E+03  0.10566000000E+00 0.  1.
    -200003    1    4    4    0    0  0.18103108946E+03 -0.12584448071E+02  0.60827191689E+02  0.19372808504E+03  0.30000000000E+02 0. -1.
    -200000    1    3    3    0    0 -0.11813198333E+03  0.11323831594E+02  0.12927926172E+03  0.20247844862E+03  0.10100000000E+03 0. -1.
<mgrwt>
<rscale>  0 0.16051140E+04</rscale>
<asrwt>0</asrwt>
<pdfrwt beam="1">  1        2 0.18552449E+00 0.16051140E+04</pdfrwt>
<pdfrwt beam="2">  1       -2 0.70852380E-01 0.16051140E+04</pdfrwt>
<totfact> 0.32705101E+01</totfact>
</mgrwt>
</event>
<event>
 8    2  0.4306980E-052  0.2138070E+04  0.7818608E-02  0.8544656E-01
          2   -1    0    0  501    0  0.00000000000E+00  0.00000000000E+00  0.33774179287E+04  0.33774179287E+04  0.25500000000E-02 0.  1.
         -2   -1    0    0    0  501 -0.00000000000E+00 -0.00000000000E+00 -0.33837551181E+03  0.33837551182E+03  0.25500000000E-02 0. -1.
    -200001    2    1    2    0    0 -0.53609878342E+03 -0.27949961615E+03  0.41811457295E+03  0.95707023871E+03  0.61289616144E+03 0.  0.
   -5000001    2    3    3    0    0 -0.29422460393E+03  0.10750062224E+03  0.36210025328E+03  0.48631456193E+03  0.85210083816E+02 0.  0.
     200001    1    1    2    0    0  0.53609878342E+03  0.27949961615E+03  0.26209278440E+04  0.27587232018E+04  0.61300000000E+03 0.  1.
         13    1    4    4    0    0 -0.19619699015E+03  0.67999374115E+02  0.18608870348E+03  0.27883003882E+03  0.10566000000E+00 0.  1.
    -200003    1    4    4    0    0 -0.98027613780E+02  0.39501248120E+02  0.17601154980E+03  0.20748452311E+03  0.30000000000E+02 0.  1.
    -200000    1    3    3    0    0 -0.24187417949E+03 -0.38700023838E+03  0.56014319666E+02  0.47075567678E+03  0.10100000000E+03 0. -1.
<mgrwt>
<rscale>  0 0.21380697E+04</rscale>
<asrwt>0</asrwt>
<pdfrwt beam="1">  1        2 0.48248827E+00 0.21380697E+04</pdfrwt>
<pdfrwt beam="2">  1       -2 0.48339360E-01 0.21380697E+04</pdfrwt>
<totfact> 0.53419078E+00</totfact>
</mgrwt>
</event>
<event>
 8    2  0.4306980E-052  0.1663882E+04  0.7818608E-02  0.8782236E-01
          2   -1    0    0  501    0  0.00000000000E+00  0.00000000000E+00  0.26529730764E+04  0.26529730764E+04  0.25500000000E-02 0.  1.
         -2   -1    0    0    0  501 -0.00000000000E+00 -0.00000000000E+00 -0.26088698306E+03  0.26088698307E+03  0.25500000000E-02 0. -1.
    -200001    2    1    2    0    0 -0.43327390660E+03  0.15799867415E+03  0.63432359033E+03  0.99599982573E+03  0.61397017553E+03 0.  0.
   -5000001    2    3    3    0    0 -0.56789270470E+03  0.10476015761E+03  0.55065797984E+03  0.80066039084E+03  0.66000272846E+02 0.  0.
     200001    1    1    2    0    0  0.43327390660E+03 -0.15799867415E+03  0.17577625031E+04  0.19178602338E+04  0.61300000000E+03 0.  1.
         13    1    4    4    0    0 -0.36279176491E+03  0.46023130052E+02  0.35329210424E+03  0.50847941480E+03  0.10566000000E+00 0.  1.
    -200003    1    4    4    0    0 -0.20510093979E+03  0.58737027554E+02  0.19736587560E+03  0.29218097604E+03  0.30000000000E+02 0. -1.
    -200000    1    3    3    0    0  0.13461879810E+03  0.53238516546E+02  0.83665610488E+02  0.19533943489E+03  0.10100000000E+03 0.  1.
<mgrwt>
<rscale>  0 0.16638824E+04</rscale>
<asrwt>0</asrwt>
<pdfrwt beam="1">  1        2 0.37899615E+00 0.16638824E+04</pdfrwt>
<pdfrwt beam="2">  1       -2 0.37269570E-01 0.16638824E+04</pdfrwt>
<totfact> 0.23755665E+01</totfact>
</mgrwt>
</event>
<event>
 8    2  0.4306980E-052  0.1327087E+04  0.7818608E-02  0.9008357E-01
         -2   -1    0    0    0  501 -0.00000000000E+00  0.00000000000E+00  0.18060957957E+03  0.18060957958E+03  0.25500000000E-02 0. -1.
          2   -1    0    0  501    0  0.00000000000E+00 -0.00000000000E+00 -0.24377987750E+04  0.24377987750E+04  0.25500000000E-02 0.  1.
    -200001    2    1    2    0    0  0.74903003990E+02  0.18539453428E+03 -0.82081246637E+03  0.10439469543E+04  0.61327852155E+03 0.  0.
   -5000001    2    3    3    0    0 -0.12828156987E+03  0.27949553468E+03 -0.19474955335E+03  0.37141833747E+03  0.73825996803E+02 0.  0.
     200001    1    1    2    0    0 -0.74903003990E+02 -0.18539453428E+03 -0.14363767291E+04  0.15744614003E+04  0.61300000000E+03 0.  1.
         13    1    4    4    0    0 -0.73237849757E+02  0.98957390327E+02 -0.97153488916E+02  0.15682843910E+03  0.10566000000E+00 0.  1.
    -200003    1    4    4    0    0 -0.55043720118E+02  0.18053814435E+03 -0.97596064436E+02  0.21458989837E+03  0.30000000000E+02 0.  1.
    -200000    1    3    3    0    0  0.20318457386E+03 -0.94101000392E+02 -0.62606291302E+03  0.67252861678E+03  0.10100000000E+03 0.  1.
<mgrwt>
<rscale>  0 0.13270868E+04</rscale>
<asrwt>0</asrwt>
<pdfrwt beam="1">  1        2 0.34825695E+00 0.13270868E+04</pdfrwt>
<pdfrwt beam="2">  1       -2 0.25801370E-01 0.13270868E+04</pdfrwt>
<totfact> 0.63191195E+01</totfact>
</mgrwt>
</event>
<event>
 8    2  0.4306980E-052  0.1994754E+04  0.7818608E-02  0.8609077E-01
         -2   -1    0    0    0  501 -0.00000000000E+00  0.00000000000E+00  0.68050468867E+03  0.68050468868E+03  0.25500000000E-02 0. -1.
          2   -1    0    0  501    0  0.00000000000E+00 -0.00000000000E+00 -0.14617991394E+04  0.14617991394E+04  0.25500000000E-02 0.  1.
    -200001    2    1    2    0    0  0.19070474447E+03  0.38049023962E+03 -0.11012793121E+04  0.13303306552E+04  0.61304356032E+03 0.  0.
   -5000001    2    3    3    0    0 -0.93253986322E+02 -0.65962561608E+02 -0.52800780293E+03  0.54369612267E+03  0.61366671364E+02 0.  0.
     200001    1    1    2    0    0 -0.19070474447E+03 -0.38049023962E+03  0.31998486138E+03  0.81197317291E+03  0.61300000000E+03 0. -1.
         13    1    4    4    0    0 -0.60934090646E+02 -0.19768337404E+02 -0.21998688879E+03  0.22912440500E+03  0.10566000000E+00 0.  1.
    -200003    1    4    4    0    0 -0.32319895675E+02 -0.46194224204E+02 -0.30802091414E+03  0.31457171766E+03  0.30000000000E+02 0.  1.
    -200000    1    3    3    0    0  0.28395873079E+03  0.44645280123E+03 -0.57327150920E+03  0.78663453254E+03  0.10100000000E+03 0.  1.
<mgrwt>
<rscale>  0 0.19947543E+04</rscale>
<asrwt>0</asrwt>
<pdfrwt beam="1">  1        2 0.20882845E+00 0.19947543E+04</pdfrwt>
<pdfrwt beam="2">  1       -2 0.97214956E-01 0.19947543E+04</pdfrwt>
<totfact> 0.12626683E+01</totfact>
</mgrwt>
</event>
<event>
 8    2  0.4306980E-052  0.1448857E+04  0.7818608E-02  0.8919193E-01
         -2   -1    0    0    0  501 -0.00000000000E+00  0.00000000000E+00  0.81232304423E+03  0.81232304423E+03  0.25500000000E-02 0. -1.
          2   -1    0    0  501    0  0.00000000000E+00 -0.00000000000E+00 -0.64604456472E+03  0.64604456473E+03  0.25500000000E-02 0.  1.
    -200001    2    1    2    0    0 -0.10637600051E+03 -0.37242008260E+03  0.10446753679E+03  0.73062990618E+03  0.61065049099E+03 0.  0.
   -5000001    2    3    3    0    0 -0.30724026510E+03 -0.27299753465E+03  0.20327473977E+03  0.46568621557E+03  0.81355990067E+02 0.  0.
     200001    1    1    2    0    0  0.10637600051E+03  0.37242008260E+03  0.61810942714E+02  0.72773770278E+03  0.61300000000E+03 0.  1.
         13    1    4    4    0    0 -0.18033082344E+02 -0.41925680584E+02  0.37066577398E+02  0.58795383112E+02  0.10566000000E+00 0.  1.
    -200003    1    4    4    0    0 -0.28920718276E+03 -0.23107185407E+03  0.16620816237E+03  0.40689083246E+03  0.30000000000E+02 0.  1.
    -200000    1    3    3    0    0  0.20086426459E+03 -0.99422547945E+02 -0.98807202977E+02  0.26494369060E+03  0.10100000000E+03 0.  1.
<mgrwt>
<rscale>  0 0.14488573E+04</rscale>
<asrwt>0</asrwt>
<pdfrwt beam="1">  1        2 0.92292081E-01 0.14488573E+04</pdfrwt>
<pdfrwt beam="2">  1       -2 0.11604615E+00 0.14488573E+04</pdfrwt>
<totfact> 0.27823351E+01</totfact>
</mgrwt>
</event>
<event>
 8    2  0.4306980E-052  0.2023192E+04  0.7818608E-02  0.8595854E-01
          2   -1    0    0  501    0  0.00000000000E+00  0.00000000000E+00  0.12760421182E+04  0.12760421182E+04  0.25500000000E-02 0.  1.
         -2   -1    0    0    0  501 -0.00000000000E+00 -0.00000000000E+00 -0.80195313340E+03  0.80195313341E+03  0.25500000000E-02 0. -1.
    -200001    2    1    2    0    0 -0.13578395757E+03 -0.60662874567E+03  0.76148281430E+03  0.11588652655E+04  0.61374009886E+03 0.  0.
   -5000001    2    3    3    0    0  0.11283629583E+03 -0.28412401512E+03  0.42749431158E+02  0.32663933005E+03  0.10680473981E+03 0.  0.
     200001    1    1    2    0    0  0.13578395757E+03  0.60662874567E+03 -0.28739382946E+03  0.91912998614E+03  0.61300000000E+03 0. -1.
         13    1    4    4    0    0  0.25661837110E+02 -0.40805493312E+02 -0.29603525346E+02  0.56568525217E+02  0.10566000000E+00 0.  1.
    -200003    1    4    4    0    0  0.87174458719E+02 -0.24331852181E+03  0.72352956504E+02  0.27007080483E+03  0.30000000000E+02 0.  1.
    -200000    1    3    3    0    0 -0.24862025340E+03 -0.32250473055E+03  0.71873338314E+03  0.83222593547E+03  0.10100000000E+03 0.  1.
<mgrwt>
<rscale>  0 0.20231915E+04</rscale>
<asrwt>0</asrwt>
<pdfrwt beam="1">  1        2 0.18229173E+00 0.20231915E+04</pdfrwt>
<pdfrwt beam="2">  1       -2 0.11456473E+00 0.20231915E+04</pdfrwt>
<totfact> 0.10729443E+01</totfact>
</mgrwt>
</event>
<event>
 8    2  0.4306980E-052  0.1512675E+04  0.7818608E-02  0.8876068E-01
          2   -1    0    0  501    0  0.00000000000E+00  0.00000000000E+00  0.33641954678E+04  0.33641954678E+04  0.25500000000E-02 0.  1.
         -2   -1    0    0    0  501 -0.00000000000E+00 -0.00000000000E+00 -0.17003965080E+03  0.17003965082E+03  0.25500000000E-02 0. -1.
    -200001    2    1    2    0    0 -0.82632184387E+02 -0.24075390808E+03  0.24443700228E+04  0.25328669250E+04  0.61292701757E+03 0.  0.
   -5000001    2    3    3    0    0  0.24103351599E+03 -0.11082166093E+03  0.11206693301E+04  0.11602685138E+04  0.14122563599E+03 0.  0.
     200001    1    1    2    0    0  0.82632184387E+02  0.24075390808E+03  0.74978579418E+03  0.10013681937E+04  0.61300000000E+03 0. -1.
         13    1    4    4    0    0  0.14287852724E+03 -0.42591037416E+02  0.35955982402E+03  0.38924484355E+03  0.10566000000E+00 0.  1.
    -200003    1    4    4    0    0  0.98154988750E+02 -0.68230623510E+02  0.76110950610E+03  0.77102367025E+03  0.30000000000E+02 0.  1.
    -200000    1    3    3    0    0 -0.32366570037E+03 -0.12993224716E+03  0.13237006927E+04  0.13725984112E+04  0.10100000000E+03 0.  1.
<mgrwt>
<rscale>  0 0.15126753E+04</rscale>
<asrwt>0</asrwt>
<pdfrwt beam="1">  1        2 0.48059930E+00 0.15126753E+04</pdfrwt>
<pdfrwt beam="2">  1       -2 0.24291381E-01 0.15126753E+04</pdfrwt>
<totfact> 0.21401826E+01</totfact>
</mgrwt>
</event>
<event>
 8    2  0.4306980E-052  0.1310561E+04  0.7818608E-02  0.9021232E-01
         -2   -1    0    0    0  501 -0.00000000000E+00  0.00000000000E+00  0.29648502703E+03  0.29648502704E+03  0.25500000000E-02 0. -1.
          2   -1    0    0  501    0  0.00000000000E+00 -0.00000000000E+00 -0.14482780017E+04  0.14482780017E+04  0.25500000000E-02 0.  1.
    -200001    2    1    2    0    0  0.16004013053E+03 -0.13257160466E+03 -0.71432675725E+03  0.96352441915E+03  0.61231406682E+03 0.  0.
   -5000001    2    3    3    0    0  0.86254615907E+02 -0.27618870316E+03 -0.91222534724E+02  0.31196471714E+03  0.72666191440E+02 0.  0.
     200001    1    1    2    0    0 -0.16004013053E+03  0.13257160466E+03 -0.43746621743E+03  0.78123860960E+03  0.61300000000E+03 0. -1.
         13    1    4    4    0    0  0.37811203168E+02 -0.86155320751E+02 -0.58774962781E+02  0.11093662061E+03  0.10566000000E+00 0.  1.
    -200003    1    4    4    0    0  0.48443412739E+02 -0.19003338241E+03 -0.32447571942E+02  0.20102809653E+03  0.30000000000E+02 0.  1.
    -200000    1    3    3    0    0  0.73785514620E+02  0.14361709850E+03 -0.62310422252E+03  0.65155970200E+03  0.10100000000E+03 0.  1.
<mgrwt>
<rscale>  0 0.13105613E+04</rscale>
<asrwt>0</asrwt>
<pdfrwt beam="1">  1        2 0.20689685E+00 0.13105613E+04</pdfrwt>
<pdfrwt beam="2">  1       -2 0.42355005E-01 0.13105613E+04</pdfrwt>
<totfact> 0.80638593E+01</totfact>
</mgrwt>
</event>
<event>
 8    2  0.4306980E-052  0.2329012E+04  0.7818608E-02  0.8466569E-01
         -2   -1    0    0    0  501 -0.00000000000E+00  0.00000000000E+00  0.11272443884E+04  0.11272443884E+04  0.25500000000E-02 0. -1.
          2   -1    0    0  501    0  0.00000000000E+00 -0.00000000000E+00 -0.12029994160E+04  0.12029994160E+04  0.25500000000E-02 0.  1.
    -200001    2    1    2    0    0 -0.52533225342E+02 -0.67930892006E+03 -0.75665080620E+03  0.11884870835E+04  0.61299327597E+03 0.  0.
   -5000001    2    3    3    0    0 -0.10828761280E+02 -0.77052226805E+03 -0.62735754630E+03  0.99619333881E+03  0.70723756717E+02 0.  0.
     200001    1    1    2    0    0  0.52533225342E+02  0.67930892006E+03  0.68089577861E+03  0.11417567210E+04  0.61300000000E+03 0. -1.
         13    1    4    4    0    0  0.96557277526E+01 -0.21705517484E+02 -0.24988147035E+02  0.34478706820E+02  0.10566000000E+00 0.  1.
    -200003    1    4    4    0    0 -0.20484489033E+02 -0.74881675057E+03 -0.60236939927E+03  0.96171463199E+03  0.30000000000E+02 0.  1.
    -200000    1    3    3    0    0 -0.41704464061E+02  0.91213347991E+02 -0.12929325990E+03  0.19229374464E+03  0.10100000000E+03 0. -1.
<mgrwt>
<rscale>  0 0.23290121E+04</rscale>
<asrwt>0</asrwt>
<pdfrwt beam="1">  1        2 0.17185706E+00 0.23290121E+04</pdfrwt>
<pdfrwt beam="2">  1       -2 0.16103491E+00 0.23290121E+04</pdfrwt>
<totfact> 0.47899583E+00</totfact>
</mgrwt>
</event>
<event>
 8    2  0.4306980E-052  0.1451903E+04  0.7818608E-02  0.8917082E-01
         -2   -1    0    0    0  501 -0.00000000000E+00  0.00000000000E+00  0.57436431505E+03  0.57436431505E+03  0.25500000000E-02 0. -1.
          2   -1    0    0  501    0  0.00000000000E+00 -0.00000000000E+00 -0.91754634906E+03  0.91754634906E+03  0.25500000000E-02 0.  1.
    -200001    2    1    2    0    0 -0.16472695303E+03  0.34010508392E+03 -0.26408285378E+03  0.76745768601E+03  0.61355122768E+03 0.  0.
   -5000001    2    3    3    0    0 -0.26498749530E+03  0.29702853697E+03 -0.36206507684E+01  0.46754215719E+03  0.24523098336E+03 0.  0.
     200001    1    1    2    0    0  0.16472695303E+03 -0.34010508392E+03 -0.79099180227E+02  0.72445297810E+03  0.61300000000E+03 0. -1.
         13    1    4    4    0    0 -0.20852055780E+03  0.13388265569E+03 -0.10039541376E+03  0.26736611376E+03  0.10566000000E+00 0.  1.
    -200003    1    4    4    0    0 -0.56466937497E+02  0.16314588128E+03  0.96774762995E+02  0.20017604343E+03  0.30000000000E+02 0.  1.
    -200000    1    3    3    0    0  0.10026054226E+03  0.43076546954E+02 -0.26046220302E+03  0.29991552883E+03  0.10100000000E+03 0.  1.
<mgrwt>
<rscale>  0 0.14519034E+04</rscale>
<asrwt>0</asrwt>
<pdfrwt beam="1">  1        2 0.13107805E+00 0.14519034E+04</pdfrwt>
<pdfrwt beam="2">  1       -2 0.82052045E-01 0.14519034E+04</pdfrwt>
<totfact> 0.40172271E+01</totfact>
</mgrwt>
</event>
<event>
 8    2  0.4306980E-052  0.1477834E+04  0.7818608E-02  0.8899329E-01
          2   -1    0    0  501    0  0.00000000000E+00  0.00000000000E+00  0.14177808097E+04  0.14177808097E+04  0.25500000000E-02 0.  1.
         -2   -1    0    0    0  501 -0.00000000000E+00 -0.00000000000E+00 -0.38510754416E+03  0.38510754417E+03  0.25500000000E-02 0. -1.
    -200001    2    1    2    0    0 -0.38960870600E+02 -0.38294217405E+03  0.37115411825E+03  0.82230728107E+03  0.62471691741E+03 0.  0.
   -5000001    2    3    3    0    0 -0.17223822280E+03 -0.23317754079E+03 -0.53328462837E+02  0.34212110922E+03  0.17368119503E+03 0.  0.
     200001    1    1    2    0    0  0.38960870600E+02  0.38294217405E+03  0.66151914726E+03  0.98058107278E+03  0.61300000000E+03 0.  1.
         13    1    4    4    0    0 -0.18930436963E+03 -0.23566339299E+03 -0.55962862633E+02  0.30741703322E+03  0.10566000000E+00 0.  1.
    -200003    1    4    4    0    0  0.17066146830E+02  0.24858522016E+01  0.26343997965E+01  0.34704076001E+02  0.30000000000E+02 0.  1.
    -200000    1    3    3    0    0  0.13327735220E+03 -0.14976463326E+03  0.42448258109E+03  0.48018617185E+03  0.10100000000E+03 0.  1.
<mgrwt>
<rscale>  0 0.14778337E+04</rscale>
<asrwt>0</asrwt>
<pdfrwt beam="1">  1        2 0.20254012E+00 0.14778337E+04</pdfrwt>
<pdfrwt beam="2">  1       -2 0.55015363E-01 0.14778337E+04</pdfrwt>
<totfact> 0.48725341E+01</totfact>
</mgrwt>
</event>
<event>
 8    2  0.4306980E-052  0.1250991E+04  0.7818608E-02  0.9069359E-01
          2   -1    0    0  501    0  0.00000000000E+00  0.00000000000E+00  0.79278048830E+03  0.79278048831E+03  0.25500000000E-02 0.  1.
         -2   -1    0    0    0  501 -0.00000000000E+00 -0.00000000000E+00 -0.49350927385E+03  0.49350927385E+03  0.25500000000E-02 0. -1.
    -200001    2    1    2    0    0  0.35269040381E+01  0.82634744326E+01  0.27973921792E+03  0.67291286094E+03  0.61194522983E+03 0.  0.
   -5000001    2    3    3    0    0  0.16699851675E+03  0.45798136757E+02 -0.10340042119E+02  0.32294315347E+03  0.27239564970E+03 0.  0.
     200001    1    1    2    0    0 -0.35269040381E+01 -0.82634744326E+01  0.19531996535E+02  0.61337690122E+03  0.61300000000E+03 0. -1.
         13    1    4    4    0    0  0.15588582627E+03 -0.58819857139E+02 -0.88339375145E+02  0.18858425913E+03  0.10566000000E+00 0.  1.
    -200003    1    4    4    0    0  0.11112690484E+02  0.10461799390E+03  0.77999333027E+02  0.13435889434E+03  0.30000000000E+02 0.  1.
    -200000    1    3    3    0    0 -0.16347161271E+03 -0.37534662324E+02  0.29007926004E+03  0.34996970747E+03  0.10100000000E+03 0.  1.
<mgrwt>
<rscale>  0 0.12509908E+04</rscale>
<asrwt>0</asrwt>
<pdfrwt beam="1">  1        2 0.11325435E+00 0.12509908E+04</pdfrwt>
<pdfrwt beam="2">  1       -2 0.70501326E-01 0.12509908E+04</pdfrwt>
<totfact> 0.69307037E+01</totfact>
</mgrwt>
</event>
<event>
 8    2  0.4306980E-052  0.1363575E+04  0.7818608E-02  0.8980615E-01
         -2   -1    0    0    0  501 -0.00000000000E+00  0.00000000000E+00  0.27023499201E+03  0.27023499203E+03  0.25500000000E-02 0. -1.
          2   -1    0    0  501    0  0.00000000000E+00 -0.00000000000E+00 -0.17201114916E+04  0.17201114916E+04  0.25500000000E-02 0.  1.
    -200001    2    1    2    0    0 -0.16454546956E+03 -0.22135171704E+03 -0.62788727553E+03  0.92850512135E+03  0.62594531343E+03 0.  0.
   -5000001    2    3    3    0    0 -0.10494735735E+03  0.14715779593E+03 -0.47006724751E+03  0.51082179948E+03  0.85477066633E+02 0.  0.
     200001    1    1    2    0    0  0.16454546956E+03  0.22135171704E+03 -0.82198922408E+03  0.10618413623E+04  0.61300000000E+03 0.  1.
         13    1    4    4    0    0 -0.96955562759E+02  0.82113178757E+02 -0.32148742781E+03  0.34568357305E+03  0.10566000000E+00 0.  1.
    -200003    1    4    4    0    0 -0.79917945954E+01  0.65044617169E+02 -0.14857981970E+03  0.16513822642E+03  0.30000000000E+02 0.  1.
    -200000    1    3    3    0    0 -0.59598112202E+02 -0.36850951297E+03 -0.15782002802E+03  0.41768332187E+03  0.10100000000E+03 0. -1.
<mgrwt>
<rscale>  0 0.13635752E+04</rscale>
<asrwt>0</asrwt>
<pdfrwt beam="1">  1        2 0.24573021E+00 0.13635752E+04</pdfrwt>
<pdfrwt beam="2">  1       -2 0.38605000E-01 0.13635752E+04</pdfrwt>
<totfact> 0.69291979E+01</totfact>
</mgrwt>
</event>
<event>
 8    2  0.4306980E-052  0.1264260E+04  0.7818608E-02  0.9058398E-01
         -2   -1    0    0    0  501 -0.00000000000E+00  0.00000000000E+00  0.57577535785E+03  0.57577535786E+03  0.25500000000E-02 0. -1.
          2   -1    0    0  501    0  0.00000000000E+00 -0.00000000000E+00 -0.69400004945E+03  0.69400004946E+03  0.25500000000E-02 0.  1.
    -200001    2    1    2    0    0  0.25774574279E+02  0.10065196696E+03 -0.16837145662E+03  0.64601355759E+03  0.61497107416E+03 0.  0.
   -5000001    2    3    3    0    0  0.19911107902E+03  0.14280465835E+03 -0.30404967067E+03  0.40018440750E+03  0.87538366082E+02 0.  0.
     200001    1    1    2    0    0 -0.25774574279E+02 -0.10065196696E+03  0.50146765023E+02  0.62376184973E+03  0.61300000000E+03 0. -1.
         13    1    4    4    0    0  0.40846735967E+02  0.11675307599E+02 -0.16749962549E+02  0.45665534664E+02  0.10566000000E+00 0.  1.
    -200003    1    4    4    0    0  0.15826434305E+03  0.13112935075E+03 -0.28729970812E+03  0.35451887284E+03  0.30000000000E+02 0.  1.
    -200000    1    3    3    0    0 -0.17333650474E+03 -0.42152691382E+02  0.13567821405E+03  0.24582915009E+03  0.10100000000E+03 0.  1.
<mgrwt>
<rscale>  0 0.12642597E+04</rscale>
<asrwt>0</asrwt>
<pdfrwt beam="1">  1        2 0.99142864E-01 0.12642597E+04</pdfrwt>
<pdfrwt beam="2">  1       -2 0.82253622E-01 0.12642597E+04</pdfrwt>
<totfact> 0.58116486E+01</totfact>
</mgrwt>
</event>
<event>
 8    2  0.4306980E-052  0.1458630E+04  0.7818608E-02  0.8912439E-01
         -2   -1    0    0    0  501 -0.00000000000E+00  0.00000000000E+00  0.70688547208E+03  0.70688547208E+03  0.25500000000E-02 0. -1.
          2   -1    0    0  501    0  0.00000000000E+00 -0.00000000000E+00 -0.75245604123E+03  0.75245604123E+03  0.25500000000E-02 0.  1.
    -200001    2    1    2    0    0  0.27119094503E+03 -0.81940728226E+02 -0.30516629465E+03  0.73586535455E+03  0.60672278763E+03 0.  0.
   -5000001    2    3    3    0    0  0.31154432722E+02  0.19601575508E+03 -0.27294613484E+03  0.35361351014E+03  0.10559425702E+03 0.  0.
     200001    1    1    2    0    0 -0.27119094503E+03  0.81940728226E+02  0.25959572550E+03  0.72347615877E+03  0.61300000000E+03 0. -1.
         13    1    4    4    0    0  0.30600324307E+02  0.14238320519E+03 -0.24735385723E+03  0.28704232932E+03  0.10566000000E+00 0.  1.
    -200003    1    4    4    0    0  0.55410841532E+00  0.53632549887E+02 -0.25592277608E+02  0.66571180827E+02  0.30000000000E+02 0. -1.
    -200000    1    3    3    0    0  0.24003651230E+03 -0.27795648331E+03 -0.32220159811E+02  0.38225184440E+03  0.10100000000E+03 0.  1.
<mgrwt>
<rscale>  0 0.14586298E+04</rscale>
<asrwt>0</asrwt>
<pdfrwt beam="1">  1        2 0.10749372E+00 0.14586298E+04</pdfrwt>
<pdfrwt beam="2">  1       -2 0.10098364E+00 0.14586298E+04</pdfrwt>
<totfact> 0.32220695E+01</totfact>
</mgrwt>
</event>
<event>
 8    2  0.4306980E-052  0.1278346E+04  0.7818608E-02  0.9046915E-01
         -2   -1    0    0    0  501 -0.00000000000E+00  0.00000000000E+00  0.11369051635E+04  0.11369051635E+04  0.25500000000E-02 0. -1.
          2   -1    0    0  501    0  0.00000000000E+00 -0.00000000000E+00 -0.35934609017E+03  0.35934609018E+03  0.25500000000E-02 0.  1.
    -200001    2    1    2    0    0 -0.15696466138E+03  0.10492958702E+03  0.39671968170E+03  0.75029162651E+03  0.60819642863E+03 0.  0.
   -5000001    2    3    3    0    0 -0.24117550226E+03  0.20197697477E+03  0.46939325433E+03  0.57142824471E+03  0.85087545617E+02 0.  0.
     200001    1    1    2    0    0  0.15696466138E+03 -0.10492958702E+03  0.38083939164E+03  0.74595962718E+03  0.61300000000E+03 0. -1.
         13    1    4    4    0    0 -0.18722804288E+03  0.12242314463E+03  0.29760543102E+03  0.37230467378E+03  0.10566000000E+00 0.  1.
    -200003    1    4    4    0    0 -0.53947459376E+02  0.79553830141E+02  0.17178782331E+03  0.19912357093E+03  0.30000000000E+02 0.  1.
    -200000    1    3    3    0    0  0.84210840877E+02 -0.97047387749E+02 -0.72673572624E+02  0.17886338180E+03  0.10100000000E+03 0.  1.
<mgrwt>
<rscale>  0 0.12783465E+04</rscale>
<asrwt>0</asrwt>
<pdfrwt beam="1">  1        2 0.51335157E-01 0.12783465E+04</pdfrwt>
<pdfrwt beam="2">  1       -2 0.16241502E+00 0.12783465E+04</pdfrwt>
<totfact> 0.23149029E+01</totfact>
</mgrwt>
</event>
<event>
 8    2  0.4306980E-052  0.1500783E+04  0.7818608E-02  0.8883933E-01
          2   -1    0    0  501    0  0.00000000000E+00  0.00000000000E+00  0.37960896696E+04  0.37960896696E+04  0.25500000000E-02 0.  1.
         -2   -1    0    0    0  501 -0.00000000000E+00 -0.00000000000E+00 -0.14833345177E+03  0.14833345179E+03  0.25500000000E-02 0. -1.
    -200001    2    1    2    0    0  0.12030041295E+03  0.21531160054E+03  0.27593547788E+04  0.28372386781E+04  0.61241590949E+03 0.  0.
   -5000001    2    3    3    0    0  0.10992098814E+03 -0.86245161719E+02  0.20895343512E+04  0.20956831383E+04  0.78823598308E+02 0.  0.
     200001    1    1    2    0    0 -0.12030041295E+03 -0.21531160054E+03  0.88840143895E+03  0.11071844433E+04  0.61300000000E+03 0. -1.
         13    1    4    4    0    0  0.79666978290E+02 -0.38253057237E+02  0.87422881031E+03  0.87868432770E+03  0.10566000000E+00 0.  1.
    -200003    1    4    4    0    0  0.30254009845E+02 -0.47992104482E+02  0.12153055409E+04  0.12169988106E+04  0.30000000000E+02 0.  1.
    -200000    1    3    3    0    0  0.10379424816E+02  0.30155676226E+03  0.66982042760E+03  0.74155553976E+03  0.10100000000E+03 0. -1.
<mgrwt>
<rscale>  0 0.15007826E+04</rscale>
<asrwt>0</asrwt>
<pdfrwt beam="1">  1        2 0.54229859E+00 0.15007826E+04</pdfrwt>
<pdfrwt beam="2">  1       -2 0.21190490E-01 0.15007826E+04</pdfrwt>
<totfact> 0.14793771E+01</totfact>
</mgrwt>
</event>
<event>
 8    2  0.4306980E-052  0.1735521E+04  0.7818608E-02  0.8741361E-01
         -2   -1    0    0    0  501 -0.00000000000E+00  0.00000000000E+00  0.19718792870E+03  0.19718792871E+03  0.25500000000E-02 0. -1.
          2   -1    0    0  501    0  0.00000000000E+00 -0.00000000000E+00 -0.38187360398E+04  0.38187360398E+04  0.25500000000E-02 0.  1.
    -200001    2    1    2    0    0 -0.28523497084E+02 -0.58077336592E+03 -0.22671794772E+04  0.24196173912E+04  0.61346087506E+03 0.  0.
   -5000001    2    3    3    0    0  0.24050927512E+03 -0.39942524580E+03 -0.16168225865E+04  0.16858389106E+04  0.10272447602E+03 0.  0.
     200001    1    1    2    0    0  0.28523497084E+02  0.58077336592E+03 -0.13543686339E+04  0.15963065773E+04  0.61300000000E+03 0. -1.
         13    1    4    4    0    0  0.19005245410E+03 -0.23612985913E+03 -0.10741075776E+04  0.11160575008E+04  0.10566000000E+00 0.  1.
    -200003    1    4    4    0    0  0.50456821015E+02 -0.16329538667E+03 -0.54271500891E+03  0.56978140983E+03  0.30000000000E+02 0.  1.
    -200000    1    3    3    0    0 -0.26903277220E+03 -0.18134812012E+03 -0.65035689075E+03  0.73377848056E+03  0.10100000000E+03 0.  1.
<mgrwt>
<rscale>  0 0.17355214E+04</rscale>
<asrwt>0</asrwt>
<pdfrwt beam="1">  1        2 0.54553368E+00 0.17355214E+04</pdfrwt>
<pdfrwt beam="2">  1       -2 0.28169706E-01 0.17355214E+04</pdfrwt>
<totfact> 0.83502275E+00</totfact>
</mgrwt>
</event>
<event>
 8    2  0.4306980E-052  0.1524411E+04  0.7818608E-02  0.8868380E-01
         -2   -1    0    0    0  501 -0.00000000000E+00  0.00000000000E+00  0.38180439817E+03  0.38180439818E+03  0.25500000000E-02 0. -1.
          2   -1    0    0  501    0  0.00000000000E+00 -0.00000000000E+00 -0.15216096691E+04  0.15216096691E+04  0.25500000000E-02 0.  1.
    -200001    2    1    2    0    0  0.37372008939E+03 -0.23676511197E+03 -0.45884121393E+03  0.88596359164E+03  0.61536314697E+03 0.  0.
   -5000001    2    3    3    0    0  0.27458452242E+03  0.15101321857E+03 -0.28182888755E+03  0.43681522198E+03  0.11479705640E+03 0.  0.
     200001    1    1    2    0    0 -0.37372008939E+03  0.23676511197E+03 -0.68096405699E+03  0.10174504756E+04  0.61300000000E+03 0. -1.
         13    1    4    4    0    0  0.17058360285E+03  0.63706927327E+02 -0.99489106942E+02  0.20749802822E+03  0.10566000000E+00 0.  1.
    -200003    1    4    4    0    0  0.10400091958E+03  0.87306291241E+02 -0.18233978061E+03  0.22931719376E+03  0.30000000000E+02 0.  1.
    -200000    1    3    3    0    0  0.99135566971E+02 -0.38777833054E+03 -0.17701232638E+03  0.44914836966E+03  0.10100000000E+03 0. -1.
<mgrwt>
<rscale>  0 0.15244111E+04</rscale>
<asrwt>0</asrwt>
<pdfrwt beam="1">  1        2 0.21737281E+00 0.15244111E+04</pdfrwt>
<pdfrwt beam="2">  1       -2 0.54543486E-01 0.15244111E+04</pdfrwt>
<totfact> 0.43496548E+01</totfact>
</mgrwt>
</event>
<event>
 8    2  0.4306980E-052  0.1488461E+04  0.7818608E-02  0.8892163E-01
         -2   -1    0    0    0  501 -0.00000000000E+00  0.00000000000E+00  0.45568874981E+03  0.45568874981E+03  0.25500000000E-02 0. -1.
          2   -1    0    0  501    0  0.00000000000E+00 -0.00000000000E+00 -0.12154761223E+04  0.12154761223E+04  0.25500000000E-02 0.  1.
    -200001    2    1    2    0    0 -0.15072083155E+03 -0.38704332657E+03 -0.29725340249E+03  0.79810933029E+03  0.61326960800E+03 0.  0.
   -5000001    2    3    3    0    0 -0.14879866128E+03  0.24640624833E+02 -0.21327156966E+03  0.36597356594E+03  0.25632730356E+03 0.  0.
     200001    1    1    2    0    0  0.15072083155E+03  0.38704332657E+03 -0.46253396999E+03  0.87305554182E+03  0.61300000000E+03 0.  1.
         13    1    4    4    0    0  0.48600581600E+02 -0.22257784684E+02 -0.13715734135E+03  0.14720588630E+03  0.10566000000E+00 0.  1.
    -200003    1    4    4    0    0 -0.19739924288E+03  0.46898409517E+02 -0.76114228310E+02  0.21876767964E+03  0.30000000000E+02 0.  1.
    -200000    1    3    3    0    0 -0.19221702683E+01 -0.41168395140E+03 -0.83981832828E+02  0.43213576434E+03  0.10100000000E+03 0.  1.
<mgrwt>
<rscale>  0 0.14884607E+04</rscale>
<asrwt>0</asrwt>
<pdfrwt beam="1">  1        2 0.17363944E+00 0.14884607E+04</pdfrwt>
<pdfrwt beam="2">  1       -2 0.65098393E-01 0.14884607E+04</pdfrwt>
<totfact> 0.44140957E+01</totfact>
</mgrwt>
</event>
<event>
 8    2  0.4306980E-052  0.1261965E+04  0.7818608E-02  0.9060283E-01
          2   -1    0    0  501    0  0.00000000000E+00  0.00000000000E+00  0.16893538465E+04  0.16893538465E+04  0.25500000000E-02 0.  1.
         -2   -1    0    0    0  501 -0.00000000000E+00 -0.00000000000E+00 -0.23567515298E+03  0.23567515299E+03  0.25500000000E-02 0. -1.
    -200001    2    1    2    0    0  0.32305942951E+02  0.14425536213E+03  0.71286820183E+03  0.95218653122E+03  0.61369767281E+03 0.  0.
   -5000001    2    3    3    0    0 -0.14922089877E+03  0.18687256951E+03  0.65644537494E+03  0.73274916880E+03  0.22093569255E+03 0.  0.
     200001    1    1    2    0    0 -0.32305942951E+02 -0.14425536213E+03  0.74081049165E+03  0.97284246823E+03  0.61300000000E+03 0. -1.
         13    1    4    4    0    0  0.96963886604E+01  0.54203068658E+02  0.13587853984E+02  0.56715373092E+02  0.10566000000E+00 0.  1.
    -200003    1    4    4    0    0 -0.15891728743E+03  0.13266950085E+03  0.64285752095E+03  0.67603379571E+03  0.30000000000E+02 0.  1.
    -200000    1    3    3    0    0  0.18152684172E+03 -0.42617207379E+02  0.56422826894E+02  0.21943736242E+03  0.10100000000E+03 0.  1.
<mgrwt>
<rscale>  0 0.12619647E+04</rscale>
<asrwt>0</asrwt>
<pdfrwt beam="1">  1        2 0.24133627E+00 0.12619647E+04</pdfrwt>
<pdfrwt beam="2">  1       -2 0.33667878E-01 0.12619647E+04</pdfrwt>
<totfact> 0.94162904E+01</totfact>
</mgrwt>
</event>
<event>
 8    2  0.4306980E-052  0.1545528E+04  0.7818608E-02  0.8854730E-01
         -2   -1    0    0    0  501 -0.00000000000E+00  0.00000000000E+00  0.26511050787E+03  0.26511050788E+03  0.25500000000E-02 0. -1.
          2   -1    0    0  501    0  0.00000000000E+00 -0.00000000000E+00 -0.22525091378E+04  0.22525091378E+04  0.25500000000E-02 0.  1.
    -200001    2    1    2    0    0  0.32219215515E+03 -0.27483618007E+03 -0.66034926659E+03  0.99572223670E+03  0.61323642101E+03 0.  0.
   -5000001    2    3    3    0    0  0.45544650971E+03 -0.57495932378E+02 -0.46160872608E+03  0.65705970744E+03  0.88924336960E+02 0.  0.
     200001    1    1    2    0    0 -0.32219215515E+03  0.27483618007E+03 -0.13270493633E+04  0.15218974090E+04  0.61300000000E+03 0.  1.
         13    1    4    4    0    0  0.36253727672E+03 -0.41652131786E+02 -0.39525871799E+03  0.53795691501E+03  0.10566000000E+00 0.  1.
    -200003    1    4    4    0    0  0.92909232990E+02 -0.15843800592E+02 -0.66350008088E+02  0.11910279243E+03  0.30000000000E+02 0. -1.
    -200000    1    3    3    0    0 -0.13325435457E+03 -0.21734024769E+03 -0.19874054051E+03  0.33866252925E+03  0.10100000000E+03 0. -1.
<mgrwt>
<rscale>  0 0.15455275E+04</rscale>
<asrwt>0</asrwt>
<pdfrwt beam="1">  1        2 0.32178701E+00 0.15455275E+04</pdfrwt>
<pdfrwt beam="2">  1       -2 0.37872931E-01 0.15455275E+04</pdfrwt>
<totfact> 0.37711954E+01</totfact>
</mgrwt>
</event>
<event>
 8    2  0.4306980E-052  0.2157273E+04  0.7818608E-02  0.8536426E-01
         -2   -1    0    0    0  501 -0.00000000000E+00  0.00000000000E+00  0.25828993844E+03  0.25828993845E+03  0.25500000000E-02 0. -1.
          2   -1    0    0  501    0  0.00000000000E+00 -0.00000000000E+00 -0.45044592515E+04  0.45044592515E+04  0.25500000000E-02 0.  1.
    -200001    2    1    2    0    0 -0.44465149193E+03  0.65378677716E+03 -0.30135837314E+04  0.31752390907E+04  0.61262082675E+03 0.  0.
   -5000001    2    3    3    0    0 -0.47372855637E+03  0.32792086491E+03 -0.12999580860E+04  0.14277414738E+04  0.12885593425E+03 0.  0.
     200001    1    1    2    0    0  0.44465149193E+03 -0.65378677716E+03 -0.12325855817E+04  0.15875100993E+04  0.61300000000E+03 0.  1.
         13    1    4    4    0    0 -0.44224061858E+03  0.30864597321E+03 -0.12311840948E+04  0.13441180707E+04  0.10566000000E+00 0.  1.
    -200003    1    4    4    0    0 -0.31487937784E+02  0.19274891700E+02 -0.68773991176E+02  0.83623403053E+02  0.30000000000E+02 0. -1.
    -200000    1    3    3    0    0  0.29077064436E+02  0.32586591224E+03 -0.17136256454E+04  0.17474976169E+04  0.10100000000E+03 0. -1.
<mgrwt>
<rscale>  0 0.21572728E+04</rscale>
<asrwt>0</asrwt>
<pdfrwt beam="1">  1        2 0.64349413E+00 0.21572728E+04</pdfrwt>
<pdfrwt beam="2">  1       -2 0.36898565E-01 0.21572728E+04</pdfrwt>
<totfact> 0.15468909E+00</totfact>
</mgrwt>
</event>
<event>
 8    2  0.4306980E-052  0.1878942E+04  0.7818608E-02  0.8665410E-01
         -2   -1    0    0    0  501 -0.00000000000E+00  0.00000000000E+00  0.56808338845E+03  0.56808338845E+03  0.25500000000E-02 0. -1.
          2   -1    0    0  501    0  0.00000000000E+00 -0.00000000000E+00 -0.15536557594E+04  0.15536557594E+04  0.25500000000E-02 0.  1.
    -200001    2    1    2    0    0  0.32842606713E+03  0.37347053674E+03  0.81765557421E+02  0.79421394028E+03  0.61379658941E+03 0.  0.
   -5000001    2    3    3    0    0  0.38577332447E+03  0.10504847211E+03 -0.13524942857E+03  0.43002220938E+03  0.82282764128E+02 0.  0.
     200001    1    1    2    0    0 -0.32842606713E+03 -0.37347053674E+03 -0.10673379284E+04  0.13275252076E+04  0.61300000000E+03 0. -1.
         13    1    4    4    0    0  0.17707683082E+03  0.15831029610E+02 -0.77299366283E+02  0.19386084882E+03  0.10566000000E+00 0.  1.
    -200003    1    4    4    0    0  0.20869649365E+03  0.89217442499E+02 -0.57950062291E+02  0.23616136057E+03  0.30000000000E+02 0.  1.
    -200000    1    3    3    0    0 -0.57347257340E+02  0.26842206464E+03  0.21701498599E+03  0.36419173090E+03  0.10100000000E+03 0. -1.
<mgrwt>
<rscale>  0 0.18789423E+04</rscale>
<asrwt>0</asrwt>
<pdfrwt beam="1">  1        2 0.22195082E+00 0.18789423E+04</pdfrwt>
<pdfrwt beam="2">  1       -2 0.81154771E-01 0.18789423E+04</pdfrwt>
<totfact> 0.17247883E+01</totfact>
</mgrwt>
</event>
<event>
 8    2  0.4306980E-052  0.1303032E+04  0.7818608E-02  0.9027165E-01
          2   -1    0    0  501    0  0.00000000000E+00  0.00000000000E+00  0.16414365369E+04  0.16414365369E+04  0.25500000000E-02 0.  1.
         -2   -1    0    0    0  501 -0.00000000000E+00 -0.00000000000E+00 -0.25859837282E+03  0.25859837283E+03  0.25500000000E-02 0. -1.
    -200001    2    1    2    0    0  0.21215366838E+03  0.63499340508E+02  0.75500428950E+03  0.99505661201E+03  0.60915091618E+03 0.  0.
   -5000001    2    3    3    0    0  0.93574379890E+02  0.16201528580E+03  0.29095562437E+03  0.49574848796E+03  0.35511444712E+03 0.  0.
     200001    1    1    2    0    0 -0.21215366838E+03 -0.63499340508E+02  0.62783387454E+03  0.90497829768E+03  0.61300000000E+03 0. -1.
         13    1    4    4    0    0  0.18726218241E+03  0.10134141287E+02  0.49406408625E+02  0.19393511843E+03  0.10566000000E+00 0.  1.
    -200003    1    4    4    0    0 -0.93687802523E+02  0.15188114451E+03  0.24154921574E+03  0.30181336953E+03  0.30000000000E+02 0.  1.
    -200000    1    3    3    0    0  0.11857928849E+03 -0.98515945290E+02  0.46404866513E+03  0.49930812405E+03  0.10100000000E+03 0.  1.
<mgrwt>
<rscale>  0 0.13030316E+04</rscale>
<asrwt>0</asrwt>
<pdfrwt beam="1">  1        2 0.23449093E+00 0.13030316E+04</pdfrwt>
<pdfrwt beam="2">  1       -2 0.36942626E-01 0.13030316E+04</pdfrwt>
<totfact> 0.83271754E+01</totfact>
</mgrwt>
</event>
<event>
 8    2  0.4306980E-052  0.1501439E+04  0.7818608E-02  0.8883497E-01
         -2   -1    0    0    0  501 -0.00000000000E+00  0.00000000000E+00  0.19291883133E+03  0.19291883134E+03  0.25500000000E-02 0. -1.
          2   -1    0    0  501    0  0.00000000000E+00 -0.00000000000E+00 -0.29213291190E+04  0.29213291190E+04  0.25500000000E-02 0.  1.
    -200001    2    1    2    0    0  0.23015621775E+03  0.14833379555E+03 -0.66559263294E+03  0.94492536573E+03  0.61228718286E+03 0.  0.
   -5000001    2    3    3    0    0  0.92139327496E+02  0.15030904902E+03  0.56267351496E+02  0.20307942434E+03  0.83622795070E+02 0.  0.
     200001    1    1    2    0    0 -0.23015621775E+03 -0.14833379555E+03 -0.20628176548E+04  0.21693225847E+04  0.61300000000E+03 0.  1.
         13    1    4    4    0    0  0.43901494622E+02  0.17080764891E+02 -0.15485502627E+01  0.47132822229E+02  0.10566000000E+00 0.  1.
    -200003    1    4    4    0    0  0.48237832874E+02  0.13322828413E+03  0.57815901759E+02  0.15594660211E+03  0.30000000000E+02 0.  1.
    -200000    1    3    3    0    0  0.13801689026E+03 -0.19752534703E+01 -0.72185998444E+03  0.74184594139E+03  0.10100000000E+03 0.  1.
<mgrwt>
<rscale>  0 0.15014385E+04</rscale>
<asrwt>0</asrwt>
<pdfrwt beam="1">  1        2 0.41733270E+00 0.15014385E+04</pdfrwt>
<pdfrwt beam="2">  1       -2 0.27559835E-01 0.15014385E+04</pdfrwt>
<totfact> 0.30433179E+01</totfact>
</mgrwt>
</event>
<event>
 8    2  0.4306980E-052  0.1836720E+04  0.7818608E-02  0.8687012E-01
         -2   -1    0    0    0  501 -0.00000000000E+00  0.00000000000E+00  0.34285283067E+03  0.34285283068E+03  0.25500000000E-02 0. -1.
          2   -1    0    0  501    0  0.00000000000E+00 -0.00000000000E+00 -0.24599054128E+04  0.24599054128E+04  0.25500000000E-02 0.  1.
    -200001    2    1    2    0    0 -0.34944044403E+03 -0.58525459568E+03 -0.97584250088E+03  0.13389409683E+04  0.61307647505E+03 0.  0.
   -5000001    2    3    3    0    0 -0.12011130967E+03  0.67487170586E+02 -0.22806527196E+03  0.31520494301E+03  0.16840173075E+03 0.  0.
     200001    1    1    2    0    0  0.34944044403E+03  0.58525459568E+03 -0.11412100813E+04  0.14638172752E+04  0.61300000000E+03 0. -1.
         13    1    4    4    0    0  0.21963070929E+02 -0.33675346763E+02 -0.49933933979E+02  0.64107834084E+02  0.10566000000E+00 0.  1.
    -200003    1    4    4    0    0 -0.14207438060E+03  0.10116251735E+03 -0.17813133798E+03  0.25109710893E+03  0.30000000000E+02 0.  1.
    -200000    1    3    3    0    0 -0.22932913436E+03 -0.65274176627E+03 -0.74777722891E+03  0.10237360252E+04  0.10100000000E+03 0.  1.
<mgrwt>
<rscale>  0 0.18367205E+04</rscale>
<asrwt>0</asrwt>
<pdfrwt beam="1">  1        2 0.35141505E+00 0.18367205E+04</pdfrwt>
<pdfrwt beam="2">  1       -2 0.48978977E-01 0.18367205E+04</pdfrwt>
<totfact> 0.17249720E+01</totfact>
</mgrwt>
</event>
<event>
 8    2  0.4306980E-052  0.2371561E+04  0.7818608E-02  0.8450228E-01
         -2   -1    0    0    0  501 -0.00000000000E+00  0.00000000000E+00  0.13459642073E+04  0.13459642073E+04  0.25500000000E-02 0. -1.
          2   -1    0    0  501    0  0.00000000000E+00 -0.00000000000E+00 -0.10446600816E+04  0.10446600816E+04  0.25500000000E-02 0.  1.
    -200001    2    1    2    0    0 -0.86879896792E+03 -0.51960841832E+03  0.68880283717E+02  0.11845586202E+04  0.61125287413E+03 0.  0.
   -5000001    2    3    3    0    0 -0.90361252029E+03 -0.36800578236E+03  0.12509874386E+03  0.99076270197E+03  0.11839422795E+03 0.  0.
     200001    1    1    2    0    0  0.86879896792E+03  0.51960841832E+03  0.23242384201E+03  0.12060656688E+04  0.61300000000E+03 0. -1.
         13    1    4    4    0    0 -0.41941454773E+03 -0.21026955409E+03  0.18006087592E+02  0.46951685654E+03  0.10566000000E+00 0.  1.
    -200003    1    4    4    0    0 -0.48419797257E+03 -0.15773622827E+03  0.10709265627E+03  0.52124584542E+03  0.30000000000E+02 0.  1.
    -200000    1    3    3    0    0  0.34813552377E+02 -0.15160263596E+03 -0.56218460141E+02  0.19379591822E+03  0.10100000000E+03 0. -1.
<mgrwt>
<rscale>  0 0.23715607E+04</rscale>
<asrwt>0</asrwt>
<pdfrwt beam="1">  1        2 0.14923715E+00 0.23715607E+04</pdfrwt>
<pdfrwt beam="2">  1       -2 0.19228060E+00 0.23715607E+04</pdfrwt>
<totfact> 0.35741614E+00</totfact>
</mgrwt>
</event>
<event>
 8    2  0.4306980E-052  0.1623019E+04  0.7818608E-02  0.8806530E-01
         -2   -1    0    0    0  501 -0.00000000000E+00  0.00000000000E+00  0.15074621415E+04  0.15074621415E+04  0.25500000000E-02 0. -1.
          2   -1    0    0  501    0  0.00000000000E+00 -0.00000000000E+00 -0.43685872123E+03  0.43685872123E+03  0.25500000000E-02 0.  1.
    -200001    2    1    2    0    0  0.12727993620E+03  0.48261681914E+03  0.75263714652E+03  0.10922699678E+04  0.61438736312E+03 0.  0.
   -5000001    2    3    3    0    0  0.10175196942E+02 -0.12377753278E+03  0.75288411704E+02  0.17008238463E+03  0.88517006114E+02 0.  0.
     200001    1    1    2    0    0 -0.12727993620E+03 -0.48261681914E+03  0.31796627372E+03  0.85205089490E+03  0.61300000000E+03 0.  1.
         13    1    4    4    0    0  0.33274535139E+02 -0.82308444004E+02  0.19437902604E+02  0.90882989964E+02  0.10566000000E+00 0.  1.
    -200003    1    4    4    0    0 -0.23099338196E+02 -0.41469088773E+02  0.55850509101E+02  0.79199394667E+02  0.30000000000E+02 0.  1.
    -200000    1    3    3    0    0  0.11710473925E+03  0.60639435192E+03  0.67734873482E+03  0.92218758317E+03  0.10100000000E+03 0. -1.
<mgrwt>
<rscale>  0 0.16230194E+04</rscale>
<asrwt>0</asrwt>
<pdfrwt beam="1">  1        2 0.62408390E-01 0.16230194E+04</pdfrwt>
<pdfrwt beam="2">  1       -2 0.21535173E+00 0.16230194E+04</pdfrwt>
<totfact> 0.79433626E+00</totfact>
</mgrwt>
</event>
<event>
 8    2  0.4306980E-052  0.1991993E+04  0.7818608E-02  0.8610373E-01
         -2   -1    0    0    0  501 -0.00000000000E+00  0.00000000000E+00  0.36171233211E+03  0.36171233211E+03  0.25500000000E-02 0. -1.
          2   -1    0    0  501    0  0.00000000000E+00 -0.00000000000E+00 -0.27425357997E+04  0.27425357997E+04  0.25500000000E-02 0.  1.
    -200001    2    1    2    0    0  0.67791689722E+03  0.24411879899E+03 -0.71140802188E+03  0.11854249930E+04  0.61641360541E+03 0.  0.
   -5000001    2    3    3    0    0 -0.24203334619E+02 -0.20041538034E+02  0.65757142597E+02  0.10055624682E+03  0.69282698552E+02 0.  0.
     200001    1    1    2    0    0 -0.67791689722E+03 -0.24411879899E+03 -0.16694154457E+04  0.19188231388E+04  0.61300000000E+03 0.  1.
         13    1    4    4    0    0 -0.66052502533E+00 -0.35076142982E+02  0.29963971367E+02  0.46137000811E+02  0.10566000000E+00 0.  1.
    -200003    1    4    4    0    0 -0.23542809594E+02  0.15034604948E+02  0.35793171231E+02  0.54419246009E+02  0.30000000000E+02 0.  1.
    -200000    1    3    3    0    0  0.70212023184E+03  0.26416033702E+03 -0.77716516448E+03  0.10848687462E+04  0.10100000000E+03 0. -1.
<mgrwt>
<rscale>  0 0.19919930E+04</rscale>
<asrwt>0</asrwt>
<pdfrwt beam="1">  1        2 0.39179082E+00 0.19919930E+04</pdfrwt>
<pdfrwt beam="2">  1       -2 0.51673192E-01 0.19919930E+04</pdfrwt>
<totfact> 0.10796998E+01</totfact>
</mgrwt>
</event>
<event>
 8    2  0.4306980E-052  0.1373422E+04  0.7818608E-02  0.8973285E-01
          2   -1    0    0  501    0  0.00000000000E+00  0.00000000000E+00  0.87977439623E+03  0.87977439623E+03  0.25500000000E-02 0.  1.
         -2   -1    0    0    0  501 -0.00000000000E+00 -0.00000000000E+00 -0.53601449475E+03  0.53601449475E+03  0.25500000000E-02 0. -1.
    -200001    2    1    2    0    0  0.10788002632E+03  0.32253368423E+02  0.46863870327E+03  0.78014583471E+03  0.61345489595E+03 0.  0.
   -5000001    2    3    3    0    0 -0.11901030524E+03 -0.22035445215E+03  0.17868952269E+03  0.32236700068E+03  0.96286033628E+02 0.  0.
     200001    1    1    2    0    0 -0.10788002632E+03 -0.32253368423E+02 -0.12487880179E+03  0.63564305627E+03  0.61300000000E+03 0. -1.
         13    1    4    4    0    0 -0.58583281676E+02 -0.17796810402E+03  0.11066597258E+03  0.21760426372E+03  0.10566000000E+00 0.  1.
    -200003    1    4    4    0    0 -0.60427023567E+02 -0.42386348131E+02  0.68023550103E+02  0.10476273695E+03  0.30000000000E+02 0.  1.
    -200000    1    3    3    0    0  0.22689033157E+03  0.25260782057E+03  0.28994918059E+03  0.45777883404E+03  0.10100000000E+03 0.  1.
<mgrwt>
<rscale>  0 0.13734218E+04</rscale>
<asrwt>0</asrwt>
<pdfrwt beam="1">  1        2 0.12568205E+00 0.13734218E+04</pdfrwt>
<pdfrwt beam="2">  1       -2 0.76573501E-01 0.13734218E+04</pdfrwt>
<totfact> 0.49941082E+01</totfact>
</mgrwt>
</event>
<event>
 8    2  0.4306980E-052  0.1492955E+04  0.7818608E-02  0.8889151E-01
         -2   -1    0    0    0  501 -0.00000000000E+00  0.00000000000E+00  0.20993223865E+03  0.20993223866E+03  0.25500000000E-02 0. -1.
          2   -1    0    0  501    0  0.00000000000E+00 -0.00000000000E+00 -0.26543265036E+04  0.26543265036E+04  0.25500000000E-02 0.  1.
    -200001    2    1    2    0    0  0.74792425627E+02  0.41998408366E+03 -0.12176349594E+04  0.14280526529E+04  0.61214291432E+03 0.  0.
   -5000001    2    3    3    0    0  0.18064811667E+03  0.47034542917E+03 -0.58596667486E+03  0.77770850232E+03  0.87264000263E+02 0.  0.
     200001    1    1    2    0    0 -0.74792425627E+02 -0.41998408366E+03 -0.12267593055E+04  0.14362060894E+04  0.61300000000E+03 0.  1.
         13    1    4    4    0    0  0.11010320638E+03  0.36343879491E+03 -0.43961623844E+03  0.58092419640E+03  0.10566000000E+00 0.  1.
    -200003    1    4    4    0    0  0.70544910292E+02  0.10690663426E+03 -0.14635043642E+03  0.19678430592E+03  0.30000000000E+02 0.  1.
    -200000    1    3    3    0    0 -0.10585569105E+03 -0.50361345507E+02 -0.63166828458E+03  0.65034415058E+03  0.10100000000E+03 0.  1.
<mgrwt>
<rscale>  0 0.14929551E+04</rscale>
<asrwt>0</asrwt>
<pdfrwt beam="1">  1        2 0.37918948E+00 0.14929551E+04</pdfrwt>
<pdfrwt beam="2">  1       -2 0.29990321E-01 0.14929551E+04</pdfrwt>
<totfact> 0.36329366E+01</totfact>
</mgrwt>
</event>
<event>
 8    2  0.4306980E-052  0.1479199E+04  0.7818608E-02  0.8898405E-01
         -2   -1    0    0    0  501 -0.00000000000E+00  0.00000000000E+00  0.45266942001E+03  0.45266942002E+03  0.25500000000E-02 0. -1.
          2   -1    0    0  501    0  0.00000000000E+00 -0.00000000000E+00 -0.12084033808E+04  0.12084033809E+04  0.25500000000E-02 0.  1.
    -200001    2    1    2    0    0  0.18821798916E+03  0.28290016063E+03 -0.11231787648E+03  0.70964662405E+03  0.61280054938E+03 0.  0.
   -5000001    2    3    3    0    0  0.21115992575E+03  0.16423066518E+02  0.17686593493E+03  0.30299609728E+03  0.12516726679E+03 0.  0.
     200001    1    1    2    0    0 -0.18821798916E+03 -0.28290016063E+03 -0.64341608435E+03  0.95142617682E+03  0.61300000000E+03 0.  1.
         13    1    4    4    0    0  0.93818762193E+02 -0.38568015313E+02  0.32088941963E+02  0.10639155655E+03  0.10566000000E+00 0.  1.
    -200003    1    4    4    0    0  0.11734116356E+03  0.54991081831E+02  0.14477699296E+03  0.19660454073E+03  0.30000000000E+02 0.  1.
    -200000    1    3    3    0    0 -0.22941936587E+02  0.26647709412E+03 -0.28918381141E+03  0.40665052677E+03  0.10100000000E+03 0.  1.
<mgrwt>
<rscale>  0 0.14791988E+04</rscale>
<asrwt>0</asrwt>
<pdfrwt beam="1">  1        2 0.17262905E+00 0.14791988E+04</pdfrwt>
<pdfrwt beam="2">  1       -2 0.64667060E-01 0.14791988E+04</pdfrwt>
<totfact> 0.45222982E+01</totfact>
</mgrwt>
</event>
<event>
 8    2  0.4306980E-052  0.1262349E+04  0.7818608E-02  0.9059967E-01
          2   -1    0    0  501    0  0.00000000000E+00  0.00000000000E+00  0.12110453126E+04  0.12110453126E+04  0.25500000000E-02 0.  1.
         -2   -1    0    0    0  501 -0.00000000000E+00 -0.00000000000E+00 -0.32895654321E+03  0.32895654322E+03  0.25500000000E-02 0. -1.
    -200001    2    1    2    0    0 -0.11609974223E+03  0.94163922027E+02  0.44469600034E+03  0.77226008363E+03  0.61342082594E+03 0.  0.
   -5000001    2    3    3    0    0  0.11249602101E+03 -0.12841569621E+03  0.38222602386E+03  0.43181741976E+03  0.10594151650E+03 0.  0.
     200001    1    1    2    0    0  0.11609974223E+03 -0.94163922027E+02  0.43739276908E+03  0.76774177221E+03  0.61300000000E+03 0. -1.
         13    1    4    4    0    0  0.87019985597E+02 -0.91591324772E+02  0.16392501263E+03  0.20696103400E+03  0.10566000000E+00 0.  1.
    -200003    1    4    4    0    0  0.25476035413E+02 -0.36824371439E+02  0.21830101123E+03  0.22485638576E+03  0.30000000000E+02 0.  1.
    -200000    1    3    3    0    0 -0.22859576323E+03  0.22257961824E+03  0.62469976480E+02  0.34044266387E+03  0.10100000000E+03 0. -1.
<mgrwt>
<rscale>  0 0.12623490E+04</rscale>
<asrwt>0</asrwt>
<pdfrwt beam="1">  1        2 0.17300647E+00 0.12623490E+04</pdfrwt>
<pdfrwt beam="2">  1       -2 0.46993792E-01 0.12623490E+04</pdfrwt>
<totfact> 0.88845618E+01</totfact>
</mgrwt>
</event>
<event>
 8    2  0.4306980E-052  0.1724520E+04  0.7818608E-02  0.8747502E-01
          2   -1    0    0  501    0  0.00000000000E+00  0.00000000000E+00  0.13098565650E+04  0.13098565650E+04  0.25500000000E-02 0.  1.
         -2   -1    0    0    0  501 -0.00000000000E+00 -0.00000000000E+00 -0.56761350524E+03  0.56761350524E+03  0.25500000000E-02 0. -1.
    -200001    2    1    2    0    0 -0.50898806174E+03 -0.32835633924E+03  0.39810575530E+03  0.94952275667E+03  0.61336656292E+03 0.  0.
   -5000001    2    3    3    0    0 -0.23184789812E+03 -0.25117757096E+03  0.51737923726E+03  0.62212331247E+03  0.50125051069E+02 0.  0.
     200001    1    1    2    0    0  0.50898806174E+03  0.32835633924E+03  0.34413730451E+03  0.92794731363E+03  0.61300000000E+03 0. -1.
         13    1    4    4    0    0 -0.54626597224E+02 -0.82714662758E+02  0.14668224617E+03  0.17703523114E+03  0.10566000000E+00 0.  1.
    -200003    1    4    4    0    0 -0.17722130090E+03 -0.16846290821E+03  0.37069699110E+03  0.44508808133E+03  0.30000000000E+02 0.  1.
    -200000    1    3    3    0    0 -0.27714016362E+03 -0.77178768274E+02 -0.11927348196E+03  0.32739944420E+03  0.10100000000E+03 0.  1.
<mgrwt>
<rscale>  0 0.17245200E+04</rscale>
<asrwt>0</asrwt>
<pdfrwt beam="1">  1        2 0.18712237E+00 0.17245200E+04</pdfrwt>
<pdfrwt beam="2">  1       -2 0.81087642E-01 0.17245200E+04</pdfrwt>
<totfact> 0.23675173E+01</totfact>
</mgrwt>
</event>
<event>
 8    2  0.4306980E-052  0.1501419E+04  0.7818608E-02  0.8883510E-01
          2   -1    0    0  501    0  0.00000000000E+00  0.00000000000E+00  0.13315418222E+04  0.13315418222E+04  0.25500000000E-02 0.  1.
         -2   -1    0    0    0  501 -0.00000000000E+00 -0.00000000000E+00 -0.42324207014E+03  0.42324207015E+03  0.25500000000E-02 0. -1.
    -200001    2    1    2    0    0 -0.20344932338E+03 -0.71844343843E+02  0.89126469507E+03  0.11046974134E+04  0.61599543964E+03 0.  0.
   -5000001    2    3    3    0    0  0.19754397616E+02  0.95212317486E+02 -0.33640056516E+02  0.13342112490E+03  0.84934807599E+02 0.  0.
     200001    1    1    2    0    0  0.20344932338E+03  0.71844343843E+02  0.17035057008E+02  0.65008647894E+03  0.61300000000E+03 0. -1.
         13    1    4    4    0    0 -0.16778020294E+02  0.76209685699E+02 -0.17446068713E+02  0.79961207076E+02  0.10566000000E+00 0.  1.
    -200003    1    4    4    0    0  0.36532417911E+02  0.19002631787E+02 -0.16193987803E+02  0.53459917828E+02  0.30000000000E+02 0.  1.
    -200000    1    3    3    0    0 -0.22320372100E+03 -0.16705666133E+03  0.92490475159E+03  0.97127628853E+03  0.10100000000E+03 0.  1.
<mgrwt>
<rscale>  0 0.15014187E+04</rscale>
<asrwt>0</asrwt>
<pdfrwt beam="1">  1        2 0.19022026E+00 0.15014187E+04</pdfrwt>
<pdfrwt beam="2">  1       -2 0.60463152E-01 0.15014187E+04</pdfrwt>
<totfact> 0.44464556E+01</totfact>
</mgrwt>
</event>
<event>
 8    2  0.4306980E-052  0.1531249E+04  0.7818608E-02  0.8863935E-01
          2   -1    0    0  501    0  0.00000000000E+00  0.00000000000E+00  0.28003514273E+04  0.28003514273E+04  0.25500000000E-02 0. -1.
         -2   -1    0    0    0  501 -0.00000000000E+00 -0.00000000000E+00 -0.20932397563E+03  0.20932397564E+03  0.25500000000E-02 0.  1.
    -200001    2    1    2    0    0 -0.11295926225E+03 -0.43665485327E+03  0.10622122329E+04  0.13019072018E+04  0.60269418320E+03 0.  0.
   -5000001    2    3    3    0    0 -0.26195857011E+03 -0.82378271180E+02  0.21797314978E+03  0.36881914599E+03  0.11448491783E+03 0.  0.
     200001    1    1    2    0    0  0.11295926225E+03  0.43665485327E+03  0.15288152188E+04  0.17077682012E+04  0.61300000000E+03 0. -1.
         13    1    4    4    0    0 -0.30083459065E+01 -0.31829477534E+02  0.22719721251E+02  0.39221966841E+02  0.10566000000E+00 0.  1.
    -200003    1    4    4    0    0 -0.25895022420E+03 -0.50548793647E+02  0.19525342853E+03  0.32959717915E+03  0.30000000000E+02 0.  1.
    -200000    1    3    3    0    0  0.14899930785E+03 -0.35427658209E+03  0.84423908310E+03  0.93308805576E+03  0.10100000000E+03 0. -1.
<mgrwt>
<rscale>  0 0.15312488E+04</rscale>
<asrwt>0</asrwt>
<pdfrwt beam="1">  1        2 0.40005019E+00 0.15312488E+04</pdfrwt>
<pdfrwt beam="2">  1       -2 0.29903426E-01 0.15312488E+04</pdfrwt>
<totfact> 0.30387728E+01</totfact>
</mgrwt>
</event>
<event>
 8    2  0.4306980E-052  0.2397367E+04  0.7818608E-02  0.8440490E-01
         -2   -1    0    0    0  501 -0.00000000000E+00  0.00000000000E+00  0.44107086888E+03  0.44107086889E+03  0.25500000000E-02 0. -1.
          2   -1    0    0  501    0  0.00000000000E+00 -0.00000000000E+00 -0.32576218728E+04  0.32576218728E+04  0.25500000000E-02 0.  1.
    -200001    2    1    2    0    0 -0.28818282270E+03  0.88334028529E+03 -0.72080306831E+03  0.13256634944E+04  0.61195362417E+03 0.  0.
   -5000001    2    3    3    0    0 -0.11580097051E+03  0.59057279688E+03 -0.75574469841E+03  0.96950310530E+03  0.81241176912E+02 0.  0.
     200001    1    1    2    0    0  0.28818282270E+03 -0.88334028529E+03 -0.20957479356E+04  0.23730292473E+04  0.61300000000E+03 0.  1.
         13    1    4    4    0    0 -0.26723436175E+02  0.50870228720E+02 -0.96872291215E+02  0.11263291784E+03  0.10566000000E+00 0.  1.
    -200003    1    4    4    0    0 -0.89077534333E+02  0.53970256816E+03 -0.65887240720E+03  0.85687018746E+03  0.30000000000E+02 0.  1.
    -200000    1    3    3    0    0 -0.17238185219E+03  0.29276748842E+03  0.34941630104E+02  0.35616038908E+03  0.10100000000E+03 0.  1.
<mgrwt>
<rscale>  0 0.23973670E+04</rscale>
<asrwt>0</asrwt>
<pdfrwt beam="1">  1        2 0.46537454E+00 0.23973670E+04</pdfrwt>
<pdfrwt beam="2">  1       -2 0.63010126E-01 0.23973670E+04</pdfrwt>
<totfact> 0.35428111E+00</totfact>
</mgrwt>
</event>
<event>
 8    2  0.4306980E-052  0.1500776E+04  0.7818608E-02  0.8883937E-01
          2   -1    0    0  501    0  0.00000000000E+00  0.00000000000E+00  0.51886971069E+04  0.51886971069E+04  0.25500000000E-02 0.  1.
         -2   -1    0    0    0  501 -0.00000000000E+00 -0.00000000000E+00 -0.10852088150E+03  0.10852088153E+03  0.25500000000E-02 0. -1.
    -200001    2    1    2    0    0 -0.43227402743E+03 -0.18579208172E+02  0.25656372751E+04  0.26731217336E+04  0.61308984149E+03 0.  0.
   -5000001    2    3    3    0    0 -0.12914658227E+03  0.20887930417E+03  0.17385068311E+04  0.17577150512E+04  0.82745368798E+02 0.  0.
     200001    1    1    2    0    0  0.43227402743E+03  0.18579208172E+02  0.25145389503E+04  0.26240962548E+04  0.61300000000E+03 0. -1.
         13    1    4    4    0    0 -0.14744836542E+02  0.69079828399E+02  0.66049075216E+03  0.66425708709E+03  0.10566000000E+00 0.  1.
    -200003    1    4    4    0    0 -0.11440174573E+03  0.13979947577E+03  0.10780160789E+04  0.10934579641E+04  0.30000000000E+02 0.  1.
    -200000    1    3    3    0    0 -0.30312744516E+03 -0.22745851234E+03  0.82713044398E+03  0.91540668241E+03  0.10100000000E+03 0. -1.
<mgrwt>
<rscale>  0 0.15007758E+04</rscale>
<asrwt>0</asrwt>
<pdfrwt beam="1">  1        2 0.74124254E+00 0.15007758E+04</pdfrwt>
<pdfrwt beam="2">  1       -2 0.15502981E-01 0.15007758E+04</pdfrwt>
<totfact> 0.19096950E+00</totfact>
</mgrwt>
</event>
<event>
 8    2  0.4306980E-052  0.1898139E+04  0.7818608E-02  0.8655783E-01
          2   -1    0    0  501    0  0.00000000000E+00  0.00000000000E+00  0.77997309078E+03  0.77997309079E+03  0.25500000000E-02 0.  1.
         -2   -1    0    0    0  501 -0.00000000000E+00 -0.00000000000E+00 -0.11548256110E+04  0.11548256111E+04  0.25500000000E-02 0. -1.
    -200001    2    1    2    0    0  0.20610386175E+03 -0.69429663420E+03 -0.20506016389E+03  0.97088736651E+03  0.61322588787E+03 0.  0.
   -5000001    2    3    3    0    0 -0.10460289872E+03 -0.13079488050E+02 -0.15064168000E+03  0.21341930607E+03  0.10836071715E+03 0.  0.
     200001    1    1    2    0    0 -0.20610386175E+03  0.69429663420E+03 -0.16979235638E+03  0.96391133533E+03  0.61300000000E+03 0.  1.
         13    1    4    4    0    0 -0.67832633149E+02 -0.34344848247E+02 -0.29440022244E+02  0.81532575053E+02  0.10566000000E+00 0.  1.
    -200003    1    4    4    0    0 -0.36770265569E+02  0.21265360196E+02 -0.12120165776E+03  0.13188673101E+03  0.30000000000E+02 0.  1.
    -200000    1    3    3    0    0  0.31070676046E+03 -0.68121714615E+03 -0.54418483886E+02  0.75746806045E+03  0.10100000000E+03 0. -1.
<mgrwt>
<rscale>  0 0.18981390E+04</rscale>
<asrwt>0</asrwt>
<pdfrwt beam="1">  1        2 0.11142473E+00 0.18981390E+04</pdfrwt>
<pdfrwt beam="2">  1       -2 0.16497509E+00 0.18981390E+04</pdfrwt>
<totfact> 0.85453868E+00</totfact>
</mgrwt>
</event>
<event>
 8    2  0.4306980E-052  0.1325961E+04  0.7818608E-02  0.9009228E-01
         -2   -1    0    0    0  501 -0.00000000000E+00  0.00000000000E+00  0.22831267074E+04  0.22831267074E+04  0.25500000000E-02 0. -1.
          2   -1    0    0  501    0  0.00000000000E+00 -0.00000000000E+00 -0.19251796963E+03  0.19251796965E+03  0.25500000000E-02 0.  1.
    -200001    2    1    2    0    0 -0.15148207502E+03 -0.46291728687E+02  0.14140022931E+04  0.15490082736E+04  0.61231887411E+03 0.  0.
   -5000001    2    3    3    0    0 -0.31253816507E+03  0.13849610805E+03  0.63659637419E+03  0.72763955524E+03  0.85691902456E+02 0.  0.
     200001    1    1    2    0    0  0.15148207502E+03  0.46291728687E+02  0.67660644460E+03  0.92663640338E+03  0.61300000000E+03 0. -1.
         13    1    4    4    0    0 -0.18574768709E+03  0.11899531007E+03  0.40643622890E+03  0.46244189517E+03  0.10566000000E+00 0.  1.
    -200003    1    4    4    0    0 -0.12679047797E+03  0.19500797974E+02  0.23016014529E+03  0.26519766007E+03  0.30000000000E+02 0.  1.
    -200000    1    3    3    0    0  0.16105609004E+03 -0.18478783673E+03  0.77740591895E+03  0.82136871840E+03  0.10100000000E+03 0. -1.
<mgrwt>
<rscale>  0 0.13259607E+04</rscale>
<asrwt>0</asrwt>
<pdfrwt beam="1">  1        2 0.27502571E-01 0.13259607E+04</pdfrwt>
<pdfrwt beam="2">  1       -2 0.32616091E+00 0.13259607E+04</pdfrwt>
<totfact> 0.42614671E+00</totfact>
</mgrwt>
</event>
<event>
 8    2  0.4306980E-052  0.1266868E+04  0.7818608E-02  0.9056260E-01
          2   -1    0    0  501    0  0.00000000000E+00  0.00000000000E+00  0.42050902055E+04  0.42050902055E+04  0.25500000000E-02 0.  1.
         -2   -1    0    0    0  501 -0.00000000000E+00 -0.00000000000E+00 -0.95417329754E+02  0.95417329788E+02  0.25500000000E-02 0. -1.
    -200001    2    1    2    0    0 -0.74924467212E+02 -0.67764475976E+02  0.24244452384E+04  0.25044098515E+04  0.61961947223E+03 0.  0.
   -5000001    2    3    3    0    0  0.31534784799E+02  0.71103606236E+02  0.21956250548E+04  0.21991598015E+04  0.97387298127E+02 0.  0.
     200001    1    1    2    0    0  0.74924467212E+02  0.67764475976E+02  0.16852276374E+04  0.17960976838E+04  0.61300000000E+03 0. -1.
         13    1    4    4    0    0  0.46514057307E+02  0.26003685024E+02  0.55004246801E+03  0.55261783987E+03  0.10566000000E+00 0.  1.
    -200003    1    4    4    0    0 -0.14979272508E+02  0.45099921211E+02  0.16455825868E+04  0.16465419617E+04  0.30000000000E+02 0.  1.
    -200000    1    3    3    0    0 -0.10645925201E+03 -0.13886808221E+03  0.22882018354E+03  0.30525004994E+03  0.10100000000E+03 0. -1.
<mgrwt>
<rscale>  0 0.12668678E+04</rscale>
<asrwt>0</asrwt>
<pdfrwt beam="1">  1        2 0.60072723E+00 0.12668678E+04</pdfrwt>
<pdfrwt beam="2">  1       -2 0.13631046E-01 0.12668678E+04</pdfrwt>
<totfact> 0.17102424E+01</totfact>
</mgrwt>
</event>
<event>
 8    2  0.4306980E-052  0.1352363E+04  0.7818608E-02  0.8989041E-01
         -2   -1    0    0    0  501 -0.00000000000E+00  0.00000000000E+00  0.13565113431E+03  0.13565113433E+03  0.25500000000E-02 0. -1.
          2   -1    0    0  501    0  0.00000000000E+00 -0.00000000000E+00 -0.33705699313E+04  0.33705699313E+04  0.25500000000E-02 0.  1.
    -200001    2    1    2    0    0  0.96672848166E+02  0.26313162073E+03 -0.14541377669E+04  0.16021375679E+04  0.61134626177E+03 0.  0.
   -5000001    2    3    3    0    0  0.29027951033E+03  0.28810885129E+03 -0.72366485669E+03  0.83931447287E+03  0.11614239211E+03 0.  0.
     200001    1    1    2    0    0 -0.96672848166E+02 -0.26313162073E+03 -0.17807810300E+04  0.19040834977E+04  0.61300000000E+03 0.  1.
         13    1    4    4    0    0  0.21238030728E+03  0.14841558048E+03 -0.39220525943E+03  0.47006122595E+03  0.10566000000E+00 0.  1.
    -200003    1    4    4    0    0  0.77899203049E+02  0.13969327080E+03 -0.33145959726E+03  0.36925324692E+03  0.30000000000E+02 0.  1.
    -200000    1    3    3    0    0 -0.19360666216E+03 -0.24977230558E+02 -0.73047291024E+03  0.76282309500E+03  0.10100000000E+03 0. -1.
<mgrwt>
<rscale>  0 0.13523633E+04</rscale>
<asrwt>0</asrwt>
<pdfrwt beam="1">  1        2 0.48150994E+00 0.13523633E+04</pdfrwt>
<pdfrwt beam="2">  1       -2 0.19378736E-01 0.13523633E+04</pdfrwt>
<totfact> 0.32196878E+01</totfact>
</mgrwt>
</event>
<event>
 8    2  0.4306980E-052  0.1688323E+04  0.7818608E-02  0.8768052E-01
         -2   -1    0    0    0  501 -0.00000000000E+00  0.00000000000E+00  0.28913725897E+03  0.28913725898E+03  0.25500000000E-02 0. -1.
          2   -1    0    0  501    0  0.00000000000E+00 -0.00000000000E+00 -0.24646045043E+04  0.24646045043E+04  0.25500000000E-02 0.  1.
    -200001    2    1    2    0    0 -0.21545278698E+03  0.50449171663E+03 -0.78400907143E+03  0.11373084534E+04  0.61471009309E+03 0.  0.
   -5000001    2    3    3    0    0 -0.26674858110E+03  0.58379794104E+03 -0.49390031124E+03  0.81592888271E+03  0.99134165242E+02 0.  0.
     200001    1    1    2    0    0  0.21545278698E+03 -0.50449171663E+03 -0.13914581739E+04  0.16164333099E+04  0.61300000000E+03 0.  1.
         13    1    4    4    0    0 -0.19302417052E+03  0.48680358872E+03 -0.40833694391E+03  0.66405958717E+03  0.10566000000E+00 0.  1.
    -200003    1    4    4    0    0 -0.73724410580E+02  0.96994352320E+02 -0.85563367329E+02  0.15186929553E+03  0.30000000000E+02 0. -1.
    -200000    1    3    3    0    0  0.51295794123E+02 -0.79306224407E+02 -0.29010876019E+03  0.32137957070E+03  0.10100000000E+03 0.  1.
<mgrwt>
<rscale>  0 0.16883234E+04</rscale>
<asrwt>0</asrwt>
<pdfrwt beam="1">  1        2 0.35208635E+00 0.16883234E+04</pdfrwt>
<pdfrwt beam="2">  1       -2 0.41305324E-01 0.16883234E+04</pdfrwt>
<totfact> 0.24407309E+01</totfact>
</mgrwt>
</event>
<event>
 8    2  0.4306980E-052  0.2720305E+04  0.7818608E-02  0.8328447E-01
          2   -1    0    0  501    0  0.00000000000E+00  0.00000000000E+00  0.15024869082E+04  0.15024869082E+04  0.25500000000E-02 0.  1.
         -2   -1    0    0    0  501 -0.00000000000E+00 -0.00000000000E+00 -0.12313014096E+04  0.12313014096E+04  0.25500000000E-02 0. -1.
    -200001    2    1    2    0    0  0.11794087500E+04  0.22274565805E+03  0.31824010718E+03  0.13852321403E+04  0.61397938816E+03 0.  0.
   -5000001    2    3    3    0    0  0.10691918471E+03 -0.11573661388E+03 -0.50921537529E+02  0.19725678875E+03  0.10719403842E+03 0.  0.
     200001    1    1    2    0    0 -0.11794087500E+04 -0.22274565805E+03 -0.47054608555E+02  0.13485561775E+04  0.61300000000E+03 0. -1.
         13    1    4    4    0    0  0.43737207122E+02 -0.11225151494E+03 -0.34776749393E+02  0.12539050744E+03  0.10566000000E+00 0.  1.
    -200003    1    4    4    0    0  0.63181977583E+02 -0.34850989436E+01 -0.16144788135E+02  0.71866281314E+02  0.30000000000E+02 0.  1.
    -200000    1    3    3    0    0  0.10724895653E+04  0.33848227194E+03  0.36916164471E+03  0.11879753516E+04  0.10100000000E+03 0.  1.
<mgrwt>
<rscale>  0 0.27203046E+04</rscale>
<asrwt>0</asrwt>
<pdfrwt beam="1">  1        2 0.21464099E+00 0.27203046E+04</pdfrwt>
<pdfrwt beam="2">  1       -2 0.17590020E+00 0.27203046E+04</pdfrwt>
<totfact> 0.24888342E+00</totfact>
</mgrwt>
</event>
<event>
 8    2  0.4306980E-052  0.1347908E+04  0.7818608E-02  0.8992413E-01
          2   -1    0    0  501    0  0.00000000000E+00  0.00000000000E+00  0.78031173057E+03  0.78031173058E+03  0.25500000000E-02 0.  1.
         -2   -1    0    0    0  501 -0.00000000000E+00 -0.00000000000E+00 -0.58209313616E+03  0.58209313616E+03  0.25500000000E-02 0. -1.
    -200001    2    1    2    0    0 -0.65220884907E+02  0.26548451618E+03  0.62552315824E+02  0.67763473648E+03  0.61687944666E+03 0.  0.
   -5000001    2    3    3    0    0  0.22984406902E+03  0.84078626322E+02  0.12884098344E+03  0.31080151639E+03  0.14177472310E+03 0.  0.
     200001    1    1    2    0    0  0.65220884907E+02 -0.26548451618E+03  0.13566627859E+03  0.68477013027E+03  0.61300000000E+03 0. -1.
         13    1    4    4    0    0  0.19710896412E+03  0.22036737575E+02  0.12493751198E+03  0.23440766754E+03  0.10566000000E+00 0.  1.
    -200003    1    4    4    0    0  0.32735104894E+02  0.62041888748E+02  0.39034714648E+01  0.76393848844E+02  0.30000000000E+02 0.  1.
    -200000    1    3    3    0    0 -0.29506495392E+03  0.18140588985E+03 -0.66288667616E+02  0.36683322009E+03  0.10100000000E+03 0. -1.
<mgrwt>
<rscale>  0 0.13479082E+04</rscale>
<asrwt>0</asrwt>
<pdfrwt beam="1">  1        2 0.11147310E+00 0.13479082E+04</pdfrwt>
<pdfrwt beam="2">  1       -2 0.83156162E-01 0.13479082E+04</pdfrwt>
<totfact> 0.48648657E+01</totfact>
</mgrwt>
</event>
<event>
 8    2  0.4306980E-052  0.1329728E+04  0.7818608E-02  0.9006317E-01
         -2   -1    0    0    0  501 -0.00000000000E+00  0.00000000000E+00  0.17617355428E+03  0.17617355430E+03  0.25500000000E-02 0. -1.
          2   -1    0    0  501    0  0.00000000000E+00 -0.00000000000E+00 -0.25091397592E+04  0.25091397592E+04  0.25500000000E-02 0.  1.
    -200001    2    1    2    0    0 -0.22964048324E+03  0.11342584749E+03 -0.12214992986E+04  0.13904280451E+04  0.61288615401E+03 0.  0.
   -5000001    2    3    3    0    0  0.17667980085E+03  0.11967441250E+03 -0.58776772628E+03  0.63085453085E+03  0.83479470610E+02 0.  0.
     200001    1    1    2    0    0  0.22964048324E+03 -0.11342584749E+03 -0.11114669063E+04  0.12948852684E+04  0.61300000000E+03 0.  1.
         13    1    4    4    0    0  0.74619168803E+01 -0.40891316373E+01 -0.31755247736E+01  0.90827486313E+01  0.10566000000E+00 0.  1.
    -200003    1    4    4    0    0  0.16921788397E+03  0.12376354414E+03 -0.58459220150E+03  0.62177178222E+03  0.30000000000E+02 0.  1.
    -200000    1    3    3    0    0 -0.40632028409E+03 -0.62485650072E+01 -0.63373157233E+03  0.75957351428E+03  0.10100000000E+03 0.  1.
<mgrwt>
<rscale>  0 0.13297279E+04</rscale>
<asrwt>0</asrwt>
<pdfrwt beam="1">  1        2 0.35844852E+00 0.13297279E+04</pdfrwt>
<pdfrwt beam="2">  1       -2 0.25167652E-01 0.13297279E+04</pdfrwt>
<totfact> 0.60654667E+01</totfact>
</mgrwt>
</event>
<event>
 8    2  0.4306980E-052  0.2335062E+04  0.7818608E-02  0.8464223E-01
         -2   -1    0    0    0  501 -0.00000000000E+00  0.00000000000E+00  0.10645212135E+04  0.10645212135E+04  0.25500000000E-02 0. -1.
          2   -1    0    0  501    0  0.00000000000E+00 -0.00000000000E+00 -0.12805090361E+04  0.12805090361E+04  0.25500000000E-02 0.  1.
    -200001    2    1    2    0    0  0.28706669189E+03  0.79598448038E+03 -0.63113614130E+03  0.12207012475E+04  0.61300907674E+03 0.  0.
   -5000001    2    3    3    0    0  0.79300107392E+02  0.28718224726E+03 -0.22217388671E+03  0.52824345691E+03  0.37539014858E+03 0.  0.
     200001    1    1    2    0    0 -0.28706669189E+03 -0.79598448038E+03  0.41514831867E+03  0.11243290022E+04  0.61300000000E+03 0.  1.
         13    1    4    4    0    0 -0.31311547131E+02 -0.84570190847E+02 -0.38814507632E+02  0.98178955639E+02  0.10566000000E+00 0.  1.
    -200003    1    4    4    0    0  0.11061165452E+03  0.37175243810E+03 -0.18335937908E+03  0.43006450127E+03  0.30000000000E+02 0.  1.
    -200000    1    3    3    0    0  0.20776658450E+03  0.50880223312E+03 -0.40896225459E+03  0.69245779058E+03  0.10100000000E+03 0. -1.
<mgrwt>
<rscale>  0 0.23350623E+04</rscale>
<asrwt>0</asrwt>
<pdfrwt beam="1">  1        2 0.18292986E+00 0.23350623E+04</pdfrwt>
<pdfrwt beam="2">  1       -2 0.15207446E+00 0.23350623E+04</pdfrwt>
<totfact> 0.50535340E+00</totfact>
</mgrwt>
</event>
<event>
 8    2  0.4306980E-052  0.1572000E+04  0.7818608E-02  0.8837937E-01
          2   -1    0    0  501    0  0.00000000000E+00  0.00000000000E+00  0.18586776086E+04  0.18586776086E+04  0.25500000000E-02 0.  1.
         -2   -1    0    0    0  501 -0.00000000000E+00 -0.00000000000E+00 -0.33238464385E+03  0.33238464386E+03  0.25500000000E-02 0. -1.
    -200001    2    1    2    0    0 -0.40411593248E+03  0.26954657317E+03  0.64951027628E+03  0.10161231371E+04  0.61210913146E+03 0.  0.
   -5000001    2    3    3    0    0 -0.51465905179E+03  0.10121137509E+03  0.33587117698E+03  0.62995347914E+03  0.94415339420E+02 0.  0.
     200001    1    1    2    0    0  0.40411593248E+03 -0.26954657317E+03  0.87678268850E+03  0.11749391154E+04  0.61300000000E+03 0. -1.
         13    1    4    4    0    0 -0.26081337031E+03  0.93698630202E+02  0.18047053688E+03  0.33071539619E+03  0.10566000000E+00 0.  1.
    -200003    1    4    4    0    0 -0.25384568148E+03  0.75127448921E+01  0.15540064010E+03  0.29923808295E+03  0.30000000000E+02 0.  1.
    -200000    1    3    3    0    0  0.11054311931E+03  0.16833519807E+03  0.31363909930E+03  0.38616965798E+03  0.10100000000E+03 0.  1.
<mgrwt>
<rscale>  0 0.15719999E+04</rscale>
<asrwt>0</asrwt>
<pdfrwt beam="1">  1        2 0.26552537E+00 0.15719999E+04</pdfrwt>
<pdfrwt beam="2">  1       -2 0.47483522E-01 0.15719999E+04</pdfrwt>
<totfact> 0.38394506E+01</totfact>
</mgrwt>
</event>
<event>
 8    2  0.4306980E-052  0.1302911E+04  0.7818608E-02  0.9027260E-01
          2   -1    0    0  501    0  0.00000000000E+00  0.00000000000E+00  0.84128414529E+03  0.84128414529E+03  0.25500000000E-02 0.  1.
         -2   -1    0    0    0  501 -0.00000000000E+00 -0.00000000000E+00 -0.50446014915E+03  0.50446014916E+03  0.25500000000E-02 0. -1.
    -200001    2    1    2    0    0  0.14745379171E+03 -0.73200241686E+02  0.14412984001E+02  0.63383225155E+03  0.61191069032E+03 0.  0.
   -5000001    2    3    3    0    0  0.10211316692E+03  0.86862880942E+02  0.25824633820E+03  0.32185199560E+03  0.13756917144E+03 0.  0.
     200001    1    1    2    0    0 -0.14745379171E+03  0.73200241686E+02  0.32241101214E+03  0.71191204290E+03  0.61300000000E+03 0.  1.
         13    1    4    4    0    0  0.10760669563E+03  0.10453629070E+03  0.23760409725E+03  0.28100312314E+03  0.10566000000E+00 0.  1.
    -200003    1    4    4    0    0 -0.54935287080E+01 -0.17673409754E+02  0.20642240950E+02  0.40848872462E+02  0.30000000000E+02 0.  1.
    -200000    1    3    3    0    0  0.45340624789E+02 -0.16006312263E+03 -0.24383335420E+03  0.31198025595E+03  0.10100000000E+03 0. -1.
<mgrwt>
<rscale>  0 0.13029111E+04</rscale>
<asrwt>0</asrwt>
<pdfrwt beam="1">  1        2 0.12018345E+00 0.13029111E+04</pdfrwt>
<pdfrwt beam="2">  1       -2 0.72065736E-01 0.13029111E+04</pdfrwt>
<totfact> 0.60916354E+01</totfact>
</mgrwt>
</event>
<event>
 8    2  0.4306980E-052  0.1380780E+04  0.7818608E-02  0.8967850E-01
          2   -1    0    0  501    0  0.00000000000E+00  0.00000000000E+00  0.14723064312E+04  0.14723064312E+04  0.25500000000E-02 0.  1.
         -2   -1    0    0    0  501 -0.00000000000E+00 -0.00000000000E+00 -0.32373574475E+03  0.32373574476E+03  0.25500000000E-02 0. -1.
    -200001    2    1    2    0    0  0.16968343378E+03  0.17821887113E+03  0.83760784067E+03  0.10659590812E+04  0.61165957393E+03 0.  0.
   -5000001    2    3    3    0    0 -0.23879137429E+02 -0.13497524988E+03  0.58402547499E+03  0.60763382272E+03  0.96667346030E+02 0.  0.
     200001    1    1    2    0    0 -0.16968343378E+03 -0.17821887113E+03  0.31096284576E+03  0.73008309470E+03  0.61300000000E+03 0.  1.
         13    1    4    4    0    0 -0.35058415088E+02 -0.11692537482E+03  0.34854320378E+03  0.36930070648E+03  0.10566000000E+00 0.  1.
    -200003    1    4    4    0    0  0.11179277659E+02 -0.18049875059E+02  0.23548227121E+03  0.23833311624E+03  0.30000000000E+02 0.  1.
    -200000    1    3    3    0    0  0.19356257120E+03  0.31319412101E+03  0.25358236568E+03  0.45832525852E+03  0.10100000000E+03 0. -1.
<mgrwt>
<rscale>  0 0.13807798E+04</rscale>
<asrwt>0</asrwt>
<pdfrwt beam="1">  1        2 0.21032949E+00 0.13807798E+04</pdfrwt>
<pdfrwt beam="2">  1       -2 0.46247964E-01 0.13807798E+04</pdfrwt>
<totfact> 0.65385025E+01</totfact>
</mgrwt>
</event>
<event>
 8    2  0.4306980E-052  0.1344383E+04  0.7818608E-02  0.8995091E-01
          2   -1    0    0  501    0  0.00000000000E+00  0.00000000000E+00  0.38478754323E+03  0.38478754324E+03  0.25500000000E-02 0.  1.
         -2   -1    0    0    0  501 -0.00000000000E+00 -0.00000000000E+00 -0.11742622684E+04  0.11742622684E+04  0.25500000000E-02 0. -1.
    -200001    2    1    2    0    0  0.10103610813E+03 -0.79636084566E+02 -0.67813303656E+03  0.92287674345E+03  0.61260661703E+03 0.  0.
   -5000001    2    3    3    0    0 -0.16689294233E+03  0.33337605409E+02 -0.24864586394E+02  0.20072045934E+03  0.10346886008E+03 0.  0.
     200001    1    1    2    0    0 -0.10103610813E+03  0.79636084566E+02 -0.11134168865E+03  0.63617306823E+03  0.61300000000E+03 0.  1.
         13    1    4    4    0    0 -0.51920447094E+02  0.29643480702E+02 -0.51481678086E+02  0.78897674980E+02  0.10566000000E+00 0.  1.
    -200003    1    4    4    0    0 -0.11497249524E+03  0.36941247071E+01  0.26617091692E+02  0.12182278436E+03  0.30000000000E+02 0.  1.
    -200000    1    3    3    0    0  0.26792905046E+03 -0.11297368997E+03 -0.65326845016E+03  0.72215628411E+03  0.10100000000E+03 0. -1.
<mgrwt>
<rscale>  0 0.13443831E+04</rscale>
<asrwt>0</asrwt>
<pdfrwt beam="1">  1        2 0.54969649E-01 0.13443831E+04</pdfrwt>
<pdfrwt beam="2">  1       -2 0.16775175E+00 0.13443831E+04</pdfrwt>
<totfact> 0.19529086E+01</totfact>
</mgrwt>
</event>
<event>
 8    2  0.4306980E-052  0.1423626E+04  0.7818608E-02  0.8936892E-01
         -2   -1    0    0    0  501 -0.00000000000E+00  0.00000000000E+00  0.11082660934E+04  0.11082660934E+04  0.25500000000E-02 0. -1.
          2   -1    0    0  501    0  0.00000000000E+00 -0.00000000000E+00 -0.45718045322E+03  0.45718045323E+03  0.25500000000E-02 0.  1.
    -200001    2    1    2    0    0  0.22353170788E+01  0.26845726640E+03  0.59239674530E+02  0.67206815669E+03  0.61326337545E+03 0.  0.
   -5000001    2    3    3    0    0 -0.11203031881E+03  0.17350333282E+03  0.26581033214E+03  0.39830672472E+03  0.21292936729E+03 0.  0.
     200001    1    1    2    0    0 -0.22353170788E+01 -0.26845726640E+03  0.59184596560E+03  0.89337838989E+03  0.61300000000E+03 0. -1.
         13    1    4    4    0    0 -0.13036602418E+03  0.95902523783E+02  0.26800925928E+03  0.31308396406E+03  0.10566000000E+00 0.  1.
    -200003    1    4    4    0    0  0.18335705370E+02  0.77600809034E+02 -0.21989271357E+01  0.85222760661E+02  0.30000000000E+02 0.  1.
    -200000    1    3    3    0    0  0.11426563589E+03  0.94953933581E+02 -0.20657065761E+03  0.27376143197E+03  0.10100000000E+03 0.  1.
<mgrwt>
<rscale>  0 0.14236258E+04</rscale>
<asrwt>0</asrwt>
<pdfrwt beam="1">  1        2 0.65311494E-01 0.14236258E+04</pdfrwt>
<pdfrwt beam="2">  1       -2 0.15832373E+00 0.14236258E+04</pdfrwt>
<totfact> 0.18747292E+01</totfact>
</mgrwt>
</event>
<event>
 8    2  0.4306980E-052  0.1516047E+04  0.7818608E-02  0.8873851E-01
          2   -1    0    0  501    0  0.00000000000E+00  0.00000000000E+00  0.12320776328E+04  0.12320776328E+04  0.25500000000E-02 0.  1.
         -2   -1    0    0    0  501 -0.00000000000E+00 -0.00000000000E+00 -0.46636670704E+03  0.46636670704E+03  0.25500000000E-02 0. -1.
    -200001    2    1    2    0    0 -0.63235624763E+02  0.13428571541E+03  0.85475046754E+03  0.10614761793E+04  0.61163871672E+03 0.  0.
   -5000001    2    3    3    0    0 -0.11012324809E+02 -0.17647557904E+03  0.27071329389E+03  0.39020851627E+03  0.21843098999E+03 0.  0.
     200001    1    1    2    0    0  0.63235624763E+02 -0.13428571541E+03 -0.89039541767E+02  0.63696816059E+03  0.61300000000E+03 0. -1.
         13    1    4    4    0    0 -0.33636240800E+02 -0.12715239568E+03  0.21344796782E+02  0.13324691342E+03  0.10566000000E+00 0.  1.
    -200003    1    4    4    0    0  0.22623915991E+02 -0.49323183360E+02  0.24936849711E+03  0.25696160285E+03  0.30000000000E+02 0.  1.
    -200000    1    3    3    0    0 -0.52223299954E+02  0.31076129444E+03  0.58403717366E+03  0.67126766300E+03  0.10100000000E+03 0.  1.
<mgrwt>
<rscale>  0 0.15160475E+04</rscale>
<asrwt>0</asrwt>
<pdfrwt beam="1">  1        2 0.17601109E+00 0.15160475E+04</pdfrwt>
<pdfrwt beam="2">  1       -2 0.66623817E-01 0.15160475E+04</pdfrwt>
<totfact> 0.41009022E+01</totfact>
</mgrwt>
</event>
<event>
 8    2  0.4306980E-052  0.1841132E+04  0.7818608E-02  0.8684727E-01
          2   -1    0    0  501    0  0.00000000000E+00  0.00000000000E+00  0.64229232212E+03  0.64229232212E+03  0.25500000000E-02 0.  1.
         -2   -1    0    0    0  501 -0.00000000000E+00 -0.00000000000E+00 -0.13194019795E+04  0.13194019795E+04  0.25500000000E-02 0. -1.
    -200001    2    1    2    0    0  0.40654170917E+03 -0.13105848527E+03  0.23508002429E+03  0.78257958999E+03  0.61214026905E+03 0.  0.
   -5000001    2    3    3    0    0  0.11470093241E+03  0.21368883890E+03  0.18938971866E+03  0.31748781353E+03  0.78171749628E+02 0.  0.
     200001    1    1    2    0    0 -0.40654170917E+03  0.13105848527E+03 -0.91218968167E+03  0.11791147116E+04  0.61300000000E+03 0. -1.
         13    1    4    4    0    0  0.89908834987E+02  0.12401741101E+03  0.14192013679E+03  0.20881870901E+03  0.10566000000E+00 0.  1.
    -200003    1    4    4    0    0  0.24792097428E+02  0.89671427888E+02  0.47469581873E+02  0.10866910452E+03  0.30000000000E+02 0.  1.
    -200000    1    3    3    0    0  0.29184077675E+03 -0.34474732417E+03  0.45690305625E+02  0.46509177646E+03  0.10100000000E+03 0.  1.
<mgrwt>
<rscale>  0 0.18411320E+04</rscale>
<asrwt>0</asrwt>
<pdfrwt beam="1">  1        2 0.91756046E-01 0.18411320E+04</pdfrwt>
<pdfrwt beam="2">  1       -2 0.18848600E+00 0.18411320E+04</pdfrwt>
<totfact> 0.74840105E+00</totfact>
</mgrwt>
</event>
<event>
 8    2  0.4306980E-052  0.1371579E+04  0.7818608E-02  0.8974652E-01
         -2   -1    0    0    0  501 -0.00000000000E+00  0.00000000000E+00  0.36215335038E+03  0.36215335039E+03  0.25500000000E-02 0. -1.
          2   -1    0    0  501    0  0.00000000000E+00 -0.00000000000E+00 -0.12986406525E+04  0.12986406525E+04  0.25500000000E-02 0.  1.
    -200001    2    1    2    0    0 -0.25225505706E+03 -0.13143151262E+02 -0.25696861160E+03  0.71141525498E+03  0.61341131505E+03 0.  0.
   -5000001    2    3    3    0    0 -0.19715608934E+03  0.12863043924E+03 -0.39598191904E+03  0.48193465263E+03  0.14157335814E+03 0.  0.
     200001    1    1    2    0    0  0.25225505706E+03  0.13143151262E+02 -0.67951869057E+03  0.94937874795E+03  0.61300000000E+03 0.  1.
         13    1    4    4    0    0 -0.26153093878E+02  0.63963135502E+02 -0.38023513000E+02  0.78873732811E+02  0.10566000000E+00 0.  1.
    -200003    1    4    4    0    0 -0.17100299546E+03  0.64667303740E+02 -0.35795840604E+03  0.40306091982E+03  0.30000000000E+02 0.  1.
    -200000    1    3    3    0    0 -0.55098967723E+02 -0.14177359050E+03  0.13901330744E+03  0.22948060235E+03  0.10100000000E+03 0. -1.
<mgrwt>
<rscale>  0 0.13715787E+04</rscale>
<asrwt>0</asrwt>
<pdfrwt beam="1">  1        2 0.18552009E+00 0.13715787E+04</pdfrwt>
<pdfrwt beam="2">  1       -2 0.51736194E-01 0.13715787E+04</pdfrwt>
<totfact> 0.64765216E+01</totfact>
</mgrwt>
</event>
<event>
 8    2  0.4306980E-052  0.2093725E+04  0.7818608E-02  0.8564013E-01
         -2   -1    0    0    0  501 -0.00000000000E+00  0.00000000000E+00  0.13105298979E+04  0.13105298979E+04  0.25500000000E-02 0.  1.
          2   -1    0    0  501    0  0.00000000000E+00 -0.00000000000E+00 -0.83624285023E+03  0.83624285024E+03  0.25500000000E-02 0. -1.
    -200001    2    1    2    0    0  0.64395828840E+03  0.11909409480E+03  0.79075371931E+03  0.11955704379E+04  0.61256146372E+03 0.  0.
   -5000001    2    3    3    0    0  0.21862139795E+03  0.21889269624E+03  0.64703990006E+03  0.72469264797E+03  0.10396861859E+03 0.  0.
     200001    1    1    2    0    0 -0.64395828840E+03 -0.11909409480E+03 -0.31646667167E+03  0.95120231018E+03  0.61300000000E+03 0. -1.
         13    1    4    4    0    0  0.18144887910E+03  0.20097871598E+03  0.58304372430E+03  0.64285001020E+03  0.10566000000E+00 0.  1.
    -200003    1    4    4    0    0  0.37172518846E+02  0.17913980267E+02  0.63996175757E+02  0.81842637774E+02  0.30000000000E+02 0.  1.
    -200000    1    3    3    0    0  0.42533689045E+03 -0.99798601446E+02  0.14371381925E+03  0.47087778996E+03  0.10100000000E+03 0. -1.
<mgrwt>
<rscale>  0 0.20937252E+04</rscale>
<asrwt>0</asrwt>
<pdfrwt beam="1">  1        2 0.11946327E+00 0.20937252E+04</pdfrwt>
<pdfrwt beam="2">  1       -2 0.18721855E+00 0.20937252E+04</pdfrwt>
<totfact> 0.53723927E+00</totfact>
</mgrwt>
</event>
<event>
 8    2  0.4306980E-052  0.1366362E+04  0.7818608E-02  0.8978534E-01
         -2   -1    0    0    0  501 -0.00000000000E+00  0.00000000000E+00  0.25228154691E+03  0.25228154692E+03  0.25500000000E-02 0. -1.
          2   -1    0    0  501    0  0.00000000000E+00 -0.00000000000E+00 -0.18500616006E+04  0.18500616006E+04  0.25500000000E-02 0.  1.
    -200001    2    1    2    0    0  0.14797514110E+03 -0.51433417762E+02 -0.40203304944E+03  0.74952315322E+03  0.61287220978E+03 0.  0.
   -5000001    2    3    3    0    0  0.85279572472E+02 -0.16780630829E+03 -0.51222080047E+03  0.54998437390E+03  0.68418568511E+02 0.  0.
     200001    1    1    2    0    0 -0.14797514110E+03  0.51433417762E+02 -0.11957470043E+04  0.13528199943E+04  0.61300000000E+03 0.  1.
         13    1    4    4    0    0  0.91899935543E+01 -0.17895588953E+02 -0.12733498652E+03  0.12891438260E+03  0.10566000000E+00 0.  1.
    -200003    1    4    4    0    0  0.76089578918E+02 -0.14991071933E+03 -0.38488581395E+03  0.42106999130E+03  0.30000000000E+02 0.  1.
    -200000    1    3    3    0    0  0.62695568631E+02  0.11637289053E+03  0.11018775103E+03  0.19953877932E+03  0.10100000000E+03 0. -1.
<mgrwt>
<rscale>  0 0.13663622E+04</rscale>
<asrwt>0</asrwt>
<pdfrwt beam="1">  1        2 0.26429451E+00 0.13663622E+04</pdfrwt>
<pdfrwt beam="2">  1       -2 0.36040222E-01 0.13663622E+04</pdfrwt>
<totfact> 0.67780577E+01</totfact>
</mgrwt>
</event>
<event>
 8    2  0.4306980E-052  0.1978233E+04  0.7818608E-02  0.8616866E-01
         -2   -1    0    0    0  501 -0.00000000000E+00  0.00000000000E+00  0.46435247080E+03  0.46435247080E+03  0.25500000000E-02 0. -1.
          2   -1    0    0  501    0  0.00000000000E+00 -0.00000000000E+00 -0.21069145588E+04  0.21069145588E+04  0.25500000000E-02 0.  1.
    -200001    2    1    2    0    0 -0.14047157391E+03  0.19847108138E+03  0.13689081077E+03  0.67354611962E+03  0.61302711845E+03 0.  0.
   -5000001    2    3    3    0    0 -0.17428006412E+03  0.16601109758E+03 -0.89150740889E+02  0.42156904202E+03  0.33442394849E+03 0.  0.
     200001    1    1    2    0    0  0.14047157391E+03 -0.19847108138E+03 -0.17794528988E+04  0.18977209100E+04  0.61300000000E+03 0.  1.
         13    1    4    4    0    0 -0.22563205158E+03  0.23129710190E+03 -0.79273858565E+02  0.33270486600E+03  0.10566000000E+00 0.  1.
    -200003    1    4    4    0    0  0.51351987460E+02 -0.65286004316E+02 -0.98768823230E+01  0.88864176022E+02  0.30000000000E+02 0.  1.
    -200000    1    3    3    0    0  0.33808490202E+02  0.32459983802E+02  0.22604155166E+03  0.25197707760E+03  0.10100000000E+03 0. -1.
<mgrwt>
<rscale>  0 0.19782325E+04</rscale>
<asrwt>0</asrwt>
<pdfrwt beam="1">  1        2 0.30098779E+00 0.19782325E+04</pdfrwt>
<pdfrwt beam="2">  1       -2 0.66336068E-01 0.19782325E+04</pdfrwt>
<totfact> 0.13789139E+01</totfact>
</mgrwt>
</event>
<event>
 8    2  0.4306980E-052  0.1588595E+04  0.7818608E-02  0.8827585E-01
          2   -1    0    0  501    0  0.00000000000E+00  0.00000000000E+00  0.44096465389E+03  0.44096465390E+03  0.25500000000E-02 0. -1.
         -2   -1    0    0    0  501 -0.00000000000E+00 -0.00000000000E+00 -0.14307457910E+04  0.14307457910E+04  0.25500000000E-02 0.  1.
    -200001    2    1    2    0    0  0.23863478405E+03 -0.63435272867E+02  0.24357846459E+02  0.66124876768E+03  0.61293232422E+03 0.  0.
   -5000001    2    3    3    0    0 -0.60929784853E+02  0.17676721729E+03  0.83380259162E+02  0.25985019716E+03  0.16003365133E+03 0.  0.
     200001    1    1    2    0    0 -0.23863478405E+03  0.63435272867E+02 -0.10141389835E+04  0.12104616772E+04  0.61300000000E+03 0.  1.
         13    1    4    4    0    0 -0.10404549215E+03  0.68119256723E+02  0.30212892751E+02  0.12797862175E+03  0.10566000000E+00 0.  1.
    -200003    1    4    4    0    0  0.43115707294E+02  0.10864796056E+03  0.53167366411E+02  0.13187157541E+03  0.30000000000E+02 0.  1.
    -200000    1    3    3    0    0  0.29956456890E+03 -0.24020249015E+03 -0.59022412703E+02  0.40139857052E+03  0.10100000000E+03 0.  1.
<mgrwt>
<rscale>  0 0.15885948E+04</rscale>
<asrwt>0</asrwt>
<pdfrwt beam="1">  1        2 0.62994951E-01 0.15885948E+04</pdfrwt>
<pdfrwt beam="2">  1       -2 0.20439225E+00 0.15885948E+04</pdfrwt>
<totfact> 0.92699072E+00</totfact>
</mgrwt>
</event>
<event>
 8    2  0.4306980E-052  0.3052970E+04  0.7818608E-02  0.8228765E-01
         -2   -1    0    0    0  501 -0.00000000000E+00  0.00000000000E+00  0.12900284328E+04  0.12900284328E+04  0.25500000000E-02 0. -1.
          2   -1    0    0  501    0  0.00000000000E+00 -0.00000000000E+00 -0.18062829253E+04  0.18062829253E+04  0.25500000000E-02 0.  1.
    -200001    2    1    2    0    0 -0.30519374587E+03 -0.11342178853E+04 -0.10261339684E+04  0.16766848178E+04  0.61540850128E+03 0.  0.
   -5000001    2    3    3    0    0 -0.40174448548E+03 -0.99060878060E+03 -0.10157895295E+04  0.14760517505E+04  0.64776648723E+02 0.  0.
     200001    1    1    2    0    0  0.30519374587E+03  0.11342178853E+04  0.50987947587E+03  0.14196265403E+04  0.61300000000E+03 0. -1.
         13    1    4    4    0    0 -0.17136955195E+03 -0.42808442105E+03 -0.47280069865E+03  0.66042736670E+03  0.10566000000E+00 0.  1.
    -200003    1    4    4    0    0 -0.23037493352E+03 -0.56252435955E+03 -0.54298883086E+03  0.81562438384E+03  0.30000000000E+02 0.  1.
    -200000    1    3    3    0    0  0.96550739611E+02 -0.14360910472E+03 -0.10344438865E+02  0.20063306730E+03  0.10100000000E+03 0. -1.
<mgrwt>
<rscale>  0 0.30529699E+04</rscale>
<asrwt>0</asrwt>
<pdfrwt beam="1">  1        2 0.25804042E+00 0.30529699E+04</pdfrwt>
<pdfrwt beam="2">  1       -2 0.18428978E+00 0.30529699E+04</pdfrwt>
<totfact> 0.14707299E+00</totfact>
</mgrwt>
</event>
<event>
 8    2  0.4306980E-052  0.1517205E+04  0.7818608E-02  0.8873092E-01
         -2   -1    0    0    0  501 -0.00000000000E+00  0.00000000000E+00  0.47346356049E+03  0.47346356050E+03  0.25500000000E-02 0. -1.
          2   -1    0    0  501    0  0.00000000000E+00 -0.00000000000E+00 -0.12154631761E+04  0.12154631761E+04  0.25500000000E-02 0.  1.
    -200001    2    1    2    0    0 -0.12938716599E+02  0.22475614010E+03 -0.79342049076E+03  0.10338726630E+04  0.62345318615E+03 0.  0.
   -5000001    2    3    3    0    0 -0.16271258709E+03  0.21646336333E+03 -0.71715367642E+02  0.28985635464E+03  0.74443526961E+02 0.  0.
     200001    1    1    2    0    0  0.12938716599E+02 -0.22475614010E+03  0.51420875147E+02  0.65505407357E+03  0.61300000000E+03 0. -1.
         13    1    4    4    0    0 -0.19093250352E+02  0.48296990513E+02 -0.37539858733E+02  0.64081227044E+02  0.10566000000E+00 0.  1.
    -200003    1    4    4    0    0 -0.14361933674E+03  0.16816637282E+03 -0.34175508909E+02  0.22577512759E+03  0.30000000000E+02 0.  1.
    -200000    1    3    3    0    0  0.14977387049E+03  0.82927767691E+01 -0.72170512312E+03  0.74401630840E+03  0.10100000000E+03 0.  1.
<mgrwt>
<rscale>  0 0.15172047E+04</rscale>
<asrwt>0</asrwt>
<pdfrwt beam="1">  1        2 0.17363760E+00 0.15172047E+04</pdfrwt>
<pdfrwt beam="2">  1       -2 0.67637652E-01 0.15172047E+04</pdfrwt>
<totfact> 0.40556698E+01</totfact>
</mgrwt>
</event>
<event>
 8    2  0.4306980E-052  0.1676950E+04  0.7818608E-02  0.8774621E-01
         -2   -1    0    0    0  501 -0.00000000000E+00  0.00000000000E+00  0.36661810072E+03  0.36661810073E+03  0.25500000000E-02 0. -1.
          2   -1    0    0  501    0  0.00000000000E+00 -0.00000000000E+00 -0.19176373641E+04  0.19176373641E+04  0.25500000000E-02 0.  1.
    -200001    2    1    2    0    0 -0.34651130670E+03 -0.12862188697E+03 -0.13698851925E+04  0.15458841307E+04  0.61364373158E+03 0.  0.
   -5000001    2    3    3    0    0 -0.28966516949E+01 -0.53648149297E+02  0.33352561452E+02  0.95722316722E+02  0.71859961378E+02 0.  0.
     200001    1    1    2    0    0  0.34651130670E+03  0.12862188697E+03 -0.18113407085E+03  0.73837133415E+03  0.61300000000E+03 0. -1.
         13    1    4    4    0    0 -0.27666365980E+02 -0.62204725651E+01  0.11575122602E+02  0.30628691007E+02  0.10566000000E+00 0.  1.
    -200003    1    4    4    0    0  0.24769714285E+02 -0.47427676732E+02  0.21777438849E+02  0.65093625716E+02  0.30000000000E+02 0.  1.
    -200000    1    3    3    0    0 -0.34361465500E+03 -0.74973737676E+02 -0.14032377540E+04  0.14501618140E+04  0.10100000000E+03 0.  1.
<mgrwt>
<rscale>  0 0.16769503E+04</rscale>
<asrwt>0</asrwt>
<pdfrwt beam="1">  1        2 0.27394819E+00 0.16769503E+04</pdfrwt>
<pdfrwt beam="2">  1       -2 0.52374015E-01 0.16769503E+04</pdfrwt>
<totfact> 0.29081351E+01</totfact>
</mgrwt>
</event>
<event>
 8    2  0.4306980E-052  0.1235785E+04  0.7818608E-02  0.9082098E-01
          2   -1    0    0  501    0  0.00000000000E+00  0.00000000000E+00  0.62680393613E+03  0.62680393613E+03  0.25500000000E-02 0.  1.
         -2   -1    0    0    0  501 -0.00000000000E+00 -0.00000000000E+00 -0.60910782153E+03  0.60910782154E+03  0.25500000000E-02 0. -1.
    -200001    2    1    2    0    0 -0.46169758278E+02  0.57869876663E+02  0.27244330951E+02  0.61838383309E+03  0.61333167394E+03 0.  0.
   -5000001    2    3    3    0    0 -0.19076707914E+03  0.19244903428E+03 -0.16001984457E+03  0.32805848749E+03  0.92667746684E+02 0.  0.
     200001    1    1    2    0    0  0.46169758278E+02 -0.57869876663E+02 -0.95482163562E+01  0.61752792458E+03  0.61300000000E+03 0. -1.
         13    1    4    4    0    0 -0.11353063414E+03  0.11889952608E+03 -0.49789323819E+02  0.17177103982E+03  0.10566000000E+00 0.  1.
    -200003    1    4    4    0    0 -0.77236445002E+02  0.73549508201E+02 -0.11023052075E+03  0.15628744767E+03  0.30000000000E+02 0.  1.
    -200000    1    3    3    0    0  0.14459732087E+03 -0.13457915762E+03  0.18726417552E+03  0.29032534560E+03  0.10100000000E+03 0. -1.
<mgrwt>
<rscale>  0 0.12357851E+04</rscale>
<asrwt>0</asrwt>
<pdfrwt beam="1">  1        2 0.89543420E-01 0.12357851E+04</pdfrwt>
<pdfrwt beam="2">  1       -2 0.87015402E-01 0.12357851E+04</pdfrwt>
<totfact> 0.57984975E+01</totfact>
</mgrwt>
</event>
<event>
 8    2  0.4306980E-052  0.1388266E+04  0.7818608E-02  0.8962356E-01
         -2   -1    0    0    0  501 -0.00000000000E+00  0.00000000000E+00  0.57177500184E+03  0.57177500185E+03  0.25500000000E-02 0. -1.
          2   -1    0    0  501    0  0.00000000000E+00 -0.00000000000E+00 -0.84267505818E+03  0.84267505818E+03  0.25500000000E-02 0.  1.
    -200001    2    1    2    0    0  0.12725800269E+02  0.25824269331E+03 -0.33792467081E+03  0.74578532072E+03  0.61249606270E+03 0.  0.
   -5000001    2    3    3    0    0 -0.10035793018E+03  0.12025954847E+03 -0.46452362779E+03  0.50483807700E+03  0.12060352425E+03 0.  0.
     200001    1    1    2    0    0 -0.12725800269E+02 -0.25824269331E+03  0.67024614477E+02  0.66866473930E+03  0.61300000000E+03 0. -1.
         13    1    4    4    0    0  0.24192430373E+02  0.21741983869E+02 -0.11936429204E+03  0.12371674473E+03  0.10566000000E+00 0.  1.
    -200003    1    4    4    0    0 -0.12455036055E+03  0.98517564600E+02 -0.34515933575E+03  0.38112133226E+03  0.30000000000E+02 0.  1.
    -200000    1    3    3    0    0  0.11308373045E+03  0.13798314484E+03  0.12659895698E+03  0.24094724373E+03  0.10100000000E+03 0. -1.
<mgrwt>
<rscale>  0 0.13882659E+04</rscale>
<asrwt>0</asrwt>
<pdfrwt beam="1">  1        2 0.12038215E+00 0.13882659E+04</pdfrwt>
<pdfrwt beam="2">  1       -2 0.81682143E-01 0.13882659E+04</pdfrwt>
<totfact> 0.45709131E+01</totfact>
</mgrwt>
</event>
<event>
 8    2  0.4306980E-052  0.1715265E+04  0.7818608E-02  0.8752706E-01
          2   -1    0    0  501    0  0.00000000000E+00  0.00000000000E+00  0.12266054804E+04  0.12266054804E+04  0.25500000000E-02 0.  1.
         -2   -1    0    0    0  501 -0.00000000000E+00 -0.00000000000E+00 -0.59964943170E+03  0.59964943171E+03  0.25500000000E-02 0. -1.
    -200001    2    1    2    0    0 -0.35806925129E+03  0.46062704565E+03  0.46326788593E+03  0.96430730435E+03  0.61227492124E+03 0.  0.
   -5000001    2    3    3    0    0 -0.49335674480E+03  0.23693868154E+03  0.22382745013E+03  0.59569923006E+03  0.72235924655E+02 0.  0.
     200001    1    1    2    0    0  0.35806925129E+03 -0.46062704565E+03  0.16368816278E+03  0.86194760777E+03  0.61300000000E+03 0.  1.
         13    1    4    4    0    0 -0.32139202909E+03  0.15111035776E+03  0.17079474721E+03  0.39407871476E+03  0.10566000000E+00 0.  1.
    -200003    1    4    4    0    0 -0.17196471571E+03  0.85828323777E+02  0.53032702922E+02  0.20162051530E+03  0.30000000000E+02 0. -1.
    -200000    1    3    3    0    0  0.13528749351E+03  0.22368836411E+03  0.23944043580E+03  0.36860807429E+03  0.10100000000E+03 0.  1.
<mgrwt>
<rscale>  0 0.17152647E+04</rscale>
<asrwt>0</asrwt>
<pdfrwt beam="1">  1        2 0.17522935E+00 0.17152647E+04</pdfrwt>
<pdfrwt beam="2">  1       -2 0.85664205E-01 0.17152647E+04</pdfrwt>
<totfact> 0.23286075E+01</totfact>
</mgrwt>
</event>
<event>
 8    2  0.4306980E-052  0.1832946E+04  0.7818608E-02  0.8688973E-01
          2   -1    0    0  501    0  0.00000000000E+00  0.00000000000E+00  0.15271454282E+04  0.15271454282E+04  0.25500000000E-02 0.  1.
         -2   -1    0    0    0  501 -0.00000000000E+00 -0.00000000000E+00 -0.54999555732E+03  0.54999555733E+03  0.25500000000E-02 0. -1.
    -200001    2    1    2    0    0  0.60861203080E+03 -0.13448479331E+03  0.17628485600E+03  0.89154048970E+03  0.61259556859E+03 0.  0.
   -5000001    2    3    3    0    0  0.55323884583E+03 -0.32866582249E+03  0.14414656161E+03  0.66349152199E+03  0.73132244027E+02 0.  0.
     200001    1    1    2    0    0 -0.60861203080E+03  0.13448479331E+03  0.80086501489E+03  0.11856004958E+04  0.61300000000E+03 0.  1.
         13    1    4    4    0    0  0.71373349934E+02 -0.18342258918E+02  0.14674245277E+02  0.75139458219E+02  0.10566000000E+00 0.  1.
    -200003    1    4    4    0    0  0.48186549590E+03 -0.31032356357E+03  0.12947231634E+03  0.58835206377E+03  0.30000000000E+02 0.  1.
    -200000    1    3    3    0    0  0.55373184972E+02  0.19418102918E+03  0.32138294389E+02  0.22804896771E+03  0.10100000000E+03 0. -1.
<mgrwt>
<rscale>  0 0.18329465E+04</rscale>
<asrwt>0</asrwt>
<pdfrwt beam="1">  1        2 0.21816363E+00 0.18329465E+04</pdfrwt>
<pdfrwt beam="2">  1       -2 0.78570793E-01 0.18329465E+04</pdfrwt>
<totfact> 0.19226917E+01</totfact>
</mgrwt>
</event>
<event>
 8    2  0.4306980E-052  0.1505830E+04  0.7818608E-02  0.8880585E-01
          2   -1    0    0  501    0  0.00000000000E+00  0.00000000000E+00  0.16696040507E+04  0.16696040507E+04  0.25500000000E-02 0.  1.
         -2   -1    0    0    0  501 -0.00000000000E+00 -0.00000000000E+00 -0.33953026049E+03  0.33953026050E+03  0.25500000000E-02 0. -1.
    -200001    2    1    2    0    0  0.99779069823E+02  0.42550280102E+03  0.68239424310E+03  0.10160249052E+04  0.61289167771E+03 0.  0.
   -5000001    2    3    3    0    0  0.25155784127E+03  0.20586365771E+03  0.59481581688E+03  0.71744639048E+03  0.23507929330E+03 0.  0.
     200001    1    1    2    0    0 -0.99779069823E+02 -0.42550280102E+03  0.64767954709E+03  0.99310940594E+03  0.61300000000E+03 0.  1.
         13    1    4    4    0    0  0.34833121688E+01  0.51418056319E+02 -0.27181276303E+01  0.51607648282E+02  0.10566000000E+00 0.  1.
    -200003    1    4    4    0    0  0.24807452910E+03  0.15444560139E+03  0.59753394451E+03  0.66583874220E+03  0.30000000000E+02 0.  1.
    -200000    1    3    3    0    0 -0.15177877145E+03  0.21963914331E+03  0.87578426219E+02  0.29857851476E+03  0.10100000000E+03 0. -1.
<mgrwt>
<rscale>  0 0.15058301E+04</rscale>
<asrwt>0</asrwt>
<pdfrwt beam="1">  1        2 0.23851486E+00 0.15058301E+04</pdfrwt>
<pdfrwt beam="2">  1       -2 0.48504323E-01 0.15058301E+04</pdfrwt>
<totfact> 0.46315005E+01</totfact>
</mgrwt>
</event>
<event>
 8    2  0.4306980E-052  0.1521064E+04  0.7818608E-02  0.8870565E-01
          2   -1    0    0  501    0  0.00000000000E+00  0.00000000000E+00  0.84194256865E+03  0.84194256865E+03  0.25500000000E-02 0.  1.
         -2   -1    0    0    0  501 -0.00000000000E+00 -0.00000000000E+00 -0.68699321840E+03  0.68699321841E+03  0.25500000000E-02 0. -1.
    -200001    2    1    2    0    0  0.22871882031E+02  0.44212522694E+03  0.15605150955E+03  0.77278232774E+03  0.61387507943E+03 0.  0.
   -5000001    2    3    3    0    0  0.18157750467E+03  0.67574760184E+02 -0.73577822081E+02  0.29486376067E+03  0.20974795121E+03 0.  0.
     200001    1    1    2    0    0 -0.22871882031E+02 -0.44212522694E+03 -0.11021593028E+01  0.75615345932E+03  0.61300000000E+03 0. -1.
         13    1    4    4    0    0  0.13179466523E+03 -0.85656975977E+01  0.47608041691E+02  0.14039138776E+03  0.10566000000E+00 0.  1.
    -200003    1    4    4    0    0  0.49782839433E+02  0.76140457782E+02 -0.12118586377E+03  0.15447237291E+03  0.30000000000E+02 0.  1.
    -200000    1    3    3    0    0 -0.15870562264E+03  0.37455046676E+03  0.22962933163E+03  0.47791856707E+03  0.10100000000E+03 0. -1.
<mgrwt>
<rscale>  0 0.15210639E+04</rscale>
<asrwt>0</asrwt>
<pdfrwt beam="1">  1        2 0.12027751E+00 0.15210639E+04</pdfrwt>
<pdfrwt beam="2">  1       -2 0.98141888E-01 0.15210639E+04</pdfrwt>
<totfact> 0.29681872E+01</totfact>
</mgrwt>
</event>
<event>
 8    2  0.4306980E-052  0.1668117E+04  0.7818608E-02  0.8779760E-01
         -2   -1    0    0    0  501 -0.00000000000E+00  0.00000000000E+00  0.15073100088E+04  0.15073100088E+04  0.25500000000E-02 0. -1.
          2   -1    0    0  501    0  0.00000000000E+00 -0.00000000000E+00 -0.46152001504E+03  0.46152001505E+03  0.25500000000E-02 0.  1.
    -200001    2    1    2    0    0 -0.95863954390E+01 -0.48555574445E+03  0.18431196764E+03  0.80531394341E+03  0.61538879262E+03 0.  0.
   -5000001    2    3    3    0    0  0.28294366560E+03 -0.20180121220E+03  0.85050628323E+02  0.37386952675E+03  0.10846182047E+03 0.  0.
     200001    1    1    2    0    0  0.95863954390E+01  0.48555574445E+03  0.86147802611E+03  0.11635160804E+04  0.61300000000E+03 0. -1.
         13    1    4    4    0    0  0.13907925811E+03 -0.38395555196E+02  0.35434472232E+02  0.14856941705E+03  0.10566000000E+00 0.  1.
    -200003    1    4    4    0    0  0.14386440749E+03 -0.16340565701E+03  0.49616156091E+02  0.22530010970E+03  0.30000000000E+02 0.  1.
    -200000    1    3    3    0    0 -0.29253006104E+03 -0.28375453225E+03  0.99261339320E+02  0.43144441666E+03  0.10100000000E+03 0. -1.
<mgrwt>
<rscale>  0 0.16681172E+04</rscale>
<asrwt>0</asrwt>
<pdfrwt beam="1">  1        2 0.65931430E-01 0.16681172E+04</pdfrwt>
<pdfrwt beam="2">  1       -2 0.21533000E+00 0.16681172E+04</pdfrwt>
<totfact> 0.74412450E+00</totfact>
</mgrwt>
</event>
<event>
 8    2  0.4306980E-052  0.1805994E+04  0.7818608E-02  0.8703118E-01
         -2   -1    0    0    0  501 -0.00000000000E+00  0.00000000000E+00  0.62858739491E+03  0.62858739492E+03  0.25500000000E-02 0. -1.
          2   -1    0    0  501    0  0.00000000000E+00 -0.00000000000E+00 -0.12972000744E+04  0.12972000744E+04  0.25500000000E-02 0.  1.
    -200001    2    1    2    0    0 -0.40889543600E+03  0.25711532223E+03  0.15756128916E+03  0.78928573463E+03  0.60402205634E+03 0.  0.
   -5000001    2    3    3    0    0 -0.30376303526E+03  0.36665595698E+03 -0.84124501615E+02  0.48652346186E+03  0.54033089794E+02 0.  0.
     200001    1    1    2    0    0  0.40889543600E+03 -0.25711532223E+03 -0.82617396869E+03  0.11365017347E+04  0.61300000000E+03 0.  1.
         13    1    4    4    0    0 -0.12194384831E+03  0.12578610888E+03 -0.17934409602E+02  0.17610820975E+03  0.10566000000E+00 0.  1.
    -200003    1    4    4    0    0 -0.18181918694E+03  0.24086984810E+03 -0.66190092012E+02  0.31041525212E+03  0.30000000000E+02 0. -1.
    -200000    1    3    3    0    0 -0.10513240074E+03 -0.10954063475E+03  0.24168579078E+03  0.30276227277E+03  0.10100000000E+03 0. -1.
<mgrwt>
<rscale>  0 0.18059940E+04</rscale>
<asrwt>0</asrwt>
<pdfrwt beam="1">  1        2 0.18531430E+00 0.18059940E+04</pdfrwt>
<pdfrwt beam="2">  1       -2 0.89798200E-01 0.18059940E+04</pdfrwt>
<totfact> 0.18948126E+01</totfact>
</mgrwt>
</event>
<event>
 8    2  0.4306980E-052  0.1692644E+04  0.7818608E-02  0.8765571E-01
         -2   -1    0    0    0  501 -0.00000000000E+00  0.00000000000E+00  0.15653380036E+04  0.15653380036E+04  0.25500000000E-02 0. -1.
          2   -1    0    0  501    0  0.00000000000E+00 -0.00000000000E+00 -0.45757598634E+03  0.45757598634E+03  0.25500000000E-02 0.  1.
    -200001    2    1    2    0    0  0.45547899872E+03 -0.23834219235E+03  0.22671118081E+03  0.83283512898E+03  0.61477497805E+03 0.  0.
   -5000001    2    3    3    0    0  0.13836141987E+02  0.16971993168E+03  0.85434828194E+02  0.20695725129E+03  0.80844912998E+02 0.  0.
     200001    1    1    2    0    0 -0.45547899872E+03  0.23834219235E+03  0.88105083650E+03  0.11900788610E+04  0.61300000000E+03 0. -1.
         13    1    4    4    0    0 -0.71523663550E+01 -0.57408973968E+01  0.55564103441E+01  0.10723763674E+02  0.10566000000E+00 0.  1.
    -200003    1    4    4    0    0  0.20988508342E+02  0.17546082908E+03  0.79878417850E+02  0.19623348762E+03  0.30000000000E+02 0.  1.
    -200000    1    3    3    0    0  0.44164285673E+03 -0.40806212403E+03  0.14127635262E+03  0.62587787769E+03  0.10100000000E+03 0.  1.
<mgrwt>
<rscale>  0 0.16926442E+04</rscale>
<asrwt>0</asrwt>
<pdfrwt beam="1">  1        2 0.65367998E-01 0.16926442E+04</pdfrwt>
<pdfrwt beam="2">  1       -2 0.22361972E+00 0.16926442E+04</pdfrwt>
<totfact> 0.66456774E+00</totfact>
</mgrwt>
</event>
<event>
 8    2  0.4306980E-052  0.1241738E+04  0.7818608E-02  0.9077088E-01
          2   -1    0    0  501    0  0.00000000000E+00  0.00000000000E+00  0.11916910369E+04  0.11916910369E+04  0.25500000000E-02 0.  1.
         -2   -1    0    0    0  501 -0.00000000000E+00 -0.00000000000E+00 -0.32347169829E+03  0.32347169830E+03  0.25500000000E-02 0. -1.
    -200001    2    1    2    0    0  0.36864534537E+02  0.47336728997E+02  0.33768635051E+03  0.70224575834E+03  0.61279464257E+03 0.  0.
   -5000001    2    3    3    0    0  0.60939648362E+02  0.16435711657E+03 -0.58461855195E+02  0.27632583265E+03  0.20545382637E+03 0.  0.
     200001    1    1    2    0    0 -0.36864534537E+02 -0.47336728997E+02  0.53053298809E+03  0.81291697686E+03  0.61300000000E+03 0.  1.
         13    1    4    4    0    0 -0.18247601231E+02 -0.17466208519E+02  0.44272197042E+02  0.50971383988E+02  0.10566000000E+00 0.  1.
    -200003    1    4    4    0    0  0.79187249593E+02  0.18182332509E+03 -0.10273405224E+03  0.22535444866E+03  0.30000000000E+02 0.  1.
    -200000    1    3    3    0    0 -0.24075113825E+02 -0.11702038757E+03  0.39614820570E+03  0.42591992569E+03  0.10100000000E+03 0.  1.
<mgrwt>
<rscale>  0 0.12417380E+04</rscale>
<asrwt>0</asrwt>
<pdfrwt beam="1">  1        2 0.17024158E+00 0.12417380E+04</pdfrwt>
<pdfrwt beam="2">  1       -2 0.46210242E-01 0.12417380E+04</pdfrwt>
<totfact> 0.94395329E+01</totfact>
</mgrwt>
</event>
<event>
 8    2  0.4306980E-052  0.1550606E+04  0.7818608E-02  0.8851481E-01
         -2   -1    0    0    0  501 -0.00000000000E+00  0.00000000000E+00  0.21529273088E+03  0.21529273090E+03  0.25500000000E-02 0. -1.
          2   -1    0    0  501    0  0.00000000000E+00 -0.00000000000E+00 -0.27919894962E+04  0.27919894962E+04  0.25500000000E-02 0.  1.
    -200001    2    1    2    0    0 -0.35014845992E+03 -0.18438511458E+02 -0.66650978899E+03  0.97073436190E+03  0.61249161617E+03 0.  0.
   -5000001    2    3    3    0    0 -0.12729932326E+03 -0.22306340463E+02 -0.68238730473E+03  0.72552059125E+03  0.20982136247E+03 0.  0.
     200001    1    1    2    0    0  0.35014845992E+03  0.18438511458E+02 -0.19101869763E+04  0.20365478651E+04  0.61300000000E+03 0.  1.
         13    1    4    4    0    0  0.23621353071E+02 -0.34549754427E+02 -0.21901375516E+02  0.47237011605E+02  0.10566000000E+00 0.  1.
    -200003    1    4    4    0    0 -0.15092067633E+03  0.12243413964E+02 -0.66048592921E+03  0.67828357965E+03  0.30000000000E+02 0.  1.
    -200000    1    3    3    0    0 -0.22284913666E+03  0.38678290044E+01  0.15877515743E+02  0.24521377065E+03  0.10100000000E+03 0. -1.
<mgrwt>
<rscale>  0 0.15506064E+04</rscale>
<asrwt>0</asrwt>
<pdfrwt beam="1">  1        2 0.39885562E+00 0.15506064E+04</pdfrwt>
<pdfrwt beam="2">  1       -2 0.30756106E-01 0.15506064E+04</pdfrwt>
<totfact> 0.29088537E+01</totfact>
</mgrwt>
</event>
<event>
 8    2  0.4306980E-052  0.1745077E+04  0.7818608E-02  0.8736065E-01
          2   -1    0    0  501    0  0.00000000000E+00  0.00000000000E+00  0.10222352640E+04  0.10222352640E+04  0.25500000000E-02 0.  1.
         -2   -1    0    0    0  501 -0.00000000000E+00 -0.00000000000E+00 -0.74476366503E+03  0.74476366503E+03  0.25500000000E-02 0. -1.
    -200001    2    1    2    0    0 -0.51400489629E+03  0.20084490264E+03  0.42602717631E+03  0.92891929801E+03  0.61388288699E+03 0.  0.
   -5000001    2    3    3    0    0 -0.29138544910E+03 -0.18767793661E+03  0.22299003712E+03  0.42698853110E+03  0.11165196461E+03 0.  0.
     200001    1    1    2    0    0  0.51400489629E+03 -0.20084490264E+03 -0.14855557736E+03  0.83807963099E+03  0.61300000000E+03 0. -1.
         13    1    4    4    0    0 -0.18463807733E+03 -0.10765041569E+03  0.77561504243E+02  0.22736672954E+03  0.10566000000E+00 0.  1.
    -200003    1    4    4    0    0 -0.10674737177E+03 -0.80027520916E+02  0.14542853287E+03  0.19962180156E+03  0.30000000000E+02 0.  1.
    -200000    1    3    3    0    0 -0.22261944719E+03  0.38852283924E+03  0.20303713920E+03  0.50193076691E+03  0.10100000000E+03 0. -1.
<mgrwt>
<rscale>  0 0.17450773E+04</rscale>
<asrwt>0</asrwt>
<pdfrwt beam="1">  1        2 0.14603361E+00 0.17450773E+04</pdfrwt>
<pdfrwt beam="2">  1       -2 0.10639481E+00 0.17450773E+04</pdfrwt>
<totfact> 0.18431249E+01</totfact>
</mgrwt>
</event>
<event>
 8    2  0.4306980E-052  0.1482137E+04  0.7818608E-02  0.8896419E-01
          2   -1    0    0  501    0  0.00000000000E+00  0.00000000000E+00  0.85617603148E+03  0.85617603149E+03  0.25500000000E-02 0.  1.
         -2   -1    0    0    0  501 -0.00000000000E+00 -0.00000000000E+00 -0.64143683396E+03  0.64143683396E+03  0.25500000000E-02 0. -1.
    -200001    2    1    2    0    0 -0.28740642824E+02 -0.17493661342E+03 -0.27926022220E+03  0.69062261151E+03  0.60625446518E+03 0.  0.
   -5000001    2    3    3    0    0  0.11239218022E+03  0.17067310046E+03 -0.98955124428E+01  0.21932345499E+03  0.79016120785E+02 0.  0.
     200001    1    1    2    0    0  0.28740642824E+02  0.17493661342E+03  0.49399941973E+03  0.80699025394E+03  0.61300000000E+03 0.  1.
         13    1    4    4    0    0  0.30587706024E+02  0.10666004169E+03 -0.34554353537E+01  0.11101316792E+03  0.10566000000E+00 0.  1.
    -200003    1    4    4    0    0  0.81804474199E+02  0.64013058772E+02 -0.64400770891E+01  0.10831028707E+03  0.30000000000E+02 0.  1.
    -200000    1    3    3    0    0 -0.14113282305E+03 -0.34560971388E+03 -0.26936470976E+03  0.47129915652E+03  0.10100000000E+03 0. -1.
<mgrwt>
<rscale>  0 0.14821374E+04</rscale>
<asrwt>0</asrwt>
<pdfrwt beam="1">  1        2 0.12231086E+00 0.14821374E+04</pdfrwt>
<pdfrwt beam="2">  1       -2 0.91633834E-01 0.14821374E+04</pdfrwt>
<totfact> 0.34176687E+01</totfact>
</mgrwt>
</event>
<event>
 8    2  0.4306980E-052  0.1981239E+04  0.7818608E-02  0.8615443E-01
         -2   -1    0    0    0  501 -0.00000000000E+00  0.00000000000E+00  0.39970737946E+03  0.39970737947E+03  0.25500000000E-02 0. -1.
          2   -1    0    0  501    0  0.00000000000E+00 -0.00000000000E+00 -0.24551139401E+04  0.24551139401E+04  0.25500000000E-02 0.  1.
    -200001    2    1    2    0    0  0.30394711252E+03 -0.39242485537E+03 -0.16386014492E+03  0.80540726742E+03  0.61273942667E+03 0.  0.
   -5000001    2    3    3    0    0  0.32311236097E+03 -0.46664678397E+03  0.30073835850E+02  0.57370144028E+03  0.77897934344E+02 0.  0.
     200001    1    1    2    0    0 -0.30394711252E+03  0.39242485537E+03 -0.18915464157E+04  0.20494140521E+04  0.61300000000E+03 0.  1.
         13    1    4    4    0    0  0.22642816022E+03 -0.32740631085E+03  0.46435349238E+02  0.40077531979E+03  0.10566000000E+00 0.  1.
    -200003    1    4    4    0    0  0.96684200751E+02 -0.13924047311E+03 -0.16361513388E+02  0.17292612049E+03  0.30000000000E+02 0. -1.
    -200000    1    3    3    0    0 -0.19165248457E+02  0.74221928596E+02 -0.19393398077E+03  0.23170582714E+03  0.10100000000E+03 0.  1.
<mgrwt>
<rscale>  0 0.19812392E+04</rscale>
<asrwt>0</asrwt>
<pdfrwt beam="1">  1        2 0.35073055E+00 0.19812392E+04</pdfrwt>
<pdfrwt beam="2">  1       -2 0.57101056E-01 0.19812392E+04</pdfrwt>
<totfact> 0.12496841E+01</totfact>
</mgrwt>
</event>
<event>
 8    2  0.4306980E-052  0.1243614E+04  0.7818608E-02  0.9075515E-01
         -2   -1    0    0    0  501 -0.00000000000E+00  0.00000000000E+00  0.30830458084E+03  0.30830458085E+03  0.25500000000E-02 0.  1.
          2   -1    0    0  501    0  0.00000000000E+00 -0.00000000000E+00 -0.12540982975E+04  0.12540982975E+04  0.25500000000E-02 0. -1.
    -200001    2    1    2    0    0 -0.18287578740E+02 -0.94937988871E+02 -0.41420013435E+03  0.74526862133E+03  0.61197704972E+03 0.  0.
   -5000001    2    3    3    0    0  0.41058947471E+02  0.11975368308E+03  0.97267939990E+02  0.17833377918E+03  0.79467621511E+02 0.  0.
     200001    1    1    2    0    0  0.18287578740E+02  0.94937988871E+02 -0.53159358235E+03  0.81713425706E+03  0.61300000000E+03 0. -1.
         13    1    4    4    0    0  0.34995644470E+02  0.14141248224E+02  0.37391996153E+02  0.53130429826E+02  0.10566000000E+00 0.  1.
    -200003    1    4    4    0    0  0.60633030014E+01  0.10561243485E+03  0.59875943838E+02  0.12520334935E+03  0.30000000000E+02 0.  1.
    -200000    1    3    3    0    0 -0.59346526212E+02 -0.21469167195E+03 -0.51146807434E+03  0.56693484215E+03  0.10100000000E+03 0. -1.
<mgrwt>
<rscale>  0 0.12436145E+04</rscale>
<asrwt>0</asrwt>
<pdfrwt beam="1">  1        2 0.17915690E+00 0.12436145E+04</pdfrwt>
<pdfrwt beam="2">  1       -2 0.44043512E-01 0.12436145E+04</pdfrwt>
<totfact> 0.95769400E+01</totfact>
</mgrwt>
</event>
<event>
 8    2  0.4306980E-052  0.1719940E+04  0.7818608E-02  0.8750073E-01
         -2   -1    0    0    0  501 -0.00000000000E+00  0.00000000000E+00  0.15981041709E+03  0.15981041711E+03  0.25500000000E-02 0.  1.
          2   -1    0    0  501    0  0.00000000000E+00 -0.00000000000E+00 -0.46276590420E+04  0.46276590420E+04  0.25500000000E-02 0. -1.
    -200001    2    1    2    0    0 -0.53940552345E+03  0.26302010912E+03 -0.24004931968E+04  0.25491966065E+04  0.61310509232E+03 0.  0.
   -5000001    2    3    3    0    0 -0.46612373054E+03  0.31302383678E+02 -0.16489566424E+04  0.17529105285E+04  0.36794855749E+03 0.  0.
     200001    1    1    2    0    0  0.53940552345E+03 -0.26302010912E+03 -0.20673554282E+04  0.22382728526E+04  0.61300000000E+03 0. -1.
         13    1    4    4    0    0  0.22638532650E+02  0.50642127385E+02 -0.50985928336E+03  0.51286804173E+03  0.10566000000E+00 0.  1.
    -200003    1    4    4    0    0 -0.48876226319E+03 -0.19339743707E+02 -0.11390973591E+04  0.12400424868E+04  0.30000000000E+02 0.  1.
    -200000    1    3    3    0    0 -0.73281792911E+02  0.23171772544E+03 -0.75153655434E+03  0.79628607797E+03  0.10100000000E+03 0.  1.
<mgrwt>
<rscale>  0 0.17199397E+04</rscale>
<asrwt>0</asrwt>
<pdfrwt beam="1">  1        2 0.66109407E+00 0.17199397E+04</pdfrwt>
<pdfrwt beam="2">  1       -2 0.22830062E-01 0.17199397E+04</pdfrwt>
<totfact> 0.31367168E+00</totfact>
</mgrwt>
</event>
<event>
 8    2  0.4306980E-052  0.1303565E+04  0.7818608E-02  0.9026743E-01
         -2   -1    0    0    0  501 -0.00000000000E+00  0.00000000000E+00  0.15801506946E+03  0.15801506948E+03  0.25500000000E-02 0. -1.
          2   -1    0    0  501    0  0.00000000000E+00 -0.00000000000E+00 -0.26884797046E+04  0.26884797046E+04  0.25500000000E-02 0.  1.
    -200001    2    1    2    0    0  0.10254236552E+03 -0.22030569480E+02 -0.16903288536E+04  0.18012209276E+04  0.61333915089E+03 0.  0.
   -5000001    2    3    3    0    0  0.12829255065E+03 -0.71197401067E+00 -0.16876818227E+04  0.16947993070E+04  0.87265519530E+02 0.  0.
     200001    1    1    2    0    0 -0.10254236552E+03  0.22030569480E+02 -0.84013578162E+03  0.10452738465E+04  0.61300000000E+03 0. -1.
         13    1    4    4    0    0  0.42243349762E+02 -0.37722572537E+02 -0.57922453009E+03  0.58198673567E+03  0.10566000000E+00 0.  1.
    -200003    1    4    4    0    0  0.86049200889E+02  0.37010598526E+02 -0.11084572926E+04  0.11128125713E+04  0.30000000000E+02 0.  1.
    -200000    1    3    3    0    0 -0.25750185136E+02 -0.21318595470E+02 -0.26470308447E+01  0.10642162055E+03  0.10100000000E+03 0. -1.
<mgrwt>
<rscale>  0 0.13035648E+04</rscale>
<asrwt>0</asrwt>
<pdfrwt beam="1">  1        2 0.38406850E+00 0.13035648E+04</pdfrwt>
<pdfrwt beam="2">  1       -2 0.22573583E-01 0.13035648E+04</pdfrwt>
<totfact> 0.59425415E+01</totfact>
</mgrwt>
</event>
<event>
 8    2  0.4306980E-052  0.1965961E+04  0.7818608E-02  0.8622702E-01
         -2   -1    0    0    0  501 -0.00000000000E+00  0.00000000000E+00  0.15504696555E+04  0.15504696555E+04  0.25500000000E-02 0.  1.
          2   -1    0    0  501    0  0.00000000000E+00 -0.00000000000E+00 -0.62319863728E+03  0.62319863728E+03  0.25500000000E-02 0. -1.
    -200001    2    1    2    0    0  0.53440427561E+03  0.40069437147E+03  0.44195824078E+02  0.90807171108E+03  0.61359355642E+03 0.  0.
   -5000001    2    3    3    0    0  0.52173417006E+03  0.68763127035E+02 -0.81762342722E+02  0.53874077223E+03  0.81373380966E+02 0.  0.
     200001    1    1    2    0    0 -0.53440427561E+03 -0.40069437147E+03  0.88307519415E+03  0.12655965817E+04  0.61300000000E+03 0.  1.
         13    1    4    4    0    0  0.33731647590E+03  0.15289463511E+02 -0.40700060208E+02  0.34010686361E+03  0.10566000000E+00 0.  1.
    -200003    1    4    4    0    0  0.18441769416E+03  0.53473663524E+02 -0.41062282514E+02  0.19863390862E+03  0.30000000000E+02 0. -1.
    -200000    1    3    3    0    0  0.12670105555E+02  0.33193124443E+03  0.12595816680E+03  0.36933093885E+03  0.10100000000E+03 0. -1.
<mgrwt>
<rscale>  0 0.19659609E+04</rscale>
<asrwt>0</asrwt>
<pdfrwt beam="1">  1        2 0.89028377E-01 0.19659609E+04</pdfrwt>
<pdfrwt beam="2">  1       -2 0.22149566E+00 0.19659609E+04</pdfrwt>
<totfact> 0.46850637E+00</totfact>
</mgrwt>
</event>
<event>
 8    2  0.4306980E-052  0.1522042E+04  0.7818608E-02  0.8869926E-01
         -2   -1    0    0    0  501 -0.00000000000E+00  0.00000000000E+00  0.25807455231E+03  0.25807455232E+03  0.25500000000E-02 0. -1.
          2   -1    0    0  501    0  0.00000000000E+00 -0.00000000000E+00 -0.22441318418E+04  0.22441318418E+04  0.25500000000E-02 0.  1.
    -200001    2    1    2    0    0  0.39862383561E+03  0.21169827771E+03 -0.10403055358E+04  0.12881501752E+04  0.61104676002E+03 0.  0.
   -5000001    2    3    3    0    0  0.50219186259E+03  0.15685169425E+03 -0.51393696338E+03  0.73951609134E+03  0.77160392571E+02 0.  0.
     200001    1    1    2    0    0 -0.39862383561E+03 -0.21169827771E+03 -0.94575175363E+03  0.12140562189E+04  0.61300000000E+03 0. -1.
         13    1    4    4    0    0  0.20477754428E+03  0.29878889449E+02 -0.19643746049E+03  0.28533187296E+03  0.10566000000E+00 0.  1.
    -200003    1    4    4    0    0  0.29741431831E+03  0.12697280480E+03 -0.31749950290E+03  0.45418421839E+03  0.30000000000E+02 0.  1.
    -200000    1    3    3    0    0 -0.10356802698E+03  0.54846583459E+02 -0.52636857243E+03  0.54863408386E+03  0.10100000000E+03 0.  1.
<mgrwt>
<rscale>  0 0.15220425E+04</rscale>
<asrwt>0</asrwt>
<pdfrwt beam="1">  1        2 0.32059025E+00 0.15220425E+04</pdfrwt>
<pdfrwt beam="2">  1       -2 0.36867795E-01 0.15220425E+04</pdfrwt>
<totfact> 0.40196418E+01</totfact>
</mgrwt>
</event>
<event>
 8    2  0.4306980E-052  0.2561963E+04  0.7818608E-02  0.8381238E-01
          2   -1    0    0  501    0  0.00000000000E+00  0.00000000000E+00  0.28975168754E+04  0.28975168754E+04  0.25500000000E-02 0.  1.
         -2   -1    0    0    0  501 -0.00000000000E+00 -0.00000000000E+00 -0.56631714816E+03  0.56631714817E+03  0.25500000000E-02 0. -1.
    -200001    2    1    2    0    0  0.89671766663E+03  0.24824652840E+02  0.24878816307E+03  0.11150203316E+04  0.61372302606E+03 0.  0.
   -5000001    2    3    3    0    0  0.18309202402E+03  0.19471630740E+03  0.65871426812E+02  0.35227249351E+03  0.21981750428E+03 0.  0.
     200001    1    1    2    0    0 -0.89671766663E+03 -0.24824652840E+02  0.20824115641E+04  0.23488136919E+04  0.61300000000E+03 0.  1.
         13    1    4    4    0    0  0.15689735371E+03  0.17634173548E+03  0.13386906815E+03  0.27135608681E+03  0.10566000000E+00 0.  1.
    -200003    1    4    4    0    0  0.26194670309E+02  0.18374571915E+02 -0.67997641341E+02  0.80916406702E+02  0.30000000000E+02 0.  1.
    -200000    1    3    3    0    0  0.71362564262E+03 -0.16989165456E+03  0.18291673626E+03  0.76274783808E+03  0.10100000000E+03 0. -1.
<mgrwt>
<rscale>  0 0.25619629E+04</rscale>
<asrwt>0</asrwt>
<pdfrwt beam="1">  1        2 0.41393098E+00 0.25619629E+04</pdfrwt>
<pdfrwt beam="2">  1       -2 0.80902450E-01 0.25619629E+04</pdfrwt>
<totfact> 0.32341221E+00</totfact>
</mgrwt>
</event>
<event>
 8    2  0.4306980E-052  0.2030824E+04  0.7818608E-02  0.8592344E-01
         -2   -1    0    0    0  501 -0.00000000000E+00  0.00000000000E+00  0.14490603243E+04  0.14490603243E+04  0.25500000000E-02 0. -1.
          2   -1    0    0  501    0  0.00000000000E+00 -0.00000000000E+00 -0.71153779616E+03  0.71153779617E+03  0.25500000000E-02 0.  1.
    -200001    2    1    2    0    0 -0.76000475720E+03 -0.26543217216E+03  0.27885572903E+03  0.10496500111E+04  0.61314203841E+03 0.  0.
   -5000001    2    3    3    0    0 -0.14534543569E+02  0.12857657483E+03  0.74531622177E+01  0.15811813543E+03  0.90568242620E+02 0.  0.
     200001    1    1    2    0    0  0.76000475720E+03  0.26543217216E+03  0.45866679906E+03  0.11109481093E+04  0.61300000000E+03 0. -1.
         13    1    4    4    0    0 -0.46074803874E+02  0.73716398577E+02  0.12864505443E+02  0.87877765308E+02  0.10566000000E+00 0.  1.
    -200003    1    4    4    0    0  0.31540260305E+02  0.54860176257E+02 -0.54113432253E+01  0.70240370120E+02  0.30000000000E+02 0.  1.
    -200000    1    3    3    0    0 -0.74547021363E+03 -0.39400874700E+03  0.27140256681E+03  0.89153187570E+03  0.10100000000E+03 0. -1.
<mgrwt>
<rscale>  0 0.20308237E+04</rscale>
<asrwt>0</asrwt>
<pdfrwt beam="1">  1        2 0.10164826E+00 0.20308237E+04</pdfrwt>
<pdfrwt beam="2">  1       -2 0.20700862E+00 0.20308237E+04</pdfrwt>
<totfact> 0.49083524E+00</totfact>
</mgrwt>
</event>
<event>
 8    2  0.4306980E-052  0.1693983E+04  0.7818608E-02  0.8764803E-01
         -2   -1    0    0    0  501 -0.00000000000E+00  0.00000000000E+00  0.44525555103E+03  0.44525555104E+03  0.25500000000E-02 0. -1.
          2   -1    0    0  501    0  0.00000000000E+00 -0.00000000000E+00 -0.16111977167E+04  0.16111977167E+04  0.25500000000E-02 0.  1.
    -200001    2    1    2    0    0 -0.43480295585E+03 -0.25781398175E+03 -0.22678037909E+03  0.82628436837E+03  0.61302109056E+03 0.  0.
   -5000001    2    3    3    0    0 -0.24452372802E+03 -0.17251283589E+03 -0.37781716812E+03  0.54970602203E+03  0.26434516453E+03 0.  0.
     200001    1    1    2    0    0  0.43480295585E+03  0.25781398175E+03 -0.93916178658E+03  0.12301688994E+04  0.61300000000E+03 0.  1.
         13    1    4    4    0    0 -0.10038878060E+03  0.65116954136E+02 -0.10795873029E+03  0.16116210347E+03  0.10566000000E+00 0.  1.
    -200003    1    4    4    0    0 -0.14413494743E+03 -0.23762979003E+03 -0.26985843783E+03  0.38854391855E+03  0.30000000000E+02 0.  1.
    -200000    1    3    3    0    0 -0.19027922783E+03 -0.85301145859E+02  0.15103678903E+03  0.27657834635E+03  0.10100000000E+03 0. -1.
<mgrwt>
<rscale>  0 0.16939831E+04</rscale>
<asrwt>0</asrwt>
<pdfrwt beam="1">  1        2 0.23017110E+00 0.16939831E+04</pdfrwt>
<pdfrwt beam="2">  1       -2 0.63607937E-01 0.16939831E+04</pdfrwt>
<totfact> 0.27861615E+01</totfact>
</mgrwt>
</event>
<event>
 8    2  0.4306980E-052  0.1253793E+04  0.7818608E-02  0.9067032E-01
          2   -1    0    0  501    0  0.00000000000E+00  0.00000000000E+00  0.35658522389E+03  0.35658522390E+03  0.25500000000E-02 0.  1.
         -2   -1    0    0    0  501 -0.00000000000E+00 -0.00000000000E+00 -0.11021184983E+04  0.11021184983E+04  0.25500000000E-02 0. -1.
    -200001    2    1    2    0    0  0.16983874235E+01  0.10213630238E+03 -0.27918657103E+03  0.68173335178E+03  0.61349858411E+03 0.  0.
   -5000001    2    3    3    0    0 -0.23924078586E+03  0.21008068660E+03 -0.17918873052E+03  0.38189298856E+03  0.11119174910E+03 0.  0.
     200001    1    1    2    0    0 -0.16983874235E+01 -0.10213630238E+03 -0.46634670340E+03  0.77697037045E+03  0.61300000000E+03 0. -1.
         13    1    4    4    0    0 -0.99335494495E+02  0.85856023817E+02 -0.16846638125E+02  0.13237302472E+03  0.10566000000E+00 0.  1.
    -200003    1    4    4    0    0 -0.13990529137E+03  0.12422466278E+03 -0.16234209240E+03  0.24951996385E+03  0.30000000000E+02 0.  1.
    -200000    1    3    3    0    0  0.24093917328E+03 -0.10794438422E+03 -0.99997840508E+02  0.29984036322E+03  0.10100000000E+03 0.  1.
<mgrwt>
<rscale>  0 0.12537929E+04</rscale>
<asrwt>0</asrwt>
<pdfrwt beam="1">  1        2 0.50940747E-01 0.12537929E+04</pdfrwt>
<pdfrwt beam="2">  1       -2 0.15744550E+00 0.12537929E+04</pdfrwt>
<totfact> 0.25453914E+01</totfact>
</mgrwt>
</event>
<event>
 8    2  0.4306980E-052  0.1232498E+04  0.7818608E-02  0.9084878E-01
          2   -1    0    0  501    0  0.00000000000E+00  0.00000000000E+00  0.17902560439E+04  0.17902560439E+04  0.25500000000E-02 0.  1.
         -2   -1    0    0    0  501 -0.00000000000E+00 -0.00000000000E+00 -0.21212751930E+03  0.21212751931E+03  0.25500000000E-02 0. -1.
    -200001    2    1    2    0    0 -0.29019820291E+02 -0.18845441534E+02  0.80257353525E+03  0.10132163164E+04  0.61748337931E+03 0.  0.
   -5000001    2    3    3    0    0  0.20277115892E+03  0.65225244267E+02  0.77514608127E+02  0.24074859148E+03  0.81122712291E+02 0.  0.
     200001    1    1    2    0    0  0.29019820291E+02  0.18845441534E+02  0.77555498933E+03  0.98916724679E+03  0.61300000000E+03 0.  1.
         13    1    4    4    0    0  0.54453914086E+01 -0.10591615815E+02  0.13167882463E+02  0.17754968481E+02  0.10566000000E+00 0.  1.
    -200003    1    4    4    0    0  0.19732576751E+03  0.75816860082E+02  0.64346725664E+02  0.22299362300E+03  0.30000000000E+02 0.  1.
    -200000    1    3    3    0    0 -0.23179097921E+03 -0.84070685801E+02  0.72505892712E+03  0.77246772493E+03  0.10100000000E+03 0.  1.
<mgrwt>
<rscale>  0 0.12324976E+04</rscale>
<asrwt>0</asrwt>
<pdfrwt beam="1">  1        2 0.25575086E+00 0.12324976E+04</pdfrwt>
<pdfrwt beam="2">  1       -2 0.30303932E-01 0.12324976E+04</pdfrwt>
<totfact> 0.10199291E+02</totfact>
</mgrwt>
</event>
<event>
 8    2  0.4306980E-052  0.1300568E+04  0.7818608E-02  0.9029115E-01
          2   -1    0    0  501    0  0.00000000000E+00  0.00000000000E+00  0.19819609299E+04  0.19819609299E+04  0.25500000000E-02 0.  1.
         -2   -1    0    0    0  501 -0.00000000000E+00 -0.00000000000E+00 -0.21335915268E+03  0.21335915270E+03  0.25500000000E-02 0. -1.
    -200001    2    1    2    0    0 -0.86686587718E+02  0.43078296933E+02  0.12113702510E+04  0.13612659609E+04  0.61339777234E+03 0.  0.
   -5000001    2    3    3    0    0 -0.50582311824E+02  0.22576907332E+03  0.23220914151E+03  0.35944915286E+03  0.14748682434E+03 0.  0.
     200001    1    1    2    0    0  0.86686587718E+02 -0.43078296933E+02  0.55723152628E+03  0.83405412177E+03  0.61300000000E+03 0. -1.
         13    1    4    4    0    0  0.37902233201E+01  0.20842349383E+03  0.19237623713E+03  0.28366061826E+03  0.10566000000E+00 0.  1.
    -200003    1    4    4    0    0 -0.54372535144E+02  0.17345579489E+02  0.39832904385E+02  0.75788534605E+02  0.30000000000E+02 0.  1.
    -200000    1    3    3    0    0 -0.36104275894E+02 -0.18269077639E+03  0.97916110947E+03  0.10018168080E+04  0.10100000000E+03 0.  1.
<mgrwt>
<rscale>  0 0.13005683E+04</rscale>
<asrwt>0</asrwt>
<pdfrwt beam="1">  1        2 0.28313727E+00 0.13005683E+04</pdfrwt>
<pdfrwt beam="2">  1       -2 0.30479880E-01 0.13005683E+04</pdfrwt>
<totfact> 0.80022311E+01</totfact>
</mgrwt>
</event>
<event>
 8    2  0.4306980E-052  0.1650061E+04  0.7818608E-02  0.8790370E-01
          2   -1    0    0  501    0  0.00000000000E+00  0.00000000000E+00  0.90502418140E+03  0.90502418141E+03  0.25500000000E-02 0.  1.
         -2   -1    0    0    0  501 -0.00000000000E+00 -0.00000000000E+00 -0.75210746463E+03  0.75210746463E+03  0.25500000000E-02 0. -1.
    -200001    2    1    2    0    0  0.17101794333E+03 -0.45336336835E+03  0.34269972174E+03  0.85303459364E+03  0.61273113024E+03 0.  0.
   -5000001    2    3    3    0    0  0.11643108148E+03 -0.18090342123E+02 -0.13797231635E+03  0.19448395697E+03  0.70029938075E+02 0.  0.
     200001    1    1    2    0    0 -0.17101794333E+03  0.45336336835E+03 -0.18978300497E+03  0.80409705240E+03  0.61300000000E+03 0. -1.
         13    1    4    4    0    0  0.85073561595E+02 -0.31802008511E+02 -0.10114854423E+03  0.13594086138E+03  0.10566000000E+00 0.  1.
    -200003    1    4    4    0    0  0.31357519882E+02  0.13711666388E+02 -0.36823772119E+02  0.58543095591E+02  0.30000000000E+02 0. -1.
    -200000    1    3    3    0    0  0.54586861850E+02 -0.43527302623E+03  0.48067203810E+03  0.65855063667E+03  0.10100000000E+03 0.  1.
<mgrwt>
<rscale>  0 0.16500611E+04</rscale>
<asrwt>0</asrwt>
<pdfrwt beam="1">  1        2 0.12928917E+00 0.16500611E+04</pdfrwt>
<pdfrwt beam="2">  1       -2 0.10744392E+00 0.16500611E+04</pdfrwt>
<totfact> 0.21497544E+01</totfact>
</mgrwt>
</event>
<event>
 8    2  0.4306980E-052  0.1773180E+04  0.7818608E-02  0.8720694E-01
          2   -1    0    0  501    0  0.00000000000E+00  0.00000000000E+00  0.43131807664E+03  0.43131807665E+03  0.25500000000E-02 0. -1.
         -2   -1    0    0    0  501 -0.00000000000E+00 -0.00000000000E+00 -0.18224176804E+04  0.18224176804E+04  0.25500000000E-02 0.  1.
    -200001    2    1    2    0    0  0.41785302459E+03  0.87594054893E+02 -0.13066765058E+04  0.15019577791E+04  0.60514445458E+03 0.  0.
   -5000001    2    3    3    0    0  0.20550777719E+03  0.22163835251E+02 -0.12152476206E+04  0.12413203705E+04  0.14603013653E+03 0.  0.
     200001    1    1    2    0    0 -0.41785302459E+03 -0.87594054893E+02 -0.84423097985E+02  0.75177797792E+03  0.61300000000E+03 0.  1.
         13    1    4    4    0    0  0.11086629049E+03  0.34672970669E+02 -0.96249998066E+03  0.96948428208E+03  0.10566000000E+00 0.  1.
    -200003    1    4    4    0    0  0.94641486704E+02 -0.12509135418E+02 -0.25274763989E+03  0.27183608838E+03  0.30000000000E+02 0.  1.
    -200000    1    3    3    0    0  0.21234524740E+03  0.65430219643E+02 -0.91428885201E+02  0.26063740865E+03  0.10100000000E+03 0. -1.
<mgrwt>
<rscale>  0 0.17731798E+04</rscale>
<asrwt>0</asrwt>
<pdfrwt beam="1">  1        2 0.61616869E-01 0.17731798E+04</pdfrwt>
<pdfrwt beam="2">  1       -2 0.26034538E+00 0.17731798E+04</pdfrwt>
<totfact> 0.41857070E+00</totfact>
</mgrwt>
</event>
<event>
 8    2  0.4306980E-052  0.1378664E+04  0.7818608E-02  0.8969409E-01
          2   -1    0    0  501    0  0.00000000000E+00  0.00000000000E+00  0.25867260341E+04  0.25867260341E+04  0.25500000000E-02 0.  1.
         -2   -1    0    0    0  501 -0.00000000000E+00 -0.00000000000E+00 -0.18369877310E+03  0.18369877312E+03  0.25500000000E-02 0. -1.
    -200001    2    1    2    0    0  0.85838648420E+02  0.23621309616E+03  0.81487002419E+03  0.10496176393E+04  0.61197968270E+03 0.  0.
   -5000001    2    3    3    0    0  0.13789763637E+03 -0.17692035643E+02  0.72881626229E+03  0.75844036663E+03  0.15725736649E+03 0.  0.
     200001    1    1    2    0    0 -0.85838648420E+02 -0.23621309616E+03  0.15881572368E+04  0.17208071679E+04  0.61300000000E+03 0.  1.
         13    1    4    4    0    0  0.82823634147E+02  0.55649389198E+02  0.50409654114E+03  0.51387736167E+03  0.10566000000E+00 0.  1.
    -200003    1    4    4    0    0  0.55074002220E+02 -0.73341424841E+02  0.22471972115E+03  0.24456300496E+03  0.30000000000E+02 0.  1.
    -200000    1    3    3    0    0 -0.52058987947E+02  0.25390513180E+03  0.86053761904E+02  0.29117727267E+03  0.10100000000E+03 0. -1.
<mgrwt>
<rscale>  0 0.13786637E+04</rscale>
<asrwt>0</asrwt>
<pdfrwt beam="1">  1        2 0.36953231E+00 0.13786637E+04</pdfrwt>
<pdfrwt beam="2">  1       -2 0.26242681E-01 0.13786637E+04</pdfrwt>
<totfact> 0.50957936E+01</totfact>
</mgrwt>
</event>
<event>
 8    2  0.4306980E-052  0.1603509E+04  0.7818608E-02  0.8818395E-01
          2   -1    0    0  501    0  0.00000000000E+00  0.00000000000E+00  0.18316512542E+04  0.18316512542E+04  0.25500000000E-02 0.  1.
         -2   -1    0    0    0  501 -0.00000000000E+00 -0.00000000000E+00 -0.35094562671E+03  0.35094562671E+03  0.25500000000E-02 0. -1.
    -200001    2    1    2    0    0  0.33411567119E+03 -0.35699987765E+03  0.51329383239E+03  0.93731106003E+03  0.61318779383E+03 0.  0.
   -5000001    2    3    3    0    0  0.30260136278E+03 -0.65625365858E+02  0.53895094514E+03  0.62626195588E+03  0.76561365695E+02 0.  0.
     200001    1    1    2    0    0 -0.33411567119E+03  0.35699987765E+03  0.96741179505E+03  0.12452858208E+04  0.61300000000E+03 0. -1.
         13    1    4    4    0    0  0.18687438947E+03 -0.56315577358E+02  0.28502567895E+03  0.34544627732E+03  0.10566000000E+00 0.  1.
    -200003    1    4    4    0    0  0.11572697331E+03 -0.93097885005E+01  0.25392526619E+03  0.28081567856E+03  0.30000000000E+02 0. -1.
    -200000    1    3    3    0    0  0.31514308404E+02 -0.29137451179E+03 -0.25657112746E+02  0.31104910415E+03  0.10100000000E+03 0. -1.
<mgrwt>
<rscale>  0 0.16035086E+04</rscale>
<asrwt>0</asrwt>
<pdfrwt beam="1">  1        2 0.26166446E+00 0.16035086E+04</pdfrwt>
<pdfrwt beam="2">  1       -2 0.50135091E-01 0.16035086E+04</pdfrwt>
<totfact> 0.35422713E+01</totfact>
</mgrwt>
</event>
<event>
 8    2  0.4306980E-052  0.2083416E+04  0.7818608E-02  0.8568584E-01
         -2   -1    0    0    0  501 -0.00000000000E+00  0.00000000000E+00  0.13133346635E+04  0.13133346635E+04  0.25500000000E-02 0. -1.
          2   -1    0    0  501    0  0.00000000000E+00 -0.00000000000E+00 -0.82625949118E+03  0.82625949118E+03  0.25500000000E-02 0.  1.
    -200001    2    1    2    0    0 -0.38757447570E+03  0.52972175113E+03  0.78553721873E+03  0.11931969331E+04  0.61305064331E+03 0.  0.
   -5000001    2    3    3    0    0 -0.11752181910E+03  0.96268045799E+02  0.52797401412E+03  0.61237823816E+03  0.27050255521E+03 0.  0.
     200001    1    1    2    0    0  0.38757447570E+03 -0.52972175113E+03 -0.29846204644E+03  0.94639722158E+03  0.61300000000E+03 0. -1.
         13    1    4    4    0    0 -0.11475570079E+03  0.17651784124E+03  0.44861931192E+03  0.49556706643E+03  0.10566000000E+00 0.  1.
    -200003    1    4    4    0    0 -0.27661183079E+01 -0.80249795439E+02  0.79354702204E+02  0.11681117173E+03  0.30000000000E+02 0.  1.
    -200000    1    3    3    0    0 -0.27005265661E+03  0.43345370533E+03  0.25756320461E+03  0.58081869493E+03  0.10100000000E+03 0.  1.
<mgrwt>
<rscale>  0 0.20834157E+04</rscale>
<asrwt>0</asrwt>
<pdfrwt beam="1">  1        2 0.11803707E+00 0.20834157E+04</pdfrwt>
<pdfrwt beam="2">  1       -2 0.18761924E+00 0.20834157E+04</pdfrwt>
<totfact> 0.54281353E+00</totfact>
</mgrwt>
</event>
<event>
 8    2  0.4306980E-052  0.1787445E+04  0.7818608E-02  0.8713005E-01
          2   -1    0    0  501    0  0.00000000000E+00  0.00000000000E+00  0.77713821945E+03  0.77713821945E+03  0.25500000000E-02 0. -1.
         -2   -1    0    0    0  501 -0.00000000000E+00 -0.00000000000E+00 -0.10277960542E+04  0.10277960542E+04  0.25500000000E-02 0.  1.
    -200001    2    1    2    0    0 -0.28533699599E+03 -0.36386967354E+03  0.33639932334E+03  0.83838192252E+03  0.61310798613E+03 0.  0.
   -5000001    2    3    3    0    0 -0.13786430755E+03 -0.16306955233E+02 -0.14850642618E+03  0.21557968833E+03  0.71749280961E+02 0.  0.
     200001    1    1    2    0    0  0.28533699599E+03  0.36386967354E+03 -0.58705715808E+03  0.96655235112E+03  0.61300000000E+03 0.  1.
         13    1    4    4    0    0 -0.28782417697E+02  0.21605948221E+02 -0.45022936386E+02  0.57639574356E+02  0.10566000000E+00 0.  1.
    -200003    1    4    4    0    0 -0.10908188986E+03 -0.37912903454E+02 -0.10348348979E+03  0.15794011398E+03  0.30000000000E+02 0.  1.
    -200000    1    3    3    0    0 -0.14747268843E+03 -0.34756271831E+03  0.48490574952E+03  0.62280223419E+03  0.10100000000E+03 0. -1.
<mgrwt>
<rscale>  0 0.17874447E+04</rscale>
<asrwt>0</asrwt>
<pdfrwt beam="1">  1        2 0.11101975E+00 0.17874447E+04</pdfrwt>
<pdfrwt beam="2">  1       -2 0.14682801E+00 0.17874447E+04</pdfrwt>
<totfact> 0.11853548E+01</totfact>
</mgrwt>
</event>
<event>
 8    2  0.4306980E-052  0.2005795E+04  0.7818608E-02  0.8603916E-01
         -2   -1    0    0    0  501 -0.00000000000E+00  0.00000000000E+00  0.63562767433E+03  0.63562767433E+03  0.25500000000E-02 0. -1.
          2   -1    0    0  501    0  0.00000000000E+00 -0.00000000000E+00 -0.15823787223E+04  0.15823787223E+04  0.25500000000E-02 0.  1.
    -200001    2    1    2    0    0 -0.83503166055E+02 -0.76736552137E+03 -0.26981701737E+03  0.10222508598E+04  0.61349244115E+03 0.  0.
   -5000001    2    3    3    0    0 -0.25271564800E+03 -0.14163478530E+03 -0.20393269140E+03  0.36292274532E+03  0.78732237986E+02 0.  0.
     200001    1    1    2    0    0  0.83503166055E+02  0.76736552137E+03 -0.67693403064E+03  0.11957555369E+04  0.61300000000E+03 0. -1.
         13    1    4    4    0    0 -0.14601539805E+03 -0.48831048820E+02 -0.12432329302E+03  0.19789204165E+03  0.10566000000E+00 0.  1.
    -200003    1    4    4    0    0 -0.10670024995E+03 -0.92803736478E+02 -0.79609398379E+02  0.16503070367E+03  0.30000000000E+02 0.  1.
    -200000    1    3    3    0    0  0.16921248195E+03 -0.62573073608E+03 -0.65884325965E+02  0.65932811447E+03  0.10100000000E+03 0. -1.
<mgrwt>
<rscale>  0 0.20057953E+04</rscale>
<asrwt>0</asrwt>
<pdfrwt beam="1">  1        2 0.22605410E+00 0.20057953E+04</pdfrwt>
<pdfrwt beam="2">  1       -2 0.90803954E-01 0.20057953E+04</pdfrwt>
<totfact> 0.12761673E+01</totfact>
</mgrwt>
</event>
<event>
 8    2  0.4306980E-052  0.1837777E+04  0.7818608E-02  0.8686464E-01
         -2   -1    0    0    0  501 -0.00000000000E+00  0.00000000000E+00  0.25457538765E+03  0.25457538766E+03  0.25500000000E-02 0. -1.
          2   -1    0    0  501    0  0.00000000000E+00 -0.00000000000E+00 -0.33167235627E+04  0.33167235627E+04  0.25500000000E-02 0.  1.
    -200001    2    1    2    0    0  0.57163902337E+03 -0.36457195378E+03 -0.17067871297E+04  0.19365339991E+04  0.61429450687E+03 0.  0.
   -5000001    2    3    3    0    0  0.58515452104E+03 -0.69627397630E+02 -0.12337259516E+04  0.13698216929E+04  0.84130603878E+02 0.  0.
     200001    1    1    2    0    0 -0.57163902337E+03  0.36457195378E+03 -0.13553610454E+04  0.16347649513E+04  0.61300000000E+03 0. -1.
         13    1    4    4    0    0  0.46663355682E+03 -0.59101784657E+02 -0.92821503436E+03  0.10405878427E+04  0.10566000000E+00 0.  1.
    -200003    1    4    4    0    0  0.11852096423E+03 -0.10525612973E+02 -0.30551091727E+03  0.32923385011E+03  0.30000000000E+02 0.  1.
    -200000    1    3    3    0    0 -0.13515497679E+02 -0.29494455615E+03 -0.47306117803E+03  0.56671230624E+03  0.10100000000E+03 0. -1.
<mgrwt>
<rscale>  0 0.18377771E+04</rscale>
<asrwt>0</asrwt>
<pdfrwt beam="1">  1        2 0.47381762E+00 0.18377771E+04</pdfrwt>
<pdfrwt beam="2">  1       -2 0.36367915E-01 0.18377771E+04</pdfrwt>
<totfact> 0.10449417E+01</totfact>
</mgrwt>
</event>
<event>
 8    2  0.4306980E-052  0.1454008E+04  0.7818608E-02  0.8915627E-01
          2   -1    0    0  501    0  0.00000000000E+00  0.00000000000E+00  0.89626026392E+03  0.89626026393E+03  0.25500000000E-02 0.  1.
         -2   -1    0    0    0  501 -0.00000000000E+00 -0.00000000000E+00 -0.58971114405E+03  0.58971114406E+03  0.25500000000E-02 0. -1.
    -200001    2    1    2    0    0  0.18986608958E+03 -0.33069192363E+03  0.62462847951E+02  0.72389963415E+03  0.61214605498E+03 0.  0.
   -5000001    2    3    3    0    0  0.63490079113E+01 -0.35818056871E+03  0.24735374369E+03  0.44315101314E+03  0.82857203804E+02 0.  0.
     200001    1    1    2    0    0 -0.18986608958E+03  0.33069192363E+03  0.24408627192E+03  0.76207177383E+03  0.61300000000E+03 0. -1.
         13    1    4    4    0    0  0.37075779330E+02 -0.14556512666E+03  0.89122159953E+02  0.17466135826E+03  0.10566000000E+00 0.  1.
    -200003    1    4    4    0    0 -0.30726771419E+02 -0.21261544206E+03  0.15823158374E+03  0.26848965488E+03  0.30000000000E+02 0.  1.
    -200000    1    3    3    0    0  0.18351708167E+03  0.27488645088E+02 -0.18489089574E+03  0.28074862102E+03  0.10100000000E+03 0.  1.
<mgrwt>
<rscale>  0 0.14540078E+04</rscale>
<asrwt>0</asrwt>
<pdfrwt beam="1">  1        2 0.12803718E+00 0.14540078E+04</pdfrwt>
<pdfrwt beam="2">  1       -2 0.84244449E-01 0.14540078E+04</pdfrwt>
<totfact> 0.39063726E+01</totfact>
</mgrwt>
</event>
<event>
 8    2  0.4306980E-052  0.2628883E+04  0.7818608E-02  0.8358456E-01
         -2   -1    0    0    0  501 -0.00000000000E+00  0.00000000000E+00  0.17267531391E+04  0.17267531391E+04  0.25500000000E-02 0. -1.
          2   -1    0    0  501    0  0.00000000000E+00 -0.00000000000E+00 -0.10005811750E+04  0.10005811750E+04  0.25500000000E-02 0.  1.
    -200001    2    1    2    0    0  0.20637842435E+02  0.10855731386E+04 -0.68814481000E+02  0.12485958627E+04  0.61266731246E+03 0.  0.
   -5000001    2    3    3    0    0 -0.16021426751E+03  0.36598491817E+03 -0.24555200594E+03  0.47921179386E+03  0.98663995004E+02 0.  0.
     200001    1    1    2    0    0 -0.20637842435E+02 -0.10855731386E+04  0.79498644509E+03  0.14787384514E+04  0.61300000000E+03 0.  1.
         13    1    4    4    0    0 -0.29405794560E+02  0.16787005662E+03 -0.12440176003E+03  0.21099968182E+03  0.10566000000E+00 0.  1.
    -200003    1    4    4    0    0 -0.13080847296E+03  0.19811486155E+03 -0.12115024591E+03  0.26821211205E+03  0.30000000000E+02 0.  1.
    -200000    1    3    3    0    0  0.18085210995E+03  0.71958822047E+03  0.17673752494E+03  0.76938406887E+03  0.10100000000E+03 0. -1.
<mgrwt>
<rscale>  0 0.26288832E+04</rscale>
<asrwt>0</asrwt>
<pdfrwt beam="1">  1        2 0.14294017E+00 0.26288832E+04</pdfrwt>
<pdfrwt beam="2">  1       -2 0.24667902E+00 0.26288832E+04</pdfrwt>
<totfact> 0.16773358E+00</totfact>
</mgrwt>
</event>
<event>
 8    2  0.4306980E-052  0.3355766E+04  0.7818608E-02  0.8148849E-01
          2   -1    0    0  501    0  0.00000000000E+00  0.00000000000E+00  0.16683119337E+04  0.16683119337E+04  0.25500000000E-02 0.  1.
         -2   -1    0    0    0  501 -0.00000000000E+00 -0.00000000000E+00 -0.16875090014E+04  0.16875090014E+04  0.25500000000E-02 0. -1.
    -200001    2    1    2    0    0  0.16513547498E+03 -0.12936869461E+04 -0.86877490462E+03  0.16829649519E+04  0.61376343563E+03 0.  0.
   -5000001    2    3    3    0    0  0.14775179003E+02 -0.57298109071E+03 -0.55838732039E+03  0.87762862402E+03  0.36043025110E+03 0.  0.
     200001    1    1    2    0    0 -0.16513547498E+03  0.12936869461E+04  0.84957783689E+03  0.16728559832E+04  0.61300000000E+03 0.  1.
         13    1    4    4    0    0 -0.84226280857E+02 -0.55046024719E+03 -0.52823166700E+03  0.76754755899E+03  0.10566000000E+00 0.  1.
    -200003    1    4    4    0    0  0.99001459861E+02 -0.22520843514E+02 -0.30155653392E+02  0.11008106503E+03  0.30000000000E+02 0.  1.
    -200000    1    3    3    0    0  0.15036029598E+03 -0.72070585538E+03 -0.31038758423E+03  0.80533632789E+03  0.10100000000E+03 0. -1.
<mgrwt>
<rscale>  0 0.33557660E+04</rscale>
<asrwt>0</asrwt>
<pdfrwt beam="1">  1        2 0.23833028E+00 0.33557660E+04</pdfrwt>
<pdfrwt beam="2">  1       -2 0.24107271E+00 0.33557660E+04</pdfrwt>
<totfact> 0.72918690E-01</totfact>
</mgrwt>
</event>
<event>
 8    2  0.4306980E-052  0.1367432E+04  0.7818608E-02  0.8977736E-01
         -2   -1    0    0    0  501 -0.00000000000E+00  0.00000000000E+00  0.13763972891E+04  0.13763972891E+04  0.25500000000E-02 0. -1.
          2   -1    0    0  501    0  0.00000000000E+00 -0.00000000000E+00 -0.33963112910E+03  0.33963112911E+03  0.25500000000E-02 0.  1.
    -200001    2    1    2    0    0  0.26130683906E+03  0.13111717659E+03  0.61496777804E+03  0.91655618406E+03  0.61352823274E+03 0.  0.
   -5000001    2    3    3    0    0  0.16113680668E+03 -0.57952230004E+02 -0.62548861853E+02  0.19891346429E+03  0.79565537321E+02 0.  0.
     200001    1    1    2    0    0 -0.26130683906E+03 -0.13111717659E+03  0.42179838193E+03  0.79947223412E+03  0.61300000000E+03 0. -1.
         13    1    4    4    0    0  0.13682918089E+03 -0.52392145822E+02 -0.63980950128E+02  0.15987724925E+03  0.10566000000E+00 0.  1.
    -200003    1    4    4    0    0  0.24307625793E+02 -0.55600841822E+01  0.14320882753E+01  0.39036215040E+02  0.30000000000E+02 0. -1.
    -200000    1    3    3    0    0  0.10017003238E+03  0.18906940659E+03  0.67751663989E+03  0.71764271976E+03  0.10100000000E+03 0. -1.
<mgrwt>
<rscale>  0 0.13674317E+04</rscale>
<asrwt>0</asrwt>
<pdfrwt beam="1">  1        2 0.48518732E-01 0.13674317E+04</pdfrwt>
<pdfrwt beam="2">  1       -2 0.19662819E+00 0.13674317E+04</pdfrwt>
<totfact> 0.14192879E+01</totfact>
</mgrwt>
</event>
<event>
 8    2  0.4306980E-052  0.1691754E+04  0.7818608E-02  0.8766081E-01
         -2   -1    0    0    0  501 -0.00000000000E+00  0.00000000000E+00  0.42704900942E+03  0.42704900943E+03  0.25500000000E-02 0. -1.
          2   -1    0    0  501    0  0.00000000000E+00 -0.00000000000E+00 -0.16754707756E+04  0.16754707756E+04  0.25500000000E-02 0.  1.
    -200001    2    1    2    0    0 -0.54009266892E+03  0.12551437709E+03 -0.40065621124E+03  0.91848879472E+03  0.61289666058E+03 0.  0.
   -5000001    2    3    3    0    0 -0.61693577663E+03  0.21729457358E+03 -0.29035725362E+03  0.72692854905E+03  0.12763657981E+03 0.  0.
     200001    1    1    2    0    0  0.54009266892E+03 -0.12551437709E+03 -0.84776555496E+03  0.11840309903E+04  0.61300000000E+03 0.  1.
         13    1    4    4    0    0 -0.17805463409E+02  0.95640003058E+00  0.11682081647E+02  0.21317397212E+02  0.10566000000E+00 0.  1.
    -200003    1    4    4    0    0 -0.59913031322E+03  0.21633817355E+03 -0.30203933526E+03  0.70561115184E+03  0.30000000000E+02 0.  1.
    -200000    1    3    3    0    0  0.76843107710E+02 -0.91780196489E+02 -0.11029895762E+03  0.19156024567E+03  0.10100000000E+03 0. -1.
<mgrwt>
<rscale>  0 0.16917543E+04</rscale>
<asrwt>0</asrwt>
<pdfrwt beam="1">  1        2 0.23935297E+00 0.16917543E+04</pdfrwt>
<pdfrwt beam="2">  1       -2 0.61007002E-01 0.16917543E+04</pdfrwt>
<totfact> 0.28188194E+01</totfact>
</mgrwt>
</event>
<event>
 8    2  0.4306980E-052  0.1728803E+04  0.7818608E-02  0.8745105E-01
         -2   -1    0    0    0  501 -0.00000000000E+00  0.00000000000E+00  0.45626360267E+03  0.45626360268E+03  0.25500000000E-02 0. -1.
          2   -1    0    0  501    0  0.00000000000E+00 -0.00000000000E+00 -0.16376280957E+04  0.16376280957E+04  0.25500000000E-02 0.  1.
    -200001    2    1    2    0    0 -0.47975380550E+03 -0.36382052357E+03 -0.70600767485E+03  0.11119231694E+04  0.61269667088E+03 0.  0.
   -5000001    2    3    3    0    0  0.10148751302E+02  0.30989715076E+02 -0.12163864708E+03  0.24730313709E+03  0.21283684258E+03 0.  0.
     200001    1    1    2    0    0  0.47975380550E+03  0.36382052357E+03 -0.47535681817E+03  0.98196852895E+03  0.61300000000E+03 0.  1.
         13    1    4    4    0    0  0.94562351108E+02  0.64173222183E+02 -0.38304020601E+02  0.12052987120E+03  0.10566000000E+00 0.  1.
    -200003    1    4    4    0    0 -0.84413599806E+02 -0.33183507108E+02 -0.83334626475E+02  0.12677326590E+03  0.30000000000E+02 0.  1.
    -200000    1    3    3    0    0 -0.48990255680E+03 -0.39481023864E+03 -0.58436902777E+03  0.86462003233E+03  0.10100000000E+03 0. -1.
<mgrwt>
<rscale>  0 0.17288032E+04</rscale>
<asrwt>0</asrwt>
<pdfrwt beam="1">  1        2 0.23394687E+00 0.17288032E+04</pdfrwt>
<pdfrwt beam="2">  1       -2 0.65180515E-01 0.17288032E+04</pdfrwt>
<totfact> 0.25540976E+01</totfact>
</mgrwt>
</event>
<event>
 8    2  0.4306980E-052  0.1479966E+04  0.7818608E-02  0.8897886E-01
         -2   -1    0    0    0  501 -0.00000000000E+00  0.00000000000E+00  0.24903666680E+03  0.24903666681E+03  0.25500000000E-02 0. -1.
          2   -1    0    0  501    0  0.00000000000E+00 -0.00000000000E+00 -0.21987716923E+04  0.21987716923E+04  0.25500000000E-02 0.  1.
    -200001    2    1    2    0    0 -0.16772923547E+03  0.34967816281E+03 -0.12169394250E+04  0.14167087975E+04  0.61295541327E+03 0.  0.
   -5000001    2    3    3    0    0 -0.29993877091E+02 -0.78069347363E+02 -0.74560060272E+03  0.75769419458E+03  0.10576283877E+03 0.  0.
     200001    1    1    2    0    0  0.16772923547E+03 -0.34967816281E+03 -0.73279560050E+03  0.10310995617E+04  0.61300000000E+03 0. -1.
         13    1    4    4    0    0 -0.58103822984E+01 -0.67750267059E+02 -0.65721457545E+03  0.66072298929E+03  0.10566000000E+00 0.  1.
    -200003    1    4    4    0    0 -0.24183494793E+02 -0.10319080305E+02 -0.88386027261E+02  0.96971205281E+02  0.30000000000E+02 0.  1.
    -200000    1    3    3    0    0 -0.13773535837E+03  0.42774751017E+03 -0.47133882233E+03  0.65901460291E+03  0.10100000000E+03 0. -1.
<mgrwt>
<rscale>  0 0.14799659E+04</rscale>
<asrwt>0</asrwt>
<pdfrwt beam="1">  1        2 0.31411023E+00 0.14799659E+04</pdfrwt>
<pdfrwt beam="2">  1       -2 0.35576668E-01 0.14799659E+04</pdfrwt>
<totfact> 0.45583890E+01</totfact>
</mgrwt>
</event>
<event>
 8    2  0.4306980E-052  0.1393825E+04  0.7818608E-02  0.8958301E-01
          2   -1    0    0  501    0  0.00000000000E+00  0.00000000000E+00  0.15247628655E+04  0.15247628655E+04  0.25500000000E-02 0.  1.
         -2   -1    0    0    0  501 -0.00000000000E+00 -0.00000000000E+00 -0.31853281121E+03  0.31853281122E+03  0.25500000000E-02 0. -1.
    -200001    2    1    2    0    0  0.67807184429E+02 -0.27556161625E+03  0.37489608976E+03  0.77212007059E+03  0.61244616635E+03 0.  0.
   -5000001    2    3    3    0    0  0.20925606315E+03 -0.15216085321E+03  0.46749693314E+03  0.53971643507E+03  0.76153940014E+02 0.  0.
     200001    1    1    2    0    0 -0.67807184429E+02  0.27556161625E+03  0.83133396457E+03  0.10711756062E+04  0.61300000000E+03 0.  1.
         13    1    4    4    0    0  0.66506680693E+02 -0.12364293275E+02  0.11992806672E+03  0.13769083730E+03  0.10566000000E+00 0.  1.
    -200003    1    4    4    0    0  0.14274938245E+03 -0.13979655994E+03  0.34756886642E+03  0.40202559778E+03  0.30000000000E+02 0.  1.
    -200000    1    3    3    0    0 -0.14144887872E+03 -0.12340076304E+03 -0.92600843376E+02  0.23240363552E+03  0.10100000000E+03 0. -1.
<mgrwt>
<rscale>  0 0.13938250E+04</rscale>
<asrwt>0</asrwt>
<pdfrwt beam="1">  1        2 0.21782326E+00 0.13938250E+04</pdfrwt>
<pdfrwt beam="2">  1       -2 0.45504688E-01 0.13938250E+04</pdfrwt>
<totfact> 0.63278857E+01</totfact>
</mgrwt>
</event>
<event>
 8    2  0.4306980E-052  0.1795180E+04  0.7818608E-02  0.8708867E-01
          2   -1    0    0  501    0  0.00000000000E+00  0.00000000000E+00  0.15828917650E+04  0.15828917650E+04  0.25500000000E-02 0.  1.
         -2   -1    0    0    0  501 -0.00000000000E+00 -0.00000000000E+00 -0.50898488862E+03  0.50898488863E+03  0.25500000000E-02 0. -1.
    -200001    2    1    2    0    0  0.48873215121E+03  0.77850623659E+02  0.33175342534E+02  0.78657555398E+03  0.61047576818E+03 0.  0.
   -5000001    2    3    3    0    0  0.32771917432E+03  0.22686481464E+03 -0.20052866224E+03  0.45049673928E+03  0.62193780922E+02 0.  0.
     200001    1    1    2    0    0 -0.48873215121E+03 -0.77850623659E+02  0.10407315339E+04  0.13053010997E+04  0.61300000000E+03 0.  1.
         13    1    4    4    0    0  0.35480102717E+02  0.21689878965E+02 -0.39111376618E+01  0.41768369614E+02  0.10566000000E+00 0.  1.
    -200003    1    4    4    0    0  0.29223907160E+03  0.20517493567E+03 -0.19661752458E+03  0.40872836967E+03  0.30000000000E+02 0.  1.
    -200000    1    3    3    0    0  0.16101297689E+03 -0.14901419098E+03  0.23370400478E+03  0.33607881470E+03  0.10100000000E+03 0.  1.
<mgrwt>
<rscale>  0 0.17951802E+04</rscale>
<asrwt>0</asrwt>
<pdfrwt beam="1">  1        2 0.22612740E+00 0.17951802E+04</pdfrwt>
<pdfrwt beam="2">  1       -2 0.72712126E-01 0.17951802E+04</pdfrwt>
<totfact> 0.21400912E+01</totfact>
</mgrwt>
</event>
<event>
 8    2  0.4306980E-052  0.1819375E+04  0.7818608E-02  0.8696063E-01
         -2   -1    0    0    0  501 -0.00000000000E+00  0.00000000000E+00  0.43171115763E+03  0.43171115764E+03  0.25500000000E-02 0. -1.
          2   -1    0    0  501    0  0.00000000000E+00 -0.00000000000E+00 -0.19168639531E+04  0.19168639531E+04  0.25500000000E-02 0.  1.
    -200001    2    1    2    0    0 -0.48582517964E+03 -0.10015528783E+02 -0.13381068557E+04  0.15526367184E+04  0.61969702766E+03 0.  0.
   -5000001    2    3    3    0    0 -0.24177914162E+03  0.88660030543E+02 -0.12163063537E+04  0.12455020623E+04  0.74541846183E+02 0.  0.
     200001    1    1    2    0    0  0.48582517964E+03  0.10015528783E+02 -0.14704593977E+03  0.79593839233E+03  0.61300000000E+03 0. -1.
         13    1    4    4    0    0 -0.16081287405E+03  0.75049095165E+02 -0.71935285727E+03  0.74091949062E+03  0.10566000000E+00 0.  1.
    -200003    1    4    4    0    0 -0.80966267566E+02  0.13610935378E+02 -0.49695349647E+03  0.50458257173E+03  0.30000000000E+02 0.  1.
    -200000    1    3    3    0    0 -0.24404603802E+03 -0.98675559327E+02 -0.12180050199E+03  0.30713465608E+03  0.10100000000E+03 0. -1.
<mgrwt>
<rscale>  0 0.18193752E+04</rscale>
<asrwt>0</asrwt>
<pdfrwt beam="1">  1        2 0.27383770E+00 0.18193752E+04</pdfrwt>
<pdfrwt beam="2">  1       -2 0.61673024E-01 0.18193752E+04</pdfrwt>
<totfact> 0.20451726E+01</totfact>
</mgrwt>
</event>
<event>
 8    2  0.4306980E-052  0.1248768E+04  0.7818608E-02  0.9071209E-01
         -2   -1    0    0    0  501 -0.00000000000E+00  0.00000000000E+00  0.42113557660E+03  0.42113557661E+03  0.25500000000E-02 0. -1.
          2   -1    0    0  501    0  0.00000000000E+00 -0.00000000000E+00 -0.92572394057E+03  0.92572394058E+03  0.25500000000E-02 0.  1.
    -200001    2    1    2    0    0 -0.48869743579E+02  0.61392307879E+02 -0.15231158419E+03  0.63550503672E+03  0.61197268380E+03 0.  0.
   -5000001    2    3    3    0    0  0.14262060699E+03  0.18978914766E+03  0.10901865268E+03  0.27267064539E+03  0.78125899147E+02 0.  0.
     200001    1    1    2    0    0  0.48869743579E+02 -0.61392307879E+02 -0.35227677978E+03  0.71135448046E+03  0.61300000000E+03 0.  1.
         13    1    4    4    0    0  0.10922319805E+03  0.11736980697E+03  0.46330120053E+02  0.16688879462E+03  0.10566000000E+00 0.  1.
    -200003    1    4    4    0    0  0.33397408938E+02  0.72419340692E+02  0.62688532627E+02  0.10578185077E+03  0.30000000000E+02 0. -1.
    -200000    1    3    3    0    0 -0.19149035057E+03 -0.12839683978E+03 -0.26133023687E+03  0.36283439133E+03  0.10100000000E+03 0.  1.
<mgrwt>
<rscale>  0 0.12487678E+04</rscale>
<asrwt>0</asrwt>
<pdfrwt beam="1">  1        2 0.13224628E+00 0.12487678E+04</pdfrwt>
<pdfrwt beam="2">  1       -2 0.60162226E-01 0.12487678E+04</pdfrwt>
<totfact> 0.79320557E+01</totfact>
</mgrwt>
</event>
<event>
 8    2  0.4306980E-052  0.1430741E+04  0.7818608E-02  0.8931862E-01
          2   -1    0    0  501    0  0.00000000000E+00  0.00000000000E+00  0.42228286780E+04  0.42228286780E+04  0.25500000000E-02 0.  1.
         -2   -1    0    0    0  501 -0.00000000000E+00 -0.00000000000E+00 -0.12118774425E+03  0.12118774428E+03  0.25500000000E-02 0. -1.
    -200001    2    1    2    0    0 -0.33330696093E+03  0.11447723477E+03  0.23689286924E+04  0.24725840086E+04  0.61453231211E+03 0.  0.
   -5000001    2    3    3    0    0 -0.35008401754E+03 -0.15526469223E+03  0.14087718290E+04  0.14700151186E+04  0.17216398848E+03 0.  0.
     200001    1    1    2    0    0  0.33330696093E+03 -0.11447723477E+03  0.17327122413E+04  0.18714324136E+04  0.61300000000E+03 0. -1.
         13    1    4    4    0    0 -0.16257848756E+03  0.11354254758E+02  0.45317386735E+03  0.48158825664E+03  0.10566000000E+00 0.  1.
    -200003    1    4    4    0    0 -0.18750552998E+03 -0.16661894699E+03  0.95559796162E+03  0.98842686200E+03  0.30000000000E+02 0.  1.
    -200000    1    3    3    0    0  0.16777056611E+02  0.26974192700E+03  0.96015686340E+03  0.10025688900E+04  0.10100000000E+03 0.  1.
<mgrwt>
<rscale>  0 0.14307412E+04</rscale>
<asrwt>0</asrwt>
<pdfrwt beam="1">  1        2 0.60326133E+00 0.14307412E+04</pdfrwt>
<pdfrwt beam="2">  1       -2 0.17312532E-01 0.14307412E+04</pdfrwt>
<totfact> 0.10841555E+01</totfact>
</mgrwt>
</event>
<event>
 8    2  0.4306980E-052  0.1542809E+04  0.7818608E-02  0.8856474E-01
         -2   -1    0    0    0  501 -0.00000000000E+00  0.00000000000E+00  0.93293192094E+03  0.93293192094E+03  0.25500000000E-02 0. -1.
          2   -1    0    0  501    0  0.00000000000E+00 -0.00000000000E+00 -0.63784390333E+03  0.63784390333E+03  0.25500000000E-02 0.  1.
    -200001    2    1    2    0    0  0.63925994795E+01  0.32891740336E+03  0.48447914263E+03  0.84975881907E+03  0.61574547288E+03 0.  0.
   -5000001    2    3    3    0    0 -0.95201687601E+02  0.11786865463E+03 -0.85872620947E+02  0.22496676748E+03  0.14240631439E+03 0.  0.
     200001    1    1    2    0    0 -0.63925994795E+01 -0.32891740336E+03 -0.18939112502E+03  0.72101700521E+03  0.61300000000E+03 0.  1.
         13    1    4    4    0    0  0.34915567427E+02  0.40884145892E+02 -0.24011605844E+02  0.58882753106E+02  0.10566000000E+00 0.  1.
    -200003    1    4    4    0    0 -0.13011725503E+03  0.76984508735E+02 -0.61861015103E+02  0.16608401437E+03  0.30000000000E+02 0.  1.
    -200000    1    3    3    0    0  0.10159428708E+03  0.21104874873E+03  0.57035176358E+03  0.62479205159E+03  0.10100000000E+03 0. -1.
<mgrwt>
<rscale>  0 0.15428090E+04</rscale>
<asrwt>0</asrwt>
<pdfrwt beam="1">  1        2 0.91120559E-01 0.15428090E+04</pdfrwt>
<pdfrwt beam="2">  1       -2 0.13327599E+00 0.15428090E+04</pdfrwt>
<totfact> 0.19835117E+01</totfact>
</mgrwt>
</event>
<event>
 8    2  0.4306980E-052  0.1360926E+04  0.7818608E-02  0.8982598E-01
         -2   -1    0    0    0  501 -0.00000000000E+00  0.00000000000E+00  0.22458183684E+03  0.22458183685E+03  0.25500000000E-02 0. -1.
          2   -1    0    0  501    0  0.00000000000E+00 -0.00000000000E+00 -0.20617430912E+04  0.20617430912E+04  0.25500000000E-02 0.  1.
    -200001    2    1    2    0    0 -0.76454538142E+02 -0.25348896454E+03 -0.69957898234E+03  0.96724783510E+03  0.61323378121E+03 0.  0.
   -5000001    2    3    3    0    0 -0.18450033739E+03 -0.38381675963E+03 -0.42893639011E+03  0.63242304265E+03  0.18605590191E+03 0.  0.
     200001    1    1    2    0    0  0.76454538142E+02  0.25348896454E+03 -0.11375822720E+04  0.13190770929E+04  0.61300000000E+03 0.  1.
         13    1    4    4    0    0 -0.75278890317E+01  0.19043078557E+02 -0.37516079236E+02  0.42740792219E+02  0.10566000000E+00 0.  1.
    -200003    1    4    4    0    0 -0.17697244836E+03 -0.40285983819E+03 -0.39142031088E+03  0.58968225043E+03  0.30000000000E+02 0.  1.
    -200000    1    3    3    0    0  0.10804579925E+03  0.13032779509E+03 -0.27064259223E+03  0.33482479245E+03  0.10100000000E+03 0.  1.
<mgrwt>
<rscale>  0 0.13609262E+04</rscale>
<asrwt>0</asrwt>
<pdfrwt beam="1">  1        2 0.29453472E+00 0.13609262E+04</pdfrwt>
<pdfrwt beam="2">  1       -2 0.32083121E-01 0.13609262E+04</pdfrwt>
<totfact> 0.65850946E+01</totfact>
</mgrwt>
</event>
<event>
 8    2  0.4306980E-052  0.1535391E+04  0.7818608E-02  0.8861254E-01
          2   -1    0    0  501    0  0.00000000000E+00  0.00000000000E+00  0.43391319962E+03  0.43391319962E+03  0.25500000000E-02 0.  1.
         -2   -1    0    0    0  501 -0.00000000000E+00 -0.00000000000E+00 -0.13582352919E+04  0.13582352919E+04  0.25500000000E-02 0. -1.
    -200001    2    1    2    0    0  0.44614890969E+03  0.11968255954E+03 -0.48578787749E+03  0.90814961017E+03  0.61267698493E+03 0.  0.
   -5000001    2    3    3    0    0 -0.75619083434E+02  0.42905314992E+02  0.70953688997E+02  0.13465186888E+03  0.74414971449E+02 0.  0.
     200001    1    1    2    0    0 -0.44614890969E+03 -0.11968255954E+03 -0.43853421478E+03  0.88399888134E+03  0.61300000000E+03 0.  1.
         13    1    4    4    0    0 -0.22777368097E+02  0.42936819768E+02  0.12164467740E+02  0.50103537088E+02  0.10566000000E+00 0.  1.
    -200003    1    4    4    0    0 -0.52841715337E+02 -0.31504776354E-01  0.58789221257E+02  0.84548331789E+02  0.30000000000E+02 0.  1.
    -200000    1    3    3    0    0  0.52176799313E+03  0.76777244548E+02 -0.55674156649E+03  0.77349774129E+03  0.10100000000E+03 0.  1.
<mgrwt>
<rscale>  0 0.15353908E+04</rscale>
<asrwt>0</asrwt>
<pdfrwt beam="1">  1        2 0.61987601E-01 0.15353908E+04</pdfrwt>
<pdfrwt beam="2">  1       -2 0.19403361E+00 0.15353908E+04</pdfrwt>
<totfact> 0.11087621E+01</totfact>
</mgrwt>
</event>
<event>
 8    2  0.4306980E-052  0.1895371E+04  0.7818608E-02  0.8657164E-01
          2   -1    0    0  501    0  0.00000000000E+00  0.00000000000E+00  0.14501748493E+04  0.14501748493E+04  0.25500000000E-02 0.  1.
         -2   -1    0    0    0  501 -0.00000000000E+00 -0.00000000000E+00 -0.61930988477E+03  0.61930988478E+03  0.25500000000E-02 0. -1.
    -200001    2    1    2    0    0  0.17856930937E+03  0.12067820427E+03  0.11680381439E+04  0.13374294218E+04  0.61477973741E+03 0.  0.
   -5000001    2    3    3    0    0 -0.34018024108E+02  0.25985679308E+03  0.45255763893E+03  0.57148072451E+03  0.23043225263E+03 0.  0.
     200001    1    1    2    0    0 -0.17856930937E+03 -0.12067820427E+03 -0.33717317941E+03  0.73205531222E+03  0.61300000000E+03 0. -1.
         13    1    4    4    0    0  0.19369546767E+02 -0.34330971431E+02  0.10431231436E+03  0.11151172599E+03  0.10566000000E+00 0.  1.
    -200003    1    4    4    0    0 -0.53387570874E+02  0.29418776451E+03  0.34824532457E+03  0.45996899852E+03  0.30000000000E+02 0.  1.
    -200000    1    3    3    0    0  0.21258733348E+03 -0.13917858881E+03  0.71548050498E+03  0.76594869733E+03  0.10100000000E+03 0.  1.
<mgrwt>
<rscale>  0 0.18953708E+04</rscale>
<asrwt>0</asrwt>
<pdfrwt beam="1">  1        2 0.20716784E+00 0.18953708E+04</pdfrwt>
<pdfrwt beam="2">  1       -2 0.88472840E-01 0.18953708E+04</pdfrwt>
<totfact> 0.16068660E+01</totfact>
</mgrwt>
</event>
<event>
 8    2  0.4306980E-052  0.1688850E+04  0.7818608E-02  0.8767749E-01
          2   -1    0    0  501    0  0.00000000000E+00  0.00000000000E+00  0.37880926711E+04  0.37880926711E+04  0.25500000000E-02 0.  1.
         -2   -1    0    0    0  501 -0.00000000000E+00 -0.00000000000E+00 -0.18823550944E+03  0.18823550946E+03  0.25500000000E-02 0. -1.
    -200001    2    1    2    0    0  0.28806310784E+03 -0.68411171129E+02  0.29767223477E+04  0.30534379169E+04  0.61232894307E+03 0.  0.
   -5000001    2    3    3    0    0  0.41685222116E+03 -0.60572058504E+02  0.13413923929E+04  0.14099193899E+04  0.10537734949E+03 0.  0.
     200001    1    1    2    0    0 -0.28806310784E+03  0.68411171129E+02  0.62313481396E+03  0.92289026368E+03  0.61300000000E+03 0. -1.
         13    1    4    4    0    0  0.59904654935E+02  0.12759658927E+02  0.30043287327E+03  0.30661262056E+03  0.10566000000E+00 0.  1.
    -200003    1    4    4    0    0  0.35694756622E+03 -0.73331717432E+02  0.10409595196E+04  0.11033067693E+04  0.30000000000E+02 0.  1.
    -200000    1    3    3    0    0 -0.12878911332E+03 -0.78391126245E+01  0.16353299549E+04  0.16435185271E+04  0.10100000000E+03 0.  1.
<mgrwt>
<rscale>  0 0.16888500E+04</rscale>
<asrwt>0</asrwt>
<pdfrwt beam="1">  1        2 0.54115609E+00 0.16888500E+04</pdfrwt>
<pdfrwt beam="2">  1       -2 0.26890787E-01 0.16888500E+04</pdfrwt>
<totfact> 0.95662622E+00</totfact>
</mgrwt>
</event>
<event>
 8    2  0.4306980E-052  0.1549288E+04  0.7818608E-02  0.8852323E-01
          2   -1    0    0  501    0  0.00000000000E+00  0.00000000000E+00  0.45951111012E+03  0.45951111012E+03  0.25500000000E-02 0. -1.
         -2   -1    0    0    0  501 -0.00000000000E+00 -0.00000000000E+00 -0.13058953208E+04  0.13058953208E+04  0.25500000000E-02 0.  1.
    -200001    2    1    2    0    0  0.46462708354E+03 -0.75478149813E+02 -0.36108506369E+03  0.85279504599E+03  0.61261871452E+03 0.  0.
   -5000001    2    3    3    0    0  0.39258043714E+03  0.12199379908E+03  0.31339692821E+01  0.42031106497E+03  0.87462465850E+02 0.  0.
     200001    1    1    2    0    0 -0.46462708354E+03  0.75478149813E+02 -0.48529914701E+03  0.91261138495E+03  0.61300000000E+03 0.  1.
         13    1    4    4    0    0  0.26076169604E+02  0.19991868270E+02 -0.19176801815E+02  0.38044740898E+02  0.10566000000E+00 0.  1.
    -200003    1    4    4    0    0  0.36650426753E+03  0.10200193081E+03  0.22310771097E+02  0.38226632407E+03  0.30000000000E+02 0.  1.
    -200000    1    3    3    0    0  0.72046646403E+02 -0.19747194890E+03 -0.36421903297E+03  0.43248398102E+03  0.10100000000E+03 0. -1.
<mgrwt>
<rscale>  0 0.15492881E+04</rscale>
<asrwt>0</asrwt>
<pdfrwt beam="1">  1        2 0.65644445E-01 0.15492881E+04</pdfrwt>
<pdfrwt beam="2">  1       -2 0.18655647E+00 0.15492881E+04</pdfrwt>
<totfact> 0.11652520E+01</totfact>
</mgrwt>
</event>
<event>
 8    2  0.4306980E-052  0.1469220E+04  0.7818608E-02  0.8905184E-01
          2   -1    0    0  501    0  0.00000000000E+00  0.00000000000E+00  0.11835116427E+04  0.11835116428E+04  0.25500000000E-02 0.  1.
         -2   -1    0    0    0  501 -0.00000000000E+00 -0.00000000000E+00 -0.45597482250E+03  0.45597482251E+03  0.25500000000E-02 0. -1.
    -200001    2    1    2    0    0 -0.11068910180E+03  0.18035416213E+03 -0.20623987893E+02  0.64938884588E+03  0.61359662909E+03 0.  0.
   -5000001    2    3    3    0    0 -0.17458232593E+03  0.14471597352E+03  0.24326292851E+03  0.35751604957E+03  0.13122184192E+03 0.  0.
     200001    1    1    2    0    0  0.11068910180E+03 -0.18035416213E+03  0.74816080814E+03  0.99009761938E+03  0.61300000000E+03 0.  1.
         13    1    4    4    0    0 -0.13033182300E+03  0.14044785425E+03  0.23506535658E+03  0.30326179594E+03  0.10566000000E+00 0.  1.
    -200003    1    4    4    0    0 -0.44250502927E+02  0.42681192710E+01  0.81975719295E+01  0.54254253630E+02  0.30000000000E+02 0.  1.
    -200000    1    3    3    0    0  0.63893224131E+02  0.35638188612E+02 -0.26388691640E+03  0.29187279631E+03  0.10100000000E+03 0. -1.
<mgrwt>
<rscale>  0 0.14692195E+04</rscale>
<asrwt>0</asrwt>
<pdfrwt beam="1">  1        2 0.16907309E+00 0.14692195E+04</pdfrwt>
<pdfrwt beam="2">  1       -2 0.65139260E-01 0.14692195E+04</pdfrwt>
<totfact> 0.46037665E+01</totfact>
</mgrwt>
</event>
<event>
 8    2  0.4306980E-052  0.2810784E+04  0.7818608E-02  0.8299928E-01
          2   -1    0    0  501    0  0.00000000000E+00  0.00000000000E+00  0.11739647044E+04  0.11739647044E+04  0.25500000000E-02 0.  1.
         -2   -1    0    0    0  501 -0.00000000000E+00 -0.00000000000E+00 -0.16824418278E+04  0.16824418278E+04  0.25500000000E-02 0. -1.
    -200001    2    1    2    0    0  0.10253911744E+04  0.24281087122E+02  0.50049012328E+03  0.12925009926E+04  0.60667274601E+03 0.  0.
   -5000001    2    3    3    0    0  0.87207363020E+03  0.20518598176E+03  0.51254970623E+03  0.10344713746E+04  0.69355027484E+02 0.  0.
     200001    1    1    2    0    0 -0.10253911744E+04 -0.24281087122E+02 -0.10089672467E+04  0.15639055396E+04  0.61300000000E+03 0. -1.
         13    1    4    4    0    0  0.57203228860E+03  0.15368903008E+03  0.32432757473E+03  0.67529966982E+03  0.10566000000E+00 0.  1.
    -200003    1    4    4    0    0  0.30004134161E+03  0.51496951676E+02  0.18822213149E+03  0.35917170474E+03  0.30000000000E+02 0.  1.
    -200000    1    3    3    0    0  0.15331754419E+03 -0.18090489464E+03 -0.12059582948E+02  0.25802961807E+03  0.10100000000E+03 0. -1.
<mgrwt>
<rscale>  0 0.28107845E+04</rscale>
<asrwt>0</asrwt>
<pdfrwt beam="1">  1        2 0.16770924E+00 0.28107845E+04</pdfrwt>
<pdfrwt beam="2">  1       -2 0.24034883E+00 0.28107845E+04</pdfrwt>
<totfact> 0.14264852E+00</totfact>
</mgrwt>
</event>
<event>
 8    2  0.4306980E-052  0.1281216E+04  0.7818608E-02  0.9044595E-01
          2   -1    0    0  501    0  0.00000000000E+00  0.00000000000E+00  0.19640379618E+04  0.19640379618E+04  0.25500000000E-02 0.  1.
         -2   -1    0    0    0  501 -0.00000000000E+00 -0.00000000000E+00 -0.20894631392E+03  0.20894631393E+03  0.25500000000E-02 0. -1.
    -200001    2    1    2    0    0  0.41091551318E+02 -0.13702984112E+03  0.10766505447E+04  0.12475022265E+04  0.61369350392E+03 0.  0.
   -5000001    2    3    3    0    0  0.59331541628E+02 -0.86031943145E+02 -0.30008216460E+02  0.13492499479E+03  0.79890763484E+02 0.  0.
     200001    1    1    2    0    0 -0.41091551318E+02  0.13702984112E+03  0.67844110310E+03  0.92548204916E+03  0.61300000000E+03 0. -1.
         13    1    4    4    0    0  0.13048275075E+02 -0.73792159419E+02 -0.14358301115E+02  0.76300145800E+02  0.10566000000E+00 0.  1.
    -200003    1    4    4    0    0  0.46283266553E+02 -0.12239783726E+02 -0.15649915345E+02  0.58624848988E+02  0.30000000000E+02 0. -1.
    -200000    1    3    3    0    0 -0.18239990310E+02 -0.50997897971E+02  0.11066587612E+04  0.11125772317E+04  0.10100000000E+03 0.  1.
<mgrwt>
<rscale>  0 0.12812158E+04</rscale>
<asrwt>0</asrwt>
<pdfrwt beam="1">  1        2 0.28057684E+00 0.12812158E+04</pdfrwt>
<pdfrwt beam="2">  1       -2 0.29849475E-01 0.12812158E+04</pdfrwt>
<totfact> 0.85103044E+01</totfact>
</mgrwt>
</event>
<event>
 8    2  0.4306980E-052  0.1350257E+04  0.7818608E-02  0.8990633E-01
         -2   -1    0    0    0  501 -0.00000000000E+00  0.00000000000E+00  0.49391365469E+03  0.49391365470E+03  0.25500000000E-02 0. -1.
          2   -1    0    0  501    0  0.00000000000E+00 -0.00000000000E+00 -0.92283091274E+03  0.92283091275E+03  0.25500000000E-02 0.  1.
    -200001    2    1    2    0    0 -0.25091489978E+03 -0.16176052257E+02 -0.35004669604E+03  0.74950434298E+03  0.61319174745E+03 0.  0.
   -5000001    2    3    3    0    0  0.62401044637E+02 -0.23095117803E+03 -0.67714822529E+02  0.26555442566E+03  0.93281931747E+02 0.  0.
     200001    1    1    2    0    0  0.25091489978E+03  0.16176052257E+02 -0.78870562013E+02  0.66724022447E+03  0.61300000000E+03 0. -1.
         13    1    4    4    0    0  0.12465596800E+02 -0.15769091435E+03 -0.16983947436E+02  0.15909205262E+03  0.10566000000E+00 0.  1.
    -200003    1    4    4    0    0  0.49935447837E+02 -0.73260263683E+02 -0.50730875093E+02  0.10646237304E+03  0.30000000000E+02 0. -1.
    -200000    1    3    3    0    0 -0.31331594441E+03  0.21477512577E+03 -0.28233187351E+03  0.48394991732E+03  0.10100000000E+03 0.  1.
<mgrwt>
<rscale>  0 0.13502574E+04</rscale>
<asrwt>0</asrwt>
<pdfrwt beam="1">  1        2 0.13183299E+00 0.13502574E+04</pdfrwt>
<pdfrwt beam="2">  1       -2 0.70559094E-01 0.13502574E+04</pdfrwt>
<totfact> 0.56156160E+01</totfact>
</mgrwt>
</event>
<event>
 8    2  0.4306980E-052  0.1381905E+04  0.7818608E-02  0.8967022E-01
         -2   -1    0    0    0  501 -0.00000000000E+00  0.00000000000E+00  0.36243929105E+03  0.36243929106E+03  0.25500000000E-02 0. -1.
          2   -1    0    0  501    0  0.00000000000E+00 -0.00000000000E+00 -0.13172282810E+04  0.13172282810E+04  0.25500000000E-02 0.  1.
    -200001    2    1    2    0    0 -0.27664615292E+03 -0.32905689541E+01 -0.63817048068E+03  0.93632363945E+03  0.62681454483E+03 0.  0.
   -5000001    2    3    3    0    0 -0.13687451119E+03  0.22439892885E+03 -0.47727541350E+02  0.28042541270E+03  0.85270058076E+02 0.  0.
     200001    1    1    2    0    0  0.27664615292E+03  0.32905689541E+01 -0.31661850930E+03  0.74334393265E+03  0.61300000000E+03 0. -1.
         13    1    4    4    0    0 -0.83496270542E+02  0.67829245969E+02 -0.27966223095E+02  0.11115104409E+03  0.10566000000E+00 0.  1.
    -200003    1    4    4    0    0 -0.53378240651E+02  0.15656968288E+03 -0.19761318255E+02  0.16927436862E+03  0.30000000000E+02 0.  1.
    -200000    1    3    3    0    0 -0.13977164173E+03 -0.22768949780E+03 -0.59044293933E+03  0.65589822674E+03  0.10100000000E+03 0.  1.
<mgrwt>
<rscale>  0 0.13819049E+04</rscale>
<asrwt>0</asrwt>
<pdfrwt beam="1">  1        2 0.18817547E+00 0.13819049E+04</pdfrwt>
<pdfrwt beam="2">  1       -2 0.51777042E-01 0.13819049E+04</pdfrwt>
<totfact> 0.63101261E+01</totfact>
</mgrwt>
</event>
<event>
 8    2  0.4306980E-052  0.1461784E+04  0.7818608E-02  0.8910271E-01
         -2   -1    0    0    0  501 -0.00000000000E+00  0.00000000000E+00  0.27098370888E+03  0.27098370889E+03  0.25500000000E-02 0. -1.
          2   -1    0    0  501    0  0.00000000000E+00 -0.00000000000E+00 -0.19713476871E+04  0.19713476871E+04  0.25500000000E-02 0.  1.
    -200001    2    1    2    0    0  0.36167121093E+03  0.92194868258E+02 -0.10611795302E+04  0.12812737925E+04  0.61339593865E+03 0.  0.
   -5000001    2    3    3    0    0  0.36425946145E+03  0.11414484381E+03 -0.10850828075E+04  0.11751565596E+04  0.24057065440E+03 0.  0.
     200001    1    1    2    0    0 -0.36167121093E+03 -0.92194868258E+02 -0.63918444799E+03  0.96105760343E+03  0.61300000000E+03 0. -1.
         13    1    4    4    0    0  0.23192252652E+03  0.10602439854E+03 -0.94955696718E+03  0.98320276468E+03  0.10566000000E+00 0.  1.
    -200003    1    4    4    0    0  0.13233693494E+03  0.81204452712E+01 -0.13552584031E+03  0.19195379489E+03  0.30000000000E+02 0.  1.
    -200000    1    3    3    0    0 -0.25882505162E+01 -0.21949975550E+02  0.23903277286E+02  0.10611723297E+03  0.10100000000E+03 0. -1.
<mgrwt>
<rscale>  0 0.14617840E+04</rscale>
<asrwt>0</asrwt>
<pdfrwt beam="1">  1        2 0.28162109E+00 0.14617840E+04</pdfrwt>
<pdfrwt beam="2">  1       -2 0.38711960E-01 0.14617840E+04</pdfrwt>
<totfact> 0.50771445E+01</totfact>
</mgrwt>
</event>
<event>
 8    2  0.4306980E-052  0.1287715E+04  0.7818608E-02  0.9039364E-01
          2   -1    0    0  501    0  0.00000000000E+00  0.00000000000E+00  0.55331281596E+03  0.55331281596E+03  0.25500000000E-02 0.  1.
         -2   -1    0    0    0  501 -0.00000000000E+00 -0.00000000000E+00 -0.74921947498E+03  0.74921947499E+03  0.25500000000E-02 0. -1.
    -200001    2    1    2    0    0 -0.14195139157E+02 -0.70707212684E+02  0.90990481422E+02  0.62188555358E+03  0.61095119456E+03 0.  0.
   -5000001    2    3    3    0    0 -0.65986059198E+02  0.21708436391E+02  0.32634945478E+03  0.34472531485E+03  0.86638096974E+02 0.  0.
     200001    1    1    2    0    0  0.14195139157E+02  0.70707212684E+02 -0.28689714045E+03  0.68064673737E+03  0.61300000000E+03 0. -1.
         13    1    4    4    0    0 -0.67749017295E+02 -0.69962902244E+00  0.25825442896E+03  0.26699397009E+03  0.10566000000E+00 0.  1.
    -200003    1    4    4    0    0  0.17629580965E+01  0.22408065413E+02  0.68095025818E+02  0.77731344759E+02  0.30000000000E+02 0.  1.
    -200000    1    3    3    0    0  0.51790920042E+02 -0.92415649075E+02 -0.23535897335E+03  0.27716023873E+03  0.10100000000E+03 0. -1.
<mgrwt>
<rscale>  0 0.12877154E+04</rscale>
<asrwt>0</asrwt>
<pdfrwt beam="1">  1        2 0.79044688E-01 0.12877154E+04</pdfrwt>
<pdfrwt beam="2">  1       -2 0.10703135E+00 0.12877154E+04</pdfrwt>
<totfact> 0.41168517E+01</totfact>
</mgrwt>
</event>
<event>
 8    2  0.4306980E-052  0.1485875E+04  0.7818608E-02  0.8893901E-01
         -2   -1    0    0    0  501 -0.00000000000E+00  0.00000000000E+00  0.36432432934E+03  0.36432432935E+03  0.25500000000E-02 0. -1.
          2   -1    0    0  501    0  0.00000000000E+00 -0.00000000000E+00 -0.15150130061E+04  0.15150130061E+04  0.25500000000E-02 0.  1.
    -200001    2    1    2    0    0 -0.16399871355E+03  0.25784859235E+03 -0.21179455769E+03  0.71715290886E+03  0.61324537128E+03 0.  0.
   -5000001    2    3    3    0    0 -0.15769053955E+03  0.43307254123E+03 -0.13813408040E+03  0.50181575175E+03  0.14254785969E+03 0.  0.
     200001    1    1    2    0    0  0.16399871355E+03 -0.25784859235E+03 -0.93889411910E+03  0.11621844266E+04  0.61300000000E+03 0.  1.
         13    1    4    4    0    0 -0.14879533733E+02  0.14805299328E+02  0.22338753371E+02  0.30653359987E+02  0.10566000000E+00 0.  1.
    -200003    1    4    4    0    0 -0.14281100582E+03  0.41826724190E+03 -0.16047283377E+03  0.47116239176E+03  0.30000000000E+02 0.  1.
    -200000    1    3    3    0    0 -0.63081739918E+01 -0.17522394888E+03 -0.73660477284E+02  0.21533715711E+03  0.10100000000E+03 0.  1.
<mgrwt>
<rscale>  0 0.14858750E+04</rscale>
<asrwt>0</asrwt>
<pdfrwt beam="1">  1        2 0.21643043E+00 0.14858750E+04</pdfrwt>
<pdfrwt beam="2">  1       -2 0.52046334E-01 0.14858750E+04</pdfrwt>
<totfact> 0.48441234E+01</totfact>
</mgrwt>
</event>
<event>
 8    2  0.4306980E-052  0.1359933E+04  0.7818608E-02  0.8983343E-01
         -2   -1    0    0    0  501 -0.00000000000E+00  0.00000000000E+00  0.44845528541E+03  0.44845528542E+03  0.25500000000E-02 0.  1.
          2   -1    0    0  501    0  0.00000000000E+00 -0.00000000000E+00 -0.10309934922E+04  0.10309934922E+04  0.25500000000E-02 0. -1.
    -200001    2    1    2    0    0 -0.15445952924E+03  0.15669537951E+03 -0.82193363454E+02  0.65815397649E+03  0.61481681796E+03 0.  0.
   -5000001    2    3    3    0    0  0.78346018913E+02  0.13616281598E+03  0.20594049922E+03  0.27365152886E+03  0.88290763340E+02 0.  0.
     200001    1    1    2    0    0  0.15445952924E+03 -0.15669537951E+03 -0.50034484336E+03  0.82129480116E+03  0.61300000000E+03 0. -1.
         13    1    4    4    0    0 -0.13483002073E+02  0.45668223927E+02  0.48671757016E+02  0.68090594920E+02  0.10566000000E+00 0.  1.
    -200003    1    4    4    0    0  0.91829020986E+02  0.90494592048E+02  0.15726874221E+03  0.20556093394E+03  0.30000000000E+02 0.  1.
    -200000    1    3    3    0    0 -0.23280554815E+03  0.20532563535E+02 -0.28813386268E+03  0.38450244764E+03  0.10100000000E+03 0.  1.
<mgrwt>
<rscale>  0 0.13599331E+04</rscale>
<asrwt>0</asrwt>
<pdfrwt beam="1">  1        2 0.14728478E+00 0.13599331E+04</pdfrwt>
<pdfrwt beam="2">  1       -2 0.64065041E-01 0.13599331E+04</pdfrwt>
<totfact> 0.59166170E+01</totfact>
</mgrwt>
</event>
<event>
 8    2  0.4306980E-052  0.1420516E+04  0.7818608E-02  0.8939101E-01
          2   -1    0    0  501    0  0.00000000000E+00  0.00000000000E+00  0.91131309757E+03  0.91131309758E+03  0.25500000000E-02 0.  1.
         -2   -1    0    0    0  501 -0.00000000000E+00 -0.00000000000E+00 -0.55355966841E+03  0.55355966841E+03  0.25500000000E-02 0. -1.
    -200001    2    1    2    0    0 -0.27007344792E+03  0.18108759764E+03  0.24376397758E+02  0.69504055677E+03  0.61380353656E+03 0.  0.
   -5000001    2    3    3    0    0 -0.29588999268E+03  0.51214730210E+02 -0.18767262672E+03  0.42541258259E+03  0.23575626025E+03 0.  0.
     200001    1    1    2    0    0  0.27007344792E+03 -0.18108759764E+03  0.33337703141E+03  0.76983220922E+03  0.61300000000E+03 0.  1.
         13    1    4    4    0    0 -0.19575736467E+03 -0.35642451818E+02 -0.20816962008E+03  0.28796863038E+03  0.10566000000E+00 0.  1.
    -200003    1    4    4    0    0 -0.10013262800E+03  0.86857182028E+02  0.20496993362E+02  0.13744395220E+03  0.30000000000E+02 0.  1.
    -200000    1    3    3    0    0  0.25816544760E+02  0.12987286743E+03  0.21204902448E+03  0.26962797418E+03  0.10100000000E+03 0.  1.
<mgrwt>
<rscale>  0 0.14205156E+04</rscale>
<asrwt>0</asrwt>
<pdfrwt beam="1">  1        2 0.13018759E+00 0.14205156E+04</pdfrwt>
<pdfrwt beam="2">  1       -2 0.79079952E-01 0.14205156E+04</pdfrwt>
<totfact> 0.44160908E+01</totfact>
</mgrwt>
</event>
<event>
 8    2  0.4306980E-052  0.2261647E+04  0.7818608E-02  0.8493199E-01
         -2   -1    0    0    0  501 -0.00000000000E+00  0.00000000000E+00  0.42357965118E+03  0.42357965119E+03  0.25500000000E-02 0. -1.
          2   -1    0    0  501    0  0.00000000000E+00 -0.00000000000E+00 -0.30189396516E+04  0.30189396516E+04  0.25500000000E-02 0.  1.
    -200001    2    1    2    0    0 -0.65366816275E+03 -0.49667600168E+03 -0.20265057939E+04  0.22706262932E+04  0.61241237176E+03 0.  0.
   -5000001    2    3    3    0    0 -0.49563703810E+03 -0.29489241093E+02 -0.12181604190E+04  0.13183340320E+04  0.86971976352E+02 0.  0.
     200001    1    1    2    0    0  0.65366816275E+03  0.49667600168E+03 -0.56885420655E+03  0.11718930096E+04  0.61300000000E+03 0. -1.
         13    1    4    4    0    0 -0.17011794890E+03 -0.41617478514E+02 -0.47937828179E+03  0.51036818012E+03  0.10566000000E+00 0.  1.
    -200003    1    4    4    0    0 -0.32551908920E+03  0.12128237421E+02 -0.73878213716E+03  0.80796585185E+03  0.30000000000E+02 0.  1.
    -200000    1    3    3    0    0 -0.15803112466E+03 -0.46718676059E+03 -0.80834537490E+03  0.95229226121E+03  0.10100000000E+03 0.  1.
<mgrwt>
<rscale>  0 0.22616467E+04</rscale>
<asrwt>0</asrwt>
<pdfrwt beam="1">  1        2 0.43127708E+00 0.22616467E+04</pdfrwt>
<pdfrwt beam="2">  1       -2 0.60511380E-01 0.22616467E+04</pdfrwt>
<totfact> 0.53496896E+00</totfact>
</mgrwt>
</event>
<event>
 8    2  0.4306980E-052  0.1943457E+04  0.7818608E-02  0.8633522E-01
         -2   -1    0    0    0  501 -0.00000000000E+00  0.00000000000E+00  0.88238674481E+03  0.88238674481E+03  0.25500000000E-02 0. -1.
          2   -1    0    0  501    0  0.00000000000E+00 -0.00000000000E+00 -0.10701160786E+04  0.10701160786E+04  0.25500000000E-02 0.  1.
    -200001    2    1    2    0    0 -0.66493684272E+02 -0.59781483025E+02 -0.84593543765E+03  0.10486225708E+04  0.61319433759E+03 0.  0.
   -5000001    2    3    3    0    0 -0.10637134896E+03  0.22646402783E+03 -0.21273785170E+03  0.34529696811E+03  0.10663856177E+03 0.  0.
     200001    1    1    2    0    0  0.66493684272E+02  0.59781483025E+02  0.65820610388E+03  0.90388025255E+03  0.61300000000E+03 0. -1.
         13    1    4    4    0    0 -0.44650021404E+01  0.11198165921E+03 -0.61231454537E+02  0.12770720587E+03  0.10566000000E+00 0.  1.
    -200003    1    4    4    0    0 -0.10190634682E+03  0.11448236862E+03 -0.15150639717E+03  0.21758976223E+03  0.30000000000E+02 0.  1.
    -200000    1    3    3    0    0  0.39877664685E+02 -0.28624551085E+03 -0.63319758594E+03  0.70332560274E+03  0.10100000000E+03 0.  1.
<mgrwt>
<rscale>  0 0.19434570E+04</rscale>
<asrwt>0</asrwt>
<pdfrwt beam="1">  1        2 0.15287372E+00 0.19434570E+04</pdfrwt>
<pdfrwt beam="2">  1       -2 0.12605525E+00 0.19434570E+04</pdfrwt>
<totfact> 0.11194904E+01</totfact>
</mgrwt>
</event>
<event>
 8    2  0.4306980E-052  0.1505098E+04  0.7818608E-02  0.8881070E-01
          2   -1    0    0  501    0  0.00000000000E+00  0.00000000000E+00  0.27945413896E+03  0.27945413897E+03  0.25500000000E-02 0.  1.
         -2   -1    0    0    0  501 -0.00000000000E+00 -0.00000000000E+00 -0.20265585144E+04  0.20265585144E+04  0.25500000000E-02 0. -1.
    -200001    2    1    2    0    0 -0.34042923375E+03  0.23233743825E+03 -0.66572415976E+03  0.99642305381E+03  0.61627712669E+03 0.  0.
   -5000001    2    3    3    0    0  0.15620931048E+03  0.12083492084E+03 -0.24456911172E+03  0.32810035519E+03  0.93985987749E+02 0.  0.
     200001    1    1    2    0    0  0.34042923375E+03 -0.23233743825E+03 -0.10813802157E+04  0.13095895996E+04  0.61300000000E+03 0. -1.
         13    1    4    4    0    0  0.21631878109E+02  0.34067482026E+02 -0.10876342106E+03  0.11600872556E+03  0.10566000000E+00 0.  1.
    -200003    1    4    4    0    0  0.13457743237E+03  0.86767438818E+02 -0.13580569066E+03  0.21209162963E+03  0.30000000000E+02 0.  1.
    -200000    1    3    3    0    0 -0.49663854423E+03  0.11150251740E+03 -0.42115504803E+03  0.66832269862E+03  0.10100000000E+03 0. -1.
<mgrwt>
<rscale>  0 0.15050982E+04</rscale>
<asrwt>0</asrwt>
<pdfrwt beam="1">  1        2 0.39922021E-01 0.15050982E+04</pdfrwt>
<pdfrwt beam="2">  1       -2 0.28950835E+00 0.15050982E+04</pdfrwt>
<totfact> 0.46166835E+00</totfact>
</mgrwt>
</event>
<event>
 8    2  0.4306980E-052  0.1285346E+04  0.7818608E-02  0.9041267E-01
         -2   -1    0    0    0  501 -0.00000000000E+00  0.00000000000E+00  0.25984060625E+03  0.25984060626E+03  0.25500000000E-02 0. -1.
          2   -1    0    0  501    0  0.00000000000E+00 -0.00000000000E+00 -0.15895458530E+04  0.15895458530E+04  0.25500000000E-02 0.  1.
    -200001    2    1    2    0    0 -0.16960532946E+03 -0.84157987908E+02 -0.71771382886E+03  0.96273487589E+03  0.61310420518E+03 0.  0.
   -5000001    2    3    3    0    0 -0.18212986766E+03 -0.23744200472E+03 -0.70678755804E+03  0.77841657169E+03  0.12974479791E+03 0.  0.
     200001    1    1    2    0    0  0.16960532946E+03  0.84157987908E+02 -0.61199141785E+03  0.88665158334E+03  0.61300000000E+03 0. -1.
         13    1    4    4    0    0 -0.80680855941E+02 -0.55143009061E+02 -0.11901602138E+03  0.15399667682E+03  0.10566000000E+00 0.  1.
    -200003    1    4    4    0    0 -0.10144901172E+03 -0.18229899566E+03 -0.58777153666E+03  0.62441989487E+03  0.30000000000E+02 0.  1.
    -200000    1    3    3    0    0  0.12524538195E+02  0.15328401682E+03 -0.10926270819E+02  0.18431830420E+03  0.10100000000E+03 0.  1.
<mgrwt>
<rscale>  0 0.12853460E+04</rscale>
<asrwt>0</asrwt>
<pdfrwt beam="1">  1        2 0.22707797E+00 0.12853460E+04</pdfrwt>
<pdfrwt beam="2">  1       -2 0.37120087E-01 0.12853460E+04</pdfrwt>
<totfact> 0.87941517E+01</totfact>
</mgrwt>
</event>
<event>
 8    2  0.4306980E-052  0.1671593E+04  0.7818608E-02  0.8777734E-01
         -2   -1    0    0    0  501 -0.00000000000E+00  0.00000000000E+00  0.10138548540E+04  0.10138548540E+04  0.25500000000E-02 0. -1.
          2   -1    0    0  501    0  0.00000000000E+00 -0.00000000000E+00 -0.68900965322E+03  0.68900965323E+03  0.25500000000E-02 0.  1.
    -200001    2    1    2    0    0  0.22177661999E+03 -0.40134415501E+03 -0.17845812133E+03  0.78670664204E+03  0.61383877331E+03 0.  0.
   -5000001    2    3    3    0    0  0.21100804121E+02  0.48807718927E+02 -0.25727239071E+03  0.27747174364E+03  0.89297525911E+02 0.  0.
     200001    1    1    2    0    0 -0.22177661999E+03  0.40134415501E+03  0.50330332215E+03  0.91615786523E+03  0.61300000000E+03 0. -1.
         13    1    4    4    0    0 -0.20773800521E+02  0.38116439932E+02 -0.17099729000E+03  0.17642136530E+03  0.10566000000E+00 0.  1.
    -200003    1    4    4    0    0  0.41874604642E+02  0.10691278994E+02 -0.86275100712E+02  0.10105037834E+03  0.30000000000E+02 0.  1.
    -200000    1    3    3    0    0  0.20067581587E+03 -0.45015187394E+03  0.78814269382E+02  0.50923489840E+03  0.10100000000E+03 0.  1.
<mgrwt>
<rscale>  0 0.16715930E+04</rscale>
<asrwt>0</asrwt>
<pdfrwt beam="1">  1        2 0.98429950E-01 0.16715930E+04</pdfrwt>
<pdfrwt beam="2">  1       -2 0.14483641E+00 0.16715930E+04</pdfrwt>
<totfact> 0.14416219E+01</totfact>
</mgrwt>
</event>
<event>
 8    2  0.4306980E-052  0.1324973E+04  0.7818608E-02  0.9009992E-01
         -2   -1    0    0    0  501 -0.00000000000E+00  0.00000000000E+00  0.66729428570E+03  0.66729428571E+03  0.25500000000E-02 0. -1.
          2   -1    0    0  501    0  0.00000000000E+00 -0.00000000000E+00 -0.65771340091E+03  0.65771340091E+03  0.25500000000E-02 0.  1.
    -200001    2    1    2    0    0 -0.45949702660E+02 -0.24453592698E+03  0.45430033240E+02  0.66246458900E+03  0.61227955135E+03 0.  0.
   -5000001    2    3    3    0    0  0.85614186659E+00 -0.40928515360E+03 -0.83776526360E+02  0.42533924283E+03  0.79874246121E+02 0.  0.
     200001    1    1    2    0    0  0.45949702660E+02  0.24453592698E+03 -0.35849148446E+02  0.66254309762E+03  0.61300000000E+03 0. -1.
         13    1    4    4    0    0 -0.32103266243E+02 -0.22658355805E+03 -0.50655882983E+02  0.23438591709E+03  0.10566000000E+00 0.  1.
    -200003    1    4    4    0    0  0.32959408109E+02 -0.18270159554E+03 -0.33120643377E+02  0.19095332575E+03  0.30000000000E+02 0.  1.
    -200000    1    3    3    0    0 -0.46805844527E+02  0.16474922661E+03  0.12920655960E+03  0.23712534617E+03  0.10100000000E+03 0. -1.
<mgrwt>
<rscale>  0 0.13249730E+04</rscale>
<asrwt>0</asrwt>
<pdfrwt beam="1">  1        2 0.93959057E-01 0.13249730E+04</pdfrwt>
<pdfrwt beam="2">  1       -2 0.95327755E-01 0.13249730E+04</pdfrwt>
<totfact> 0.44026664E+01</totfact>
</mgrwt>
</event>
<event>
 8    2  0.4306980E-052  0.1429761E+04  0.7818608E-02  0.8932553E-01
          2   -1    0    0  501    0  0.00000000000E+00  0.00000000000E+00  0.69596339462E+03  0.69596339462E+03  0.25500000000E-02 0.  1.
         -2   -1    0    0    0  501 -0.00000000000E+00 -0.00000000000E+00 -0.73431206700E+03  0.73431206700E+03  0.25500000000E-02 0. -1.
    -200001    2    1    2    0    0 -0.37591702581E+02 -0.36521729171E+03 -0.33596575869E+02  0.71572078304E+03  0.61345798805E+03 0.  0.
   -5000001    2    3    3    0    0 -0.25614083676E+03 -0.72212499133E+02 -0.15395074108E+03  0.31784937466E+03  0.80651230675E+02 0.  0.
     200001    1    1    2    0    0  0.37591702581E+02  0.36521729171E+03 -0.47520965092E+01  0.71455467858E+03  0.61300000000E+03 0.  1.
         13    1    4    4    0    0 -0.10967873253E+03 -0.60968359425E+02 -0.48400332242E+02  0.13449597966E+03  0.10566000000E+00 0.  1.
    -200003    1    4    4    0    0 -0.14646210423E+03 -0.11244139708E+02 -0.10555040884E+03  0.18335339500E+03  0.30000000000E+02 0.  1.
    -200000    1    3    3    0    0  0.21854913418E+03 -0.29300479257E+03  0.12035416521E+03  0.39787140838E+03  0.10100000000E+03 0.  1.
<mgrwt>
<rscale>  0 0.14297613E+04</rscale>
<asrwt>0</asrwt>
<pdfrwt beam="1">  1        2 0.99423342E-01 0.14297613E+04</pdfrwt>
<pdfrwt beam="2">  1       -2 0.10490172E+00 0.14297613E+04</pdfrwt>
<totfact> 0.32498181E+01</totfact>
</mgrwt>
</event>
<event>
 8    2  0.4306980E-052  0.1726409E+04  0.7818608E-02  0.8746444E-01
         -2   -1    0    0    0  501 -0.00000000000E+00  0.00000000000E+00  0.47518069613E+03  0.47518069614E+03  0.25500000000E-02 0. -1.
          2   -1    0    0  501    0  0.00000000000E+00 -0.00000000000E+00 -0.15680810120E+04  0.15680810120E+04  0.25500000000E-02 0.  1.
    -200001    2    1    2    0    0  0.23933086702E+03 -0.54394245735E+03 -0.69425508179E+03  0.11010092560E+04  0.61406726218E+03 0.  0.
   -5000001    2    3    3    0    0 -0.68196837703E+02 -0.33615775812E+03 -0.71338086316E+02  0.36890656266E+03  0.11554255666E+03 0.  0.
     200001    1    1    2    0    0 -0.23933086702E+03  0.54394245735E+03 -0.39864523406E+03  0.94225245208E+03  0.61300000000E+03 0.  1.
         13    1    4    4    0    0 -0.17154414371E+02 -0.21452118466E+03  0.16086673722E+01  0.21521201540E+03  0.10566000000E+00 0.  1.
    -200003    1    4    4    0    0 -0.51042423332E+02 -0.12163657346E+03 -0.72946753688E+02  0.15369454726E+03  0.30000000000E+02 0.  1.
    -200000    1    3    3    0    0  0.30752770473E+03 -0.20778469923E+03 -0.62291699548E+03  0.73210269339E+03  0.10100000000E+03 0. -1.
<mgrwt>
<rscale>  0 0.17264088E+04</rscale>
<asrwt>0</asrwt>
<pdfrwt beam="1">  1        2 0.22401157E+00 0.17264088E+04</pdfrwt>
<pdfrwt beam="2">  1       -2 0.67882958E-01 0.17264088E+04</pdfrwt>
<totfact> 0.25454755E+01</totfact>
</mgrwt>
</event>
<event>
 8    2  0.4306980E-052  0.1364347E+04  0.7818608E-02  0.8980038E-01
         -2   -1    0    0    0  501 -0.00000000000E+00  0.00000000000E+00  0.30626461082E+04  0.30626461082E+04  0.25500000000E-02 0. -1.
          2   -1    0    0  501    0  0.00000000000E+00 -0.00000000000E+00 -0.15194732860E+03  0.15194732862E+03  0.25500000000E-02 0.  1.
    -200001    2    1    2    0    0  0.10720759877E+03  0.27099872963E+03  0.16169593757E+04  0.17536127984E+04  0.61291634283E+03 0.  0.
   -5000001    2    3    3    0    0  0.19402233536E+03  0.11662362789E+02  0.13100550006E+03  0.23933010675E+03  0.48329924760E+02 0.  0.
     200001    1    1    2    0    0 -0.10720759877E+03 -0.27099872963E+03  0.12937394039E+04  0.14609806384E+04  0.61300000000E+03 0.  1.
         13    1    4    4    0    0 -0.17727316758E+01 -0.99547637759E-01  0.18724018928E+01  0.25825452968E+01  0.10566000000E+00 0.  1.
    -200003    1    4    4    0    0  0.19579506703E+03  0.11761910426E+02  0.12913309816E+03  0.23674756145E+03  0.30000000000E+02 0.  1.
    -200000    1    3    3    0    0 -0.86814736588E+02  0.25933636684E+03  0.14859538757E+04  0.15142826917E+04  0.10100000000E+03 0. -1.
<mgrwt>
<rscale>  0 0.13643473E+04</rscale>
<asrwt>0</asrwt>
<pdfrwt beam="1">  1        2 0.21706762E-01 0.13643473E+04</pdfrwt>
<pdfrwt beam="2">  1       -2 0.43752085E+00 0.13643473E+04</pdfrwt>
<totfact> 0.10752071E+00</totfact>
</mgrwt>
</event>
<event>
 8    2  0.4306980E-052  0.1978248E+04  0.7818608E-02  0.8616858E-01
          2   -1    0    0  501    0  0.00000000000E+00  0.00000000000E+00  0.51613607893E+03  0.51613607893E+03  0.25500000000E-02 0.  1.
         -2   -1    0    0    0  501 -0.00000000000E+00 -0.00000000000E+00 -0.18955590420E+04  0.18955590420E+04  0.25500000000E-02 0. -1.
    -200001    2    1    2    0    0 -0.33261330959E+03 -0.23472416057E+03 -0.14956437191E+04  0.16667096785E+04  0.61257160612E+03 0.  0.
   -5000001    2    3    3    0    0 -0.29053365792E+03 -0.39956967483E+03 -0.11342015444E+04  0.12546584847E+04  0.20901922990E+03 0.  0.
     200001    1    1    2    0    0  0.33261330959E+03  0.23472416057E+03  0.11622075605E+03  0.74498544241E+03  0.61300000000E+03 0.  1.
         13    1    4    4    0    0 -0.23745784970E+03 -0.21715838269E+03 -0.52449803135E+03  0.61533908507E+03  0.10566000000E+00 0.  1.
    -200003    1    4    4    0    0 -0.53075808226E+02 -0.18241129215E+03 -0.60970351303E+03  0.63931939961E+03  0.30000000000E+02 0.  1.
    -200000    1    3    3    0    0 -0.42079651667E+02  0.16484551427E+03 -0.36144217475E+03  0.41205119384E+03  0.10100000000E+03 0.  1.
<mgrwt>
<rscale>  0 0.19782481E+04</rscale>
<asrwt>0</asrwt>
<pdfrwt beam="1">  1        2 0.73733727E-01 0.19782481E+04</pdfrwt>
<pdfrwt beam="2">  1       -2 0.27079414E+00 0.19782481E+04</pdfrwt>
<totfact> 0.28976881E+00</totfact>
</mgrwt>
</event>
<event>
 8    2  0.4306980E-052  0.1603577E+04  0.7818608E-02  0.8818354E-01
         -2   -1    0    0    0  501 -0.00000000000E+00  0.00000000000E+00  0.30737427212E+03  0.30737427213E+03  0.25500000000E-02 0. -1.
          2   -1    0    0  501    0  0.00000000000E+00 -0.00000000000E+00 -0.20914714592E+04  0.20914714592E+04  0.25500000000E-02 0.  1.
    -200001    2    1    2    0    0 -0.35312352099E+02 -0.12055530333E+03 -0.14427889684E+03  0.64369514850E+03  0.61461085311E+03 0.  0.
   -5000001    2    3    3    0    0 -0.17206702527E+03  0.15765342373E+03 -0.19383034146E+03  0.31390994248E+03  0.80669619573E+02 0.  0.
     200001    1    1    2    0    0  0.35312352099E+02  0.12055530333E+03 -0.16398182902E+04  0.17551505828E+04  0.61300000000E+03 0. -1.
         13    1    4    4    0    0 -0.53047205835E+01  0.24551955075E+02 -0.46621393148E+02  0.52957568124E+02  0.10566000000E+00 0.  1.
    -200003    1    4    4    0    0 -0.16676230468E+03  0.13310146865E+03 -0.14720894831E+03  0.26095237436E+03  0.30000000000E+02 0.  1.
    -200000    1    3    3    0    0  0.13675467317E+03 -0.27820872706E+03  0.49551444621E+02  0.32978520602E+03  0.10100000000E+03 0. -1.
<mgrwt>
<rscale>  0 0.16035766E+04</rscale>
<asrwt>0</asrwt>
<pdfrwt beam="1">  1        2 0.29878163E+00 0.16035766E+04</pdfrwt>
<pdfrwt beam="2">  1       -2 0.43910612E-01 0.16035766E+04</pdfrwt>
<totfact> 0.33999722E+01</totfact>
</mgrwt>
</event>
<event>
 8    2  0.4306980E-052  0.1961984E+04  0.7818608E-02  0.8624603E-01
          2   -1    0    0  501    0  0.00000000000E+00  0.00000000000E+00  0.19753763088E+04  0.19753763088E+04  0.25500000000E-02 0.  1.
         -2   -1    0    0    0  501 -0.00000000000E+00 -0.00000000000E+00 -0.48717073478E+03  0.48717073479E+03  0.25500000000E-02 0. -1.
    -200001    2    1    2    0    0  0.39317799482E+03 -0.47280414791E+03  0.13160986576E+04  0.15773789869E+04  0.61471627094E+03 0.  0.
   -5000001    2    3    3    0    0  0.30626190909E+03 -0.46140067991E+03  0.13287683657E+04  0.14430437103E+04  0.10031368608E+03 0.  0.
     200001    1    1    2    0    0 -0.39317799482E+03  0.47280414791E+03  0.17210691636E+03  0.88516805667E+03  0.61300000000E+03 0.  1.
         13    1    4    4    0    0  0.13197786587E+03 -0.16489486959E+03  0.61298442497E+03  0.64835051594E+03  0.10566000000E+00 0.  1.
    -200003    1    4    4    0    0  0.17428404322E+03 -0.29650581031E+03  0.71578394076E+03  0.79469319433E+03  0.30000000000E+02 0.  1.
    -200000    1    3    3    0    0  0.86916085733E+02 -0.11403468003E+02 -0.12669708092E+02  0.13433527662E+03  0.10100000000E+03 0. -1.
<mgrwt>
<rscale>  0 0.19619842E+04</rscale>
<asrwt>0</asrwt>
<pdfrwt beam="1">  1        2 0.28219661E+00 0.19619842E+04</pdfrwt>
<pdfrwt beam="2">  1       -2 0.69595821E-01 0.19619842E+04</pdfrwt>
<totfact> 0.14544585E+01</totfact>
</mgrwt>
</event>
<event>
 8    2  0.4306980E-052  0.1361364E+04  0.7818608E-02  0.8982270E-01
          2   -1    0    0  501    0  0.00000000000E+00  0.00000000000E+00  0.18776767032E+04  0.18776767032E+04  0.25500000000E-02 0.  1.
         -2   -1    0    0    0  501 -0.00000000000E+00 -0.00000000000E+00 -0.24675598979E+03  0.24675598980E+03  0.25500000000E-02 0. -1.
    -200001    2    1    2    0    0 -0.84507955833E+02  0.28130300846E+03  0.87105763385E+03  0.11049063928E+04  0.61302835020E+03 0.  0.
   -5000001    2    3    3    0    0  0.53664238471E+02 -0.13934726203E+03  0.43331688009E+03  0.47414798194E+03  0.12147131466E+03 0.  0.
     200001    1    1    2    0    0  0.84507955833E+02 -0.28130300846E+03  0.75986307958E+03  0.10195263002E+04  0.61300000000E+03 0. -1.
         13    1    4    4    0    0  0.26578713816E+01 -0.10523788787E+03  0.15359665926E+03  0.18620961904E+03  0.10566000000E+00 0.  1.
    -200003    1    4    4    0    0  0.51006367089E+02 -0.34109374153E+02  0.27972022083E+03  0.28793836290E+03  0.30000000000E+02 0.  1.
    -200000    1    3    3    0    0 -0.13817219430E+03  0.42065027049E+03  0.43774075376E+03  0.63075841084E+03  0.10100000000E+03 0. -1.
<mgrwt>
<rscale>  0 0.13613640E+04</rscale>
<asrwt>0</asrwt>
<pdfrwt beam="1">  1        2 0.26823951E+00 0.13613640E+04</pdfrwt>
<pdfrwt beam="2">  1       -2 0.35250858E-01 0.13613640E+04</pdfrwt>
<totfact> 0.68466957E+01</totfact>
</mgrwt>
</event>
<event>
 8    2  0.4306980E-052  0.1860936E+04  0.7818608E-02  0.8674549E-01
          2   -1    0    0  501    0  0.00000000000E+00  0.00000000000E+00  0.16585790928E+04  0.16585790928E+04  0.25500000000E-02 0.  1.
         -2   -1    0    0    0  501 -0.00000000000E+00 -0.00000000000E+00 -0.52199564233E+03  0.52199564234E+03  0.25500000000E-02 0. -1.
    -200001    2    1    2    0    0 -0.16047654564E+03 -0.16168452557E+03 -0.21067047093E+03  0.68299110268E+03  0.60844078718E+03 0.  0.
   -5000001    2    3    3    0    0 -0.27080737781E+03 -0.22464878855E+03  0.63720174738E+02  0.36419866649E+03  0.69113630584E+02 0.  0.
     200001    1    1    2    0    0  0.16047654564E+03  0.16168452557E+03  0.13472539214E+04  0.14975836325E+04  0.61300000000E+03 0.  1.
         13    1    4    4    0    0 -0.54712286046E+02 -0.47669333733E+02  0.38493013851E+02  0.82143307106E+02  0.10566000000E+00 0.  1.
    -200003    1    4    4    0    0 -0.21609509177E+03 -0.17697945482E+03  0.25227160887E+02  0.28205535939E+03  0.30000000000E+02 0.  1.
    -200000    1    3    3    0    0  0.11033083217E+03  0.62964262982E+02 -0.27439064566E+03  0.31879243618E+03  0.10100000000E+03 0.  1.
<mgrwt>
<rscale>  0 0.18609364E+04</rscale>
<asrwt>0</asrwt>
<pdfrwt beam="1">  1        2 0.23693987E+00 0.18609364E+04</pdfrwt>
<pdfrwt beam="2">  1       -2 0.74570805E-01 0.18609364E+04</pdfrwt>
<totfact> 0.18378035E+01</totfact>
</mgrwt>
</event>
<event>
 8    2  0.4306980E-052  0.1330686E+04  0.7818608E-02  0.9005578E-01
         -2   -1    0    0    0  501 -0.00000000000E+00  0.00000000000E+00  0.46563406623E+03  0.46563406624E+03  0.25500000000E-02 0. -1.
          2   -1    0    0  501    0  0.00000000000E+00 -0.00000000000E+00 -0.95070715132E+03  0.95070715132E+03  0.25500000000E-02 0.  1.
    -200001    2    1    2    0    0  0.18492874046E+03  0.89548492188E+02 -0.41065493781E+03  0.76555351627E+03  0.61254970152E+03 0.  0.
   -5000001    2    3    3    0    0  0.42421681471E+02 -0.62990312084E+01 -0.52723271541E+03  0.53471507096E+03  0.78144699507E+02 0.  0.
     200001    1    1    2    0    0 -0.18492874046E+03 -0.89548492188E+02 -0.74418147276E+02  0.65078770129E+03  0.61300000000E+03 0. -1.
         13    1    4    4    0    0  0.33334353671E+02 -0.23496206431E+02 -0.41322140488E+03  0.41522908312E+03  0.10566000000E+00 0.  1.
    -200003    1    4    4    0    0  0.90873278007E+01  0.17197175222E+02 -0.11401131053E+03  0.11948598784E+03  0.30000000000E+02 0. -1.
    -200000    1    3    3    0    0  0.14250705899E+03  0.95847523397E+02  0.11657777760E+03  0.23083844531E+03  0.10100000000E+03 0. -1.
<mgrwt>
<rscale>  0 0.13306865E+04</rscale>
<asrwt>0</asrwt>
<pdfrwt beam="1">  1        2 0.13581531E+00 0.13306865E+04</pdfrwt>
<pdfrwt beam="2">  1       -2 0.66519152E-01 0.13306865E+04</pdfrwt>
<totfact> 0.61345841E+01</totfact>
</mgrwt>
</event>
<event>
 8    2  0.4306980E-052  0.1832323E+04  0.7818608E-02  0.8689297E-01
          2   -1    0    0  501    0  0.00000000000E+00  0.00000000000E+00  0.10018506954E+04  0.10018506954E+04  0.25500000000E-02 0.  1.
         -2   -1    0    0    0  501 -0.00000000000E+00 -0.00000000000E+00 -0.83780169977E+03  0.83780169977E+03  0.25500000000E-02 0. -1.
    -200001    2    1    2    0    0 -0.13464040061E+03  0.15647991534E+03  0.73382870268E+03  0.97765940458E+03  0.61212690277E+03 0.  0.
   -5000001    2    3    3    0    0 -0.26475924543E+03 -0.96222287551E+02  0.55432950046E+03  0.62664618442E+03  0.77769265784E+02 0.  0.
     200001    1    1    2    0    0  0.13464040061E+03 -0.15647991534E+03 -0.56977970702E+03  0.86199299064E+03  0.61300000000E+03 0. -1.
         13    1    4    4    0    0 -0.11736443453E+03 -0.54802589952E+02  0.31903126015E+03  0.34432352588E+03  0.10566000000E+00 0.  1.
    -200003    1    4    4    0    0 -0.14739481090E+03 -0.41419697599E+02  0.23529824032E+03  0.28232265854E+03  0.30000000000E+02 0. -1.
    -200000    1    3    3    0    0  0.13011884482E+03  0.25270220290E+03  0.17949920222E+03  0.35101322015E+03  0.10100000000E+03 0. -1.
<mgrwt>
<rscale>  0 0.18323234E+04</rscale>
<asrwt>0</asrwt>
<pdfrwt beam="1">  1        2 0.14312153E+00 0.18323234E+04</pdfrwt>
<pdfrwt beam="2">  1       -2 0.11968596E+00 0.18323234E+04</pdfrwt>
<totfact> 0.14144595E+01</totfact>
</mgrwt>
</event>
<event>
 8    2  0.4306980E-052  0.1267841E+04  0.7818608E-02  0.9055464E-01
         -2   -1    0    0    0  501 -0.00000000000E+00  0.00000000000E+00  0.20799569608E+03  0.20799569609E+03  0.25500000000E-02 0. -1.
          2   -1    0    0  501    0  0.00000000000E+00 -0.00000000000E+00 -0.19320358443E+04  0.19320358443E+04  0.25500000000E-02 0.  1.
    -200001    2    1    2    0    0  0.12249212459E+03  0.10540415774E+03 -0.85754969236E+03  0.10663979590E+04  0.61294271753E+03 0.  0.
   -5000001    2    3    3    0    0  0.75114425460E+02 -0.44605000538E+02 -0.87152056362E+03  0.87893175085E+03  0.73083150287E+02 0.  0.
     200001    1    1    2    0    0 -0.12249212459E+03 -0.10540415774E+03 -0.86649045585E+03  0.10736335814E+04  0.61300000000E+03 0. -1.
         13    1    4    4    0    0 -0.60779124221E+01 -0.23768037568E+02 -0.21751185623E+03  0.21889102173E+03  0.10566000000E+00 0.  1.
    -200003    1    4    4    0    0  0.81192337883E+02 -0.20836962970E+02 -0.65400870739E+03  0.66004072912E+03  0.30000000000E+02 0.  1.
    -200000    1    3    3    0    0  0.47377699128E+02  0.15000915828E+03  0.13970871259E+02  0.18746620812E+03  0.10100000000E+03 0. -1.
<mgrwt>
<rscale>  0 0.12678409E+04</rscale>
<asrwt>0</asrwt>
<pdfrwt beam="1">  1        2 0.27600511E+00 0.12678409E+04</pdfrwt>
<pdfrwt beam="2">  1       -2 0.29713672E-01 0.12678409E+04</pdfrwt>
<totfact> 0.89222002E+01</totfact>
</mgrwt>
</event>
<event>
 8    2  0.4306980E-052  0.1271983E+04  0.7818608E-02  0.9052083E-01
          2   -1    0    0  501    0  0.00000000000E+00  0.00000000000E+00  0.33362685057E+04  0.33362685057E+04  0.25500000000E-02 0.  1.
         -2   -1    0    0    0  501 -0.00000000000E+00 -0.00000000000E+00 -0.12123871633E+03  0.12123871636E+03  0.25500000000E-02 0. -1.
    -200001    2    1    2    0    0 -0.19600625199E+02 -0.40228356519E+02  0.20532275877E+04  0.21431420289E+04  0.61262690438E+03 0.  0.
   -5000001    2    3    3    0    0  0.54304068522E+02  0.28029217662E+02  0.19608512405E+04  0.19732732863E+04  0.21245071495E+03 0.  0.
     200001    1    1    2    0    0  0.19600625199E+02  0.40228356519E+02  0.11618022016E+04  0.13143651931E+04  0.61300000000E+03 0. -1.
         13    1    4    4    0    0  0.10113452762E+03 -0.11561857660E+02  0.47172481668E+03  0.48258282509E+03  0.10566000000E+00 0.  1.
    -200003    1    4    4    0    0 -0.46830459093E+02  0.39591075322E+02  0.14891264238E+04  0.14906904612E+04  0.30000000000E+02 0.  1.
    -200000    1    3    3    0    0 -0.73904693721E+02 -0.68257574182E+02  0.92376347251E+02  0.16986874262E+03  0.10100000000E+03 0. -1.
<mgrwt>
<rscale>  0 0.12719826E+04</rscale>
<asrwt>0</asrwt>
<pdfrwt beam="1">  1        2 0.47660972E+00 0.12719826E+04</pdfrwt>
<pdfrwt beam="2">  1       -2 0.17319819E-01 0.12719826E+04</pdfrwt>
<totfact> 0.41323101E+01</totfact>
</mgrwt>
</event>
<event>
 8    2  0.4306980E-052  0.1458410E+04  0.7818608E-02  0.8912591E-01
         -2   -1    0    0    0  501 -0.00000000000E+00  0.00000000000E+00  0.33899173432E+03  0.33899173433E+03  0.25500000000E-02 0. -1.
          2   -1    0    0  501    0  0.00000000000E+00 -0.00000000000E+00 -0.15685919007E+04  0.15685919007E+04  0.25500000000E-02 0.  1.
    -200001    2    1    2    0    0 -0.20451989035E+03 -0.21938780155E+03 -0.94970855455E+03  0.11699741805E+04  0.61394938832E+03 0.  0.
   -5000001    2    3    3    0    0  0.35423243876E+02 -0.18144113828E+03 -0.84551655509E+03  0.88700840577E+03  0.19419056132E+03 0.  0.
     200001    1    1    2    0    0  0.20451989035E+03  0.21938780155E+03 -0.27989161178E+03  0.73760945450E+03  0.61300000000E+03 0.  1.
         13    1    4    4    0    0 -0.13664281082E+02  0.88187796310E+01 -0.38603077817E+03  0.38637320858E+03  0.10566000000E+00 0.  1.
    -200003    1    4    4    0    0  0.49087524958E+02 -0.19025991791E+03 -0.45948577692E+03  0.50063519719E+03  0.30000000000E+02 0.  1.
    -200000    1    3    3    0    0 -0.23994313422E+03 -0.37946663269E+02 -0.10419199946E+03  0.28296577472E+03  0.10100000000E+03 0. -1.
<mgrwt>
<rscale>  0 0.14584097E+04</rscale>
<asrwt>0</asrwt>
<pdfrwt beam="1">  1        2 0.22408455E+00 0.14584097E+04</pdfrwt>
<pdfrwt beam="2">  1       -2 0.48427391E-01 0.14584097E+04</pdfrwt>
<totfact> 0.52674572E+01</totfact>
</mgrwt>
</event>
<event>
 8    2  0.4306980E-052  0.1651487E+04  0.7818608E-02  0.8789527E-01
          2   -1    0    0  501    0  0.00000000000E+00  0.00000000000E+00  0.20393563247E+04  0.20393563247E+04  0.25500000000E-02 0.  1.
         -2   -1    0    0    0  501 -0.00000000000E+00 -0.00000000000E+00 -0.33434673854E+03  0.33434673855E+03  0.25500000000E-02 0. -1.
    -200001    2    1    2    0    0 -0.52990666392E+03  0.83016485508E+01  0.10887160106E+04  0.13556378585E+04  0.60957482054E+03 0.  0.
   -5000001    2    3    3    0    0 -0.52274175379E+03 -0.90622532119E+01  0.40798774100E+03  0.66720135595E+03  0.73229686506E+02 0.  0.
     200001    1    1    2    0    0  0.52990666392E+03 -0.83016485508E+01  0.61629357558E+03  0.10180652048E+04  0.61300000000E+03 0. -1.
         13    1    4    4    0    0 -0.42540978171E+03 -0.52535551693E+01  0.34101166603E+03  0.54524311068E+03  0.10566000000E+00 0.  1.
    -200003    1    4    4    0    0 -0.97331972083E+02 -0.38086980426E+01  0.66976074976E+02  0.12195824527E+03  0.30000000000E+02 0.  1.
    -200000    1    3    3    0    0 -0.71649101240E+01  0.17363901763E+02  0.68072826956E+03  0.68843650252E+03  0.10100000000E+03 0.  1.
<mgrwt>
<rscale>  0 0.16514868E+04</rscale>
<asrwt>0</asrwt>
<pdfrwt beam="1">  1        2 0.29133662E+00 0.16514868E+04</pdfrwt>
<pdfrwt beam="2">  1       -2 0.47763819E-01 0.16514868E+04</pdfrwt>
<totfact> 0.30438822E+01</totfact>
</mgrwt>
</event>
<event>
 8    2  0.4306980E-052  0.1465951E+04  0.7818608E-02  0.8907416E-01
         -2   -1    0    0    0  501 -0.00000000000E+00  0.00000000000E+00  0.31839886862E+03  0.31839886863E+03  0.25500000000E-02 0. -1.
          2   -1    0    0  501    0  0.00000000000E+00 -0.00000000000E+00 -0.16873597234E+04  0.16873597234E+04  0.25500000000E-02 0.  1.
    -200001    2    1    2    0    0 -0.39667603040E+03 -0.49767695232E+02 -0.62983729432E+03  0.96561372990E+03  0.61309555655E+03 0.  0.
   -5000001    2    3    3    0    0 -0.44175874964E+03  0.12656925950E+03 -0.58536485738E+03  0.75276173712E+03  0.11325919955E+03 0.  0.
     200001    1    1    2    0    0  0.39667603040E+03  0.49767695232E+02 -0.73912356044E+03  0.10401448621E+04  0.61300000000E+03 0. -1.
         13    1    4    4    0    0 -0.73214056321E+02 -0.19411794962E+02 -0.94773638490E+02  0.12132258464E+03  0.10566000000E+00 0.  1.
    -200003    1    4    4    0    0 -0.36854469332E+03  0.14598105447E+03 -0.49059121889E+03  0.63143915249E+03  0.30000000000E+02 0.  1.
    -200000    1    3    3    0    0  0.45082719246E+02 -0.17633695474E+03 -0.44472436942E+02  0.21285199277E+03  0.10100000000E+03 0. -1.
<mgrwt>
<rscale>  0 0.14659515E+04</rscale>
<asrwt>0</asrwt>
<pdfrwt beam="1">  1        2 0.24105138E+00 0.14659515E+04</pdfrwt>
<pdfrwt beam="2">  1       -2 0.45485554E-01 0.14659515E+04</pdfrwt>
<totfact> 0.51757859E+01</totfact>
</mgrwt>
</event>
<event>
 8    2  0.4306980E-052  0.1543164E+04  0.7818608E-02  0.8856246E-01
          2   -1    0    0  501    0  0.00000000000E+00  0.00000000000E+00  0.25583955267E+04  0.25583955267E+04  0.25500000000E-02 0.  1.
         -2   -1    0    0    0  501 -0.00000000000E+00 -0.00000000000E+00 -0.23270003224E+03  0.23270003225E+03  0.25500000000E-02 0. -1.
    -200001    2    1    2    0    0 -0.36940604543E+00  0.18252287922E+03  0.38497063874E+03  0.74769234286E+03  0.61443202145E+03 0.  0.
   -5000001    2    3    3    0    0  0.15835609995E+03  0.34223970644E+03  0.19212036380E+03  0.43449036379E+03  0.98320755604E+02 0.  0.
     200001    1    1    2    0    0  0.36940604543E+00 -0.18252287922E+03  0.19407248557E+04  0.20434032160E+04  0.61300000000E+03 0.  1.
         13    1    4    4    0    0  0.90113804079E+02  0.25329753570E+03  0.16455209523E+03  0.31521031469E+03  0.10566000000E+00 0.  1.
    -200003    1    4    4    0    0  0.68242295869E+02  0.88942170740E+02  0.27568268576E+02  0.11928004910E+03  0.30000000000E+02 0.  1.
    -200000    1    3    3    0    0 -0.15872550599E+03 -0.15971682722E+03  0.19285027493E+03  0.31320197907E+03  0.10100000000E+03 0.  1.
<mgrwt>
<rscale>  0 0.15431639E+04</rscale>
<asrwt>0</asrwt>
<pdfrwt beam="1">  1        2 0.36548506E+00 0.15431639E+04</pdfrwt>
<pdfrwt beam="2">  1       -2 0.33242863E-01 0.15431639E+04</pdfrwt>
<totfact> 0.33521342E+01</totfact>
</mgrwt>
</event>
<event>
 8    2  0.4306980E-052  0.1358207E+04  0.7818608E-02  0.8984639E-01
          2   -1    0    0  501    0  0.00000000000E+00  0.00000000000E+00  0.22428438402E+04  0.22428438402E+04  0.25500000000E-02 0.  1.
         -2   -1    0    0    0  501 -0.00000000000E+00 -0.00000000000E+00 -0.20562361674E+03  0.20562361676E+03  0.25500000000E-02 0. -1.
    -200001    2    1    2    0    0 -0.50522244030E+02 -0.14931312940E+03  0.14623156925E+04  0.15934053963E+04  0.61296546793E+03 0.  0.
   -5000001    2    3    3    0    0  0.12429516638E+03  0.14736688215E+03  0.31780893701E+03  0.39395682739E+03  0.13051120669E+03 0.  0.
     200001    1    1    2    0    0  0.50522244030E+02  0.14931312940E+03  0.57490453096E+03  0.85506206059E+03  0.61300000000E+03 0. -1.
         13    1    4    4    0    0 -0.22759326441E+02  0.19511121064E+01  0.43293618242E+02  0.48950406770E+02  0.10566000000E+00 0.  1.
    -200003    1    4    4    0    0  0.14705449282E+03  0.14541577004E+03  0.27451531876E+03  0.34500642062E+03  0.30000000000E+02 0.  1.
    -200000    1    3    3    0    0 -0.17481741041E+03 -0.29668001154E+03  0.11445067555E+04  0.11994485689E+04  0.10100000000E+03 0.  1.
<mgrwt>
<rscale>  0 0.13582071E+04</rscale>
<asrwt>0</asrwt>
<pdfrwt beam="1">  1        2 0.32040625E+00 0.13582071E+04</pdfrwt>
<pdfrwt beam="2">  1       -2 0.29374803E-01 0.13582071E+04</pdfrwt>
<totfact> 0.62678258E+01</totfact>
</mgrwt>
</event>
<event>
 8    2  0.4306980E-052  0.1576118E+04  0.7818608E-02  0.8835356E-01
         -2   -1    0    0    0  501 -0.00000000000E+00  0.00000000000E+00  0.18945653049E+03  0.18945653050E+03  0.25500000000E-02 0. -1.
          2   -1    0    0  501    0  0.00000000000E+00 -0.00000000000E+00 -0.32779910028E+04  0.32779910028E+04  0.25500000000E-02 0.  1.
    -200001    2    1    2    0    0  0.18772678872E+03 -0.41360110091E+03 -0.11058146387E+04  0.13430054521E+04  0.61198889801E+03 0.  0.
   -5000001    2    3    3    0    0 -0.14502990111E+03 -0.36472253935E+03 -0.55175262013E+03  0.68703148246E+03  0.11629746835E+03 0.  0.
     200001    1    1    2    0    0 -0.18772678872E+03  0.41360110091E+03 -0.19827198336E+04  0.21244420812E+04  0.61300000000E+03 0.  1.
         13    1    4    4    0    0 -0.30299744400E+02 -0.17823343310E+03 -0.18381656847E+03  0.25782508255E+03  0.10566000000E+00 0.  1.
    -200003    1    4    4    0    0 -0.11473015671E+03 -0.18648910625E+03 -0.36793605167E+03  0.42920639991E+03  0.30000000000E+02 0.  1.
    -200000    1    3    3    0    0  0.33275668982E+03 -0.48878561557E+02 -0.55406201858E+03  0.65597396963E+03  0.10100000000E+03 0.  1.
<mgrwt>
<rscale>  0 0.15761178E+04</rscale>
<asrwt>0</asrwt>
<pdfrwt beam="1">  1        2 0.46828439E+00 0.15761178E+04</pdfrwt>
<pdfrwt beam="2">  1       -2 0.27065221E-01 0.15761178E+04</pdfrwt>
<totfact> 0.19637031E+01</totfact>
</mgrwt>
</event>
<event>
 8    2  0.4306980E-052  0.1458770E+04  0.7818608E-02  0.8912343E-01
         -2   -1    0    0    0  501 -0.00000000000E+00  0.00000000000E+00  0.59451896781E+03  0.59451896782E+03  0.25500000000E-02 0. -1.
          2   -1    0    0  501    0  0.00000000000E+00 -0.00000000000E+00 -0.89484545894E+03  0.89484545894E+03  0.25500000000E-02 0.  1.
    -200001    2    1    2    0    0 -0.59946760872E+02 -0.29537830086E+03 -0.41508192879E+03  0.79670306272E+03  0.60959068873E+03 0.  0.
   -5000001    2    3    3    0    0 -0.20011168218E+03 -0.25109983469E+03 -0.48621592409E+03  0.60469308116E+03  0.16171575447E+03 0.  0.
     200001    1    1    2    0    0  0.59946760872E+02  0.29537830086E+03  0.11475543767E+03  0.69266136404E+03  0.61300000000E+03 0. -1.
         13    1    4    4    0    0 -0.11797018917E+03 -0.12704142756E+03 -0.12755106595E+03  0.21523423389E+03  0.10566000000E+00 0.  1.
    -200003    1    4    4    0    0 -0.82141493009E+02 -0.12405840712E+03 -0.35866485814E+03  0.38945884727E+03  0.30000000000E+02 0.  1.
    -200000    1    3    3    0    0  0.14016492131E+03 -0.44278466171E+02  0.71133995293E+02  0.19200998156E+03  0.10100000000E+03 0. -1.
<mgrwt>
<rscale>  0 0.14587702E+04</rscale>
<asrwt>0</asrwt>
<pdfrwt beam="1">  1        2 0.12783507E+00 0.14587702E+04</pdfrwt>
<pdfrwt beam="2">  1       -2 0.84931281E-01 0.14587702E+04</pdfrwt>
<totfact> 0.38417622E+01</totfact>
</mgrwt>
</event>
<event>
 8    2  0.4306980E-052  0.1336780E+04  0.7818608E-02  0.9000896E-01
         -2   -1    0    0    0  501 -0.00000000000E+00  0.00000000000E+00  0.25260786838E+03  0.25260786840E+03  0.25500000000E-02 0. -1.
          2   -1    0    0  501    0  0.00000000000E+00 -0.00000000000E+00 -0.17685334306E+04  0.17685334306E+04  0.25500000000E-02 0.  1.
    -200001    2    1    2    0    0  0.25118108024E+03  0.52055598689E+02 -0.90313338038E+03  0.11172137695E+04  0.60556996594E+03 0.  0.
   -5000001    2    3    3    0    0  0.35673692819E+03  0.23277160331E+02 -0.76220052615E+03  0.91219351455E+03  0.35120407715E+03 0.  0.
     200001    1    1    2    0    0 -0.25118108024E+03 -0.52055598689E+02 -0.61279218188E+03  0.90392752950E+03  0.61300000000E+03 0. -1.
         13    1    4    4    0    0 -0.29296041573E+02  0.68961377256E+02 -0.29158285639E+03  0.30105564753E+03  0.10566000000E+00 0.  1.
    -200003    1    4    4    0    0  0.38603296976E+03 -0.45684216926E+02 -0.47061766976E+03  0.61113786702E+03  0.30000000000E+02 0.  1.
    -200000    1    3    3    0    0 -0.10555584795E+03  0.28778438358E+02 -0.14093285423E+03  0.20502025498E+03  0.10100000000E+03 0.  1.
<mgrwt>
<rscale>  0 0.13367804E+04</rscale>
<asrwt>0</asrwt>
<pdfrwt beam="1">  1        2 0.25264763E+00 0.13367804E+04</pdfrwt>
<pdfrwt beam="2">  1       -2 0.36086839E-01 0.13367804E+04</pdfrwt>
<totfact> 0.74649194E+01</totfact>
</mgrwt>
</event>
<event>
 8    2  0.4306980E-052  0.1324776E+04  0.7818608E-02  0.9010145E-01
         -2   -1    0    0    0  501 -0.00000000000E+00  0.00000000000E+00  0.42448535449E+03  0.42448535450E+03  0.25500000000E-02 0. -1.
          2   -1    0    0  501    0  0.00000000000E+00 -0.00000000000E+00 -0.10336230217E+04  0.10336230217E+04  0.25500000000E-02 0.  1.
    -200001    2    1    2    0    0  0.22027139418E+03 -0.11490419798E+03 -0.34702819512E+03  0.74663607374E+03  0.61262908566E+03 0.  0.
   -5000001    2    3    3    0    0  0.38752014745E+03 -0.81063859519E+02 -0.76817694971E+02  0.41147636797E+03  0.81661674866E+02 0.  0.
     200001    1    1    2    0    0 -0.22027139418E+03  0.11490419798E+03 -0.26210947208E+03  0.71147230245E+03  0.61300000000E+03 0. -1.
         13    1    4    4    0    0  0.15899275655E+03 -0.15615945649E+02  0.34341346404E+00  0.15975820320E+03  0.10566000000E+00 0.  1.
    -200003    1    4    4    0    0  0.22852739090E+03 -0.65447913870E+02 -0.77161108435E+02  0.25171816477E+03  0.30000000000E+02 0.  1.
    -200000    1    3    3    0    0 -0.16724875327E+03 -0.33840338458E+02 -0.27021050015E+03  0.33515970576E+03  0.10100000000E+03 0.  1.
<mgrwt>
<rscale>  0 0.13247760E+04</rscale>
<asrwt>0</asrwt>
<pdfrwt beam="1">  1        2 0.14766043E+00 0.13247760E+04</pdfrwt>
<pdfrwt beam="2">  1       -2 0.60640765E-01 0.13247760E+04</pdfrwt>
<totfact> 0.66426702E+01</totfact>
</mgrwt>
</event>
<event>
 8    2  0.4306980E-052  0.2009237E+04  0.7818608E-02  0.8602314E-01
          2   -1    0    0  501    0  0.00000000000E+00  0.00000000000E+00  0.18465934850E+04  0.18465934850E+04  0.25500000000E-02 0.  1.
         -2   -1    0    0    0  501 -0.00000000000E+00 -0.00000000000E+00 -0.54655164534E+03  0.54655164534E+03  0.25500000000E-02 0. -1.
    -200001    2    1    2    0    0  0.66273670832E+03  0.39756393131E+03  0.42590577055E+03  0.10751315146E+04  0.61419461429E+03 0.  0.
   -5000001    2    3    3    0    0  0.19096993144E+02 -0.11471815354E+03  0.58540695040E+01  0.14596551813E+03  0.88015410312E+02 0.  0.
     200001    1    1    2    0    0 -0.66273670832E+03 -0.39756393131E+03  0.87413606912E+03  0.13180136158E+04  0.61300000000E+03 0.  1.
         13    1    4    4    0    0 -0.18150464883E+02  0.16139427830E+01  0.86134492462E+01  0.20155566446E+02  0.10566000000E+00 0.  1.
    -200003    1    4    4    0    0  0.37247458027E+02 -0.11633209633E+03 -0.27593797422E+01  0.12580995168E+03  0.30000000000E+02 0.  1.
    -200000    1    3    3    0    0  0.64363971518E+03  0.51228208485E+03  0.42005170104E+03  0.92916599645E+03  0.10100000000E+03 0. -1.
<mgrwt>
<rscale>  0 0.20092374E+04</rscale>
<asrwt>0</asrwt>
<pdfrwt beam="1">  1        2 0.26379907E+00 0.20092374E+04</pdfrwt>
<pdfrwt beam="2">  1       -2 0.78078807E-01 0.20092374E+04</pdfrwt>
<totfact> 0.13098299E+01</totfact>
</mgrwt>
</event>
<event>
 8    2  0.4306980E-052  0.1451048E+04  0.7818608E-02  0.8917675E-01
         -2   -1    0    0    0  501 -0.00000000000E+00  0.00000000000E+00  0.86965996005E+03  0.86965996005E+03  0.25500000000E-02 0. -1.
          2   -1    0    0  501    0  0.00000000000E+00 -0.00000000000E+00 -0.60527653205E+03  0.60527653206E+03  0.25500000000E-02 0.  1.
    -200001    2    1    2    0    0 -0.72065740594E+02  0.36106729325E+03  0.25744318808E+03  0.75982794920E+03  0.61277928822E+03 0.  0.
   -5000001    2    3    3    0    0  0.17959210667E+03 -0.22705095799E+02 -0.61980747007E+01  0.22101384941E+03  0.12664856632E+03 0.  0.
     200001    1    1    2    0    0  0.72065740594E+02 -0.36106729325E+03  0.69402399190E+01  0.71510854292E+03  0.61300000000E+03 0.  1.
         13    1    4    4    0    0  0.16858938429E+03  0.61145343394E+01  0.21160892844E+02  0.17002224142E+03  0.10566000000E+00 0.  1.
    -200003    1    4    4    0    0  0.11002722375E+02 -0.28819630138E+02 -0.27358967545E+02  0.50991607997E+02  0.30000000000E+02 0.  1.
    -200000    1    3    3    0    0 -0.25165784726E+03  0.38377238905E+03  0.26364126278E+03  0.53881409978E+03  0.10100000000E+03 0. -1.
<mgrwt>
<rscale>  0 0.14510476E+04</rscale>
<asrwt>0</asrwt>
<pdfrwt beam="1">  1        2 0.86468076E-01 0.14510476E+04</pdfrwt>
<pdfrwt beam="2">  1       -2 0.12423714E+00 0.14510476E+04</pdfrwt>
<totfact> 0.25395169E+01</totfact>
</mgrwt>
</event>
<event>
 8    2  0.4306980E-052  0.1973446E+04  0.7818608E-02  0.8619137E-01
          2   -1    0    0  501    0  0.00000000000E+00  0.00000000000E+00  0.27765055074E+04  0.27765055074E+04  0.25500000000E-02 0.  1.
         -2   -1    0    0    0  501 -0.00000000000E+00 -0.00000000000E+00 -0.35066462741E+03  0.35066462742E+03  0.25500000000E-02 0. -1.
    -200001    2    1    2    0    0  0.55292973829E+03 -0.53837487876E+03  0.11388170248E+04  0.15061278129E+04  0.61313780449E+03 0.  0.
   -5000001    2    3    3    0    0  0.53096675706E+03 -0.54020306097E+03  0.63493171358E+03  0.99174748507E+03  0.81729731776E+02 0.  0.
     200001    1    1    2    0    0 -0.55292973829E+03  0.53837487876E+03  0.12870238551E+04  0.16210423219E+04  0.61300000000E+03 0. -1.
         13    1    4    4    0    0  0.13833901626E+03 -0.16652114212E+03  0.21825967527E+03  0.30741547002E+03  0.10566000000E+00 0.  1.
    -200003    1    4    4    0    0  0.39262774081E+03 -0.37368191885E+03  0.41667203831E+03  0.68433201506E+03  0.30000000000E+02 0.  1.
    -200000    1    3    3    0    0  0.21962981225E+02  0.18281822108E+01  0.50388531126E+03  0.51438032787E+03  0.10100000000E+03 0.  1.
<mgrwt>
<rscale>  0 0.19734460E+04</rscale>
<asrwt>0</asrwt>
<pdfrwt beam="1">  1        2 0.39664368E+00 0.19734460E+04</pdfrwt>
<pdfrwt beam="2">  1       -2 0.50094942E-01 0.19734460E+04</pdfrwt>
<totfact> 0.11044425E+01</totfact>
</mgrwt>
</event>
<event>
 8    2  0.4306980E-052  0.1362200E+04  0.7818608E-02  0.8981644E-01
          2   -1    0    0  501    0  0.00000000000E+00  0.00000000000E+00  0.21968055931E+03  0.21968055932E+03  0.25500000000E-02 0.  1.
         -2   -1    0    0    0  501 -0.00000000000E+00 -0.00000000000E+00 -0.21116905050E+04  0.21116905050E+04  0.25500000000E-02 0. -1.
    -200001    2    1    2    0    0  0.89988589639E+01  0.81686034538E+02 -0.14341226449E+04  0.15618365505E+04  0.61308405811E+03 0.  0.
   -5000001    2    3    3    0    0 -0.24246545438E+03  0.19271781233E+03 -0.81082108136E+03  0.87316522424E+03  0.95168435382E+02 0.  0.
     200001    1    1    2    0    0 -0.89988589639E+01 -0.81686034538E+02 -0.45788730085E+03  0.76953451383E+03  0.61300000000E+03 0.  1.
         13    1    4    4    0    0 -0.58534912145E+02  0.73131296278E+02 -0.15649666824E+03  0.18238898204E+03  0.10566000000E+00 0.  1.
    -200003    1    4    4    0    0 -0.18393054223E+03  0.11958651605E+03 -0.65432441312E+03  0.69077624220E+03  0.30000000000E+02 0.  1.
    -200000    1    3    3    0    0  0.25146431334E+03 -0.11103177779E+03 -0.62330156351E+03  0.68867132628E+03  0.10100000000E+03 0.  1.
<mgrwt>
<rscale>  0 0.13622002E+04</rscale>
<asrwt>0</asrwt>
<pdfrwt beam="1">  1        2 0.31382938E-01 0.13622002E+04</pdfrwt>
<pdfrwt beam="2">  1       -2 0.30167006E+00 0.13622002E+04</pdfrwt>
<totfact> 0.51634293E+00</totfact>
</mgrwt>
</event>
<event>
 8    2  0.4306980E-052  0.1598715E+04  0.7818608E-02  0.8821338E-01
         -2   -1    0    0    0  501 -0.00000000000E+00  0.00000000000E+00  0.53439046090E+03  0.53439046091E+03  0.25500000000E-02 0. -1.
          2   -1    0    0  501    0  0.00000000000E+00 -0.00000000000E+00 -0.11957027368E+04  0.11957027368E+04  0.25500000000E-02 0.  1.
    -200001    2    1    2    0    0 -0.13029905592E+03 -0.34095655879E+03 -0.72102205049E+03  0.10141578122E+04  0.61271041433E+03 0.  0.
   -5000001    2    3    3    0    0 -0.23140735655E+03  0.32846739708E+02 -0.50342093019E+03  0.55863279426E+03  0.63322135938E+02 0.  0.
     200001    1    1    2    0    0  0.13029905592E+03  0.34095655879E+03  0.59709774634E+02  0.71593538545E+03  0.61300000000E+03 0. -1.
         13    1    4    4    0    0 -0.12301858294E+03  0.39087183435E+01 -0.21544016079E+03  0.24811957575E+03  0.10566000000E+00 0.  1.
    -200003    1    4    4    0    0 -0.10838877361E+03  0.28938021365E+02 -0.28798076940E+03  0.31051321851E+03  0.30000000000E+02 0.  1.
    -200000    1    3    3    0    0  0.10110830063E+03 -0.37380329850E+03 -0.21760112031E+03  0.45552501796E+03  0.10100000000E+03 0. -1.
<mgrwt>
<rscale>  0 0.15987147E+04</rscale>
<asrwt>0</asrwt>
<pdfrwt beam="1">  1        2 0.17081468E+00 0.15987147E+04</pdfrwt>
<pdfrwt beam="2">  1       -2 0.76341495E-01 0.15987147E+04</pdfrwt>
<totfact> 0.31714073E+01</totfact>
</mgrwt>
</event>
<event>
 8    2  0.4306980E-052  0.1590027E+04  0.7818608E-02  0.8826699E-01
          2   -1    0    0  501    0  0.00000000000E+00  0.00000000000E+00  0.70118788025E+03  0.70118788026E+03  0.25500000000E-02 0.  1.
         -2   -1    0    0    0  501 -0.00000000000E+00 -0.00000000000E+00 -0.90139344368E+03  0.90139344369E+03  0.25500000000E-02 0. -1.
    -200001    2    1    2    0    0  0.80056874220E+02 -0.46691994578E+03  0.79401017287E+02  0.77894780176E+03  0.61321433239E+03 0.  0.
   -5000001    2    3    3    0    0 -0.15540246314E+03  0.10254405172E+02 -0.98747278107E+02  0.20879494866E+03  0.97924599956E+02 0.  0.
     200001    1    1    2    0    0 -0.80056874220E+02  0.46691994578E+03 -0.27960658072E+03  0.82363352218E+03  0.61300000000E+03 0. -1.
         13    1    4    4    0    0  0.12667236656E+02  0.23607702617E+01 -0.46797640148E+01  0.13709247827E+02  0.10566000000E+00 0.  1.
    -200003    1    4    4    0    0 -0.16806969980E+03  0.78936349098E+01 -0.94067514093E+02  0.19508570083E+03  0.30000000000E+02 0.  1.
    -200000    1    3    3    0    0  0.23545933736E+03 -0.47717435095E+03  0.17814829539E+03  0.57015285311E+03  0.10100000000E+03 0.  1.
<mgrwt>
<rscale>  0 0.15900266E+04</rscale>
<asrwt>0</asrwt>
<pdfrwt beam="1">  1        2 0.10016970E+00 0.15900266E+04</pdfrwt>
<pdfrwt beam="2">  1       -2 0.12877049E+00 0.15900266E+04</pdfrwt>
<totfact> 0.19215719E+01</totfact>
</mgrwt>
</event>
<event>
 8    2  0.4306980E-052  0.1413041E+04  0.7818608E-02  0.8944433E-01
         -2   -1    0    0    0  501 -0.00000000000E+00  0.00000000000E+00  0.17723551422E+04  0.17723551422E+04  0.25500000000E-02 0. -1.
          2   -1    0    0  501    0  0.00000000000E+00 -0.00000000000E+00 -0.28164279868E+03  0.28164279869E+03  0.25500000000E-02 0.  1.
    -200001    2    1    2    0    0  0.17010856578E+03  0.25163407617E+03  0.48798088692E+03  0.84012150299E+03  0.61271703203E+03 0.  0.
   -5000001    2    3    3    0    0  0.27827115615E+03  0.34936048186E+03  0.18439852487E+03  0.48853531601E+03  0.71946899725E+02 0.  0.
     200001    1    1    2    0    0 -0.17010856578E+03 -0.25163407617E+03  0.10027314566E+04  0.12138764379E+04  0.61300000000E+03 0. -1.
         13    1    4    4    0    0  0.11720198930E+03  0.10079571450E+03  0.57921799399E+02  0.16507885499E+03  0.10566000000E+00 0.  1.
    -200003    1    4    4    0    0  0.16106916685E+03  0.24856476737E+03  0.12647672547E+03  0.32345646101E+03  0.30000000000E+02 0.  1.
    -200000    1    3    3    0    0 -0.10816259037E+03 -0.97726405694E+02  0.30358236206E+03  0.35158618698E+03  0.10100000000E+03 0. -1.
<mgrwt>
<rscale>  0 0.14130408E+04</rscale>
<asrwt>0</asrwt>
<pdfrwt beam="1">  1        2 0.40234687E-01 0.14130408E+04</pdfrwt>
<pdfrwt beam="2">  1       -2 0.25319358E+00 0.14130408E+04</pdfrwt>
<totfact> 0.76664455E+00</totfact>
</mgrwt>
</event>
<event>
 8    2  0.4306980E-052  0.1397074E+04  0.7818608E-02  0.8955939E-01
         -2   -1    0    0    0  501 -0.00000000000E+00  0.00000000000E+00  0.47922919335E+03  0.47922919336E+03  0.25500000000E-02 0. -1.
          2   -1    0    0  501    0  0.00000000000E+00 -0.00000000000E+00 -0.10182057983E+04  0.10182057983E+04  0.25500000000E-02 0.  1.
    -200001    2    1    2    0    0  0.12857836431E+03 -0.27153882663E+03 -0.42949541021E+03  0.80604446374E+03  0.61235254551E+03 0.  0.
   -5000001    2    3    3    0    0  0.20505770529E+03  0.61283365273E+02  0.28110442467E+02  0.22619636516E+03  0.67603885081E+02 0.  0.
     200001    1    1    2    0    0 -0.12857836431E+03  0.27153882663E+03 -0.10948119477E+03  0.69139052796E+03  0.61300000000E+03 0.  1.
         13    1    4    4    0    0  0.12937738595E+03  0.20416273435E+02  0.32668687434E+02  0.13499106089E+03  0.10566000000E+00 0.  1.
    -200003    1    4    4    0    0  0.75680319339E+02  0.40867091838E+02 -0.45582449665E+01  0.91205304274E+02  0.30000000000E+02 0. -1.
    -200000    1    3    3    0    0 -0.76479340977E+02 -0.33282219191E+03 -0.45760585267E+03  0.57984809858E+03  0.10100000000E+03 0.  1.
<mgrwt>
<rscale>  0 0.13970740E+04</rscale>
<asrwt>0</asrwt>
<pdfrwt beam="1">  1        2 0.14545797E+00 0.13970740E+04</pdfrwt>
<pdfrwt beam="2">  1       -2 0.68461314E-01 0.13970740E+04</pdfrwt>
<totfact> 0.52067897E+01</totfact>
</mgrwt>
</event>
<event>
 8    2  0.4306980E-052  0.3144857E+04  0.7818608E-02  0.8203534E-01
          2   -1    0    0  501    0  0.00000000000E+00  0.00000000000E+00  0.35889018974E+04  0.35889018974E+04  0.25500000000E-02 0.  1.
         -2   -1    0    0    0  501 -0.00000000000E+00 -0.00000000000E+00 -0.68893824054E+03  0.68893824054E+03  0.25500000000E-02 0. -1.
    -200001    2    1    2    0    0 -0.61534935923E+03 -0.30448612399E+03 -0.28447352548E+03  0.96305872706E+03  0.61252778832E+03 0.  0.
   -5000001    2    3    3    0    0 -0.71112105926E+03 -0.22229478150E+03 -0.17816900116E+03  0.76959222558E+03  0.73619765665E+02 0.  0.
     200001    1    1    2    0    0  0.61534935923E+03  0.30448612399E+03  0.31844371823E+04  0.33147814109E+04  0.61300000000E+03 0.  1.
         13    1    4    4    0    0 -0.57378087715E+03 -0.17904877222E+03 -0.15464041684E+03  0.62064210903E+03  0.10566000000E+00 0.  1.
    -200003    1    4    4    0    0 -0.13734018210E+03 -0.43246009280E+02 -0.23528584315E+02  0.14895011655E+03  0.30000000000E+02 0. -1.
    -200000    1    3    3    0    0  0.95771700023E+02 -0.82191342486E+02 -0.10630452433E+03  0.19346650149E+03  0.10100000000E+03 0. -1.
<mgrwt>
<rscale>  0 0.31448572E+04</rscale>
<asrwt>0</asrwt>
<pdfrwt beam="1">  1        2 0.51270027E+00 0.31448572E+04</pdfrwt>
<pdfrwt beam="2">  1       -2 0.98419749E-01 0.31448572E+04</pdfrwt>
<totfact> 0.77312682E-01</totfact>
</mgrwt>
</event>
<event>
 8    2  0.4306980E-052  0.1769480E+04  0.7818608E-02  0.8722700E-01
          2   -1    0    0  501    0  0.00000000000E+00  0.00000000000E+00  0.15457726240E+04  0.15457726240E+04  0.25500000000E-02 0.  1.
         -2   -1    0    0    0  501 -0.00000000000E+00 -0.00000000000E+00 -0.50639073143E+03  0.50639073143E+03  0.25500000000E-02 0. -1.
    -200001    2    1    2    0    0 -0.71932248621E+02  0.53396102712E+03  0.12421506909E+03  0.82595458787E+03  0.61358208167E+03 0.  0.
   -5000001    2    3    3    0    0 -0.98395159723E+02  0.32118552370E+03 -0.17471878176E+03  0.44446258571E+03  0.23276294660E+03 0.  0.
     200001    1    1    2    0    0  0.71932248621E+02 -0.53396102712E+03  0.91516682353E+03  0.12262087676E+04  0.61300000000E+03 0.  1.
         13    1    4    4    0    0 -0.14624817893E+03  0.29004595899E+03 -0.88278216811E+02  0.33661289769E+03  0.10566000000E+00 0.  1.
    -200003    1    4    4    0    0  0.47853019209E+02  0.31139564709E+02 -0.86440564950E+02  0.10784968802E+03  0.30000000000E+02 0.  1.
    -200000    1    3    3    0    0  0.26462911102E+02  0.21277550343E+03  0.29893385085E+03  0.38149200215E+03  0.10100000000E+03 0.  1.
<mgrwt>
<rscale>  0 0.17694801E+04</rscale>
<asrwt>0</asrwt>
<pdfrwt beam="1">  1        2 0.22082466E+00 0.17694801E+04</pdfrwt>
<pdfrwt beam="2">  1       -2 0.72341532E-01 0.17694801E+04</pdfrwt>
<totfact> 0.22687220E+01</totfact>
</mgrwt>
</event>
<event>
 8    2  0.4306980E-052  0.1361146E+04  0.7818608E-02  0.8982433E-01
          2   -1    0    0  501    0  0.00000000000E+00  0.00000000000E+00  0.56401311171E+04  0.56401311171E+04  0.25500000000E-02 0.  1.
         -2   -1    0    0    0  501 -0.00000000000E+00 -0.00000000000E+00 -0.82122136799E+02  0.82122136839E+02  0.25500000000E-02 0. -1.
    -200001    2    1    2    0    0  0.12547744613E+03  0.21281891277E+03  0.34634074045E+04  0.35258559218E+04  0.61272559348E+03 0.  0.
   -5000001    2    3    3    0    0 -0.94272988463E+02  0.24505166889E+03  0.18801417458E+04  0.19239007570E+04  0.31228740254E+03 0.  0.
     200001    1    1    2    0    0 -0.12547744613E+03 -0.21281891277E+03  0.20946015758E+04  0.21963973321E+04  0.61300000000E+03 0. -1.
         13    1    4    4    0    0 -0.11227367841E+02  0.29756829644E+03  0.15422919142E+04  0.15707760198E+04  0.10566000000E+00 0.  1.
    -200003    1    4    4    0    0 -0.83045620622E+02 -0.52516627551E+02  0.33784983160E+03  0.35312473714E+03  0.30000000000E+02 0.  1.
    -200000    1    3    3    0    0  0.21975043459E+03 -0.32232756115E+02  0.15832656587E+04  0.16019551648E+04  0.10100000000E+03 0.  1.
<mgrwt>
<rscale>  0 0.13611460E+04</rscale>
<asrwt>0</asrwt>
<pdfrwt beam="1">  1        2 0.80573325E+00 0.13611460E+04</pdfrwt>
<pdfrwt beam="2">  1       -2 0.11731730E-01 0.13611460E+04</pdfrwt>
<totfact> 0.90797299E-01</totfact>
</mgrwt>
</event>
<event>
 8    2  0.4306980E-052  0.1482459E+04  0.7818608E-02  0.8896202E-01
         -2   -1    0    0    0  501 -0.00000000000E+00  0.00000000000E+00  0.18121697343E+04  0.18121697343E+04  0.25500000000E-02 0. -1.
          2   -1    0    0  501    0  0.00000000000E+00 -0.00000000000E+00 -0.30318401404E+03  0.30318401405E+03  0.25500000000E-02 0.  1.
    -200001    2    1    2    0    0  0.17036259272E+03 -0.17540867605E+03  0.12361452534E+04  0.14012091293E+04  0.61281344605E+03 0.  0.
   -5000001    2    3    3    0    0  0.75475419683E+02  0.21476872881E+03  0.40212939654E+03  0.47006712481E+03  0.86214293557E+02 0.  0.
     200001    1    1    2    0    0 -0.17036259272E+03  0.17540867605E+03  0.27284046679E+03  0.71414461907E+03  0.61300000000E+03 0.  1.
         13    1    4    4    0    0  0.26643701918E+02  0.15501706441E+03  0.29869143134E+03  0.33757482049E+03  0.10566000000E+00 0.  1.
    -200003    1    4    4    0    0  0.48831717765E+02  0.59751664404E+02  0.10343796520E+03  0.13249230432E+03  0.30000000000E+02 0.  1.
    -200000    1    3    3    0    0  0.94887173042E+02 -0.39017740486E+03  0.83401585690E+03  0.93114200444E+03  0.10100000000E+03 0. -1.
<mgrwt>
<rscale>  0 0.14824586E+04</rscale>
<asrwt>0</asrwt>
<pdfrwt beam="1">  1        2 0.43312002E-01 0.14824586E+04</pdfrwt>
<pdfrwt beam="2">  1       -2 0.25888139E+00 0.14824586E+04</pdfrwt>
<totfact> 0.64838663E+00</totfact>
</mgrwt>
</event>
<event>
 8    2  0.4306980E-052  0.1408138E+04  0.7818608E-02  0.8947949E-01
         -2   -1    0    0    0  501 -0.00000000000E+00  0.00000000000E+00  0.78714394559E+03  0.78714394560E+03  0.25500000000E-02 0. -1.
          2   -1    0    0  501    0  0.00000000000E+00 -0.00000000000E+00 -0.62976179803E+03  0.62976179803E+03  0.25500000000E-02 0.  1.
    -200001    2    1    2    0    0 -0.33400394001E+01  0.32129670247E+03 -0.56371972689E+02  0.69254219484E+03  0.61089619859E+03 0.  0.
   -5000001    2    3    3    0    0  0.19209258114E+03  0.35113887203E+03 -0.16860718437E+03  0.44378084938E+03  0.91186580548E+02 0.  0.
     200001    1    1    2    0    0  0.33400394001E+01 -0.32129670247E+03  0.21375412026E+03  0.72436354879E+03  0.61300000000E+03 0. -1.
         13    1    4    4    0    0  0.62643658523E+02  0.86746562816E+02 -0.85032393872E+01  0.10733829865E+03  0.10566000000E+00 0.  1.
    -200003    1    4    4    0    0  0.12944892262E+03  0.26439230922E+03 -0.16010394498E+03  0.33644255073E+03  0.30000000000E+02 0.  1.
    -200000    1    3    3    0    0 -0.19543262054E+03 -0.29842169558E+02  0.11223521168E+03  0.24876134547E+03  0.10100000000E+03 0. -1.
<mgrwt>
<rscale>  0 0.14081380E+04</rscale>
<asrwt>0</asrwt>
<pdfrwt beam="1">  1        2 0.89965971E-01 0.14081380E+04</pdfrwt>
<pdfrwt beam="2">  1       -2 0.11244914E+00 0.14081380E+04</pdfrwt>
<totfact> 0.31075943E+01</totfact>
</mgrwt>
</event>
<event>
 8    2  0.4306980E-052  0.1355868E+04  0.7818608E-02  0.8986398E-01
         -2   -1    0    0    0  501 -0.00000000000E+00  0.00000000000E+00  0.40765415227E+03  0.40765415228E+03  0.25500000000E-02 0. -1.
          2   -1    0    0  501    0  0.00000000000E+00 -0.00000000000E+00 -0.11274121031E+04  0.11274121031E+04  0.25500000000E-02 0.  1.
    -200001    2    1    2    0    0  0.10949362971E+03 -0.82424301911E+02 -0.72949381838E+02  0.63344940473E+03  0.61412858226E+03 0.  0.
   -5000001    2    3    3    0    0 -0.73829790523E+02 -0.29916919477E+03  0.37886372626E+01  0.32252248637E+03  0.95149121772E+02 0.  0.
     200001    1    1    2    0    0 -0.10949362971E+03  0.82424301911E+02 -0.64680856903E+03  0.90161685070E+03  0.61300000000E+03 0.  1.
         13    1    4    4    0    0  0.17470256066E+02 -0.17281099853E+02 -0.19162579404E+01  0.24648112862E+02  0.10566000000E+00 0.  1.
    -200003    1    4    4    0    0 -0.91300046590E+02 -0.28188809491E+03  0.57048952029E+01  0.29787437350E+03  0.30000000000E+02 0.  1.
    -200000    1    3    3    0    0  0.18332342024E+03  0.21674489286E+03 -0.76738019100E+02  0.31092691836E+03  0.10100000000E+03 0.  1.
<mgrwt>
<rscale>  0 0.13558676E+04</rscale>
<asrwt>0</asrwt>
<pdfrwt beam="1">  1        2 0.16105887E+00 0.13558676E+04</pdfrwt>
<pdfrwt beam="2">  1       -2 0.58236308E-01 0.13558676E+04</pdfrwt>
<totfact> 0.63460137E+01</totfact>
</mgrwt>
</event>
<event>
 8    2  0.4306980E-052  0.1261861E+04  0.7818608E-02  0.9060368E-01
         -2   -1    0    0    0  501 -0.00000000000E+00  0.00000000000E+00  0.19086699687E+03  0.19086699689E+03  0.25500000000E-02 0. -1.
          2   -1    0    0  501    0  0.00000000000E+00 -0.00000000000E+00 -0.20856069821E+04  0.20856069821E+04  0.25500000000E-02 0.  1.
    -200001    2    1    2    0    0 -0.73961545023E+02  0.12975781982E+03 -0.93094568185E+03  0.11245295961E+04  0.61286176915E+03 0.  0.
   -5000001    2    3    3    0    0  0.22580090476E+03 -0.15603979338E+02 -0.18527266539E+03  0.30159774815E+03  0.73523522664E+02 0.  0.
     200001    1    1    2    0    0  0.73961545023E+02 -0.12975781982E+03 -0.96379430333E+03  0.11519443828E+04  0.61300000000E+03 0. -1.
         13    1    4    4    0    0  0.12027592706E+03  0.12831930672E+02 -0.12200187984E+03  0.17180054402E+03  0.10566000000E+00 0.  1.
    -200003    1    4    4    0    0  0.10552497770E+03 -0.28435910010E+02 -0.63270785547E+02  0.12979720413E+03  0.30000000000E+02 0.  1.
    -200000    1    3    3    0    0 -0.29976244978E+03  0.14536179916E+03 -0.74567301647E+03  0.82293184799E+03  0.10100000000E+03 0.  1.
<mgrwt>
<rscale>  0 0.12618614E+04</rscale>
<asrwt>0</asrwt>
<pdfrwt beam="1">  1        2 0.29794384E+00 0.12618614E+04</pdfrwt>
<pdfrwt beam="2">  1       -2 0.27266715E-01 0.12618614E+04</pdfrwt>
<totfact> 0.87270819E+01</totfact>
</mgrwt>
</event>
<event>
 8    2  0.4306980E-052  0.1937293E+04  0.7818608E-02  0.8636513E-01
         -2   -1    0    0    0  501 -0.00000000000E+00  0.00000000000E+00  0.10401991728E+04  0.10401991728E+04  0.25500000000E-02 0. -1.
          2   -1    0    0  501    0  0.00000000000E+00 -0.00000000000E+00 -0.90201561675E+03  0.90201561675E+03  0.25500000000E-02 0.  1.
    -200001    2    1    2    0    0 -0.30496592170E+03  0.37021111033E+01 -0.61767179560E+03  0.92235978435E+03  0.61336058373E+03 0.  0.
   -5000001    2    3    3    0    0 -0.15203304406E+03 -0.22498738270E+03 -0.53918757801E+02  0.28698128513E+03  0.75615188352E+02 0.  0.
     200001    1    1    2    0    0  0.30496592170E+03 -0.37021111033E+01  0.75585535168E+03  0.10198550052E+04  0.61300000000E+03 0. -1.
         13    1    4    4    0    0 -0.43685959804E+02 -0.11738908924E+03 -0.36069732107E+02  0.13034453612E+03  0.10566000000E+00 0.  1.
    -200003    1    4    4    0    0 -0.10834708426E+03 -0.10759829346E+03 -0.17849025693E+02  0.15663674901E+03  0.30000000000E+02 0.  1.
    -200000    1    3    3    0    0 -0.15293287764E+03  0.22868949380E+03 -0.56375303780E+03  0.63537849922E+03  0.10100000000E+03 0.  1.
<mgrwt>
<rscale>  0 0.19372929E+04</rscale>
<asrwt>0</asrwt>
<pdfrwt beam="1">  1        2 0.12885937E+00 0.19372929E+04</pdfrwt>
<pdfrwt beam="2">  1       -2 0.14859988E+00 0.19372929E+04</pdfrwt>
<totfact> 0.93299381E+00</totfact>
</mgrwt>
</event>
<event>
 8    2  0.4306980E-052  0.1832418E+04  0.7818608E-02  0.8689247E-01
         -2   -1    0    0    0  501 -0.00000000000E+00  0.00000000000E+00  0.32927678395E+03  0.32927678396E+03  0.25500000000E-02 0. -1.
          2   -1    0    0  501    0  0.00000000000E+00 -0.00000000000E+00 -0.25493426115E+04  0.25493426115E+04  0.25500000000E-02 0.  1.
    -200001    2    1    2    0    0 -0.45780177466E+03 -0.46587673458E+03 -0.14112546084E+04  0.16717357288E+04  0.61354476645E+03 0.  0.
   -5000001    2    3    3    0    0  0.84941312015E+02 -0.23502565474E+03 -0.53796586872E+03  0.61310618921E+03  0.15504785863E+03 0.  0.
     200001    1    1    2    0    0  0.45780177466E+03  0.46587673458E+03 -0.80881121917E+03  0.12068836667E+04  0.61300000000E+03 0.  1.
         13    1    4    4    0    0  0.59825680980E+02 -0.12630530458E+03 -0.13655234002E+03  0.19539369181E+03  0.10566000000E+00 0.  1.
    -200003    1    4    4    0    0  0.25115631036E+02 -0.10872035016E+03 -0.40141352869E+03  0.41771249739E+03  0.30000000000E+02 0.  1.
    -200000    1    3    3    0    0 -0.54274308667E+03 -0.23085107984E+03 -0.87328873967E+03  0.10586295396E+04  0.10100000000E+03 0.  1.
<mgrwt>
<rscale>  0 0.18324184E+04</rscale>
<asrwt>0</asrwt>
<pdfrwt beam="1">  1        2 0.36419179E+00 0.18324184E+04</pdfrwt>
<pdfrwt beam="2">  1       -2 0.47039542E-01 0.18324184E+04</pdfrwt>
<totfact> 0.16799387E+01</totfact>
</mgrwt>
</event>
<event>
 8    2  0.4306980E-052  0.1599596E+04  0.7818608E-02  0.8820796E-01
         -2   -1    0    0    0  501 -0.00000000000E+00  0.00000000000E+00  0.25421007172E+03  0.25421007174E+03  0.25500000000E-02 0. -1.
          2   -1    0    0  501    0  0.00000000000E+00 -0.00000000000E+00 -0.25163325579E+04  0.25163325579E+04  0.25500000000E-02 0.  1.
    -200001    2    1    2    0    0  0.37598814458E+03 -0.25411466792E+03 -0.71311430115E+03  0.10439457726E+04  0.61265766983E+03 0.  0.
   -5000001    2    3    3    0    0  0.50243121630E+03 -0.13568393658E+03 -0.64408077665E+03  0.83186013895E+03  0.79397645867E+02 0.  0.
     200001    1    1    2    0    0 -0.37598814458E+03  0.25411466792E+03 -0.15490081850E+04  0.17265968570E+04  0.61300000000E+03 0.  1.
         13    1    4    4    0    0  0.32404761044E+03 -0.10530240441E+03 -0.38077259798E+03  0.51096304440E+03  0.10566000000E+00 0.  1.
    -200003    1    4    4    0    0  0.17838360586E+03 -0.30381532161E+02 -0.26330817867E+03  0.32089709455E+03  0.30000000000E+02 0.  1.
    -200000    1    3    3    0    0 -0.12644307172E+03 -0.11843073134E+03 -0.69033524500E+02  0.21208563369E+03  0.10100000000E+03 0.  1.
<mgrwt>
<rscale>  0 0.15995963E+04</rscale>
<asrwt>0</asrwt>
<pdfrwt beam="1">  1        2 0.35947607E+00 0.15995963E+04</pdfrwt>
<pdfrwt beam="2">  1       -2 0.36315726E-01 0.15995963E+04</pdfrwt>
<totfact> 0.29663050E+01</totfact>
</mgrwt>
</event>
<event>
 8    2  0.4306980E-052  0.1364873E+04  0.7818608E-02  0.8979645E-01
         -2   -1    0    0    0  501 -0.00000000000E+00  0.00000000000E+00  0.67262262337E+03  0.67262262337E+03  0.25500000000E-02 0. -1.
          2   -1    0    0  501    0  0.00000000000E+00 -0.00000000000E+00 -0.69239316995E+03  0.69239316995E+03  0.25500000000E-02 0.  1.
    -200001    2    1    2    0    0  0.16876454597E+02  0.22435711814E+03 -0.20923525785E+03  0.68509902783E+03  0.61234006371E+03 0.  0.
   -5000001    2    3    3    0    0 -0.19221918237E+03  0.19774644081E+03  0.88244670123E+02  0.30678114417E+03  0.10136902729E+03 0.  0.
     200001    1    1    2    0    0 -0.16876454597E+02 -0.22435711814E+03  0.18946471127E+03  0.67991676549E+03  0.61300000000E+03 0. -1.
         13    1    4    4    0    0 -0.45000510537E+02  0.10253304253E+03  0.98740386748E+01  0.11240808940E+03  0.10566000000E+00 0.  1.
    -200003    1    4    4    0    0 -0.14721867183E+03  0.95213398273E+02  0.78370631448E+02  0.19437305477E+03  0.30000000000E+02 0.  1.
    -200000    1    3    3    0    0  0.20909563697E+03  0.26610677338E+02 -0.29747992798E+03  0.37831788366E+03  0.10100000000E+03 0. -1.
<mgrwt>
<rscale>  0 0.13648726E+04</rscale>
<asrwt>0</asrwt>
<pdfrwt beam="1">  1        2 0.98913309E-01 0.13648726E+04</pdfrwt>
<pdfrwt beam="2">  1       -2 0.96088947E-01 0.13648726E+04</pdfrwt>
<totfact> 0.40467054E+01</totfact>
</mgrwt>
</event>
<event>
 8    2  0.4306980E-052  0.1287030E+04  0.7818608E-02  0.9039914E-01
         -2   -1    0    0    0  501 -0.00000000000E+00  0.00000000000E+00  0.10986297426E+03  0.10986297429E+03  0.25500000000E-02 0. -1.
          2   -1    0    0  501    0  0.00000000000E+00 -0.00000000000E+00 -0.37693467127E+04  0.37693467127E+04  0.25500000000E-02 0.  1.
    -200001    2    1    2    0    0 -0.10279970975E+03  0.15501840590E+03 -0.20184536781E+04  0.21175777319E+04  0.61268402395E+03 0.  0.
   -5000001    2    3    3    0    0 -0.16769784419E+03  0.34139246231E+03 -0.10063284390E+04  0.10814572965E+04  0.11037018110E+03 0.  0.
     200001    1    1    2    0    0  0.10279970975E+03 -0.15501840590E+03 -0.16410300603E+04  0.17616319551E+04  0.61300000000E+03 0.  1.
         13    1    4    4    0    0 -0.18448610759E+01 -0.79255600320E+01 -0.23378601377E+02  0.24754558784E+02  0.10566000000E+00 0.  1.
    -200003    1    4    4    0    0 -0.16585298311E+03  0.34931802234E+03 -0.98294983760E+03  0.10567027378E+04  0.30000000000E+02 0.  1.
    -200000    1    3    3    0    0  0.64898134437E+02 -0.18637405641E+03 -0.10121252392E+04  0.10361204353E+04  0.10100000000E+03 0.  1.
<mgrwt>
<rscale>  0 0.12870301E+04</rscale>
<asrwt>0</asrwt>
<pdfrwt beam="1">  1        2 0.53847802E+00 0.12870301E+04</pdfrwt>
<pdfrwt beam="2">  1       -2 0.15694713E-01 0.12870301E+04</pdfrwt>
<totfact> 0.26530505E+01</totfact>
</mgrwt>
</event>
<event>
 8    2  0.4306980E-052  0.1614044E+04  0.7818608E-02  0.8811966E-01
          2   -1    0    0  501    0  0.00000000000E+00  0.00000000000E+00  0.88331609285E+03  0.88331609286E+03  0.25500000000E-02 0.  1.
         -2   -1    0    0    0  501 -0.00000000000E+00 -0.00000000000E+00 -0.73731795309E+03  0.73731795310E+03  0.25500000000E-02 0. -1.
    -200001    2    1    2    0    0 -0.67317374877E+02  0.51732094829E+03  0.10725470628E+02  0.80441086109E+03  0.61221663260E+03 0.  0.
   -5000001    2    3    3    0    0  0.24437817832E+03  0.14785078395E+03  0.15342808724E+02  0.31056408320E+03  0.12097148277E+03 0.  0.
     200001    1    1    2    0    0  0.67317374877E+02 -0.51732094829E+03  0.13527266913E+03  0.81622318486E+03  0.61300000000E+03 0.  1.
         13    1    4    4    0    0  0.11582315887E+03  0.25804903425E+02  0.47703723251E+02  0.12789274236E+03  0.10566000000E+00 0.  1.
    -200003    1    4    4    0    0  0.12855501945E+03  0.12204588052E+03 -0.32360914527E+02  0.18267134084E+03  0.30000000000E+02 0.  1.
    -200000    1    3    3    0    0 -0.31169555320E+03  0.36947016434E+03 -0.46173380960E+01  0.49384677789E+03  0.10100000000E+03 0. -1.
<mgrwt>
<rscale>  0 0.16140444E+04</rscale>
<asrwt>0</asrwt>
<pdfrwt beam="1">  1        2 0.12618801E+00 0.16140444E+04</pdfrwt>
<pdfrwt beam="2">  1       -2 0.10533114E+00 0.16140444E+04</pdfrwt>
<totfact> 0.23366368E+01</totfact>
</mgrwt>
</event>
<event>
 8    2  0.4306980E-052  0.1558153E+04  0.7818608E-02  0.8846677E-01
         -2   -1    0    0    0  501 -0.00000000000E+00  0.00000000000E+00  0.20762235438E+03  0.20762235440E+03  0.25500000000E-02 0. -1.
          2   -1    0    0  501    0  0.00000000000E+00 -0.00000000000E+00 -0.29233864021E+04  0.29233864021E+04  0.25500000000E-02 0.  1.
    -200001    2    1    2    0    0 -0.36013716216E+03 -0.27373382881E+03 -0.10283802309E+04  0.12796141119E+04  0.61254990946E+03 0.  0.
   -5000001    2    3    3    0    0 -0.18357700017E+02 -0.17189618685E+03  0.37460016467E+01  0.18295114368E+03  0.59764406140E+02 0.  0.
     200001    1    1    2    0    0  0.36013716216E+03  0.27373382881E+03 -0.16873838168E+04  0.18513946446E+04  0.61300000000E+03 0.  1.
         13    1    4    4    0    0  0.16305746500E+02 -0.43934127554E+02  0.39077950837E+01  0.47025173676E+02  0.10566000000E+00 0.  1.
    -200003    1    4    4    0    0 -0.34663446517E+02 -0.12796205930E+03 -0.16179343707E+00  0.13592597000E+03  0.30000000000E+02 0. -1.
    -200000    1    3    3    0    0 -0.34177946214E+03 -0.10183764195E+03 -0.10321262325E+04  0.10966629682E+04  0.10100000000E+03 0. -1.
<mgrwt>
<rscale>  0 0.15581532E+04</rscale>
<asrwt>0</asrwt>
<pdfrwt beam="1">  1        2 0.41762660E+00 0.15581532E+04</pdfrwt>
<pdfrwt beam="2">  1       -2 0.29660338E-01 0.15581532E+04</pdfrwt>
<totfact> 0.26366523E+01</totfact>
</mgrwt>
</event>
<event>
 8    2  0.4306980E-052  0.1922017E+04  0.7818608E-02  0.8643974E-01
          2   -1    0    0  501    0  0.00000000000E+00  0.00000000000E+00  0.16860505306E+04  0.16860505306E+04  0.25500000000E-02 0.  1.
         -2   -1    0    0    0  501 -0.00000000000E+00 -0.00000000000E+00 -0.54775174745E+03  0.54775174746E+03  0.25500000000E-02 0. -1.
    -200001    2    1    2    0    0  0.49253131238E+03 -0.39362751645E+03  0.10176657345E+04  0.13461925396E+04  0.61567937376E+03 0.  0.
   -5000001    2    3    3    0    0 -0.69532361124E+02 -0.26083272277E+03  0.27296777666E+03  0.39839188619E+03  0.10647173043E+03 0.  0.
     200001    1    1    2    0    0 -0.49253131238E+03  0.39362751645E+03  0.12063304871E+03  0.88760973846E+03  0.61300000000E+03 0. -1.
         13    1    4    4    0    0  0.10455119289E+02 -0.47010173808E+02  0.10594412511E+02  0.49310431972E+02  0.10566000000E+00 0.  1.
    -200003    1    4    4    0    0 -0.79987480412E+02 -0.21382254896E+03  0.26237336415E+03  0.34908145422E+03  0.30000000000E+02 0.  1.
    -200000    1    3    3    0    0  0.56206367350E+03 -0.13279479368E+03  0.74469795780E+03  0.94780065344E+03  0.10100000000E+03 0. -1.
<mgrwt>
<rscale>  0 0.19220168E+04</rscale>
<asrwt>0</asrwt>
<pdfrwt beam="1">  1        2 0.24086436E+00 0.19220168E+04</pdfrwt>
<pdfrwt beam="2">  1       -2 0.78250250E-01 0.19220168E+04</pdfrwt>
<totfact> 0.15898033E+01</totfact>
</mgrwt>
</event>
<event>
 8    2  0.4306980E-052  0.1345353E+04  0.7818608E-02  0.8994353E-01
         -2   -1    0    0    0  501 -0.00000000000E+00  0.00000000000E+00  0.57186326851E+03  0.57186326852E+03  0.25500000000E-02 0. -1.
          2   -1    0    0  501    0  0.00000000000E+00 -0.00000000000E+00 -0.79126248590E+03  0.79126248590E+03  0.25500000000E-02 0.  1.
    -200001    2    1    2    0    0 -0.13289660775E+03 -0.18454061216E+03  0.50192076744E+02  0.65590216053E+03  0.61316527440E+03 0.  0.
   -5000001    2    3    3    0    0 -0.24899252061E+03  0.76912554974E+01  0.87471064313E+02  0.40685984517E+03  0.30955987432E+03 0.  0.
     200001    1    1    2    0    0  0.13289660775E+03  0.18454061216E+03 -0.26959129413E+03  0.70722359389E+03  0.61300000000E+03 0.  1.
         13    1    4    4    0    0 -0.71123903976E+02 -0.81848847933E+02 -0.88082640094E+02  0.13970113197E+03  0.10566000000E+00 0.  1.
    -200003    1    4    4    0    0 -0.17786861663E+03  0.89540103430E+02  0.17555370441E+03  0.26715871320E+03  0.30000000000E+02 0.  1.
    -200000    1    3    3    0    0  0.11609591286E+03 -0.19223186765E+03 -0.37278987569E+02  0.24904231536E+03  0.10100000000E+03 0.  1.
<mgrwt>
<rscale>  0 0.13453534E+04</rscale>
<asrwt>0</asrwt>
<pdfrwt beam="1">  1        2 0.11303750E+00 0.13453534E+04</pdfrwt>
<pdfrwt beam="2">  1       -2 0.81694753E-01 0.13453534E+04</pdfrwt>
<totfact> 0.49751007E+01</totfact>
</mgrwt>
</event>
<event>
 8    2  0.4306980E-052  0.1331338E+04  0.7818608E-02  0.9005076E-01
          2   -1    0    0  501    0  0.00000000000E+00  0.00000000000E+00  0.20987793096E+04  0.20987793096E+04  0.25500000000E-02 0.  1.
         -2   -1    0    0    0  501 -0.00000000000E+00 -0.00000000000E+00 -0.21113009903E+03  0.21113009905E+03  0.25500000000E-02 0. -1.
    -200001    2    1    2    0    0 -0.16730687695E+03 -0.15571640042E+03  0.72532151622E+03  0.97611262597E+03  0.61193575501E+03 0.  0.
   -5000001    2    3    3    0    0 -0.30524622317E+03  0.73136343809E+02  0.54467396620E+03  0.63812537901E+03  0.10959054859E+03 0.  0.
     200001    1    1    2    0    0  0.16730687695E+03  0.15571640042E+03  0.11623276943E+04  0.13337967827E+04  0.61300000000E+03 0.  1.
         13    1    4    4    0    0 -0.99653205289E+02  0.74636778027E+02  0.21451082570E+03  0.24802482832E+03  0.10566000000E+00 0.  1.
    -200003    1    4    4    0    0 -0.20559301788E+03 -0.15004342186E+01  0.33016314050E+03  0.39010055069E+03  0.30000000000E+02 0.  1.
    -200000    1    3    3    0    0  0.13793934622E+03 -0.22885274423E+03  0.18064755002E+03  0.33798724696E+03  0.10100000000E+03 0. -1.
<mgrwt>
<rscale>  0 0.13313384E+04</rscale>
<asrwt>0</asrwt>
<pdfrwt beam="1">  1        2 0.29982562E+00 0.13313384E+04</pdfrwt>
<pdfrwt beam="2">  1       -2 0.30161443E-01 0.13313384E+04</pdfrwt>
<totfact> 0.70922149E+01</totfact>
</mgrwt>
</event>
<event>
 8    2  0.4306980E-052  0.1533190E+04  0.7818608E-02  0.8862677E-01
          2   -1    0    0  501    0  0.00000000000E+00  0.00000000000E+00  0.18740563933E+04  0.18740563933E+04  0.25500000000E-02 0.  1.
         -2   -1    0    0    0  501 -0.00000000000E+00 -0.00000000000E+00 -0.31358088899E+03  0.31358088900E+03  0.25500000000E-02 0. -1.
    -200001    2    1    2    0    0 -0.80097891694E+02  0.27088030492E+03  0.13004985488E+04  0.14643470022E+04  0.61092049861E+03 0.  0.
   -5000001    2    3    3    0    0  0.22368831145E+03 -0.91863628244E+01  0.51616654977E+03  0.57210203568E+03  0.10369176531E+03 0.  0.
     200001    1    1    2    0    0  0.80097891694E+02 -0.27088030492E+03  0.25997695547E+03  0.72329028006E+03  0.61300000000E+03 0. -1.
         13    1    4    4    0    0  0.59954042557E+02 -0.42729331487E+02  0.11590431616E+03  0.13731024964E+03  0.10566000000E+00 0.  1.
    -200003    1    4    4    0    0  0.16373426889E+03  0.33542968662E+02  0.40026223361E+03  0.43479178604E+03  0.30000000000E+02 0.  1.
    -200000    1    3    3    0    0 -0.30378620314E+03  0.28006666774E+03  0.78433199906E+03  0.89224496656E+03  0.10100000000E+03 0.  1.
<mgrwt>
<rscale>  0 0.15331905E+04</rscale>
<asrwt>0</asrwt>
<pdfrwt beam="1">  1        2 0.26772234E+00 0.15331905E+04</pdfrwt>
<pdfrwt beam="2">  1       -2 0.44797270E-01 0.15331905E+04</pdfrwt>
<totfact> 0.42500676E+01</totfact>
</mgrwt>
</event>
<event>
 8    2  0.4306980E-052  0.1722975E+04  0.7818608E-02  0.8748368E-01
          2   -1    0    0  501    0  0.00000000000E+00  0.00000000000E+00  0.77939700868E+03  0.77939700868E+03  0.25500000000E-02 0.  1.
         -2   -1    0    0    0  501 -0.00000000000E+00 -0.00000000000E+00 -0.95222404236E+03  0.95222404237E+03  0.25500000000E-02 0. -1.
    -200001    2    1    2    0    0  0.61718689874E+02 -0.21008253308E+03  0.48069507462E+03  0.80923067088E+03  0.61306007581E+03 0.  0.
   -5000001    2    3    3    0    0  0.16728222051E+03  0.16227880589E+03  0.13060776494E+03  0.27766811562E+03  0.75653433683E+02 0.  0.
     200001    1    1    2    0    0 -0.61718689874E+02  0.21008253308E+03 -0.65352210830E+03  0.92239038017E+03  0.61300000000E+03 0. -1.
         13    1    4    4    0    0  0.47172051483E+02  0.57729502911E+02  0.76536500577E+02  0.10684448995E+03  0.10566000000E+00 0.  1.
    -200003    1    4    4    0    0  0.12011016903E+03  0.10454930298E+03  0.54071264360E+02  0.17082362567E+03  0.30000000000E+02 0.  1.
    -200000    1    3    3    0    0 -0.10556353064E+03 -0.37236133897E+03  0.35008730968E+03  0.53156255527E+03  0.10100000000E+03 0. -1.
<mgrwt>
<rscale>  0 0.17229748E+04</rscale>
<asrwt>0</asrwt>
<pdfrwt beam="1">  1        2 0.11134243E+00 0.17229748E+04</pdfrwt>
<pdfrwt beam="2">  1       -2 0.13603200E+00 0.17229748E+04</pdfrwt>
<totfact> 0.14483210E+01</totfact>
</mgrwt>
</event>
<event>
 8    2  0.4306980E-052  0.1725514E+04  0.7818608E-02  0.8746945E-01
          2   -1    0    0  501    0  0.00000000000E+00  0.00000000000E+00  0.13029083916E+04  0.13029083917E+04  0.25500000000E-02 0.  1.
         -2   -1    0    0    0  501 -0.00000000000E+00 -0.00000000000E+00 -0.57129833032E+03  0.57129833033E+03  0.25500000000E-02 0. -1.
    -200001    2    1    2    0    0 -0.33732648552E+03  0.48094729717E+03  0.21234257441E+03  0.87896444823E+03  0.61837664239E+03 0.  0.
   -5000001    2    3    3    0    0  0.12121774128E+03  0.25441715053E+03  0.19689765894E+03  0.35741074948E+03  0.97733967802E+02 0.  0.
     200001    1    1    2    0    0  0.33732648552E+03 -0.48094729717E+03  0.51926748691E+03  0.99524227375E+03  0.61300000000E+03 0.  1.
         13    1    4    4    0    0  0.34682116507E+02  0.88610930531E+02  0.11957392656E+03  0.15281584110E+03  0.10566000000E+00 0.  1.
    -200003    1    4    4    0    0  0.86535624770E+02  0.16580622000E+03  0.77323732387E+02  0.20459490838E+03  0.30000000000E+02 0.  1.
    -200000    1    3    3    0    0 -0.45854422680E+03  0.22653014664E+03  0.15444915469E+02  0.52155369876E+03  0.10100000000E+03 0. -1.
<mgrwt>
<rscale>  0 0.17255137E+04</rscale>
<asrwt>0</asrwt>
<pdfrwt beam="1">  1        2 0.18612977E+00 0.17255137E+04</pdfrwt>
<pdfrwt beam="2">  1       -2 0.81614048E-01 0.17255137E+04</pdfrwt>
<totfact> 0.23537790E+01</totfact>
</mgrwt>
</event>
<event>
 8    2  0.4306980E-052  0.1845997E+04  0.7818608E-02  0.8682214E-01
          2   -1    0    0  501    0  0.00000000000E+00  0.00000000000E+00  0.29460986675E+04  0.29460986675E+04  0.25500000000E-02 0.  1.
         -2   -1    0    0    0  501 -0.00000000000E+00 -0.00000000000E+00 -0.28917088027E+03  0.28917088028E+03  0.25500000000E-02 0. -1.
    -200001    2    1    2    0    0 -0.59088328843E+03  0.28744072304E+02  0.19468128707E+04  0.21262152313E+04  0.61704260308E+03 0.  0.
   -5000001    2    3    3    0    0 -0.39042780080E+03  0.57256109426E+02  0.18251086668E+04  0.18692945197E+04  0.86765350746E+02 0.  0.
     200001    1    1    2    0    0  0.59088328843E+03 -0.28744072304E+02  0.71011491653E+03  0.11090543165E+04  0.61300000000E+03 0. -1.
         13    1    4    4    0    0 -0.14019788344E+03  0.24808805223E+02  0.83777630421E+03  0.84978825033E+03  0.10566000000E+00 0.  1.
    -200003    1    4    4    0    0 -0.25022991736E+03  0.32447304203E+02  0.98733236258E+03  0.10195062694E+04  0.30000000000E+02 0.  1.
    -200000    1    3    3    0    0 -0.20045548764E+03 -0.28512037122E+02  0.12170420387E+03  0.25692071155E+03  0.10100000000E+03 0. -1.
<mgrwt>
<rscale>  0 0.18459967E+04</rscale>
<asrwt>0</asrwt>
<pdfrwt beam="1">  1        2 0.42087123E+00 0.18459967E+04</pdfrwt>
<pdfrwt beam="2">  1       -2 0.41310126E-01 0.18459967E+04</pdfrwt>
<totfact> 0.13260242E+01</totfact>
</mgrwt>
</event>
<event>
 8    2  0.4306980E-052  0.1260600E+04  0.7818608E-02  0.9061407E-01
          2   -1    0    0  501    0  0.00000000000E+00  0.00000000000E+00  0.43109427699E+03  0.43109427700E+03  0.25500000000E-02 0.  1.
         -2   -1    0    0    0  501 -0.00000000000E+00 -0.00000000000E+00 -0.92155713191E+03  0.92155713192E+03  0.25500000000E-02 0. -1.
    -200001    2    1    2    0    0  0.20659656484E+01  0.12916957470E+03 -0.31651394362E+03  0.70248506790E+03  0.61368978066E+03 0.  0.
   -5000001    2    3    3    0    0  0.33154907537E+02 -0.11703836208E+03  0.12200959310E+03  0.18858939494E+03  0.76696759917E+02 0.  0.
     200001    1    1    2    0    0 -0.20659656484E+01 -0.12916957470E+03 -0.17394891130E+03  0.65016634101E+03  0.61300000000E+03 0. -1.
         13    1    4    4    0    0 -0.16954654218E+02 -0.11481331370E+02  0.62823926974E+01  0.21418704249E+02  0.10566000000E+00 0.  1.
    -200003    1    4    4    0    0  0.50109561755E+02 -0.10555703071E+03  0.11572720041E+03  0.16717069069E+03  0.30000000000E+02 0.  1.
    -200000    1    3    3    0    0 -0.31088941889E+02  0.24620793677E+03 -0.43852353672E+03  0.51389567297E+03  0.10100000000E+03 0. -1.
<mgrwt>
<rscale>  0 0.12605999E+04</rscale>
<asrwt>0</asrwt>
<pdfrwt beam="1">  1        2 0.61584897E-01 0.12605999E+04</pdfrwt>
<pdfrwt beam="2">  1       -2 0.13165102E+00 0.12605999E+04</pdfrwt>
<totfact> 0.32881952E+01</totfact>
</mgrwt>
</event>
<event>
 8    2  0.4306980E-052  0.1551629E+04  0.7818608E-02  0.8850828E-01
          2   -1    0    0  501    0  0.00000000000E+00  0.00000000000E+00  0.23450889078E+04  0.23450889078E+04  0.25500000000E-02 0.  1.
         -2   -1    0    0    0  501 -0.00000000000E+00 -0.00000000000E+00 -0.25665900823E+03  0.25665900824E+03  0.25500000000E-02 0. -1.
    -200001    2    1    2    0    0  0.10663720512E+03 -0.32039570241E+03  0.16040325878E+04  0.17506106444E+04  0.61456666497E+03 0.  0.
   -5000001    2    3    3    0    0  0.18092300521E+03 -0.36488238710E+02  0.12981599035E+04  0.13148573574E+04  0.97807004000E+02 0.  0.
     200001    1    1    2    0    0 -0.10663720512E+03  0.32039570241E+03  0.48439731177E+03  0.85113727171E+03  0.61300000000E+03 0. -1.
         13    1    4    4    0    0  0.10353433569E+03 -0.26987174887E+02  0.98325913109E+03  0.98906329237E+03  0.10566000000E+00 0.  1.
    -200003    1    4    4    0    0  0.77388669515E+02 -0.95010638231E+01  0.31490077237E+03  0.32579406506E+03  0.30000000000E+02 0.  1.
    -200000    1    3    3    0    0 -0.74285800086E+02 -0.28390746370E+03  0.30587268438E+03  0.43575328695E+03  0.10100000000E+03 0. -1.
<mgrwt>
<rscale>  0 0.15516291E+04</rscale>
<asrwt>0</asrwt>
<pdfrwt beam="1">  1        2 0.33501270E+00 0.15516291E+04</pdfrwt>
<pdfrwt beam="2">  1       -2 0.36665573E-01 0.15516291E+04</pdfrwt>
<totfact> 0.35929361E+01</totfact>
</mgrwt>
</event>
<event>
 8    2  0.4306980E-052  0.1458938E+04  0.7818608E-02  0.8912227E-01
          2   -1    0    0  501    0  0.00000000000E+00  0.00000000000E+00  0.82245195720E+03  0.82245195720E+03  0.25500000000E-02 0.  1.
         -2   -1    0    0    0  501 -0.00000000000E+00 -0.00000000000E+00 -0.64699840473E+03  0.64699840473E+03  0.25500000000E-02 0. -1.
    -200001    2    1    2    0    0 -0.13143775416E+03  0.33720356673E+03 -0.72793281294E+02  0.71554213204E+03  0.61295966612E+03 0.  0.
   -5000001    2    3    3    0    0  0.21488264863E+03  0.18940162119E+03 -0.32979596913E+01  0.31954486409E+03  0.14159984760E+03 0.  0.
     200001    1    1    2    0    0  0.13143775416E+03 -0.33720356673E+03  0.24824683376E+03  0.75390822990E+03  0.61300000000E+03 0.  1.
         13    1    4    4    0    0  0.10855595710E+02  0.86662758319E+02  0.14193575508E+02  0.88485854165E+02  0.10566000000E+00 0.  1.
    -200003    1    4    4    0    0  0.20402705292E+03  0.10273886287E+03 -0.17491535199E+02  0.23105900993E+03  0.30000000000E+02 0.  1.
    -200000    1    3    3    0    0 -0.34632040279E+03  0.14780194554E+03 -0.69495321602E+02  0.39599726794E+03  0.10100000000E+03 0. -1.
<mgrwt>
<rscale>  0 0.14589381E+04</rscale>
<asrwt>0</asrwt>
<pdfrwt beam="1">  1        2 0.11749314E+00 0.14589381E+04</pdfrwt>
<pdfrwt beam="2">  1       -2 0.92428343E-01 0.14589381E+04</pdfrwt>
<totfact> 0.35379956E+01</totfact>
</mgrwt>
</event>
<event>
 8    2  0.4306980E-052  0.1810757E+04  0.7818608E-02  0.8700600E-01
         -2   -1    0    0    0  501 -0.00000000000E+00  0.00000000000E+00  0.44520727389E+03  0.44520727390E+03  0.25500000000E-02 0. -1.
          2   -1    0    0  501    0  0.00000000000E+00 -0.00000000000E+00 -0.18411879716E+04  0.18411879716E+04  0.25500000000E-02 0.  1.
    -200001    2    1    2    0    0 -0.10802745944E+03  0.36968856315E+03 -0.10615544270E+02  0.72327491293E+03  0.61210648108E+03 0.  0.
   -5000001    2    3    3    0    0 -0.19207136809E+03  0.11354076198E+03  0.24194069163E+03  0.34031182474E+03  0.86567457643E+02 0.  0.
     200001    1    1    2    0    0  0.10802745944E+03 -0.36968856315E+03 -0.13853651535E+04  0.15631203326E+04  0.61300000000E+03 0.  1.
         13    1    4    4    0    0 -0.93850971990E+02  0.23578295680E+02  0.13880002849E+03  0.16920224598E+03  0.10566000000E+00 0.  1.
    -200003    1    4    4    0    0 -0.98220396100E+02  0.89962466296E+02  0.10314066314E+03  0.17110957876E+03  0.30000000000E+02 0.  1.
    -200000    1    3    3    0    0  0.84043908654E+02  0.25614780117E+03 -0.25255623590E+03  0.38296308819E+03  0.10100000000E+03 0.  1.
<mgrwt>
<rscale>  0 0.18107571E+04</rscale>
<asrwt>0</asrwt>
<pdfrwt beam="1">  1        2 0.26302685E+00 0.18107571E+04</pdfrwt>
<pdfrwt beam="2">  1       -2 0.63601040E-01 0.18107571E+04</pdfrwt>
<totfact> 0.20968131E+01</totfact>
</mgrwt>
</event>
<event>
 8    2  0.4306980E-052  0.1460601E+04  0.7818608E-02  0.8911084E-01
         -2   -1    0    0    0  501 -0.00000000000E+00  0.00000000000E+00  0.82566336950E+03  0.82566336951E+03  0.25500000000E-02 0. -1.
          2   -1    0    0  501    0  0.00000000000E+00 -0.00000000000E+00 -0.64595197591E+03  0.64595197592E+03  0.25500000000E-02 0.  1.
    -200001    2    1    2    0    0  0.19137123920E+03 -0.21329618855E+03 -0.18866898503E+03  0.70116656803E+03  0.61149027381E+03 0.  0.
   -5000001    2    3    3    0    0  0.47139934715E+02 -0.11130300168E+03 -0.38540780394E+03  0.41812515370E+03  0.10806913154E+03 0.  0.
     200001    1    1    2    0    0 -0.19137123920E+03  0.21329618855E+03  0.36838037863E+03  0.77044877740E+03  0.61300000000E+03 0. -1.
         13    1    4    4    0    0 -0.19347678867E+02 -0.36211674895E+01 -0.12823926437E+02  0.23492760264E+02  0.10566000000E+00 0.  1.
    -200003    1    4    4    0    0  0.66487613582E+02 -0.10768183419E+03 -0.37258387750E+03  0.39463239344E+03  0.30000000000E+02 0.  1.
    -200000    1    3    3    0    0  0.14423130449E+03 -0.10199318686E+03  0.19673881890E+03  0.28304141433E+03  0.10100000000E+03 0. -1.
<mgrwt>
<rscale>  0 0.14606011E+04</rscale>
<asrwt>0</asrwt>
<pdfrwt beam="1">  1        2 0.92278854E-01 0.14606011E+04</pdfrwt>
<pdfrwt beam="2">  1       -2 0.11795191E+00 0.14606011E+04</pdfrwt>
<totfact> 0.26715475E+01</totfact>
</mgrwt>
</event>
<event>
 8    2  0.4306980E-052  0.1276466E+04  0.7818608E-02  0.9048439E-01
          2   -1    0    0  501    0  0.00000000000E+00  0.00000000000E+00  0.99272784228E+03  0.99272784229E+03  0.25500000000E-02 0.  1.
         -2   -1    0    0    0  501 -0.00000000000E+00 -0.00000000000E+00 -0.41032524138E+03  0.41032524139E+03  0.25500000000E-02 0. -1.
    -200001    2    1    2    0    0  0.10965518257E+03  0.13555724240E+03  0.39668536413E+03  0.73923088077E+03  0.59891818468E+03 0.  0.
   -5000001    2    3    3    0    0  0.15461756334E+03  0.31937026793E+03  0.36572541354E+03  0.52250902544E+03  0.11557095062E+03 0.  0.
     200001    1    1    2    0    0 -0.10965518257E+03 -0.13555724240E+03  0.18571723678E+03  0.66382220290E+03  0.61300000000E+03 0. -1.
         13    1    4    4    0    0  0.11103249485E+03  0.14189295011E+03  0.12729423257E+03  0.22060293972E+03  0.10566000000E+00 0.  1.
    -200003    1    4    4    0    0  0.43585068488E+02  0.17747731781E+03  0.23843118097E+03  0.30190608572E+03  0.30000000000E+02 0.  1.
    -200000    1    3    3    0    0 -0.44962380768E+02 -0.18381302552E+03  0.30959950587E+02  0.21672185533E+03  0.10100000000E+03 0.  1.
<mgrwt>
<rscale>  0 0.12764659E+04</rscale>
<asrwt>0</asrwt>
<pdfrwt beam="1">  1        2 0.14181826E+00 0.12764659E+04</pdfrwt>
<pdfrwt beam="2">  1       -2 0.58617892E-01 0.12764659E+04</pdfrwt>
<totfact> 0.75860076E+01</totfact>
</mgrwt>
</event>
<event>
 8    2  0.4306980E-052  0.1816560E+04  0.7818608E-02  0.8697542E-01
         -2   -1    0    0    0  501 -0.00000000000E+00  0.00000000000E+00  0.81288939864E+03  0.81288939864E+03  0.25500000000E-02 0. -1.
          2   -1    0    0  501    0  0.00000000000E+00 -0.00000000000E+00 -0.10148647891E+04  0.10148647891E+04  0.25500000000E-02 0.  1.
    -200001    2    1    2    0    0  0.56348534180E+03 -0.21756364250E+03  0.19073756432E+03  0.88179322988E+03  0.61345644739E+03 0.  0.
   -5000001    2    3    3    0    0  0.15059643936E+03  0.78483304229E+02 -0.16813065321E+03  0.25162782462E+03  0.78801833647E+02 0.  0.
     200001    1    1    2    0    0 -0.56348534180E+03  0.21756364250E+03 -0.39271295478E+03  0.94596095787E+03  0.61300000000E+03 0.  1.
         13    1    4    4    0    0  0.12724526858E+03  0.43722653647E+02 -0.10862915832E+03  0.17292580495E+03  0.10566000000E+00 0.  1.
    -200003    1    4    4    0    0  0.23351170775E+02  0.34760650582E+02 -0.59501494892E+02  0.78702019668E+02  0.30000000000E+02 0.  1.
    -200000    1    3    3    0    0  0.41288890244E+03 -0.29604694673E+03  0.35886821752E+03  0.63016540526E+03  0.10100000000E+03 0. -1.
<mgrwt>
<rscale>  0 0.18165603E+04</rscale>
<asrwt>0</asrwt>
<pdfrwt beam="1">  1        2 0.14498068E+00 0.18165603E+04</pdfrwt>
<pdfrwt beam="2">  1       -2 0.11612706E+00 0.18165603E+04</pdfrwt>
<totfact> 0.14976185E+01</totfact>
</mgrwt>
</event>
<event>
 8    2  0.4306980E-052  0.1408173E+04  0.7818608E-02  0.8947924E-01
         -2   -1    0    0    0  501 -0.00000000000E+00  0.00000000000E+00  0.20742365085E+03  0.20742365087E+03  0.25500000000E-02 0. -1.
          2   -1    0    0  501    0  0.00000000000E+00 -0.00000000000E+00 -0.23899775587E+04  0.23899775587E+04  0.25500000000E-02 0.  1.
    -200001    2    1    2    0    0  0.18440743313E+02 -0.30859563332E+03 -0.13798817177E+04  0.15411706615E+04  0.61283123861E+03 0.  0.
   -5000001    2    3    3    0    0 -0.11424785054E+03  0.35988329435E+02 -0.96806530421E+03  0.97890904199E+03  0.82248088545E+02 0.  0.
     200001    1    1    2    0    0 -0.18440743313E+02  0.30859563332E+03 -0.80267219014E+03  0.10562305481E+04  0.61300000000E+03 0. -1.
         13    1    4    4    0    0  0.10749776797E+02 -0.26498125066E+01 -0.72964380240E+02  0.73799669073E+02  0.10566000000E+00 0.  1.
    -200003    1    4    4    0    0 -0.12499762734E+03  0.38638141941E+02 -0.89510092397E+03  0.90510937292E+03  0.30000000000E+02 0.  1.
    -200000    1    3    3    0    0  0.13268859385E+03 -0.34458396275E+03 -0.41181641353E+03  0.56226161952E+03  0.10100000000E+03 0. -1.
<mgrwt>
<rscale>  0 0.14081731E+04</rscale>
<asrwt>0</asrwt>
<pdfrwt beam="1">  1        2 0.34142535E+00 0.14081731E+04</pdfrwt>
<pdfrwt beam="2">  1       -2 0.29631952E-01 0.14081731E+04</pdfrwt>
<totfact> 0.51540027E+01</totfact>
</mgrwt>
</event>
<event>
 8    2  0.4306980E-052  0.1394912E+04  0.7818608E-02  0.8957509E-01
         -2   -1    0    0    0  501 -0.00000000000E+00  0.00000000000E+00  0.13496669352E+03  0.13496669354E+03  0.25500000000E-02 0. -1.
          2   -1    0    0  501    0  0.00000000000E+00 -0.00000000000E+00 -0.36041863399E+04  0.36041863399E+04  0.25500000000E-02 0.  1.
    -200001    2    1    2    0    0 -0.20379861270E+03  0.23616977445E+03 -0.14175880397E+04  0.15752973806E+04  0.61212412961E+03 0.  0.
   -5000001    2    3    3    0    0 -0.26234831640E+03 -0.39941638171E+01 -0.22908823177E+03  0.35716783964E+03  0.79024396707E+02 0.  0.
     200001    1    1    2    0    0  0.20379861270E+03 -0.23616977445E+03 -0.20516316067E+04  0.21638556529E+04  0.61300000000E+03 0.  1.
         13    1    4    4    0    0 -0.18109724510E+03  0.24648329782E+02 -0.15522123807E+03  0.23978614692E+03  0.10566000000E+00 0.  1.
    -200003    1    4    4    0    0 -0.81251071305E+02 -0.28642493599E+02 -0.73866993699E+02  0.11738169272E+03  0.30000000000E+02 0. -1.
    -200000    1    3    3    0    0  0.58549703701E+02  0.24016393827E+03 -0.11884998079E+04  0.12181295409E+04  0.10100000000E+03 0.  1.
<mgrwt>
<rscale>  0 0.13949123E+04</rscale>
<asrwt>0</asrwt>
<pdfrwt beam="1">  1        2 0.51488370E+00 0.13949123E+04</pdfrwt>
<pdfrwt beam="2">  1       -2 0.19280958E-01 0.13949123E+04</pdfrwt>
<totfact> 0.23364414E+01</totfact>
</mgrwt>
</event>
<event>
 8    2  0.4306980E-052  0.3104265E+04  0.7818608E-02  0.8214568E-01
         -2   -1    0    0    0  501 -0.00000000000E+00  0.00000000000E+00  0.85969481417E+03  0.85969481417E+03  0.25500000000E-02 0. -1.
          2   -1    0    0  501    0  0.00000000000E+00 -0.00000000000E+00 -0.28022907708E+04  0.28022907708E+04  0.25500000000E-02 0.  1.
    -200001    2    1    2    0    0 -0.11812866482E+04 -0.21236262433E+03 -0.18798203190E+04  0.23128207285E+04  0.61227384482E+03 0.  0.
   -5000001    2    3    3    0    0 -0.39937623908E+02  0.10740419936E+03 -0.10861782751E+03  0.17921165404E+03  0.84783893802E+02 0.  0.
     200001    1    1    2    0    0  0.11812866482E+04  0.21236262433E+03 -0.62775637679E+02  0.13491648565E+04  0.61300000000E+03 0. -1.
         13    1    4    4    0    0  0.17129063067E+02  0.37365122182E+02 -0.10332785111E+02  0.42383189703E+02  0.10566000000E+00 0.  1.
    -200003    1    4    4    0    0 -0.57066686975E+02  0.70039077174E+02 -0.98285042395E+02  0.13682846434E+03  0.30000000000E+02 0.  1.
    -200000    1    3    3    0    0 -0.11413490243E+04 -0.31976682368E+03 -0.17712024915E+04  0.21336090744E+04  0.10100000000E+03 0.  1.
<mgrwt>
<rscale>  0 0.31042647E+04</rscale>
<asrwt>0</asrwt>
<pdfrwt beam="1">  1        2 0.40032725E+00 0.31042647E+04</pdfrwt>
<pdfrwt beam="2">  1       -2 0.12281355E+00 0.31042647E+04</pdfrwt>
<totfact> 0.13002999E+00</totfact>
</mgrwt>
</event>
<event>
 8    2  0.4306980E-052  0.1632508E+04  0.7818608E-02  0.8800822E-01
         -2   -1    0    0    0  501 -0.00000000000E+00  0.00000000000E+00  0.76481791967E+03  0.76481791967E+03  0.25500000000E-02 0. -1.
          2   -1    0    0  501    0  0.00000000000E+00 -0.00000000000E+00 -0.87114942339E+03  0.87114942340E+03  0.25500000000E-02 0.  1.
    -200001    2    1    2    0    0  0.61961324581E+02 -0.42904002548E+03  0.26669328600E+03  0.79761715195E+03  0.61412805104E+03 0.  0.
   -5000001    2    3    3    0    0  0.58591801367E+02 -0.47933533538E+03 -0.16480670335E+02  0.49277381279E+03  0.96742209773E+02 0.  0.
     200001    1    1    2    0    0 -0.61961324581E+02  0.42904002548E+03 -0.37302478972E+03  0.83835019112E+03  0.61300000000E+03 0.  1.
         13    1    4    4    0    0  0.56929326794E+02 -0.15551093399E+03 -0.24809542646E+02  0.16745185401E+03  0.10566000000E+00 0.  1.
    -200003    1    4    4    0    0  0.16624745722E+01 -0.32382440138E+03  0.83288723108E+01  0.32532195878E+03  0.30000000000E+02 0.  1.
    -200000    1    3    3    0    0  0.33695232145E+01  0.50295309896E+02  0.28317395633E+03  0.30484333916E+03  0.10100000000E+03 0. -1.
<mgrwt>
<rscale>  0 0.16325081E+04</rscale>
<asrwt>0</asrwt>
<pdfrwt beam="1">  1        2 0.12444992E+00 0.16325081E+04</pdfrwt>
<pdfrwt beam="2">  1       -2 0.10925970E+00 0.16325081E+04</pdfrwt>
<totfact> 0.21762690E+01</totfact>
</mgrwt>
</event>
<event>
 8    2  0.4306980E-052  0.1854996E+04  0.7818608E-02  0.8677588E-01
          2   -1    0    0  501    0  0.00000000000E+00  0.00000000000E+00  0.45370414784E+04  0.45370414784E+04  0.25500000000E-02 0.  1.
         -2   -1    0    0    0  501 -0.00000000000E+00 -0.00000000000E+00 -0.18960656151E+03  0.18960656152E+03  0.25500000000E-02 0. -1.
    -200001    2    1    2    0    0  0.59793576895E+03 -0.35695977871E+03  0.21854154838E+04  0.23739805121E+04  0.61220516787E+03 0.  0.
   -5000001    2    3    3    0    0  0.48727910431E+03 -0.49318754668E+03  0.14804997895E+04  0.16405570067E+04  0.13737825099E+03 0.  0.
     200001    1    1    2    0    0 -0.59793576895E+03  0.35695977871E+03  0.21620194331E+04  0.23526675278E+04  0.61300000000E+03 0. -1.
         13    1    4    4    0    0  0.39008169120E+03 -0.44334969248E+03  0.11824426376E+04  0.13217009034E+04  0.10566000000E+00 0.  1.
    -200003    1    4    4    0    0  0.97197413107E+02 -0.49837854201E+02  0.29805715190E+03  0.31885610332E+03  0.30000000000E+02 0.  1.
    -200000    1    3    3    0    0  0.11065666464E+03  0.13622776796E+03  0.70491569424E+03  0.73342350534E+03  0.10100000000E+03 0.  1.
<mgrwt>
<rscale>  0 0.18549963E+04</rscale>
<asrwt>0</asrwt>
<pdfrwt beam="1">  1        2 0.64814873E+00 0.18549963E+04</pdfrwt>
<pdfrwt beam="2">  1       -2 0.27086654E-01 0.18549963E+04</pdfrwt>
<totfact> 0.26878552E+00</totfact>
</mgrwt>
</event>
<event>
 8    2  0.4306980E-052  0.1355863E+04  0.7818608E-02  0.8986402E-01
         -2   -1    0    0    0  501 -0.00000000000E+00  0.00000000000E+00  0.38000516037E+03  0.38000516038E+03  0.25500000000E-02 0. -1.
          2   -1    0    0  501    0  0.00000000000E+00 -0.00000000000E+00 -0.12094335097E+04  0.12094335097E+04  0.25500000000E-02 0.  1.
    -200001    2    1    2    0    0  0.26741424213E+03 -0.66582041391E+02 -0.30979985154E+03  0.73989389736E+03  0.61279971133E+03 0.  0.
   -5000001    2    3    3    0    0 -0.28377954941E+02 -0.12745817569E+03 -0.37964181314E+03  0.41389109496E+03  0.10063318204E+03 0.  0.
     200001    1    1    2    0    0 -0.26741424213E+03  0.66582041391E+02 -0.51962849775E+03  0.84954477269E+03  0.61300000000E+03 0.  1.
         13    1    4    4    0    0  0.78101585752E+01 -0.40135190440E+00 -0.12681478356E+03  0.12705573641E+03  0.10566000000E+00 0.  1.
    -200003    1    4    4    0    0 -0.36188113516E+02 -0.12705682379E+03 -0.25282702957E+03  0.28683535855E+03  0.30000000000E+02 0. -1.
    -200000    1    3    3    0    0  0.29579219707E+03  0.60876134301E+02  0.69841961595E+02  0.32600280240E+03  0.10100000000E+03 0. -1.
<mgrwt>
<rscale>  0 0.13558628E+04</rscale>
<asrwt>0</asrwt>
<pdfrwt beam="1">  1        2 0.17277621E+00 0.13558628E+04</pdfrwt>
<pdfrwt beam="2">  1       -2 0.54286452E-01 0.13558628E+04</pdfrwt>
<totfact> 0.65890044E+01</totfact>
</mgrwt>
</event>
<event>
 8    2  0.4306980E-052  0.1894320E+04  0.7818608E-02  0.8657689E-01
         -2   -1    0    0    0  501 -0.00000000000E+00  0.00000000000E+00  0.34546726753E+03  0.34546726754E+03  0.25500000000E-02 0. -1.
          2   -1    0    0  501    0  0.00000000000E+00 -0.00000000000E+00 -0.25968089062E+04  0.25968089062E+04  0.25500000000E-02 0.  1.
    -200001    2    1    2    0    0  0.68572210327E+03 -0.83188413714E+02 -0.80185151683E+03  0.12235773262E+04  0.61403623931E+03 0.  0.
   -5000001    2    3    3    0    0  0.21550804222E+03 -0.21830437487E+03 -0.49918822253E+02  0.32082522111E+03  0.79601616402E+02 0.  0.
     200001    1    1    2    0    0 -0.68572210327E+03  0.83188413714E+02 -0.14494901219E+04  0.17186988475E+04  0.61300000000E+03 0.  1.
         13    1    4    4    0    0  0.14177037036E+03 -0.15923339407E+03 -0.59189128393E+02  0.22126336295E+03  0.10566000000E+00 0.  1.
    -200003    1    4    4    0    0  0.73737671860E+02 -0.59070980800E+02  0.92703061394E+01  0.99561858158E+02  0.30000000000E+02 0.  1.
    -200000    1    3    3    0    0  0.47021406104E+03  0.13511596116E+03 -0.75193269457E+03  0.90275210514E+03  0.10100000000E+03 0.  1.
<mgrwt>
<rscale>  0 0.18943204E+04</rscale>
<asrwt>0</asrwt>
<pdfrwt beam="1">  1        2 0.37097269E+00 0.18943204E+04</pdfrwt>
<pdfrwt beam="2">  1       -2 0.49352468E-01 0.18943204E+04</pdfrwt>
<totfact> 0.14311962E+01</totfact>
</mgrwt>
</event>
<event>
 8    2  0.4306980E-052  0.1459085E+04  0.7818608E-02  0.8912126E-01
         -2   -1    0    0    0  501 -0.00000000000E+00  0.00000000000E+00  0.39972597407E+03  0.39972597408E+03  0.25500000000E-02 0. -1.
          2   -1    0    0  501    0  0.00000000000E+00 -0.00000000000E+00 -0.13314934488E+04  0.13314934488E+04  0.25500000000E-02 0.  1.
    -200001    2    1    2    0    0  0.17148474058E+03 -0.35671772264E+03 -0.44115910746E+03  0.85194692817E+03  0.61199482059E+03 0.  0.
   -5000001    2    3    3    0    0 -0.61025895180E+02  0.86234377303E+02 -0.28861085302E+03  0.31927467574E+03  0.86484486331E+02 0.  0.
     200001    1    1    2    0    0 -0.17148474058E+03  0.35671772264E+03 -0.49060836727E+03  0.87927249470E+03  0.61300000000E+03 0.  1.
         13    1    4    4    0    0  0.46870832659E+01  0.58876154919E+02 -0.11610052611E+03  0.13026017693E+03  0.10566000000E+00 0.  1.
    -200003    1    4    4    0    0 -0.65712978446E+02  0.27358222383E+02 -0.17251032691E+03  0.18901449880E+03  0.30000000000E+02 0.  1.
    -200000    1    3    3    0    0  0.23251063576E+03 -0.44295209994E+03 -0.15254825444E+03  0.53267225244E+03  0.10100000000E+03 0. -1.
<mgrwt>
<rscale>  0 0.14590854E+04</rscale>
<asrwt>0</asrwt>
<pdfrwt beam="1">  1        2 0.19021335E+00 0.14590854E+04</pdfrwt>
<pdfrwt beam="2">  1       -2 0.57103711E-01 0.14590854E+04</pdfrwt>
<totfact> 0.50307013E+01</totfact>
</mgrwt>
</event>
<event>
 8    2  0.4306980E-052  0.1881296E+04  0.7818608E-02  0.8664223E-01
          2   -1    0    0  501    0  0.00000000000E+00  0.00000000000E+00  0.10226493958E+04  0.10226493958E+04  0.25500000000E-02 0.  1.
         -2   -1    0    0    0  501 -0.00000000000E+00 -0.00000000000E+00 -0.86522209462E+03  0.86522209462E+03  0.25500000000E-02 0. -1.
    -200001    2    1    2    0    0 -0.48637190673E+03  0.25204659246E+03  0.53720398171E+03  0.98228635164E+03  0.61336224388E+03 0.  0.
   -5000001    2    3    3    0    0 -0.43362539098E+03 -0.74891444591E+02  0.18683141476E+03  0.48970883422E+03  0.10615581282E+03 0.  0.
     200001    1    1    2    0    0  0.48637190673E+03 -0.25204659246E+03 -0.37977668056E+03  0.90558513875E+03  0.61300000000E+03 0. -1.
         13    1    4    4    0    0 -0.22713581214E+03 -0.22305224244E+02  0.14530033024E+03  0.27055571943E+03  0.10566000000E+00 0.  1.
    -200003    1    4    4    0    0 -0.20648957884E+03 -0.52586220347E+02  0.41531084525E+02  0.21915311479E+03  0.30000000000E+02 0.  1.
    -200000    1    3    3    0    0 -0.52746515747E+02  0.32693803705E+03  0.35037256695E+03  0.49257751742E+03  0.10100000000E+03 0.  1.
<mgrwt>
<rscale>  0 0.18812962E+04</rscale>
<asrwt>0</asrwt>
<pdfrwt beam="1">  1        2 0.14609277E+00 0.18812962E+04</pdfrwt>
<pdfrwt beam="2">  1       -2 0.12360316E+00 0.18812962E+04</pdfrwt>
<totfact> 0.12625734E+01</totfact>
</mgrwt>
</event>
<event>
 8    2  0.4306980E-052  0.1304945E+04  0.7818608E-02  0.9025653E-01
          2   -1    0    0  501    0  0.00000000000E+00  0.00000000000E+00  0.30341878799E+04  0.30341878799E+04  0.25500000000E-02 0.  1.
         -2   -1    0    0    0  501 -0.00000000000E+00 -0.00000000000E+00 -0.14030789586E+03  0.14030789589E+03  0.25500000000E-02 0. -1.
    -200001    2    1    2    0    0  0.28569692542E+02  0.87706680886E+02  0.19417189632E+04  0.20383231222E+04  0.61317202246E+03 0.  0.
   -5000001    2    3    3    0    0 -0.16498993682E+03  0.24764880090E+03  0.13267604854E+04  0.13664438612E+04  0.13536555108E+03 0.  0.
     200001    1    1    2    0    0 -0.28569692542E+02 -0.87706680886E+02  0.95216102080E+03  0.11361726536E+04  0.61300000000E+03 0. -1.
         13    1    4    4    0    0 -0.15007975030E+03  0.16380652359E+03  0.11030582310E+04  0.11252084165E+04  0.10566000000E+00 0.  1.
    -200003    1    4    4    0    0 -0.14910186522E+02  0.83842277310E+02  0.22370225446E+03  0.24123544470E+03  0.30000000000E+02 0.  1.
    -200000    1    3    3    0    0  0.19355962936E+03 -0.15994212001E+03  0.61495847778E+03  0.67187926093E+03  0.10100000000E+03 0. -1.
<mgrwt>
<rscale>  0 0.13049452E+04</rscale>
<asrwt>0</asrwt>
<pdfrwt beam="1">  1        2 0.43345538E+00 0.13049452E+04</pdfrwt>
<pdfrwt beam="2">  1       -2 0.20043986E-01 0.13049452E+04</pdfrwt>
<totfact> 0.47530777E+01</totfact>
</mgrwt>
</event>
<event>
 8    2  0.4306980E-052  0.1425982E+04  0.7818608E-02  0.8935223E-01
         -2   -1    0    0    0  501 -0.00000000000E+00  0.00000000000E+00  0.23015963079E+03  0.23015963081E+03  0.25500000000E-02 0. -1.
          2   -1    0    0  501    0  0.00000000000E+00 -0.00000000000E+00 -0.22087101668E+04  0.22087101668E+04  0.25500000000E-02 0.  1.
    -200001    2    1    2    0    0  0.49023591816E+02  0.18297558665E+03 -0.46650705000E+03  0.79633277171E+03  0.61695516671E+03 0.  0.
   -5000001    2    3    3    0    0  0.15280785239E+03  0.23219255827E+03 -0.55129831403E+03  0.62144983516E+03  0.70756220199E+02 0.  0.
     200001    1    1    2    0    0 -0.49023591816E+02 -0.18297558665E+03 -0.15120434860E+04  0.16425370259E+04  0.61300000000E+03 0.  1.
         13    1    4    4    0    0  0.72077915395E+02  0.14283457154E+03 -0.26736193177E+03  0.31157559987E+03  0.10566000000E+00 0.  1.
    -200003    1    4    4    0    0  0.80729936999E+02  0.89357986728E+02 -0.28393638227E+03  0.30987423529E+03  0.30000000000E+02 0.  1.
    -200000    1    3    3    0    0 -0.10378426058E+03 -0.49216971615E+02  0.84791264037E+02  0.17488293655E+03  0.10100000000E+03 0. -1.
<mgrwt>
<rscale>  0 0.14259816E+04</rscale>
<asrwt>0</asrwt>
<pdfrwt beam="1">  1        2 0.31553001E+00 0.14259816E+04</pdfrwt>
<pdfrwt beam="2">  1       -2 0.32879949E-01 0.14259816E+04</pdfrwt>
<totfact> 0.52564128E+01</totfact>
</mgrwt>
</event>
<event>
 8    2  0.4306980E-052  0.1709144E+04  0.7818608E-02  0.8756166E-01
          2   -1    0    0  501    0  0.00000000000E+00  0.00000000000E+00  0.16693597729E+04  0.16693597729E+04  0.25500000000E-02 0.  1.
         -2   -1    0    0    0  501 -0.00000000000E+00 -0.00000000000E+00 -0.43746900097E+03  0.43746900098E+03  0.25500000000E-02 0. -1.
    -200001    2    1    2    0    0  0.86489472849E+02 -0.51368775681E+03  0.96992955463E+03  0.12608097317E+04  0.61442843204E+03 0.  0.
   -5000001    2    3    3    0    0  0.30115409076E+03 -0.45860659139E+03  0.74975788950E+03  0.93249373283E+03  0.79961721131E+02 0.  0.
     200001    1    1    2    0    0 -0.86489472849E+02  0.51368775681E+03  0.26196121729E+03  0.84601904221E+03  0.61300000000E+03 0. -1.
         13    1    4    4    0    0  0.11119200892E+03 -0.20814086196E+03  0.36650519754E+03  0.43590406313E+03  0.10566000000E+00 0.  1.
    -200003    1    4    4    0    0  0.18996208184E+03 -0.25046572943E+03  0.38325269196E+03  0.49658966970E+03  0.30000000000E+02 0.  1.
    -200000    1    3    3    0    0 -0.21466461791E+03 -0.55081165416E+02  0.22017166514E+03  0.32831599884E+03  0.10100000000E+03 0.  1.
<mgrwt>
<rscale>  0 0.17091438E+04</rscale>
<asrwt>0</asrwt>
<pdfrwt beam="1">  1        2 0.23847996E+00 0.17091438E+04</pdfrwt>
<pdfrwt beam="2">  1       -2 0.62495573E-01 0.17091438E+04</pdfrwt>
<totfact> 0.26941160E+01</totfact>
</mgrwt>
</event>
<event>
 8    2  0.4306980E-052  0.1337954E+04  0.7818608E-02  0.8999997E-01
          2   -1    0    0  501    0  0.00000000000E+00  0.00000000000E+00  0.85996616796E+03  0.85996616797E+03  0.25500000000E-02 0.  1.
         -2   -1    0    0    0  501 -0.00000000000E+00 -0.00000000000E+00 -0.52040470521E+03  0.52040470522E+03  0.25500000000E-02 0. -1.
    -200001    2    1    2    0    0 -0.24013588270E+03 -0.56208912967E+02  0.63103152732E+02  0.66411471703E+03  0.61338541345E+03 0.  0.
   -5000001    2    3    3    0    0 -0.35447022625E+03  0.15689193134E+03  0.13681899508E+02  0.39741681259E+03  0.86537328000E+02 0.  0.
     200001    1    1    2    0    0  0.24013588270E+03  0.56208912967E+02  0.27645831002E+03  0.71625615616E+03  0.61300000000E+03 0.  1.
         13    1    4    4    0    0 -0.17503042923E+03  0.91507875913E+02  0.42301449512E+02  0.20198704490E+03  0.10566000000E+00 0.  1.
    -200003    1    4    4    0    0 -0.17943979702E+03  0.65384055427E+02 -0.28619550004E+02  0.19542976770E+03  0.30000000000E+02 0.  1.
    -200000    1    3    3    0    0  0.11433434355E+03 -0.21310084431E+03  0.49421253225E+02  0.26669790444E+03  0.10100000000E+03 0. -1.
<mgrwt>
<rscale>  0 0.13379543E+04</rscale>
<asrwt>0</asrwt>
<pdfrwt beam="1">  1        2 0.12285231E+00 0.13379543E+04</pdfrwt>
<pdfrwt beam="2">  1       -2 0.74343529E-01 0.13379543E+04</pdfrwt>
<totfact> 0.55112403E+01</totfact>
</mgrwt>
</event>
<event>
 8    2  0.4306980E-052  0.1672978E+04  0.7818608E-02  0.8776928E-01
          2   -1    0    0  501    0  0.00000000000E+00  0.00000000000E+00  0.20444596570E+04  0.20444596570E+04  0.25500000000E-02 0.  1.
         -2   -1    0    0    0  501 -0.00000000000E+00 -0.00000000000E+00 -0.34224898844E+03  0.34224898844E+03  0.25500000000E-02 0. -1.
    -200001    2    1    2    0    0  0.62384800173E+02 -0.12550128418E+03  0.16383341935E+04  0.17546551353E+04  0.61239960702E+03 0.  0.
   -5000001    2    3    3    0    0  0.27077084543E+03 -0.33317817917E+02  0.12676888576E+04  0.13079992272E+04  0.17146431323E+03 0.  0.
     200001    1    1    2    0    0 -0.62384800173E+02  0.12550128418E+03  0.63876475083E+02  0.63205351015E+03  0.61300000000E+03 0. -1.
         13    1    4    4    0    0  0.11195862105E+03  0.68078070370E+02  0.48459124897E+03  0.50199406992E+03  0.10566000000E+00 0.  1.
    -200003    1    4    4    0    0  0.15881222438E+03 -0.10139588829E+03  0.78309760867E+03  0.80600515723E+03  0.30000000000E+02 0.  1.
    -200000    1    3    3    0    0 -0.20838604525E+03 -0.92183466266E+02  0.37064533588E+03  0.44665590819E+03  0.10100000000E+03 0.  1.
<mgrwt>
<rscale>  0 0.16729785E+04</rscale>
<asrwt>0</asrwt>
<pdfrwt beam="1">  1        2 0.29206568E+00 0.16729785E+04</pdfrwt>
<pdfrwt beam="2">  1       -2 0.48892711E-01 0.16729785E+04</pdfrwt>
<totfact> 0.28808468E+01</totfact>
</mgrwt>
</event>
<event>
 8    2  0.4306980E-052  0.1652797E+04  0.7818608E-02  0.8788753E-01
          2   -1    0    0  501    0  0.00000000000E+00  0.00000000000E+00  0.82498135341E+03  0.82498135342E+03  0.25500000000E-02 0.  1.
         -2   -1    0    0    0  501 -0.00000000000E+00 -0.00000000000E+00 -0.82781832921E+03  0.82781832921E+03  0.25500000000E-02 0. -1.
    -200001    2    1    2    0    0  0.27409780102E+03  0.38165452260E+03 -0.29447113846E+03  0.82720337451E+03  0.61380973621E+03 0.  0.
   -5000001    2    3    3    0    0 -0.99472006434E+02  0.12684769241E+03  0.11094465288E+03  0.21153797381E+03  0.80340408445E+02 0.  0.
     200001    1    1    2    0    0 -0.27409780102E+03 -0.38165452260E+03  0.29163416267E+03  0.82559630812E+03  0.61300000000E+03 0.  1.
         13    1    4    4    0    0  0.62166406812E+01 -0.52879607177E+01  0.65971387566E+01  0.10494882263E+02  0.10566000000E+00 0.  1.
    -200003    1    4    4    0    0 -0.10568864712E+03  0.13213565313E+03  0.10434751412E+03  0.20104309155E+03  0.30000000000E+02 0.  1.
    -200000    1    3    3    0    0  0.37356980746E+03  0.25480683018E+03 -0.40541579133E+03  0.61566540069E+03  0.10100000000E+03 0. -1.
<mgrwt>
<rscale>  0 0.16527972E+04</rscale>
<asrwt>0</asrwt>
<pdfrwt beam="1">  1        2 0.11785448E+00 0.16527972E+04</pdfrwt>
<pdfrwt beam="2">  1       -2 0.11825976E+00 0.16527972E+04</pdfrwt>
<totfact> 0.19252891E+01</totfact>
</mgrwt>
</event>
<event>
 8    2  0.4306980E-052  0.1406369E+04  0.7818608E-02  0.8949222E-01
         -2   -1    0    0    0  501 -0.00000000000E+00  0.00000000000E+00  0.41436382978E+03  0.41436382979E+03  0.25500000000E-02 0. -1.
          2   -1    0    0  501    0  0.00000000000E+00 -0.00000000000E+00 -0.11933187434E+04  0.11933187434E+04  0.25500000000E-02 0.  1.
    -200001    2    1    2    0    0  0.23711759693E+03  0.14787452699E+03 -0.15844187804E+03  0.69176933613E+03  0.61265761660E+03 0.  0.
   -5000001    2    3    3    0    0 -0.13382117609E+03  0.23569854861E+02 -0.23175264291E+03  0.28113240026E+03  0.82840169916E+02 0.  0.
     200001    1    1    2    0    0 -0.23711759693E+03 -0.14787452699E+03 -0.62051303558E+03  0.91591323706E+03  0.61300000000E+03 0.  1.
         13    1    4    4    0    0  0.81192832105E+01 -0.70714866211E+01 -0.13334814197E+02  0.17139344112E+02  0.10566000000E+00 0.  1.
    -200003    1    4    4    0    0 -0.14194045931E+03  0.30641341483E+02 -0.21841782871E+03  0.26399305615E+03  0.30000000000E+02 0.  1.
    -200000    1    3    3    0    0  0.37093877303E+03  0.12430467213E+03  0.73310764870E+02  0.41063693586E+03  0.10100000000E+03 0. -1.
<mgrwt>
<rscale>  0 0.14063686E+04</rscale>
<asrwt>0</asrwt>
<pdfrwt beam="1">  1        2 0.17047410E+00 0.14063686E+04</pdfrwt>
<pdfrwt beam="2">  1       -2 0.59194833E-01 0.14063686E+04</pdfrwt>
<totfact> 0.55964774E+01</totfact>
</mgrwt>
</event>
<event>
 8    2  0.4306980E-052  0.1423684E+04  0.7818608E-02  0.8936851E-01
         -2   -1    0    0    0  501 -0.00000000000E+00  0.00000000000E+00  0.77814993759E+03  0.77814993759E+03  0.25500000000E-02 0. -1.
          2   -1    0    0  501    0  0.00000000000E+00 -0.00000000000E+00 -0.65118437366E+03  0.65118437367E+03  0.25500000000E-02 0.  1.
    -200001    2    1    2    0    0 -0.27143108248E+03 -0.23682907135E+03  0.78329353244E+02  0.71666515761E+03  0.61458166176E+03 0.  0.
   -5000001    2    3    3    0    0 -0.25041676360E+03  0.13169157070E+03  0.14062839364E+03  0.32893943542E+03  0.91507277249E+02 0.  0.
     200001    1    1    2    0    0  0.27143108248E+03  0.23682907135E+03  0.48636210682E+02  0.71266915365E+03  0.61300000000E+03 0.  1.
         13    1    4    4    0    0 -0.16059247257E+03  0.12087649528E+03  0.10809717894E+03  0.22822375121E+03  0.10566000000E+00 0.  1.
    -200003    1    4    4    0    0 -0.89824291032E+02  0.10815075419E+02  0.32531214700E+02  0.10071568421E+03  0.30000000000E+02 0. -1.
    -200000    1    3    3    0    0 -0.21014318883E+02 -0.36852064205E+03 -0.62299040399E+02  0.38772572219E+03  0.10100000000E+03 0. -1.
<mgrwt>
<rscale>  0 0.14236841E+04</rscale>
<asrwt>0</asrwt>
<pdfrwt beam="1">  1        2 0.93026339E-01 0.14236841E+04</pdfrwt>
<pdfrwt beam="2">  1       -2 0.11116428E+00 0.14236841E+04</pdfrwt>
<totfact> 0.30658241E+01</totfact>
</mgrwt>
</event>
<event>
 8    2  0.4306980E-052  0.1392331E+04  0.7818608E-02  0.8959389E-01
          2   -1    0    0  501    0  0.00000000000E+00  0.00000000000E+00  0.37778052623E+04  0.37778052623E+04  0.25500000000E-02 0.  1.
         -2   -1    0    0    0  501 -0.00000000000E+00 -0.00000000000E+00 -0.12828779316E+03  0.12828779319E+03  0.25500000000E-02 0. -1.
    -200001    2    1    2    0    0 -0.30545960926E+03 -0.12478776607E+03  0.18139415679E+04  0.19429360448E+04  0.61297545052E+03 0.  0.
   -5000001    2    3    3    0    0 -0.48739242494E+02 -0.11956831915E+03  0.15618186712E+04  0.15691720225E+04  0.79694276585E+02 0.  0.
     200001    1    1    2    0    0  0.30545960926E+03  0.12478776607E+03  0.18355759012E+04  0.19631570106E+04  0.61300000000E+03 0.  1.
         13    1    4    4    0    0  0.16248867495E+02 -0.46950548492E+02  0.48710436381E+03  0.48963154729E+03  0.10566000000E+00 0.  1.
    -200003    1    4    4    0    0 -0.64988109990E+02 -0.72617770656E+02  0.10747143074E+04  0.10795404752E+04  0.30000000000E+02 0.  1.
    -200000    1    3    3    0    0 -0.25672036676E+03 -0.52194469217E+01  0.25212289673E+03  0.37376402233E+03  0.10100000000E+03 0. -1.
<mgrwt>
<rscale>  0 0.13923309E+04</rscale>
<asrwt>0</asrwt>
<pdfrwt beam="1">  1        2 0.53968644E+00 0.13923309E+04</pdfrwt>
<pdfrwt beam="2">  1       -2 0.18326828E-01 0.13923309E+04</pdfrwt>
<totfact> 0.19837432E+01</totfact>
</mgrwt>
</event>
<event>
 8    2  0.4306980E-052  0.1487485E+04  0.7818608E-02  0.8892818E-01
          2   -1    0    0  501    0  0.00000000000E+00  0.00000000000E+00  0.10112638916E+04  0.10112638916E+04  0.25500000000E-02 0.  1.
         -2   -1    0    0    0  501 -0.00000000000E+00 -0.00000000000E+00 -0.54699152946E+03  0.54699152946E+03  0.25500000000E-02 0. -1.
    -200001    2    1    2    0    0  0.19092409786E+03  0.21203055522E+03 -0.94599412816E+02  0.68103502211E+03  0.61110611594E+03 0.  0.
   -5000001    2    3    3    0    0  0.32406543215E+03  0.23697019590E+02  0.87974558588E+02  0.37001992509E+03  0.15360751594E+03 0.  0.
     200001    1    1    2    0    0 -0.19092409786E+03 -0.21203055522E+03  0.55887177493E+03  0.87722039894E+03  0.61300000000E+03 0.  1.
         13    1    4    4    0    0  0.24225337869E+03  0.55023756839E+02  0.94411981251E+01  0.24860301826E+03  0.10566000000E+00 0.  1.
    -200003    1    4    4    0    0  0.81812053461E+02 -0.31326737249E+02  0.78533360463E+02  0.12141690683E+03  0.30000000000E+02 0.  1.
    -200000    1    3    3    0    0 -0.13314133429E+03  0.18833353563E+03 -0.18257397140E+03  0.31101509702E+03  0.10100000000E+03 0. -1.
<mgrwt>
<rscale>  0 0.14874848E+04</rscale>
<asrwt>0</asrwt>
<pdfrwt beam="1">  1        2 0.14446627E+00 0.14874848E+04</pdfrwt>
<pdfrwt beam="2">  1       -2 0.78141648E-01 0.14874848E+04</pdfrwt>
<totfact> 0.39028396E+01</totfact>
</mgrwt>
</event>
<event>
 8    2  0.4306980E-052  0.1835573E+04  0.7818608E-02  0.8687608E-01
          2   -1    0    0  501    0  0.00000000000E+00  0.00000000000E+00  0.14384178093E+04  0.14384178093E+04  0.25500000000E-02 0.  1.
         -2   -1    0    0    0  501 -0.00000000000E+00 -0.00000000000E+00 -0.58559595390E+03  0.58559595391E+03  0.25500000000E-02 0. -1.
    -200001    2    1    2    0    0  0.59768920053E+03  0.30482425545E+02  0.78923557801E+03  0.11649597641E+04  0.61325108696E+03 0.  0.
   -5000001    2    3    3    0    0  0.53683853444E+03 -0.17104579510E+03  0.35343722570E+03  0.67055342194E+03  0.85274516029E+02 0.  0.
     200001    1    1    2    0    0 -0.59768920053E+03 -0.30482425545E+02  0.63586277365E+02  0.85905399910E+03  0.61300000000E+03 0. -1.
         13    1    4    4    0    0  0.25545879153E+03 -0.80772110931E+02  0.21157168816E+03  0.34138822251E+03  0.10566000000E+00 0.  1.
    -200003    1    4    4    0    0  0.28137974291E+03 -0.90273684166E+02  0.14186553753E+03  0.32916519942E+03  0.30000000000E+02 0.  1.
    -200000    1    3    3    0    0  0.60850666085E+02  0.20152822064E+03  0.43579835232E+03  0.49440634215E+03  0.10100000000E+03 0. -1.
<mgrwt>
<rscale>  0 0.18355726E+04</rscale>
<asrwt>0</asrwt>
<pdfrwt beam="1">  1        2 0.20548826E+00 0.18355726E+04</pdfrwt>
<pdfrwt beam="2">  1       -2 0.83656563E-01 0.18355726E+04</pdfrwt>
<totfact> 0.18613017E+01</totfact>
</mgrwt>
</event>
<event>
 8    2  0.4306980E-052  0.1614928E+04  0.7818608E-02  0.8811429E-01
         -2   -1    0    0    0  501 -0.00000000000E+00  0.00000000000E+00  0.15480417982E+04  0.15480417982E+04  0.25500000000E-02 0. -1.
          2   -1    0    0  501    0  0.00000000000E+00 -0.00000000000E+00 -0.42117622841E+03  0.42117622842E+03  0.25500000000E-02 0.  1.
    -200001    2    1    2    0    0 -0.24647212575E+03 -0.34322284555E+03  0.94474171980E+03  0.12027400248E+04  0.61277746340E+03 0.  0.
   -5000001    2    3    3    0    0 -0.25442125326E+03 -0.11191228829E+03  0.85259854614E+02  0.30692875053E+03  0.98394515653E+02 0.  0.
     200001    1    1    2    0    0  0.24647212575E+03  0.34322284555E+03  0.18212384994E+03  0.76647800177E+03  0.61300000000E+03 0.  1.
         13    1    4    4    0    0 -0.15611136082E+02 -0.36346268527E+02 -0.29840002354E+01  0.39669562980E+02  0.10566000000E+00 0.  1.
    -200003    1    4    4    0    0 -0.23881011718E+03 -0.75566019763E+02  0.88243854849E+02  0.26725918755E+03  0.30000000000E+02 0.  1.
    -200000    1    3    3    0    0  0.79491275143E+01 -0.23131055726E+03  0.85948186519E+03  0.89581127427E+03  0.10100000000E+03 0. -1.
<mgrwt>
<rscale>  0 0.16149284E+04</rscale>
<asrwt>0</asrwt>
<pdfrwt beam="1">  1        2 0.60168033E-01 0.16149284E+04</pdfrwt>
<pdfrwt beam="2">  1       -2 0.22114883E+00 0.16149284E+04</pdfrwt>
<totfact> 0.76098297E+00</totfact>
</mgrwt>
</event>
<event>
 8    2  0.4306980E-052  0.1790545E+04  0.7818608E-02  0.8711344E-01
          2   -1    0    0  501    0  0.00000000000E+00  0.00000000000E+00  0.98011967569E+03  0.98011967569E+03  0.25500000000E-02 0.  1.
         -2   -1    0    0    0  501 -0.00000000000E+00 -0.00000000000E+00 -0.81777054182E+03  0.81777054182E+03  0.25500000000E-02 0. -1.
    -200001    2    1    2    0    0 -0.21599436692E+03 -0.57501989203E+03 -0.13937388765E+03  0.87913713617E+03  0.61331523776E+03 0.  0.
   -5000001    2    3    3    0    0  0.50948179638E+02  0.97068799776E+02 -0.63550432708E+02  0.14503106132E+03  0.70549857203E+02 0.  0.
     200001    1    1    2    0    0  0.21599436692E+03  0.57501989203E+03  0.30172302152E+03  0.91875308135E+03  0.61300000000E+03 0.  1.
         13    1    4    4    0    0  0.26951543348E+02  0.25359672367E+02  0.66240541660E+01  0.37595051922E+02  0.10566000000E+00 0.  1.
    -200003    1    4    4    0    0  0.23996636291E+02  0.71709127409E+02 -0.70174486874E+02  0.10743600940E+03  0.30000000000E+02 0.  1.
    -200000    1    3    3    0    0 -0.26694254656E+03 -0.67208869180E+03 -0.75823454939E+02  0.73410607485E+03  0.10100000000E+03 0. -1.
<mgrwt>
<rscale>  0 0.17905452E+04</rscale>
<asrwt>0</asrwt>
<pdfrwt beam="1">  1        2 0.14001710E+00 0.17905452E+04</pdfrwt>
<pdfrwt beam="2">  1       -2 0.11682436E+00 0.17905452E+04</pdfrwt>
<totfact> 0.15539132E+01</totfact>
</mgrwt>
</event>
<event>
 8    2  0.4306980E-052  0.1795383E+04  0.7818608E-02  0.8708759E-01
         -2   -1    0    0    0  501 -0.00000000000E+00  0.00000000000E+00  0.28619620217E+04  0.28619620217E+04  0.25500000000E-02 0. -1.
          2   -1    0    0  501    0  0.00000000000E+00 -0.00000000000E+00 -0.28157258696E+03  0.28157258697E+03  0.25500000000E-02 0.  1.
    -200001    2    1    2    0    0 -0.94615706397E+02  0.30417282985E+03  0.28728919023E+03  0.74863357237E+03  0.61355024614E+03 0.  0.
   -5000001    2    3    3    0    0 -0.11351235507E+03 -0.45519182504E+02 -0.11840266474E+02  0.27712427373E+03  0.24839609589E+03 0.  0.
     200001    1    1    2    0    0  0.94615706397E+02 -0.30417282985E+03  0.22931002445E+04  0.23949010363E+04  0.61300000000E+03 0. -1.
         13    1    4    4    0    0  0.42352859990E+02  0.47731332127E+02  0.51959187265E+02  0.82291026979E+02  0.10566000000E+00 0.  1.
    -200003    1    4    4    0    0 -0.15586521506E+03 -0.93250514631E+02 -0.63799453739E+02  0.19483324675E+03  0.30000000000E+02 0.  1.
    -200000    1    3    3    0    0  0.18896648669E+02  0.34969201235E+03  0.29912945671E+03  0.47150929864E+03  0.10100000000E+03 0. -1.
<mgrwt>
<rscale>  0 0.17953830E+04</rscale>
<asrwt>0</asrwt>
<pdfrwt beam="1">  1        2 0.40224656E-01 0.17953830E+04</pdfrwt>
<pdfrwt beam="2">  1       -2 0.40885171E+00 0.17953830E+04</pdfrwt>
<totfact> 0.79093766E-01</totfact>
</mgrwt>
</event>
<event>
 8    2  0.4306980E-052  0.1627506E+04  0.7818608E-02  0.8803826E-01
          2   -1    0    0  501    0  0.00000000000E+00  0.00000000000E+00  0.98762596641E+03  0.98762596642E+03  0.25500000000E-02 0.  1.
         -2   -1    0    0    0  501 -0.00000000000E+00 -0.00000000000E+00 -0.67049070190E+03  0.67049070191E+03  0.25500000000E-02 0. -1.
    -200001    2    1    2    0    0  0.54639143676E+02  0.53151274971E+03  0.18373242303E+03  0.83406778795E+03  0.61353095480E+03 0.  0.
   -5000001    2    3    3    0    0  0.51518528660E+02  0.62732133860E+03  0.12671639015E+03  0.68359901396E+03  0.23465793764E+03 0.  0.
     200001    1    1    2    0    0 -0.54639143676E+02 -0.53151274971E+03  0.13340284148E+03  0.82404888037E+03  0.61300000000E+03 0.  1.
         13    1    4    4    0    0 -0.61477150622E+01  0.50951574426E+03  0.17779463844E+03  0.53968049128E+03  0.10566000000E+00 0.  1.
    -200003    1    4    4    0    0  0.57666243722E+02  0.11780559434E+03 -0.51078248283E+02  0.14391852268E+03  0.30000000000E+02 0.  1.
    -200000    1    3    3    0    0  0.31206150160E+01 -0.95808588884E+02  0.57016032873E+02  0.15046877399E+03  0.10100000000E+03 0.  1.
<mgrwt>
<rscale>  0 0.16275061E+04</rscale>
<asrwt>0</asrwt>
<pdfrwt beam="1">  1        2 0.14108943E+00 0.16275061E+04</pdfrwt>
<pdfrwt beam="2">  1       -2 0.95784385E-01 0.16275061E+04</pdfrwt>
<totfact> 0.25074764E+01</totfact>
</mgrwt>
</event>
<event>
 8    2  0.4306980E-052  0.1694312E+04  0.7818608E-02  0.8764615E-01
          2   -1    0    0  501    0  0.00000000000E+00  0.00000000000E+00  0.95670475620E+03  0.95670475620E+03  0.25500000000E-02 0.  1.
         -2   -1    0    0    0  501 -0.00000000000E+00 -0.00000000000E+00 -0.75015098589E+03  0.75015098590E+03  0.25500000000E-02 0. -1.
    -200001    2    1    2    0    0 -0.36885655953E+03  0.46834008095E+01  0.55998864884E+03  0.90888186463E+03  0.61351598290E+03 0.  0.
   -5000001    2    3    3    0    0 -0.51834843994E+03  0.54994073035E+02  0.42199396913E+03  0.67623939715E+03  0.86668096874E+02 0.  0.
     200001    1    1    2    0    0  0.36885655953E+03 -0.46834008095E+01 -0.35343487854E+03  0.79797387747E+03  0.61300000000E+03 0. -1.
         13    1    4    4    0    0 -0.21628084901E+02 -0.10655873764E+02  0.34698137504E+02  0.42252734970E+02  0.10566000000E+00 0.  1.
    -200003    1    4    4    0    0 -0.49672035504E+03  0.65649946799E+02  0.38729583163E+03  0.63398666218E+03  0.30000000000E+02 0.  1.
    -200000    1    3    3    0    0  0.14949188041E+03 -0.50310672225E+02  0.13799467971E+03  0.23264246748E+03  0.10100000000E+03 0. -1.
<mgrwt>
<rscale>  0 0.16943117E+04</rscale>
<asrwt>0</asrwt>
<pdfrwt beam="1">  1        2 0.13667211E+00 0.16943117E+04</pdfrwt>
<pdfrwt beam="2">  1       -2 0.10716443E+00 0.16943117E+04</pdfrwt>
<totfact> 0.19973999E+01</totfact>
</mgrwt>
</event>
<event>
 8    2  0.4306980E-052  0.1529301E+04  0.7818608E-02  0.8865198E-01
          2   -1    0    0  501    0  0.00000000000E+00  0.00000000000E+00  0.21503715484E+04  0.21503715484E+04  0.25500000000E-02 0.  1.
         -2   -1    0    0    0  501 -0.00000000000E+00 -0.00000000000E+00 -0.27190210958E+03  0.27190210959E+03  0.25500000000E-02 0. -1.
    -200001    2    1    2    0    0 -0.61709499496E+02  0.32122172866E+03  0.14454892594E+04  0.16035964951E+04  0.61244678028E+03 0.  0.
   -5000001    2    3    3    0    0  0.28047326755E+02 -0.16366009023E+03  0.47589387337E+03  0.51113007511E+03  0.84898158349E+02 0.  0.
     200001    1    1    2    0    0  0.61709499496E+02 -0.32122172866E+03  0.43298017941E+03  0.81867716290E+03  0.61300000000E+03 0. -1.
         13    1    4    4    0    0  0.40139394817E+02 -0.41601922404E+02  0.18982488591E+03  0.19843232962E+03  0.10566000000E+00 0.  1.
    -200003    1    4    4    0    0 -0.12092068061E+02 -0.12205816783E+03  0.28606898746E+03  0.31269774548E+03  0.30000000000E+02 0.  1.
    -200000    1    3    3    0    0 -0.89756826251E+02  0.48488181890E+03  0.96959538605E+03  0.10924664200E+04  0.10100000000E+03 0. -1.
<mgrwt>
<rscale>  0 0.15293012E+04</rscale>
<asrwt>0</asrwt>
<pdfrwt beam="1">  1        2 0.30719592E+00 0.15293012E+04</pdfrwt>
<pdfrwt beam="2">  1       -2 0.38843161E-01 0.15293012E+04</pdfrwt>
<totfact> 0.40590024E+01</totfact>
</mgrwt>
</event>
<event>
 8    2  0.4306980E-052  0.1711579E+04  0.7818608E-02  0.8754788E-01
          2   -1    0    0  501    0  0.00000000000E+00  0.00000000000E+00  0.14188974762E+04  0.14188974762E+04  0.25500000000E-02 0.  1.
         -2   -1    0    0    0  501 -0.00000000000E+00 -0.00000000000E+00 -0.51615827649E+03  0.51615827650E+03  0.25500000000E-02 0. -1.
    -200001    2    1    2    0    0 -0.17895171951E+03 -0.22725089132E+03  0.10414564721E+04  0.12431900380E+04  0.61418499000E+03 0.  0.
   -5000001    2    3    3    0    0 -0.38960998360E+03 -0.18714505083E+03  0.65599630496E+03  0.79067934965E+03  0.89573838150E+02 0.  0.
     200001    1    1    2    0    0  0.17895171951E+03  0.22725089132E+03 -0.13871727233E+03  0.69186571469E+03  0.61300000000E+03 0. -1.
         13    1    4    4    0    0 -0.13677875503E+03 -0.10492964707E+03  0.28899081581E+03  0.33650313736E+03  0.10566000000E+00 0.  1.
    -200003    1    4    4    0    0 -0.25283122857E+03 -0.82215403764E+02  0.36700548914E+03  0.45417621230E+03  0.30000000000E+02 0.  1.
    -200000    1    3    3    0    0  0.21065826409E+03 -0.40105840484E+02  0.38546016712E+03  0.45251068839E+03  0.10100000000E+03 0. -1.
<mgrwt>
<rscale>  0 0.17115790E+04</rscale>
<asrwt>0</asrwt>
<pdfrwt beam="1">  1        2 0.20269964E+00 0.17115790E+04</pdfrwt>
<pdfrwt beam="2">  1       -2 0.73736895E-01 0.17115790E+04</pdfrwt>
<totfact> 0.25540889E+01</totfact>
</mgrwt>
</event>
<event>
 8    2  0.4306980E-052  0.1546347E+04  0.7818608E-02  0.8854205E-01
         -2   -1    0    0    0  501 -0.00000000000E+00  0.00000000000E+00  0.59140120771E+03  0.59140120771E+03  0.25500000000E-02 0. -1.
          2   -1    0    0  501    0  0.00000000000E+00 -0.00000000000E+00 -0.10108147634E+04  0.10108147634E+04  0.25500000000E-02 0.  1.
    -200001    2    1    2    0    0  0.43325100661E+03 -0.47997881992E+02 -0.39410898489E+03  0.84960747218E+03  0.61359655589E+03 0.  0.
   -5000001    2    3    3    0    0  0.31242072866E+02 -0.11825017936E+03 -0.40008670217E+03  0.42915140883E+03  0.95615848162E+02 0.  0.
     200001    1    1    2    0    0 -0.43325100661E+03  0.47997881992E+02 -0.25304570830E+02  0.75260849896E+03  0.61300000000E+03 0.  1.
         13    1    4    4    0    0 -0.15628836307E+02 -0.86146017326E+02 -0.27387239045E+03  0.28752651050E+03  0.10566000000E+00 0.  1.
    -200003    1    4    4    0    0  0.46870909173E+02 -0.32104162033E+02 -0.12621431172E+03  0.14162489834E+03  0.30000000000E+02 0. -1.
    -200000    1    3    3    0    0  0.40200893375E+03  0.70252297367E+02  0.59777172739E+01  0.42045606334E+03  0.10100000000E+03 0. -1.
<mgrwt>
<rscale>  0 0.15463468E+04</rscale>
<asrwt>0</asrwt>
<pdfrwt beam="1">  1        2 0.14440211E+00 0.15463468E+04</pdfrwt>
<pdfrwt beam="2">  1       -2 0.84485887E-01 0.15463468E+04</pdfrwt>
<totfact> 0.32605919E+01</totfact>
</mgrwt>
</event>
<event>
 8    2  0.4306980E-052  0.1431096E+04  0.7818608E-02  0.8931613E-01
         -2   -1    0    0    0  501 -0.00000000000E+00  0.00000000000E+00  0.43483242388E+03  0.43483242389E+03  0.25500000000E-02 0. -1.
          2   -1    0    0  501    0  0.00000000000E+00 -0.00000000000E+00 -0.11774850129E+04  0.11774850129E+04  0.25500000000E-02 0.  1.
    -200001    2    1    2    0    0 -0.29624394936E+03  0.19212233088E+03 -0.49196415644E+03  0.86179418078E+03  0.61317942826E+03 0.  0.
   -5000001    2    3    3    0    0 -0.82255235115E+02 -0.70042660729E+02 -0.36721864751E+03  0.48724899705E+03  0.30147993635E+03 0.  0.
     200001    1    1    2    0    0  0.29624394936E+03 -0.19212233088E+03 -0.25068843254E+03  0.75052325598E+03  0.61300000000E+03 0. -1.
         13    1    4    4    0    0  0.62742916230E+02  0.54156095180E+01 -0.30236715265E+03  0.30885580540E+03  0.10566000000E+00 0.  1.
    -200003    1    4    4    0    0 -0.14499815135E+03 -0.75458270247E+02 -0.64851494866E+02  0.17839319165E+03  0.30000000000E+02 0.  1.
    -200000    1    3    3    0    0 -0.21398871425E+03  0.26216499161E+03 -0.12474550893E+03  0.37454518373E+03  0.10100000000E+03 0. -1.
<mgrwt>
<rscale>  0 0.14310956E+04</rscale>
<asrwt>0</asrwt>
<pdfrwt beam="1">  1        2 0.16821214E+00 0.14310956E+04</pdfrwt>
<pdfrwt beam="2">  1       -2 0.62118918E-01 0.14310956E+04</pdfrwt>
<totfact> 0.51508500E+01</totfact>
</mgrwt>
</event>
<event>
 8    2  0.4306980E-052  0.1416247E+04  0.7818608E-02  0.8942141E-01
          2   -1    0    0  501    0  0.00000000000E+00  0.00000000000E+00  0.13022367531E+04  0.13022367531E+04  0.25500000000E-02 0.  1.
         -2   -1    0    0    0  501 -0.00000000000E+00 -0.00000000000E+00 -0.38505995178E+03  0.38505995179E+03  0.25500000000E-02 0. -1.
    -200001    2    1    2    0    0  0.20896201429E+03 -0.28010353684E+03  0.38509766549E+03  0.80355447914E+03  0.61259813435E+03 0.  0.
   -5000001    2    3    3    0    0  0.28531086048E+03  0.82063291645E+02  0.23030681878E+03  0.38984544589E+03  0.10393060163E+03 0.  0.
     200001    1    1    2    0    0 -0.20896201429E+03  0.28010353684E+03  0.53207913579E+03  0.88374222572E+03  0.61300000000E+03 0.  1.
         13    1    4    4    0    0  0.19866997646E+03  0.30055002500E+02  0.19134730847E+03  0.27746507230E+03  0.10566000000E+00 0.  1.
    -200003    1    4    4    0    0  0.86640884020E+02  0.52008289145E+02  0.38959510306E+02  0.11238037358E+03  0.30000000000E+02 0.  1.
    -200000    1    3    3    0    0 -0.76348846192E+02 -0.36216682849E+03  0.15479084671E+03  0.41370903325E+03  0.10100000000E+03 0.  1.
<mgrwt>
<rscale>  0 0.14162475E+04</rscale>
<asrwt>0</asrwt>
<pdfrwt beam="1">  1        2 0.18603382E+00 0.14162475E+04</pdfrwt>
<pdfrwt beam="2">  1       -2 0.55008566E-01 0.14162475E+04</pdfrwt>
<totfact> 0.56620948E+01</totfact>
</mgrwt>
</event>
<event>
 8    2  0.4306980E-052  0.1725092E+04  0.7818608E-02  0.8747182E-01
          2   -1    0    0  501    0  0.00000000000E+00  0.00000000000E+00  0.24885620711E+04  0.24885620711E+04  0.25500000000E-02 0.  1.
         -2   -1    0    0    0  501 -0.00000000000E+00 -0.00000000000E+00 -0.29896195521E+03  0.29896195522E+03  0.25500000000E-02 0. -1.
    -200001    2    1    2    0    0 -0.11805049232E+03 -0.42714755064E+03  0.17646109429E+04  0.19198975250E+04  0.61299574037E+03 0.  0.
   -5000001    2    3    3    0    0 -0.53436851935E+02 -0.47765281535E+03  0.73448952815E+03  0.88159273664E+03  0.81994982610E+02 0.  0.
     200001    1    1    2    0    0  0.11805049232E+03  0.42714755064E+03  0.42498917300E+03  0.86762650139E+03  0.61300000000E+03 0. -1.
         13    1    4    4    0    0  0.46064660642E+01 -0.23923821782E+03  0.33185697987E+03  0.40912737705E+03  0.10566000000E+00 0.  1.
    -200003    1    4    4    0    0 -0.58043317999E+02 -0.23841459752E+03  0.40263254828E+03  0.47246535959E+03  0.30000000000E+02 0.  1.
    -200000    1    3    3    0    0 -0.64613640383E+02  0.50505264704E+02  0.10301214148E+04  0.10383047883E+04  0.10100000000E+03 0.  1.
<mgrwt>
<rscale>  0 0.17250917E+04</rscale>
<asrwt>0</asrwt>
<pdfrwt beam="1">  1        2 0.35550888E+00 0.17250917E+04</pdfrwt>
<pdfrwt beam="2">  1       -2 0.42708849E-01 0.17250917E+04</pdfrwt>
<totfact> 0.22130261E+01</totfact>
</mgrwt>
</event>
<event>
 8    2  0.4306980E-052  0.1500864E+04  0.7818608E-02  0.8883879E-01
         -2   -1    0    0    0  501 -0.00000000000E+00  0.00000000000E+00  0.35944980749E+03  0.35944980749E+03  0.25500000000E-02 0. -1.
          2   -1    0    0  501    0  0.00000000000E+00 -0.00000000000E+00 -0.15666948562E+04  0.15666948562E+04  0.25500000000E-02 0.  1.
    -200001    2    1    2    0    0  0.32409758208E+03  0.22176579383E+01 -0.23541677518E+03  0.73230072333E+03  0.61302457588E+03 0.  0.
   -5000001    2    3    3    0    0 -0.21687545483E+02  0.15831084970E+03 -0.28278148262E+03  0.33685558874E+03  0.89295274149E+02 0.  0.
     200001    1    1    2    0    0 -0.32409758208E+03 -0.22176579383E+01 -0.97182827354E+03  0.11938439404E+04  0.61300000000E+03 0.  1.
         13    1    4    4    0    0  0.13402806172E+02  0.70123347062E+02 -0.61550865037E+02  0.94262607471E+02  0.10566000000E+00 0.  1.
    -200003    1    4    4    0    0 -0.35090351655E+02  0.88187502643E+02 -0.22123061759E+03  0.24259298126E+03  0.30000000000E+02 0.  1.
    -200000    1    3    3    0    0  0.34578512757E+03 -0.15609319177E+03  0.47364707441E+02  0.39544513459E+03  0.10100000000E+03 0. -1.
<mgrwt>
<rscale>  0 0.15008640E+04</rscale>
<asrwt>0</asrwt>
<pdfrwt beam="1">  1        2 0.22381355E+00 0.15008640E+04</pdfrwt>
<pdfrwt beam="2">  1       -2 0.51349973E-01 0.15008640E+04</pdfrwt>
<totfact> 0.46707046E+01</totfact>
</mgrwt>
</event>
<event>
 8    2  0.4306980E-052  0.1735956E+04  0.7818608E-02  0.8741119E-01
         -2   -1    0    0    0  501 -0.00000000000E+00  0.00000000000E+00  0.13537207286E+04  0.13537207286E+04  0.25500000000E-02 0. -1.
          2   -1    0    0  501    0  0.00000000000E+00 -0.00000000000E+00 -0.55652975113E+03  0.55652975114E+03  0.25500000000E-02 0.  1.
    -200001    2    1    2    0    0  0.39716844398E+03  0.46756582882E+03  0.43562301151E+03  0.97064366242E+03  0.61320562137E+03 0.  0.
   -5000001    2    3    3    0    0  0.26546286998E+03  0.24401190512E+03 -0.87296628638E+02  0.37821757836E+03  0.73590013118E+02 0.  0.
     200001    1    1    2    0    0 -0.39716844398E+03 -0.46756582882E+03  0.36156796598E+03  0.93960681734E+03  0.61300000000E+03 0. -1.
         13    1    4    4    0    0  0.21592348434E+03  0.20582729519E+03 -0.77016277385E+02  0.30808983216E+03  0.10566000000E+00 0.  1.
    -200003    1    4    4    0    0  0.49539385636E+02  0.38184609931E+02 -0.10280351253E+02  0.70127746197E+02  0.30000000000E+02 0. -1.
    -200000    1    3    3    0    0  0.13170557400E+03  0.22355392370E+03  0.52291964015E+03  0.59242608406E+03  0.10100000000E+03 0. -1.
<mgrwt>
<rscale>  0 0.17359561E+04</rscale>
<asrwt>0</asrwt>
<pdfrwt beam="1">  1        2 0.79504250E-01 0.17359561E+04</pdfrwt>
<pdfrwt beam="2">  1       -2 0.19338868E+00 0.17359561E+04</pdfrwt>
<totfact> 0.82925909E+00</totfact>
</mgrwt>
</event>
<event>
 8    2  0.4306980E-052  0.1670921E+04  0.7818608E-02  0.8778125E-01
         -2   -1    0    0    0  501 -0.00000000000E+00  0.00000000000E+00  0.29028281081E+03  0.29028281082E+03  0.25500000000E-02 0. -1.
          2   -1    0    0  501    0  0.00000000000E+00 -0.00000000000E+00 -0.24045306586E+04  0.24045306586E+04  0.25500000000E-02 0.  1.
    -200001    2    1    2    0    0  0.12815005039E+03  0.22878825122E+03 -0.24638436964E+03  0.71152088578E+03  0.61383239894E+03 0.  0.
   -5000001    2    3    3    0    0  0.27556662769E+03  0.34643573542E+03 -0.20442261260E+03  0.49349710989E+03  0.76132173611E+02 0.  0.
     200001    1    1    2    0    0 -0.12815005039E+03 -0.22878825122E+03 -0.18678634781E+04  0.19832925836E+04  0.61300000000E+03 0.  1.
         13    1    4    4    0    0  0.30098803733E+02  0.63585742388E+02 -0.11960102842E+02  0.71359230974E+02  0.10566000000E+00 0.  1.
    -200003    1    4    4    0    0  0.24546782396E+03  0.28284999303E+03 -0.19246250975E+03  0.42213787891E+03  0.30000000000E+02 0.  1.
    -200000    1    3    3    0    0 -0.14741657730E+03 -0.11764748420E+03 -0.41961757042E+02  0.21802377589E+03  0.10100000000E+03 0. -1.
<mgrwt>
<rscale>  0 0.16709206E+04</rscale>
<asrwt>0</asrwt>
<pdfrwt beam="1">  1        2 0.34350437E+00 0.16709206E+04</pdfrwt>
<pdfrwt beam="2">  1       -2 0.41468974E-01 0.16709206E+04</pdfrwt>
<totfact> 0.26073989E+01</totfact>
</mgrwt>
</event>
<event>
 8    2  0.4306980E-052  0.1308860E+04  0.7818608E-02  0.9022568E-01
          2   -1    0    0  501    0  0.00000000000E+00  0.00000000000E+00  0.12308170004E+04  0.12308170004E+04  0.25500000000E-02 0.  1.
         -2   -1    0    0    0  501 -0.00000000000E+00 -0.00000000000E+00 -0.34796310907E+03  0.34796310908E+03  0.25500000000E-02 0. -1.
    -200001    2    1    2    0    0  0.15137570569E+03 -0.98715656418E+02  0.27218382767E+03  0.69484215254E+03  0.61323910166E+03 0.  0.
   -5000001    2    3    3    0    0  0.11864787580E+02  0.97950314458E+02 -0.10301728928E+03  0.23754828801E+03  0.18995154635E+03 0.  0.
     200001    1    1    2    0    0 -0.15137570569E+03  0.98715656418E+02  0.61067006370E+03  0.88393795698E+03  0.61300000000E+03 0.  1.
         13    1    4    4    0    0  0.18830375744E+02  0.12480558674E+03  0.54143583500E+00  0.12621934023E+03  0.10566000000E+00 0.  1.
    -200003    1    4    4    0    0 -0.69655881640E+01 -0.26855272278E+02 -0.10355872511E+03  0.11132894778E+03  0.30000000000E+02 0.  1.
    -200000    1    3    3    0    0  0.13951091811E+03 -0.19666597088E+03  0.37520111695E+03  0.45729386453E+03  0.10100000000E+03 0.  1.
<mgrwt>
<rscale>  0 0.13088604E+04</rscale>
<asrwt>0</asrwt>
<pdfrwt beam="1">  1        2 0.17583100E+00 0.13088604E+04</pdfrwt>
<pdfrwt beam="2">  1       -2 0.49709015E-01 0.13088604E+04</pdfrwt>
<totfact> 0.77032097E+01</totfact>
</mgrwt>
</event>
<event>
 8    2  0.4306980E-052  0.1797508E+04  0.7818608E-02  0.8707626E-01
          2   -1    0    0  501    0  0.00000000000E+00  0.00000000000E+00  0.15977241583E+04  0.15977241583E+04  0.25500000000E-02 0.  1.
         -2   -1    0    0    0  501 -0.00000000000E+00 -0.00000000000E+00 -0.50556857985E+03  0.50556857986E+03  0.25500000000E-02 0. -1.
    -200001    2    1    2    0    0 -0.63419571729E+03 -0.36818588418E+01  0.74773090474E+03  0.11563951092E+04  0.61313161612E+03 0.  0.
   -5000001    2    3    3    0    0 -0.65622396338E+03  0.11240835366E+03  0.51945943979E+03  0.88022298390E+03  0.24837242945E+03 0.  0.
     200001    1    1    2    0    0  0.63419571729E+03  0.36818588418E+01  0.34442467370E+03  0.94689762898E+03  0.61300000000E+03 0. -1.
         13    1    4    4    0    0 -0.93496214869E+02  0.11352030599E+03  0.10587773412E+03  0.18121398349E+03  0.10566000000E+00 0.  1.
    -200003    1    4    4    0    0 -0.56272774851E+03 -0.11119523334E+01  0.41358170567E+03  0.69900900041E+03  0.30000000000E+02 0.  1.
    -200000    1    3    3    0    0  0.22028246088E+02 -0.11609021250E+03  0.22827146495E+03  0.27617212527E+03  0.10100000000E+03 0. -1.
<mgrwt>
<rscale>  0 0.17975084E+04</rscale>
<asrwt>0</asrwt>
<pdfrwt beam="1">  1        2 0.22824631E+00 0.17975084E+04</pdfrwt>
<pdfrwt beam="2">  1       -2 0.72224081E-01 0.17975084E+04</pdfrwt>
<totfact> 0.21329463E+01</totfact>
</mgrwt>
</event>
<event>
 8    2  0.4306980E-052  0.2207458E+04  0.7818608E-02  0.8515330E-01
          2   -1    0    0  501    0  0.00000000000E+00  0.00000000000E+00  0.20383642929E+04  0.20383642929E+04  0.25500000000E-02 0.  1.
         -2   -1    0    0    0  501 -0.00000000000E+00 -0.00000000000E+00 -0.59764464442E+03  0.59764464442E+03  0.25500000000E-02 0. -1.
    -200001    2    1    2    0    0 -0.81966895592E+03  0.63077396014E+02  0.23390099544E+03  0.10523371858E+04  0.61389569293E+03 0.  0.
   -5000001    2    3    3    0    0 -0.11940808247E+03  0.14452640161E+03  0.26519870726E+03  0.33946989231E+03  0.98809324108E+02 0.  0.
     200001    1    1    2    0    0  0.81966895592E+03 -0.63077396014E+02  0.12068186530E+04  0.15836717515E+04  0.61300000000E+03 0.  1.
         13    1    4    4    0    0 -0.78239762756E+02  0.75410351967E+02  0.78745659084E+02  0.13419788243E+03  0.10566000000E+00 0.  1.
    -200003    1    4    4    0    0 -0.41168319717E+02  0.69116049640E+02  0.18645304817E+03  0.20527200988E+03  0.30000000000E+02 0.  1.
    -200000    1    3    3    0    0 -0.70026087345E+03 -0.81449005593E+02 -0.31297711818E+02  0.71286729351E+03  0.10100000000E+03 0. -1.
<mgrwt>
<rscale>  0 0.22074578E+04</rscale>
<asrwt>0</asrwt>
<pdfrwt beam="1">  1        2 0.29119490E+00 0.22074578E+04</pdfrwt>
<pdfrwt beam="2">  1       -2 0.85377807E-01 0.22074578E+04</pdfrwt>
<totfact> 0.83911937E+00</totfact>
</mgrwt>
</event>
<event>
 8    2  0.4306980E-052  0.1599941E+04  0.7818608E-02  0.8820584E-01
          2   -1    0    0  501    0  0.00000000000E+00  0.00000000000E+00  0.12493701438E+04  0.12493701438E+04  0.25500000000E-02 0.  1.
         -2   -1    0    0    0  501 -0.00000000000E+00 -0.00000000000E+00 -0.51222024531E+03  0.51222024532E+03  0.25500000000E-02 0. -1.
    -200001    2    1    2    0    0 -0.12126462347E+03 -0.50017340622E+03  0.37941108848E+03  0.88487800677E+03  0.61170071736E+03 0.  0.
   -5000001    2    3    3    0    0 -0.33712415084E+03 -0.42879203014E+03  0.24890187525E+03  0.60394333261E+03  0.72664346922E+02 0.  0.
     200001    1    1    2    0    0  0.12126462347E+03  0.50017340622E+03  0.35773881004E+03  0.87671238237E+03  0.61300000000E+03 0. -1.
         13    1    4    4    0    0 -0.24740330609E+03 -0.30987009888E+03  0.20136715713E+03  0.44472083061E+03  0.10566000000E+00 0.  1.
    -200003    1    4    4    0    0 -0.89720844751E+02 -0.11892193126E+03  0.47534718119E+02  0.15922250200E+03  0.30000000000E+02 0. -1.
    -200000    1    3    3    0    0  0.21585952737E+03 -0.71381376086E+02  0.13050921323E+03  0.28093467416E+03  0.10100000000E+03 0.  1.
<mgrwt>
<rscale>  0 0.15999409E+04</rscale>
<asrwt>0</asrwt>
<pdfrwt beam="1">  1        2 0.17848145E+00 0.15999409E+04</pdfrwt>
<pdfrwt beam="2">  1       -2 0.73174321E-01 0.15999409E+04</pdfrwt>
<totfact> 0.32475147E+01</totfact>
</mgrwt>
</event>
<event>
 8    2  0.4306980E-052  0.1756968E+04  0.7818608E-02  0.8729524E-01
          2   -1    0    0  501    0  0.00000000000E+00  0.00000000000E+00  0.19559382092E+04  0.19559382092E+04  0.25500000000E-02 0.  1.
         -2   -1    0    0    0  501 -0.00000000000E+00 -0.00000000000E+00 -0.39455937605E+03  0.39455937606E+03  0.25500000000E-02 0. -1.
    -200001    2    1    2    0    0  0.56425965159E+02  0.11744076161E+03  0.16045020482E+04  0.17223217869E+04  0.61236369334E+03 0.  0.
   -5000001    2    3    3    0    0 -0.74220706170E+02 -0.20275611659E+03  0.93194154664E+03  0.95934523300E+03  0.72176683776E+02 0.  0.
     200001    1    1    2    0    0 -0.56425965159E+02 -0.11744076161E+03 -0.43123215008E+02  0.62817579841E+03  0.61300000000E+03 0. -1.
         13    1    4    4    0    0 -0.64172911957E+02 -0.16463099085E+03  0.76896435855E+03  0.78900425960E+03  0.10566000000E+00 0.  1.
    -200003    1    4    4    0    0 -0.10047794213E+02 -0.38125125742E+02  0.16297718809E+03  0.17034097340E+03  0.30000000000E+02 0. -1.
    -200000    1    3    3    0    0  0.13064667133E+03  0.32019687821E+03  0.67256050151E+03  0.76297655386E+03  0.10100000000E+03 0.  1.
<mgrwt>
<rscale>  0 0.17569676E+04</rscale>
<asrwt>0</asrwt>
<pdfrwt beam="1">  1        2 0.27941974E+00 0.17569676E+04</pdfrwt>
<pdfrwt beam="2">  1       -2 0.56365627E-01 0.17569676E+04</pdfrwt>
<totfact> 0.23716580E+01</totfact>
</mgrwt>
</event>
<event>
 8    2  0.4306980E-052  0.1325276E+04  0.7818608E-02  0.9009758E-01
         -2   -1    0    0    0  501 -0.00000000000E+00  0.00000000000E+00  0.46260801734E+03  0.46260801735E+03  0.25500000000E-02 0. -1.
          2   -1    0    0  501    0  0.00000000000E+00 -0.00000000000E+00 -0.94916039339E+03  0.94916039339E+03  0.25500000000E-02 0.  1.
    -200001    2    1    2    0    0  0.86306562483E+02 -0.11758233759E+03 -0.46312140532E+03  0.78121909528E+03  0.61200278588E+03 0.  0.
   -5000001    2    3    3    0    0  0.44714913803E+02 -0.15419235810E+03 -0.13747253198E+03  0.43579421553E+03  0.38110785144E+03 0.  0.
     200001    1    1    2    0    0 -0.86306562483E+02  0.11758233759E+03 -0.23430970729E+02  0.63054931546E+03  0.61300000000E+03 0. -1.
         13    1    4    4    0    0  0.45966358817E+02  0.12179276466E+03 -0.10737816624E+02  0.13062042541E+03  0.10566000000E+00 0.  1.
    -200003    1    4    4    0    0 -0.12514450146E+01 -0.27598512276E+03 -0.12673471536E+03  0.30517379012E+03  0.30000000000E+02 0.  1.
    -200000    1    3    3    0    0  0.41591648681E+02  0.36610020515E+02 -0.32564887334E+03  0.34542487975E+03  0.10100000000E+03 0. -1.
<mgrwt>
<rscale>  0 0.13252761E+04</rscale>
<asrwt>0</asrwt>
<pdfrwt beam="1">  1        2 0.13559434E+00 0.13252761E+04</pdfrwt>
<pdfrwt beam="2">  1       -2 0.66086860E-01 0.13252761E+04</pdfrwt>
<totfact> 0.62379341E+01</totfact>
</mgrwt>
</event>
<event>
 8    2  0.4306980E-052  0.1357780E+04  0.7818608E-02  0.8984960E-01
         -2   -1    0    0    0  501 -0.00000000000E+00  0.00000000000E+00  0.21863158631E+03  0.21863158633E+03  0.25500000000E-02 0. -1.
          2   -1    0    0  501    0  0.00000000000E+00 -0.00000000000E+00 -0.21080744328E+04  0.21080744328E+04  0.25500000000E-02 0.  1.
    -200001    2    1    2    0    0  0.23996675154E+03 -0.16359434706E+03 -0.98897674666E+03  0.11993394642E+04  0.61318267485E+03 0.  0.
   -5000001    2    3    3    0    0  0.73547714089E+02 -0.32432919367E+02 -0.95429077744E+03  0.96205749565E+03  0.91774596303E+02 0.  0.
     200001    1    1    2    0    0 -0.23996675154E+03  0.16359434706E+03 -0.90046609987E+03  0.11273665550E+04  0.61300000000E+03 0. -1.
         13    1    4    4    0    0  0.10689850773E+02  0.11180666785E+02 -0.26883080149E+02  0.31015985905E+02  0.10566000000E+00 0.  1.
    -200003    1    4    4    0    0  0.62857863316E+02 -0.43613586152E+02 -0.92740769729E+03  0.93104150975E+03  0.30000000000E+02 0.  1.
    -200000    1    3    3    0    0  0.16641903745E+03 -0.13116142769E+03 -0.34685969219E+02  0.23728196855E+03  0.10100000000E+03 0. -1.
<mgrwt>
<rscale>  0 0.13577800E+04</rscale>
<asrwt>0</asrwt>
<pdfrwt beam="1">  1        2 0.30115348E+00 0.13577800E+04</pdfrwt>
<pdfrwt beam="2">  1       -2 0.31233085E-01 0.13577800E+04</pdfrwt>
<totfact> 0.65581977E+01</totfact>
</mgrwt>
</event>
<event>
 8    2  0.4306980E-052  0.1991388E+04  0.7818608E-02  0.8610658E-01
          2   -1    0    0  501    0  0.00000000000E+00  0.00000000000E+00  0.13198967755E+04  0.13198967755E+04  0.25500000000E-02 0.  1.
         -2   -1    0    0    0  501 -0.00000000000E+00 -0.00000000000E+00 -0.75112407760E+03  0.75112407761E+03  0.25500000000E-02 0. -1.
    -200001    2    1    2    0    0 -0.39086759214E+03  0.57510894103E+03  0.66260775848E+03  0.11393010523E+04  0.61272349185E+03 0.  0.
   -5000001    2    3    3    0    0  0.19367377060E+02  0.49660458484E+00 -0.79207112491E+02  0.11024207925E+03  0.74190346129E+02 0.  0.
     200001    1    1    2    0    0  0.39086759214E+03 -0.57510894103E+03 -0.93835060599E+02  0.93171980082E+03  0.61300000000E+03 0. -1.
         13    1    4    4    0    0 -0.11593793210E+02  0.23487582923E+02 -0.38932255614E+02  0.46923493942E+02  0.10566000000E+00 0.  1.
    -200003    1    4    4    0    0  0.30961170270E+02 -0.22990978338E+02 -0.40274856877E+02  0.63318585312E+02  0.30000000000E+02 0.  1.
    -200000    1    3    3    0    0 -0.41023496920E+03  0.57461233645E+03  0.74181487097E+03  0.10290589730E+04  0.10100000000E+03 0.  1.
<mgrwt>
<rscale>  0 0.19913877E+04</rscale>
<asrwt>0</asrwt>
<pdfrwt beam="1">  1        2 0.18855668E+00 0.19913877E+04</pdfrwt>
<pdfrwt beam="2">  1       -2 0.10730344E+00 0.19913877E+04</pdfrwt>
<totfact> 0.11920941E+01</totfact>
</mgrwt>
</event>
<event>
 8    2  0.4306980E-052  0.1894752E+04  0.7818608E-02  0.8657473E-01
         -2   -1    0    0    0  501 -0.00000000000E+00  0.00000000000E+00  0.75097594667E+03  0.75097594667E+03  0.25500000000E-02 0.  1.
          2   -1    0    0  501    0  0.00000000000E+00 -0.00000000000E+00 -0.11951399169E+04  0.11951399169E+04  0.25500000000E-02 0. -1.
    -200001    2    1    2    0    0  0.16868886135E+03  0.61641043000E+03 -0.56784081737E+03  0.10519778917E+04  0.61302246339E+03 0.  0.
   -5000001    2    3    3    0    0 -0.18810225104E+03  0.20250188935E+03 -0.50187441774E+02  0.29251347835E+03  0.81583599234E+02 0.  0.
     200001    1    1    2    0    0 -0.16868886135E+03 -0.61641043000E+03  0.12367684716E+03  0.89413797184E+03  0.61300000000E+03 0.  1.
         13    1    4    4    0    0 -0.14181460270E+03  0.17780741359E+03 -0.34131527207E+02  0.22998223883E+03  0.10566000000E+00 0.  1.
    -200003    1    4    4    0    0 -0.46287648341E+02  0.24694475765E+02 -0.16055914567E+02  0.62531239512E+02  0.30000000000E+02 0.  1.
    -200000    1    3    3    0    0  0.35679111239E+03  0.41390854065E+03 -0.51765337560E+03  0.75946441337E+03  0.10100000000E+03 0.  1.
<mgrwt>
<rscale>  0 0.18947520E+04</rscale>
<asrwt>0</asrwt>
<pdfrwt beam="1">  1        2 0.17073427E+00 0.18947520E+04</pdfrwt>
<pdfrwt beam="2">  1       -2 0.10728228E+00 0.18947520E+04</pdfrwt>
<totfact> 0.14118538E+01</totfact>
</mgrwt>
</event>
<event>
 8    2  0.4306980E-052  0.1519790E+04  0.7818608E-02  0.8871399E-01
          2   -1    0    0  501    0  0.00000000000E+00  0.00000000000E+00  0.13676519517E+04  0.13676519517E+04  0.25500000000E-02 0.  1.
         -2   -1    0    0    0  501 -0.00000000000E+00 -0.00000000000E+00 -0.42221272899E+03  0.42221272900E+03  0.25500000000E-02 0. -1.
    -200001    2    1    2    0    0  0.13073583234E+03 -0.18448763776E+03  0.15581820872E+02  0.65340907925E+03  0.61284017930E+03 0.  0.
   -5000001    2    3    3    0    0  0.25224576390E+03  0.11822641258E+03  0.62527619189E+02  0.30872753388E+03  0.11746308770E+03 0.  0.
     200001    1    1    2    0    0 -0.13073583234E+03  0.18448763776E+03  0.92985740186E+03  0.11364556015E+04  0.61300000000E+03 0.  1.
         13    1    4    4    0    0  0.63359535263E+02  0.59630462460E+02 -0.24792022631E+02  0.90470317298E+02  0.10566000000E+00 0.  1.
    -200003    1    4    4    0    0  0.18888622864E+03  0.58595950121E+02  0.87319641820E+02  0.21825721658E+03  0.30000000000E+02 0.  1.
    -200000    1    3    3    0    0 -0.12150993157E+03 -0.30271405034E+03 -0.46945798317E+02  0.34468154537E+03  0.10100000000E+03 0.  1.
<mgrwt>
<rscale>  0 0.15197895E+04</rscale>
<asrwt>0</asrwt>
<pdfrwt beam="1">  1        2 0.19537885E+00 0.15197895E+04</pdfrwt>
<pdfrwt beam="2">  1       -2 0.60316103E-01 0.15197895E+04</pdfrwt>
<totfact> 0.42645790E+01</totfact>
</mgrwt>
</event>
<event>
 8    2  0.4306980E-052  0.1405415E+04  0.7818608E-02  0.8949908E-01
         -2   -1    0    0    0  501 -0.00000000000E+00  0.00000000000E+00  0.21443615179E+03  0.21443615180E+03  0.25500000000E-02 0. -1.
          2   -1    0    0  501    0  0.00000000000E+00 -0.00000000000E+00 -0.23027723617E+04  0.23027723617E+04  0.25500000000E-02 0.  1.
    -200001    2    1    2    0    0 -0.40779628739E+02  0.32073264101E+03 -0.11918232472E+04  0.13840549946E+04  0.62500653622E+03 0.  0.
   -5000001    2    3    3    0    0  0.15498351118E+03 -0.10266991404E+03 -0.31559596814E+03  0.38627336759E+03  0.12265928183E+03 0.  0.
     200001    1    1    2    0    0  0.40779628739E+02 -0.32073264101E+03 -0.89651296269E+03  0.11331535189E+04  0.61300000000E+03 0.  1.
         13    1    4    4    0    0  0.14571464910E+03 -0.47389374293E+02 -0.17912715140E+03  0.23572242000E+03  0.10566000000E+00 0.  1.
    -200003    1    4    4    0    0  0.92688620820E+01 -0.55280539747E+02 -0.13646881673E+03  0.15055094759E+03  0.30000000000E+02 0.  1.
    -200000    1    3    3    0    0 -0.19576313992E+03  0.42340255505E+03 -0.87622727906E+03  0.99778162698E+03  0.10100000000E+03 0. -1.
<mgrwt>
<rscale>  0 0.14054147E+04</rscale>
<asrwt>0</asrwt>
<pdfrwt beam="1">  1        2 0.32896747E+00 0.14054147E+04</pdfrwt>
<pdfrwt beam="2">  1       -2 0.30633737E-01 0.14054147E+04</pdfrwt>
<totfact> 0.53774867E+01</totfact>
</mgrwt>
</event>
<event>
 8    2  0.4306980E-052  0.1921763E+04  0.7818608E-02  0.8644099E-01
          2   -1    0    0  501    0  0.00000000000E+00  0.00000000000E+00  0.19729414515E+04  0.19729414515E+04  0.25500000000E-02 0. -1.
         -2   -1    0    0    0  501 -0.00000000000E+00 -0.00000000000E+00 -0.46797820620E+03  0.46797820620E+03  0.25500000000E-02 0.  1.
    -200001    2    1    2    0    0 -0.23561276596E+03  0.67724641828E+03  0.52101067614E+03  0.10777953989E+04  0.61320038380E+03 0.  0.
   -5000001    2    3    3    0    0 -0.39040979143E+03  0.23058214371E+03  0.24927165431E+03  0.52325577971E+03  0.77925112221E+02 0.  0.
     200001    1    1    2    0    0  0.23561276596E+03 -0.67724641828E+03  0.98395256916E+03  0.13631242588E+04  0.61300000000E+03 0.  1.
         13    1    4    4    0    0 -0.25551559248E+03  0.11939976765E+03  0.13925692756E+03  0.31454256556E+03  0.10566000000E+00 0.  1.
    -200003    1    4    4    0    0 -0.13489419896E+03  0.11118237606E+03  0.11001472675E+03  0.20871321415E+03  0.30000000000E+02 0.  1.
    -200000    1    3    3    0    0  0.15479702548E+03  0.44666427457E+03  0.27173902183E+03  0.55453961920E+03  0.10100000000E+03 0.  1.
<mgrwt>
<rscale>  0 0.19217634E+04</rscale>
<asrwt>0</asrwt>
<pdfrwt beam="1">  1        2 0.28184878E+00 0.19217634E+04</pdfrwt>
<pdfrwt beam="2">  1       -2 0.66854029E-01 0.19217634E+04</pdfrwt>
<totfact> 0.15967470E+01</totfact>
</mgrwt>
</event>
<event>
 8    2  0.4306980E-052  0.1356191E+04  0.7818608E-02  0.8986154E-01
          2   -1    0    0  501    0  0.00000000000E+00  0.00000000000E+00  0.21395874142E+03  0.21395874143E+03  0.25500000000E-02 0.  1.
         -2   -1    0    0    0  501 -0.00000000000E+00 -0.00000000000E+00 -0.21490771542E+04  0.21490771542E+04  0.25500000000E-02 0. -1.
    -200001    2    1    2    0    0 -0.16869808053E+03 -0.10606713194E+03 -0.60093088182E+03  0.88130223312E+03  0.61307945858E+03 0.  0.
   -5000001    2    3    3    0    0 -0.23565943853E+03  0.63249650307E+02 -0.14208038930E+03  0.37742053003E+03  0.25044666146E+03 0.  0.
     200001    1    1    2    0    0  0.16869808053E+03  0.10606713194E+03 -0.13341875310E+04  0.14817336625E+04  0.61300000000E+03 0.  1.
         13    1    4    4    0    0 -0.98096912570E+02 -0.92480272249E+02 -0.86731680066E+02  0.16030595904E+03  0.10566000000E+00 0.  1.
    -200003    1    4    4    0    0 -0.13756252596E+03  0.15572992256E+03 -0.55348709231E+02  0.21711457100E+03  0.30000000000E+02 0.  1.
    -200000    1    3    3    0    0  0.66961357999E+02 -0.16931678225E+03 -0.45885049253E+03  0.50388170309E+03  0.10100000000E+03 0. -1.
<mgrwt>
<rscale>  0 0.13561915E+04</rscale>
<asrwt>0</asrwt>
<pdfrwt beam="1">  1        2 0.30565536E-01 0.13561915E+04</pdfrwt>
<pdfrwt beam="2">  1       -2 0.30701101E+00 0.13561915E+04</pdfrwt>
<totfact> 0.49383543E+00</totfact>
</mgrwt>
</event>
<event>
 8    2  0.4306980E-052  0.1454177E+04  0.7818608E-02  0.8915510E-01
         -2   -1    0    0    0  501 -0.00000000000E+00  0.00000000000E+00  0.89787370972E+03  0.89787370972E+03  0.25500000000E-02 0. -1.
          2   -1    0    0  501    0  0.00000000000E+00 -0.00000000000E+00 -0.58878826166E+03  0.58878826167E+03  0.25500000000E-02 0.  1.
    -200001    2    1    2    0    0  0.35063833603E+03  0.11624585599E+03  0.27451901785E+03  0.77012573377E+03  0.61747276290E+03 0.  0.
   -5000001    2    3    3    0    0  0.17039201396E+03  0.25854783711E+03  0.37598497927E+03  0.49950620051E+03  0.11073083228E+03 0.  0.
     200001    1    1    2    0    0 -0.35063833603E+03 -0.11624585599E+03  0.34566430210E+02  0.71653623762E+03  0.61300000000E+03 0.  1.
         13    1    4    4    0    0  0.14495951577E+03  0.16481382580E+03  0.30396119036E+03  0.37492569237E+03  0.10566000000E+00 0.  1.
    -200003    1    4    4    0    0  0.25432498189E+02  0.93734011311E+02  0.72023788902E+02  0.12458050814E+03  0.30000000000E+02 0. -1.
    -200000    1    3    3    0    0  0.18024632207E+03 -0.14230198112E+03 -0.10146596142E+03  0.27061953326E+03  0.10100000000E+03 0. -1.
<mgrwt>
<rscale>  0 0.14541767E+04</rscale>
<asrwt>0</asrwt>
<pdfrwt beam="1">  1        2 0.84112609E-01 0.14541767E+04</pdfrwt>
<pdfrwt beam="2">  1       -2 0.12826767E+00 0.14541767E+04</pdfrwt>
<totfact> 0.24208166E+01</totfact>
</mgrwt>
</event>
<event>
 8    2  0.4306980E-052  0.1718313E+04  0.7818608E-02  0.8750988E-01
          2   -1    0    0  501    0  0.00000000000E+00  0.00000000000E+00  0.53001725756E+03  0.53001725757E+03  0.25500000000E-02 0.  1.
         -2   -1    0    0    0  501 -0.00000000000E+00 -0.00000000000E+00 -0.13926900410E+04  0.13926900410E+04  0.25500000000E-02 0. -1.
    -200001    2    1    2    0    0  0.69394442164E+02 -0.35386268377E+02 -0.10996153262E+04  0.12609078236E+04  0.61210039808E+03 0.  0.
   -5000001    2    3    3    0    0 -0.13195508359E+03 -0.29526567887E+02 -0.10064697087E+04  0.10170778138E+04  0.56409596106E+02 0.  0.
     200001    1    1    2    0    0 -0.69394442164E+02  0.35386268377E+02  0.23694254274E+03  0.66179947503E+03  0.61300000000E+03 0.  1.
         13    1    4    4    0    0 -0.21123329715E+01  0.74408778836E+00 -0.11640368515E+01  0.25262151624E+01  0.10566000000E+00 0.  1.
    -200003    1    4    4    0    0 -0.12984275062E+03 -0.30270655675E+02 -0.10053056718E+04  0.10145515986E+04  0.30000000000E+02 0.  1.
    -200000    1    3    3    0    0  0.20134952575E+03 -0.58597004902E+01 -0.93145617556E+02  0.24383000980E+03  0.10100000000E+03 0.  1.
<mgrwt>
<rscale>  0 0.17183128E+04</rscale>
<asrwt>0</asrwt>
<pdfrwt beam="1">  1        2 0.75716752E-01 0.17183128E+04</pdfrwt>
<pdfrwt beam="2">  1       -2 0.19895572E+00 0.17183128E+04</pdfrwt>
<totfact> 0.80732780E+00</totfact>
</mgrwt>
</event>
<event>
 8    2  0.4306980E-052  0.2985794E+04  0.7818608E-02  0.8247799E-01
         -2   -1    0    0    0  501 -0.00000000000E+00  0.00000000000E+00  0.10855162020E+04  0.10855162020E+04  0.25500000000E-02 0. -1.
          2   -1    0    0  501    0  0.00000000000E+00 -0.00000000000E+00 -0.20531633622E+04  0.20531633622E+04  0.25500000000E-02 0.  1.
    -200001    2    1    2    0    0  0.51797226392E+03  0.10906588369E+04 -0.11443358816E+04  0.17730954881E+04  0.61362124740E+03 0.  0.
   -5000001    2    3    3    0    0  0.58978812543E+03  0.76149689709E+03 -0.64350048391E+03  0.11610969618E+04  0.79534424916E+02 0.  0.
     200001    1    1    2    0    0 -0.51797226392E+03 -0.10906588369E+04  0.17668872136E+03  0.13655840761E+04  0.61300000000E+03 0. -1.
         13    1    4    4    0    0  0.27346440011E+03  0.37877989447E+03 -0.34766459149E+03  0.58234668877E+03  0.10566000000E+00 0.  1.
    -200003    1    4    4    0    0  0.31632372532E+03  0.38271700262E+03 -0.29583589242E+03  0.57875027304E+03  0.30000000000E+02 0.  1.
    -200000    1    3    3    0    0 -0.71815861516E+02  0.32916193980E+03 -0.50083539770E+03  0.61199852628E+03  0.10100000000E+03 0. -1.
<mgrwt>
<rscale>  0 0.29857944E+04</rscale>
<asrwt>0</asrwt>
<pdfrwt beam="1">  1        2 0.29330905E+00 0.29857944E+04</pdfrwt>
<pdfrwt beam="2">  1       -2 0.15507374E+00 0.29857944E+04</pdfrwt>
<totfact> 0.17840551E+00</totfact>
</mgrwt>
</event>
<event>
 8    2  0.4306980E-052  0.1336629E+04  0.7818608E-02  0.9001012E-01
          2   -1    0    0  501    0  0.00000000000E+00  0.00000000000E+00  0.30120984394E+04  0.30120984394E+04  0.25500000000E-02 0.  1.
         -2   -1    0    0    0  501 -0.00000000000E+00 -0.00000000000E+00 -0.14828351083E+03  0.14828351085E+03  0.25500000000E-02 0. -1.
    -200001    2    1    2    0    0 -0.48900658849E+02  0.18453889635E+03  0.99230605719E+03  0.11818066208E+04  0.61282109878E+03 0.  0.
   -5000001    2    3    3    0    0 -0.19932597373E+03  0.65281773830E+02  0.70413895917E+02  0.23473946707E+03  0.78434347484E+02 0.  0.
     200001    1    1    2    0    0  0.48900658849E+02 -0.18453889635E+03  0.18715088714E+04  0.19785753295E+04  0.61300000000E+03 0.  1.
         13    1    4    4    0    0 -0.37815130902E+01 -0.10745999426E+02 -0.55803889987E-01  0.11392568763E+02  0.10566000000E+00 0.  1.
    -200003    1    4    4    0    0 -0.19554446064E+03  0.76027773256E+02  0.70469699807E+02  0.22334689831E+03  0.30000000000E+02 0.  1.
    -200000    1    3    3    0    0  0.15042531488E+03  0.11925712252E+03  0.92189216128E+03  0.94706715372E+03  0.10100000000E+03 0.  1.
<mgrwt>
<rscale>  0 0.13366294E+04</rscale>
<asrwt>0</asrwt>
<pdfrwt beam="1">  1        2 0.43029971E+00 0.13366294E+04</pdfrwt>
<pdfrwt beam="2">  1       -2 0.21183362E-01 0.13366294E+04</pdfrwt>
<totfact> 0.44224337E+01</totfact>
</mgrwt>
</event>
<event>
 8    2  0.4306980E-052  0.1789602E+04  0.7818608E-02  0.8711849E-01
         -2   -1    0    0    0  501 -0.00000000000E+00  0.00000000000E+00  0.10741926632E+04  0.10741926632E+04  0.25500000000E-02 0. -1.
          2   -1    0    0  501    0  0.00000000000E+00 -0.00000000000E+00 -0.74536796055E+03  0.74536796055E+03  0.25500000000E-02 0.  1.
    -200001    2    1    2    0    0  0.38294261151E+03 -0.27307206135E+02  0.70017202521E+03  0.10065055450E+04  0.61271675341E+03 0.  0.
   -5000001    2    3    3    0    0 -0.21231056237E+02  0.22099852829E+03  0.18471056055E+03  0.29875303665E+03  0.76447880751E+02 0.  0.
     200001    1    1    2    0    0 -0.38294261151E+03  0.27307206135E+02 -0.37134732256E+03  0.81305507882E+03  0.61300000000E+03 0.  1.
         13    1    4    4    0    0 -0.31184185344E+02  0.57985959387E+02  0.74673520720E+02  0.99553858601E+02  0.10566000000E+00 0.  1.
    -200003    1    4    4    0    0  0.99531291067E+01  0.16301256891E+03  0.11003703983E+03  0.19919917805E+03  0.30000000000E+02 0.  1.
    -200000    1    3    3    0    0  0.40417366775E+03 -0.24830573443E+03  0.51546146466E+03  0.70775250830E+03  0.10100000000E+03 0. -1.
<mgrwt>
<rscale>  0 0.17896020E+04</rscale>
<asrwt>0</asrwt>
<pdfrwt beam="1">  1        2 0.10648114E+00 0.17896020E+04</pdfrwt>
<pdfrwt beam="2">  1       -2 0.15345609E+00 0.17896020E+04</pdfrwt>
<totfact> 0.11114318E+01</totfact>
</mgrwt>
</event>
<event>
 8    2  0.4306980E-052  0.1277819E+04  0.7818608E-02  0.9047342E-01
          2   -1    0    0  501    0  0.00000000000E+00  0.00000000000E+00  0.37180060323E+03  0.37180060324E+03  0.25500000000E-02 0.  1.
         -2   -1    0    0    0  501 -0.00000000000E+00 -0.00000000000E+00 -0.10979141118E+04  0.10979141118E+04  0.25500000000E-02 0. -1.
    -200001    2    1    2    0    0 -0.85389108917E+02 -0.15154563127E+03 -0.42192353140E+03  0.76362837434E+03  0.61225113269E+03 0.  0.
   -5000001    2    3    3    0    0 -0.20859339720E+03  0.99783816197E+02 -0.39391771439E+03  0.46474526408E+03  0.85726188784E+02 0.  0.
     200001    1    1    2    0    0  0.85389108917E+02  0.15154563127E+03 -0.30418997712E+03  0.70608634065E+03  0.61300000000E+03 0.  1.
         13    1    4    4    0    0 -0.16544355264E+03  0.57847072403E+02 -0.31978021259E+03  0.36466045634E+03  0.10566000000E+00 0.  1.
    -200003    1    4    4    0    0 -0.43149844561E+02  0.41936743794E+02 -0.74137501807E+02  0.10008480774E+03  0.30000000000E+02 0. -1.
    -200000    1    3    3    0    0  0.12320428828E+03 -0.25132944746E+03 -0.28005817005E+02  0.29888311026E+03  0.10100000000E+03 0.  1.
<mgrwt>
<rscale>  0 0.12778187E+04</rscale>
<asrwt>0</asrwt>
<pdfrwt beam="1">  1        2 0.53114372E-01 0.12778187E+04</pdfrwt>
<pdfrwt beam="2">  1       -2 0.15684487E+00 0.12778187E+04</pdfrwt>
<totfact> 0.24507233E+01</totfact>
</mgrwt>
</event>
<event>
 8    2  0.4306980E-052  0.1696396E+04  0.7818608E-02  0.8763422E-01
         -2   -1    0    0    0  501 -0.00000000000E+00  0.00000000000E+00  0.23122969197E+04  0.23122969197E+04  0.25500000000E-02 0. -1.
          2   -1    0    0  501    0  0.00000000000E+00 -0.00000000000E+00 -0.31113649445E+03  0.31113649446E+03  0.25500000000E-02 0.  1.
    -200001    2    1    2    0    0 -0.29566745026E+03 -0.50546766169E+03  0.10407465775E+04  0.13423867495E+04  0.61313289623E+03 0.  0.
   -5000001    2    3    3    0    0 -0.27127691504E+03 -0.10465723845E+02  0.61385608634E+03  0.68052701500E+03  0.11223647983E+03 0.  0.
     200001    1    1    2    0    0  0.29566745026E+03  0.50546766169E+03  0.96041384776E+03  0.12810466647E+04  0.61300000000E+03 0. -1.
         13    1    4    4    0    0 -0.19787508383E+03  0.33438258337E+02  0.46156647083E+03  0.50330535869E+03  0.10566000000E+00 0.  1.
    -200003    1    4    4    0    0 -0.73401831204E+02 -0.43903982183E+02  0.15228961551E+03  0.17722165631E+03  0.30000000000E+02 0.  1.
    -200000    1    3    3    0    0 -0.24390535222E+02 -0.49500193784E+03  0.42689049114E+03  0.66185973446E+03  0.10100000000E+03 0.  1.
<mgrwt>
<rscale>  0 0.16963961E+04</rscale>
<asrwt>0</asrwt>
<pdfrwt beam="1">  1        2 0.44448069E-01 0.16963961E+04</pdfrwt>
<pdfrwt beam="2">  1       -2 0.33032815E+00 0.16963961E+04</pdfrwt>
<totfact> 0.22661685E+00</totfact>
</mgrwt>
</event>
<event>
 8    2  0.4306980E-052  0.2914592E+04  0.7818608E-02  0.8268549E-01
         -2   -1    0    0    0  501 -0.00000000000E+00  0.00000000000E+00  0.51967364813E+03  0.51967364813E+03  0.25500000000E-02 0. -1.
          2   -1    0    0  501    0  0.00000000000E+00 -0.00000000000E+00 -0.40866245978E+04  0.40866245978E+04  0.25500000000E-02 0.  1.
    -200001    2    1    2    0    0  0.46772619843E+03 -0.10404612514E+04 -0.28395915114E+04  0.31209874485E+04  0.61315193034E+03 0.  0.
   -5000001    2    3    3    0    0  0.45156412912E+03 -0.52389621213E+03 -0.10788677653E+04  0.12832035215E+04  0.65408093998E+02 0.  0.
     200001    1    1    2    0    0 -0.46772619843E+03  0.10404612514E+04 -0.72735943822E+03  0.14853107974E+04  0.61300000000E+03 0.  1.
         13    1    4    4    0    0  0.27391802952E+03 -0.34303939636E+03 -0.65919400212E+03  0.79198728396E+03  0.10566000000E+00 0.  1.
    -200003    1    4    4    0    0  0.17764609960E+03 -0.18085681577E+03 -0.41967376316E+03  0.49121623751E+03  0.30000000000E+02 0. -1.
    -200000    1    3    3    0    0  0.16162069313E+02 -0.51656503931E+03 -0.17607237461E+04  0.18377839271E+04  0.10100000000E+03 0. -1.
<mgrwt>
<rscale>  0 0.29145916E+04</rscale>
<asrwt>0</asrwt>
<pdfrwt beam="1">  1        2 0.58380350E+00 0.29145916E+04</pdfrwt>
<pdfrwt beam="2">  1       -2 0.74239095E-01 0.29145916E+04</pdfrwt>
<totfact> 0.70168233E-01</totfact>
</mgrwt>
</event>
<event>
 8    2  0.4306980E-052  0.1630238E+04  0.7818608E-02  0.8802184E-01
          2   -1    0    0  501    0  0.00000000000E+00  0.00000000000E+00  0.16421460382E+04  0.16421460382E+04  0.25500000000E-02 0.  1.
         -2   -1    0    0    0  501 -0.00000000000E+00 -0.00000000000E+00 -0.40460392526E+03  0.40460392526E+03  0.25500000000E-02 0. -1.
    -200001    2    1    2    0    0  0.44917101104E+03  0.48688378580E+02  0.98243142820E+03  0.12436462237E+04  0.61429574573E+03 0.  0.
   -5000001    2    3    3    0    0  0.10510729273E+03  0.21335441204E+03  0.73631505801E+03  0.77859890082E+03  0.86537480796E+02 0.  0.
     200001    1    1    2    0    0 -0.44917101104E+03 -0.48688378580E+02  0.25511068475E+03  0.80310373978E+03  0.61300000000E+03 0. -1.
         13    1    4    4    0    0  0.42468169518E+02  0.11776523003E+03  0.27102917840E+03  0.29854484007E+03  0.10566000000E+00 0.  1.
    -200003    1    4    4    0    0  0.62639123210E+02  0.95589182010E+02  0.46528587961E+03  0.48005406075E+03  0.30000000000E+02 0.  1.
    -200000    1    3    3    0    0  0.34406371831E+03 -0.16466603346E+03  0.24611637019E+03  0.46504732287E+03  0.10100000000E+03 0.  1.
<mgrwt>
<rscale>  0 0.16302377E+04</rscale>
<asrwt>0</asrwt>
<pdfrwt beam="1">  1        2 0.23459230E+00 0.16302377E+04</pdfrwt>
<pdfrwt beam="2">  1       -2 0.57800559E-01 0.16302377E+04</pdfrwt>
<totfact> 0.33034697E+01</totfact>
</mgrwt>
</event>
<event>
 8    2  0.4306980E-052  0.1556911E+04  0.7818608E-02  0.8847466E-01
          2   -1    0    0  501    0  0.00000000000E+00  0.00000000000E+00  0.11955653598E+04  0.11955653598E+04  0.25500000000E-02 0.  1.
         -2   -1    0    0    0  501 -0.00000000000E+00 -0.00000000000E+00 -0.50686712938E+03  0.50686712939E+03  0.25500000000E-02 0. -1.
    -200001    2    1    2    0    0  0.45503401155E+03 -0.12181826962E+03  0.44810571692E+03  0.89277243707E+03  0.61184005130E+03 0.  0.
   -5000001    2    3    3    0    0  0.58571748547E+03 -0.73055421811E+02  0.38646915109E+03  0.70986248128E+03  0.78385394990E+02 0.  0.
     200001    1    1    2    0    0 -0.45503401155E+03  0.12181826962E+03  0.24059251353E+03  0.80966005215E+03  0.61300000000E+03 0. -1.
         13    1    4    4    0    0  0.41859619051E+03 -0.76780650009E+02  0.27915330634E+03  0.50896426056E+03  0.10566000000E+00 0.  1.
    -200003    1    4    4    0    0  0.16712129496E+03  0.37252281981E+01  0.10731584475E+03  0.20089822072E+03  0.30000000000E+02 0. -1.
    -200000    1    3    3    0    0 -0.13068347391E+03 -0.48762847808E+02  0.61636565827E+02  0.18290995579E+03  0.10100000000E+03 0.  1.
<mgrwt>
<rscale>  0 0.15569108E+04</rscale>
<asrwt>0</asrwt>
<pdfrwt beam="1">  1        2 0.17079505E+00 0.15569108E+04</pdfrwt>
<pdfrwt beam="2">  1       -2 0.72409591E-01 0.15569108E+04</pdfrwt>
<totfact> 0.35767264E+01</totfact>
</mgrwt>
</event>
<event>
 8    2  0.4306980E-052  0.1490334E+04  0.7818608E-02  0.8890906E-01
          2   -1    0    0  501    0  0.00000000000E+00  0.00000000000E+00  0.30478731382E+03  0.30478731383E+03  0.25500000000E-02 0.  1.
         -2   -1    0    0    0  501 -0.00000000000E+00 -0.00000000000E+00 -0.18218409287E+04  0.18218409287E+04  0.25500000000E-02 0. -1.
    -200001    2    1    2    0    0 -0.29334159938E+03  0.66961346503E+01 -0.11941273179E+04  0.13742024818E+04  0.61351306225E+03 0.  0.
   -5000001    2    3    3    0    0 -0.31565676407E+03  0.21833528725E+03 -0.98104731699E+03  0.10565656069E+04  0.81040442041E+02 0.  0.
     200001    1    1    2    0    0  0.29334159938E+03 -0.66961346503E+01 -0.32292629706E+03  0.75242576077E+03  0.61300000000E+03 0.  1.
         13    1    4    4    0    0 -0.10354245901E+03  0.11388314361E+03 -0.39036849069E+03  0.41961646881E+03  0.10566000000E+00 0.  1.
    -200003    1    4    4    0    0 -0.21211430506E+03  0.10445214364E+03 -0.59067882630E+03  0.63694913813E+03  0.30000000000E+02 0.  1.
    -200000    1    3    3    0    0  0.22315164693E+02 -0.21163915260E+03 -0.21308000086E+03  0.31763687484E+03  0.10100000000E+03 0.  1.
<mgrwt>
<rscale>  0 0.14903342E+04</rscale>
<asrwt>0</asrwt>
<pdfrwt beam="1">  1        2 0.43541046E-01 0.14903342E+04</pdfrwt>
<pdfrwt beam="2">  1       -2 0.26026298E+00 0.14903342E+04</pdfrwt>
<totfact> 0.63181654E+00</totfact>
</mgrwt>
</event>
<event>
 8    2  0.4306980E-052  0.1709846E+04  0.7818608E-02  0.8755769E-01
         -2   -1    0    0    0  501 -0.00000000000E+00  0.00000000000E+00  0.66963325597E+03  0.66963325597E+03  0.25500000000E-02 0. -1.
          2   -1    0    0  501    0  0.00000000000E+00 -0.00000000000E+00 -0.10914825535E+04  0.10914825535E+04  0.25500000000E-02 0.  1.
    -200001    2    1    2    0    0 -0.58311472139E+02 -0.27869946604E+03 -0.75026109633E+03  0.10096526170E+04  0.61272593723E+03 0.  0.
   -5000001    2    3    3    0    0 -0.19534745965E+03  0.10275312079E+03 -0.35882075648E+03  0.43719172091E+03  0.11689923750E+03 0.  0.
     200001    1    1    2    0    0  0.58311472139E+02  0.27869946604E+03  0.32841179877E+03  0.75146319253E+03  0.61300000000E+03 0. -1.
         13    1    4    4    0    0 -0.16684025460E+02  0.61789505053E+02 -0.94829408775E+02  0.11440685108E+03  0.10566000000E+00 0.  1.
    -200003    1    4    4    0    0 -0.17866343419E+03  0.40963615732E+02 -0.26399134770E+03  0.32278486983E+03  0.30000000000E+02 0.  1.
    -200000    1    3    3    0    0  0.13703598751E+03 -0.38145258683E+03 -0.39144033985E+03  0.57246089607E+03  0.10100000000E+03 0.  1.
<mgrwt>
<rscale>  0 0.17098456E+04</rscale>
<asrwt>0</asrwt>
<pdfrwt beam="1">  1        2 0.15592608E+00 0.17098456E+04</pdfrwt>
<pdfrwt beam="2">  1       -2 0.95661894E-01 0.17098456E+04</pdfrwt>
<totfact> 0.21614295E+01</totfact>
</mgrwt>
</event>
<event>
 8    2  0.4306980E-052  0.1304416E+04  0.7818608E-02  0.9026070E-01
          2   -1    0    0  501    0  0.00000000000E+00  0.00000000000E+00  0.41873970324E+04  0.41873970324E+04  0.25500000000E-02 0.  1.
         -2   -1    0    0    0  501 -0.00000000000E+00 -0.00000000000E+00 -0.10158467073E+03  0.10158467077E+03  0.25500000000E-02 0. -1.
    -200001    2    1    2    0    0  0.18284370976E+03 -0.12517110217E+03  0.19647683374E+04  0.20700413299E+04  0.61290852583E+03 0.  0.
   -5000001    2    3    3    0    0 -0.18949915559E+03 -0.36341536883E+02  0.10918859798E+04  0.11115766664E+04  0.78466904753E+02 0.  0.
     200001    1    1    2    0    0 -0.18284370976E+03  0.12517110217E+03  0.21210440243E+04  0.22189403732E+04  0.61300000000E+03 0.  1.
         13    1    4    4    0    0 -0.38972629630E+02 -0.70577389091E+01  0.41517491735E+03  0.41705982868E+03  0.10566000000E+00 0.  1.
    -200003    1    4    4    0    0 -0.15052652596E+03 -0.29283797974E+02  0.67671106248E+03  0.69451683776E+03  0.30000000000E+02 0.  1.
    -200000    1    3    3    0    0  0.37234286535E+03 -0.88829565288E+02  0.87288235755E+03  0.95846466350E+03  0.10100000000E+03 0. -1.
<mgrwt>
<rscale>  0 0.13044161E+04</rscale>
<asrwt>0</asrwt>
<pdfrwt beam="1">  1        2 0.59819970E+00 0.13044161E+04</pdfrwt>
<pdfrwt beam="2">  1       -2 0.14512093E-01 0.13044161E+04</pdfrwt>
<totfact> 0.15773675E+01</totfact>
</mgrwt>
</event>
<event>
 8    2  0.4306980E-052  0.2016653E+04  0.7818608E-02  0.8598874E-01
         -2   -1    0    0    0  501 -0.00000000000E+00  0.00000000000E+00  0.10111051902E+04  0.10111051902E+04  0.25500000000E-02 0. -1.
          2   -1    0    0  501    0  0.00000000000E+00 -0.00000000000E+00 -0.10055550804E+04  0.10055550804E+04  0.25500000000E-02 0.  1.
    -200001    2    1    2    0    0 -0.74191230624E+03  0.13682280939E+03  0.27176529407E+03  0.10087942698E+04  0.61209080400E+03 0.  0.
   -5000001    2    3    3    0    0 -0.25282004182E+03 -0.31007558731E+02 -0.17383849462E+03  0.31876382690E+03  0.80691467254E+02 0.  0.
     200001    1    1    2    0    0  0.74191230624E+03 -0.13682280939E+03 -0.26621518431E+03  0.10078660009E+04  0.61300000000E+03 0. -1.
         13    1    4    4    0    0 -0.72299534295E+02  0.22182253828E+02 -0.37264229306E+02  0.84308415915E+02  0.10566000000E+00 0.  1.
    -200003    1    4    4    0    0 -0.18052050752E+03 -0.53189812558E+02 -0.13657426532E+03  0.23445541099E+03  0.30000000000E+02 0.  1.
    -200000    1    3    3    0    0 -0.48909226443E+03  0.16783036812E+03  0.44560378869E+03  0.69003044287E+03  0.10100000000E+03 0. -1.
<mgrwt>
<rscale>  0 0.20166526E+04</rscale>
<asrwt>0</asrwt>
<pdfrwt beam="1">  1        2 0.14365073E+00 0.20166526E+04</pdfrwt>
<pdfrwt beam="2">  1       -2 0.14444360E+00 0.20166526E+04</pdfrwt>
<totfact> 0.85903490E+00</totfact>
</mgrwt>
</event>
<event>
 8    2  0.4306980E-052  0.1414093E+04  0.7818608E-02  0.8943680E-01
          2   -1    0    0  501    0  0.00000000000E+00  0.00000000000E+00  0.80065129601E+03  0.80065129602E+03  0.25500000000E-02 0.  1.
         -2   -1    0    0    0  501 -0.00000000000E+00 -0.00000000000E+00 -0.62438496191E+03  0.62438496192E+03  0.25500000000E-02 0. -1.
    -200001    2    1    2    0    0  0.64541884075E+02  0.89733849232E+02  0.42524778490E+03  0.75423182940E+03  0.61303519917E+03 0.  0.
   -5000001    2    3    3    0    0 -0.10266071167E+03  0.25507751620E+03  0.36256203135E+02  0.28860248441E+03  0.79831827933E+02 0.  0.
     200001    1    1    2    0    0 -0.64541884075E+02 -0.89733849232E+02 -0.24898145080E+03  0.67080442853E+03  0.61300000000E+03 0.  1.
         13    1    4    4    0    0 -0.70307760596E+02  0.17545730669E+03 -0.40194084267E+01  0.18906246185E+03  0.10566000000E+00 0.  1.
    -200003    1    4    4    0    0 -0.32352951073E+02  0.79620209509E+02  0.40275611562E+02  0.99540022564E+02  0.30000000000E+02 0. -1.
    -200000    1    3    3    0    0  0.16720259574E+03 -0.16534366697E+03  0.38899158177E+03  0.46562934499E+03  0.10100000000E+03 0.  1.
<mgrwt>
<rscale>  0 0.14140928E+04</rscale>
<asrwt>0</asrwt>
<pdfrwt beam="1">  1        2 0.11437876E+00 0.14140928E+04</pdfrwt>
<pdfrwt beam="2">  1       -2 0.89197852E-01 0.14140928E+04</pdfrwt>
<totfact> 0.39908273E+01</totfact>
</mgrwt>
</event>
<event>
 8    2  0.4306980E-052  0.1751096E+04  0.7818608E-02  0.8732747E-01
          2   -1    0    0  501    0  0.00000000000E+00  0.00000000000E+00  0.27610146755E+04  0.27610146755E+04  0.25500000000E-02 0.  1.
         -2   -1    0    0    0  501 -0.00000000000E+00 -0.00000000000E+00 -0.27764592018E+03  0.27764592020E+03  0.25500000000E-02 0. -1.
    -200001    2    1    2    0    0 -0.38204511032E+03  0.35500180997E+03  0.64672329902E+03  0.10334124107E+04  0.61457744315E+03 0.  0.
   -5000001    2    3    3    0    0 -0.38856140365E+03  0.47468455202E+03  0.41972833284E+03  0.75756075580E+03  0.14635927372E+03 0.  0.
     200001    1    1    2    0    0  0.38204511032E+03 -0.35500180997E+03  0.18366454563E+04  0.20052481850E+04  0.61300000000E+03 0.  1.
         13    1    4    4    0    0 -0.32235057274E+01  0.13463050935E+02  0.48666358299E+02  0.50597137506E+02  0.10566000000E+00 0.  1.
    -200003    1    4    4    0    0 -0.38533789793E+03  0.46122150108E+03  0.37106197454E+03  0.70696361829E+03  0.30000000000E+02 0.  1.
    -200000    1    3    3    0    0  0.65162933328E+01 -0.11968274205E+03  0.22699496618E+03  0.27585165487E+03  0.10100000000E+03 0.  1.
<mgrwt>
<rscale>  0 0.17510962E+04</rscale>
<asrwt>0</asrwt>
<pdfrwt beam="1">  1        2 0.39443064E+00 0.17510962E+04</pdfrwt>
<pdfrwt beam="2">  1       -2 0.39663706E-01 0.17510962E+04</pdfrwt>
<totfact> 0.18281642E+01</totfact>
</mgrwt>
</event>
<event>
 8    2  0.4306980E-052  0.2207326E+04  0.7818608E-02  0.8515385E-01
         -2   -1    0    0    0  501 -0.00000000000E+00  0.00000000000E+00  0.40067769748E+03  0.40067769749E+03  0.25500000000E-02 0. -1.
          2   -1    0    0  501    0  0.00000000000E+00 -0.00000000000E+00 -0.30400288628E+04  0.30400288628E+04  0.25500000000E-02 0.  1.
    -200001    2    1    2    0    0 -0.30732242122E+03  0.85015062888E+03 -0.15660745723E+04  0.19094016241E+04  0.61320619196E+03 0.  0.
   -5000001    2    3    3    0    0  0.44048244580E+02  0.24709578231E+03 -0.41977376823E+03  0.56354018024E+03  0.27994811083E+03 0.  0.
     200001    1    1    2    0    0  0.30732242122E+03 -0.85015062888E+03 -0.10732765930E+04  0.15313049362E+04  0.61300000000E+03 0. -1.
         13    1    4    4    0    0 -0.36719014283E+02  0.10090027860E+03  0.35894831147E+01  0.10743392288E+03  0.10566000000E+00 0.  1.
    -200003    1    4    4    0    0  0.80767258863E+02  0.14619550370E+03 -0.42336325135E+03  0.45610625736E+03  0.30000000000E+02 0.  1.
    -200000    1    3    3    0    0 -0.35137066580E+03  0.60305484657E+03 -0.11463008041E+04  0.13458614439E+04  0.10100000000E+03 0.  1.
<mgrwt>
<rscale>  0 0.22073258E+04</rscale>
<asrwt>0</asrwt>
<pdfrwt beam="1">  1        2 0.43428982E+00 0.22073258E+04</pdfrwt>
<pdfrwt beam="2">  1       -2 0.57239673E-01 0.22073258E+04</pdfrwt>
<totfact> 0.58785570E+00</totfact>
</mgrwt>
</event>
<event>
 8    2  0.4306980E-052  0.1674994E+04  0.7818608E-02  0.8775756E-01
          2   -1    0    0  501    0  0.00000000000E+00  0.00000000000E+00  0.74648752909E+03  0.74648752910E+03  0.25500000000E-02 0.  1.
         -2   -1    0    0    0  501 -0.00000000000E+00 -0.00000000000E+00 -0.93960181092E+03  0.93960181092E+03  0.25500000000E-02 0. -1.
    -200001    2    1    2    0    0  0.54169969103E+03 -0.14091086540E+02 -0.27583429557E+03  0.86374591136E+03  0.61346175660E+03 0.  0.
   -5000001    2    3    3    0    0 -0.66359317317E+02 -0.13802936548E+03  0.26538317438E+02  0.16608793519E+03  0.58525679801E+02 0.  0.
     200001    1    1    2    0    0 -0.54169969103E+03  0.14091086540E+02  0.82720013739E+02  0.82234342866E+03  0.61300000000E+03 0. -1.
         13    1    4    4    0    0  0.33010986990E+01 -0.36697561272E+02  0.41972445492E+00  0.36848277959E+02  0.10566000000E+00 0.  1.
    -200003    1    4    4    0    0 -0.69660416016E+02 -0.10133180420E+03  0.26118592983E+02  0.12923965724E+03  0.30000000000E+02 0.  1.
    -200000    1    3    3    0    0  0.60805900835E+03  0.12393827894E+03 -0.30237261300E+03  0.69765797617E+03  0.10100000000E+03 0. -1.
<mgrwt>
<rscale>  0 0.16749938E+04</rscale>
<asrwt>0</asrwt>
<pdfrwt beam="1">  1        2 0.10664108E+00 0.16749938E+04</pdfrwt>
<pdfrwt beam="2">  1       -2 0.13422883E+00 0.16749938E+04</pdfrwt>
<totfact> 0.15888785E+01</totfact>
</mgrwt>
</event>
<event>
 8    2  0.4306980E-052  0.1760120E+04  0.7818608E-02  0.8727800E-01
          2   -1    0    0  501    0  0.00000000000E+00  0.00000000000E+00  0.19121083717E+04  0.19121083717E+04  0.25500000000E-02 0.  1.
         -2   -1    0    0    0  501 -0.00000000000E+00 -0.00000000000E+00 -0.40505314512E+03  0.40505314513E+03  0.25500000000E-02 0. -1.
    -200001    2    1    2    0    0 -0.59060383227E+02 -0.29937415174E+03  0.25037228955E+02  0.68459931071E+03  0.61232045678E+03 0.  0.
   -5000001    2    3    3    0    0  0.11683414083E+03  0.91788813517E+02 -0.83220202701E+02  0.23087249809E+03  0.15588811850E+03 0.  0.
     200001    1    1    2    0    0  0.59060383227E+02  0.29937415174E+03  0.14820179976E+04  0.16325622061E+04  0.61300000000E+03 0.  1.
         13    1    4    4    0    0  0.33303703898E+02  0.86421097333E+02  0.19880524303E+02  0.94725863248E+02  0.10566000000E+00 0.  1.
    -200003    1    4    4    0    0  0.83530436927E+02  0.53677161840E+01 -0.10310072700E+03  0.13614663484E+03  0.30000000000E+02 0.  1.
    -200000    1    3    3    0    0 -0.17589452405E+03 -0.39116296525E+03  0.10825743166E+03  0.45372681262E+03  0.10100000000E+03 0.  1.
<mgrwt>
<rscale>  0 0.17601199E+04</rscale>
<asrwt>0</asrwt>
<pdfrwt beam="1">  1        2 0.27315833E+00 0.17601199E+04</pdfrwt>
<pdfrwt beam="2">  1       -2 0.57864736E-01 0.17601199E+04</pdfrwt>
<totfact> 0.23640849E+01</totfact>
</mgrwt>
</event>
<event>
 8    2  0.4306980E-052  0.1709246E+04  0.7818608E-02  0.8756108E-01
         -2   -1    0    0    0  501 -0.00000000000E+00  0.00000000000E+00  0.78826724893E+03  0.78826724893E+03  0.25500000000E-02 0. -1.
          2   -1    0    0  501    0  0.00000000000E+00 -0.00000000000E+00 -0.92656501932E+03  0.92656501932E+03  0.25500000000E-02 0.  1.
    -200001    2    1    2    0    0  0.45785530770E+03 -0.11125704342E+03 -0.43414165755E+03  0.88700244391E+03  0.61342052801E+03 0.  0.
   -5000001    2    3    3    0    0  0.16372140749E+03 -0.25224229972E+03 -0.44908691931E+03  0.54521895309E+03  0.71789753291E+02 0.  0.
     200001    1    1    2    0    0 -0.45785530770E+03  0.11125704342E+03  0.29584388717E+03  0.82782982434E+03  0.61300000000E+03 0. -1.
         13    1    4    4    0    0  0.61712388135E+02 -0.12868916664E+03 -0.16951005227E+03  0.22159194355E+03  0.10566000000E+00 0.  1.
    -200003    1    4    4    0    0  0.10200901936E+03 -0.12355313307E+03 -0.27957686704E+03  0.32362700955E+03  0.30000000000E+02 0.  1.
    -200000    1    3    3    0    0  0.29413390021E+03  0.14098525630E+03  0.14945261760E+02  0.34178349082E+03  0.10100000000E+03 0.  1.
<mgrwt>
<rscale>  0 0.17092465E+04</rscale>
<asrwt>0</asrwt>
<pdfrwt beam="1">  1        2 0.13236643E+00 0.17092465E+04</pdfrwt>
<pdfrwt beam="2">  1       -2 0.11260961E+00 0.17092465E+04</pdfrwt>
<totfact> 0.18495469E+01</totfact>
</mgrwt>
</event>
<event>
 8    2  0.4306980E-052  0.1529091E+04  0.7818608E-02  0.8865335E-01
         -2   -1    0    0    0  501 -0.00000000000E+00  0.00000000000E+00  0.33569116214E+03  0.33569116215E+03  0.25500000000E-02 0. -1.
          2   -1    0    0  501    0  0.00000000000E+00 -0.00000000000E+00 -0.17412732121E+04  0.17412732121E+04  0.25500000000E-02 0.  1.
    -200001    2    1    2    0    0 -0.10764411492E+03  0.41420202927E+03 -0.92093651364E+03  0.11860093404E+04  0.61265285172E+03 0.  0.
   -5000001    2    3    3    0    0  0.64997268308E+02  0.79610219862E+02  0.41282630080E+02  0.14782659793E+03  0.97908199426E+02 0.  0.
     200001    1    1    2    0    0  0.10764411492E+03 -0.41420202927E+03 -0.48464553629E+03  0.89095503387E+03  0.61300000000E+03 0. -1.
         13    1    4    4    0    0  0.36173454084E+02  0.86183250416E+01  0.52966972715E+02  0.64717120374E+02  0.10566000000E+00 0.  1.
    -200003    1    4    4    0    0  0.28823814224E+02  0.70991894820E+02 -0.11684342634E+02  0.83109477554E+02  0.30000000000E+02 0.  1.
    -200000    1    3    3    0    0 -0.17264138323E+03  0.33459180941E+03 -0.96221914372E+03  0.10381827424E+04  0.10100000000E+03 0.  1.
<mgrwt>
<rscale>  0 0.15290913E+04</rscale>
<asrwt>0</asrwt>
<pdfrwt beam="1">  1        2 0.24875331E+00 0.15290913E+04</pdfrwt>
<pdfrwt beam="2">  1       -2 0.47955881E-01 0.15290913E+04</pdfrwt>
<totfact> 0.43419795E+01</totfact>
</mgrwt>
</event>
<event>
 8    2  0.4306980E-052  0.1477847E+04  0.7818608E-02  0.8899320E-01
         -2   -1    0    0    0  501 -0.00000000000E+00  0.00000000000E+00  0.17992775542E+04  0.17992775542E+04  0.25500000000E-02 0. -1.
          2   -1    0    0  501    0  0.00000000000E+00 -0.00000000000E+00 -0.30345936760E+03  0.30345936761E+03  0.25500000000E-02 0.  1.
    -200001    2    1    2    0    0 -0.15001580135E+03  0.12795229870E+03  0.12641775404E+04  0.14184103036E+04  0.61226334571E+03 0.  0.
   -5000001    2    3    3    0    0  0.34271126128E+02 -0.21043043306E+03  0.58106073795E+03  0.62764225260E+03  0.10415247871E+03 0.  0.
     200001    1    1    2    0    0  0.15001580135E+03 -0.12795229870E+03  0.23164064627E+03  0.68432661822E+03  0.61300000000E+03 0.  1.
         13    1    4    4    0    0  0.59364537196E+02 -0.16245534743E+03  0.38559565681E+03  0.42261082558E+03  0.10566000000E+00 0.  1.
    -200003    1    4    4    0    0 -0.25093411068E+02 -0.47975085623E+02  0.19546508114E+03  0.20503142702E+03  0.30000000000E+02 0.  1.
    -200000    1    3    3    0    0 -0.18428692748E+03  0.33838273176E+03  0.68311680241E+03  0.79076805103E+03  0.10100000000E+03 0. -1.
<mgrwt>
<rscale>  0 0.14778466E+04</rscale>
<asrwt>0</asrwt>
<pdfrwt beam="1">  1        2 0.43351340E-01 0.14778466E+04</pdfrwt>
<pdfrwt beam="2">  1       -2 0.25703964E+00 0.14778466E+04</pdfrwt>
<totfact> 0.66494804E+00</totfact>
</mgrwt>
</event>
<event>
 8    2  0.4306980E-052  0.1281979E+04  0.7818608E-02  0.9043980E-01
          2   -1    0    0  501    0  0.00000000000E+00  0.00000000000E+00  0.20181886093E+04  0.20181886093E+04  0.25500000000E-02 0.  1.
         -2   -1    0    0    0  501 -0.00000000000E+00 -0.00000000000E+00 -0.20358217348E+03  0.20358217349E+03  0.25500000000E-02 0. -1.
    -200001    2    1    2    0    0  0.53574602009E+02 -0.17455072984E+03  0.98002661205E+03  0.11702810408E+04  0.61299866139E+03 0.  0.
   -5000001    2    3    3    0    0  0.10508501170E+03  0.88851128576E+02  0.74903663704E+02  0.22081676399E+03  0.15560238330E+03 0.  0.
     200001    1    1    2    0    0 -0.53574602009E+02  0.17455072984E+03  0.83457982377E+03  0.10514897420E+04  0.61300000000E+03 0. -1.
         13    1    4    4    0    0  0.12948797311E+03  0.10353748179E+03  0.66343128208E+02  0.17857370226E+03  0.10566000000E+00 0.  1.
    -200003    1    4    4    0    0 -0.24402961405E+02 -0.14686353213E+02  0.85605354959E+01  0.42243061726E+02  0.30000000000E+02 0.  1.
    -200000    1    3    3    0    0 -0.51510409695E+02 -0.26340185842E+03  0.90512294834E+03  0.94946427681E+03  0.10100000000E+03 0.  1.
<mgrwt>
<rscale>  0 0.12819785E+04</rscale>
<asrwt>0</asrwt>
<pdfrwt beam="1">  1        2 0.28831265E+00 0.12819785E+04</pdfrwt>
<pdfrwt beam="2">  1       -2 0.29083168E-01 0.12819785E+04</pdfrwt>
<totfact> 0.83777817E+01</totfact>
</mgrwt>
</event>
<event>
 8    2  0.4306980E-052  0.1391762E+04  0.7818608E-02  0.8959803E-01
         -2   -1    0    0    0  501 -0.00000000000E+00  0.00000000000E+00  0.20523480159E+03  0.20523480161E+03  0.25500000000E-02 0. -1.
          2   -1    0    0  501    0  0.00000000000E+00 -0.00000000000E+00 -0.23594960905E+04  0.23594960905E+04  0.25500000000E-02 0.  1.
    -200001    2    1    2    0    0  0.31091664066E+03  0.24186264675E+02 -0.12692434995E+04  0.14438920900E+04  0.61367024823E+03 0.  0.
   -5000001    2    3    3    0    0  0.23723510111E+03 -0.11519526014E+03 -0.17884457257E+03  0.33753455344E+03  0.11132723148E+03 0.  0.
     200001    1    1    2    0    0 -0.31091664066E+03 -0.24186264675E+02 -0.88501778932E+03  0.11208388021E+04  0.61300000000E+03 0. -1.
         13    1    4    4    0    0  0.99482911428E+02 -0.36638251191E+02 -0.14166390534E+02  0.10695750979E+03  0.10566000000E+00 0.  1.
    -200003    1    4    4    0    0  0.13775218968E+03 -0.78557008954E+02 -0.16467818204E+03  0.23057704365E+03  0.30000000000E+02 0.  1.
    -200000    1    3    3    0    0  0.73681539546E+02  0.13938152482E+03 -0.10903989270E+04  0.11063575365E+04  0.10100000000E+03 0.  1.
<mgrwt>
<rscale>  0 0.13917625E+04</rscale>
<asrwt>0</asrwt>
<pdfrwt beam="1">  1        2 0.33707085E+00 0.13917625E+04</pdfrwt>
<pdfrwt beam="2">  1       -2 0.29319259E-01 0.13917625E+04</pdfrwt>
<totfact> 0.54591370E+01</totfact>
</mgrwt>
</event>
<event>
 8    2  0.4306980E-052  0.2285899E+04  0.7818608E-02  0.8483502E-01
          2   -1    0    0  501    0  0.00000000000E+00  0.00000000000E+00  0.25094969554E+04  0.25094969554E+04  0.25500000000E-02 0. -1.
         -2   -1    0    0    0  501 -0.00000000000E+00 -0.00000000000E+00 -0.52055603297E+03  0.52055603297E+03  0.25500000000E-02 0.  1.
    -200001    2    1    2    0    0  0.57579291690E+03 -0.18524181122E+02 -0.30888513833E+02  0.84204919951E+03  0.61336133369E+03 0.  0.
   -5000001    2    3    3    0    0  0.45419405386E+03  0.30183560600E+02 -0.28209227595E+03  0.54127842683E+03  0.78759109404E+02 0.  0.
     200001    1    1    2    0    0 -0.57579291690E+03  0.18524181122E+02  0.20198294362E+04  0.21880037888E+04  0.61300000000E+03 0. -1.
         13    1    4    4    0    0  0.30921372361E+03  0.14312298511E+01 -0.21238863577E+03  0.37513213546E+03  0.10566000000E+00 0.  1.
    -200003    1    4    4    0    0  0.14498033025E+03  0.28752330749E+02 -0.69703640181E+02  0.16614629137E+03  0.30000000000E+02 0. -1.
    -200000    1    3    3    0    0  0.12159886305E+03 -0.48707741721E+02  0.25120376212E+03  0.30077077268E+03  0.10100000000E+03 0.  1.
<mgrwt>
<rscale>  0 0.22858992E+04</rscale>
<asrwt>0</asrwt>
<pdfrwt beam="1">  1        2 0.35849957E+00 0.22858992E+04</pdfrwt>
<pdfrwt beam="2">  1       -2 0.74365147E-01 0.22858992E+04</pdfrwt>
<totfact> 0.64653727E+00</totfact>
</mgrwt>
</event>
<event>
 8    2  0.4306980E-052  0.1975206E+04  0.7818608E-02  0.8618301E-01
          2   -1    0    0  501    0  0.00000000000E+00  0.00000000000E+00  0.24142974654E+04  0.24142974654E+04  0.25500000000E-02 0.  1.
         -2   -1    0    0    0  501 -0.00000000000E+00 -0.00000000000E+00 -0.40399323539E+03  0.40399323539E+03  0.25500000000E-02 0. -1.
    -200001    2    1    2    0    0  0.43485100992E+01 -0.60739642207E+03  0.16895642631E+04  0.18976428585E+04  0.61438725283E+03 0.  0.
   -5000001    2    3    3    0    0 -0.97621744634E+02 -0.25486325709E+03  0.16682630274E+03  0.32805391201E+03  0.72822174201E+02 0.  0.
     200001    1    1    2    0    0 -0.43485100992E+01  0.60739642207E+03  0.32073996698E+03  0.92064784228E+03  0.61300000000E+03 0. -1.
         13    1    4    4    0    0 -0.90806445428E+02 -0.18455534933E+03  0.11906462012E+03  0.23766127667E+03  0.10566000000E+00 0.  1.
    -200003    1    4    4    0    0 -0.68152992055E+01 -0.70307907760E+02  0.47761682623E+02  0.90392635340E+02  0.30000000000E+02 0. -1.
    -200000    1    3    3    0    0  0.10197025473E+03 -0.35253316498E+03  0.15227379603E+04  0.15695889465E+04  0.10100000000E+03 0.  1.
<mgrwt>
<rscale>  0 0.19752062E+04</rscale>
<asrwt>0</asrwt>
<pdfrwt beam="1">  1        2 0.34489964E+00 0.19752062E+04</pdfrwt>
<pdfrwt beam="2">  1       -2 0.57713318E-01 0.19752062E+04</pdfrwt>
<totfact> 0.12844552E+01</totfact>
</mgrwt>
</event>
<event>
 8    2  0.4306980E-052  0.1301400E+04  0.7818608E-02  0.9028455E-01
         -2   -1    0    0    0  501 -0.00000000000E+00  0.00000000000E+00  0.23686296684E+03  0.23686296686E+03  0.25500000000E-02 0. -1.
          2   -1    0    0  501    0  0.00000000000E+00 -0.00000000000E+00 -0.17875766693E+04  0.17875766694E+04  0.25500000000E-02 0.  1.
    -200001    2    1    2    0    0 -0.85347016114E+02  0.10733350445E+03 -0.51325672969E+03  0.81163686379E+03  0.61361008284E+03 0.  0.
   -5000001    2    3    3    0    0  0.20630823432E+03 -0.26758754010E+02 -0.31778015288E+02  0.22421344639E+03  0.77347972333E+02 0.  0.
     200001    1    1    2    0    0  0.85347016114E+02 -0.10733350445E+03 -0.10374569728E+04  0.12128027724E+04  0.61300000000E+03 0.  1.
         13    1    4    4    0    0  0.14244623741E+03  0.33111563644E+01 -0.37395128693E+02  0.14731022070E+03  0.10566000000E+00 0.  1.
    -200003    1    4    4    0    0  0.63861996914E+02 -0.30069910374E+02  0.56171134045E+01  0.76903225698E+02  0.30000000000E+02 0.  1.
    -200000    1    3    3    0    0 -0.29165525043E+03  0.13409225846E+03 -0.48147871440E+03  0.58742341740E+03  0.10100000000E+03 0.  1.
<mgrwt>
<rscale>  0 0.13014003E+04</rscale>
<asrwt>0</asrwt>
<pdfrwt beam="1">  1        2 0.25536809E+00 0.13014003E+04</pdfrwt>
<pdfrwt beam="2">  1       -2 0.33837568E-01 0.13014003E+04</pdfrwt>
<totfact> 0.82730522E+01</totfact>
</mgrwt>
</event>
<event>
 8    2  0.4306980E-052  0.2517643E+04  0.7818608E-02  0.8396727E-01
          2   -1    0    0  501    0  0.00000000000E+00  0.00000000000E+00  0.36289242984E+04  0.36289242984E+04  0.25500000000E-02 0.  1.
         -2   -1    0    0    0  501 -0.00000000000E+00 -0.00000000000E+00 -0.43666693372E+03  0.43666693373E+03  0.25500000000E-02 0. -1.
    -200001    2    1    2    0    0  0.20434717493E+03 -0.39528858614E+03  0.32203855143E+04  0.33075865969E+04  0.60929090034E+03 0.  0.
   -5000001    2    3    3    0    0 -0.43520441919E+02 -0.40262990300E+03  0.20314960805E+04  0.20889187438E+04  0.26944447576E+03 0.  0.
     200001    1    1    2    0    0 -0.20434717493E+03  0.39528858614E+03 -0.28128149583E+02  0.75800463523E+03  0.61300000000E+03 0. -1.
         13    1    4    4    0    0  0.61021602621E+02 -0.25795963167E+02  0.63321355900E+03  0.63666984392E+03  0.10566000000E+00 0.  1.
    -200003    1    4    4    0    0 -0.10454204454E+03 -0.37683393984E+03  0.13982825215E+04  0.14522488999E+04  0.30000000000E+02 0.  1.
    -200000    1    3    3    0    0  0.24786761685E+03  0.73413168630E+01  0.11888894338E+04  0.12186678531E+04  0.10100000000E+03 0.  1.
<mgrwt>
<rscale>  0 0.25176427E+04</rscale>
<asrwt>0</asrwt>
<pdfrwt beam="1">  1        2 0.51841776E+00 0.25176427E+04</pdfrwt>
<pdfrwt beam="2">  1       -2 0.62380990E-01 0.25176427E+04</pdfrwt>
<totfact> 0.21346278E+00</totfact>
</mgrwt>
</event>
<event>
 8    2  0.4306980E-052  0.1486790E+04  0.7818608E-02  0.8893285E-01
          2   -1    0    0  501    0  0.00000000000E+00  0.00000000000E+00  0.11093842675E+04  0.11093842675E+04  0.25500000000E-02 0.  1.
         -2   -1    0    0    0  501 -0.00000000000E+00 -0.00000000000E+00 -0.49814652289E+03  0.49814652290E+03  0.25500000000E-02 0. -1.
    -200001    2    1    2    0    0  0.15702118309E+03 -0.30188882214E+03  0.40785325400E+02  0.70366272733E+03  0.61456104514E+03 0.  0.
   -5000001    2    3    3    0    0 -0.77880023661E+02  0.10866634580E+03  0.14016230692E+03  0.20989060651E+03  0.80838862091E+02 0.  0.
     200001    1    1    2    0    0 -0.15702118309E+03  0.30188882214E+03  0.57045241923E+03  0.90386806309E+03  0.61300000000E+03 0.  1.
         13    1    4    4    0    0 -0.81960370833E+02  0.80290150153E+02  0.10347413643E+03  0.15450216397E+03  0.10566000000E+00 0.  1.
    -200003    1    4    4    0    0  0.40803471718E+01  0.28376195646E+02  0.36688170487E+02  0.55388442532E+02  0.30000000000E+02 0.  1.
    -200000    1    3    3    0    0  0.23490120675E+03 -0.41055516793E+03 -0.99376981518E+02  0.49377212083E+03  0.10100000000E+03 0. -1.
<mgrwt>
<rscale>  0 0.14867897E+04</rscale>
<asrwt>0</asrwt>
<pdfrwt beam="1">  1        2 0.15848346E+00 0.14867897E+04</pdfrwt>
<pdfrwt beam="2">  1       -2 0.71163790E-01 0.14867897E+04</pdfrwt>
<totfact> 0.41906170E+01</totfact>
</mgrwt>
</event>
<event>
 8    2  0.4306980E-052  0.1282187E+04  0.7818608E-02  0.9043812E-01
         -2   -1    0    0    0  501 -0.00000000000E+00  0.00000000000E+00  0.35708552918E+03  0.35708552919E+03  0.25500000000E-02 0. -1.
          2   -1    0    0  501    0  0.00000000000E+00 -0.00000000000E+00 -0.11509870027E+04  0.11509870027E+04  0.25500000000E-02 0.  1.
    -200001    2    1    2    0    0 -0.23185458687E+02  0.35328513191E+02 -0.18088244016E+03  0.64011688522E+03  0.61257285302E+03 0.  0.
   -5000001    2    3    3    0    0  0.18177324811E+03  0.18442295749E+03 -0.19010548914E+03  0.36712734432E+03  0.17773308349E+03 0.  0.
     200001    1    1    2    0    0  0.23185458687E+02 -0.35328513191E+02 -0.61301903340E+03  0.86795564671E+03  0.61300000000E+03 0.  1.
         13    1    4    4    0    0  0.18911471535E+03  0.97013380703E+02 -0.90370755151E+02  0.23096072425E+03  0.10566000000E+00 0.  1.
    -200003    1    4    4    0    0 -0.73414672409E+01  0.87409576787E+02 -0.99734733991E+02  0.13616662006E+03  0.30000000000E+02 0.  1.
    -200000    1    3    3    0    0 -0.20495870680E+03 -0.14909444430E+03  0.92230489779E+01  0.27298954091E+03  0.10100000000E+03 0. -1.
<mgrwt>
<rscale>  0 0.12821869E+04</rscale>
<asrwt>0</asrwt>
<pdfrwt beam="1">  1        2 0.16442671E+00 0.12821869E+04</pdfrwt>
<pdfrwt beam="2">  1       -2 0.51012219E-01 0.12821869E+04</pdfrwt>
<totfact> 0.81322907E+01</totfact>
</mgrwt>
</event>
<event>
 8    2  0.4306980E-052  0.1535901E+04  0.7818608E-02  0.8860924E-01
         -2   -1    0    0    0  501 -0.00000000000E+00  0.00000000000E+00  0.83934348503E+03  0.83934348504E+03  0.25500000000E-02 0. -1.
          2   -1    0    0  501    0  0.00000000000E+00 -0.00000000000E+00 -0.70262965931E+03  0.70262965931E+03  0.25500000000E-02 0.  1.
    -200001    2    1    2    0    0 -0.43111927439E+03  0.12518004633E+03  0.15636296059E+03  0.78191461946E+03  0.62081174596E+03 0.  0.
   -5000001    2    3    3    0    0 -0.24480489894E+03 -0.21784732758E+03  0.16822040162E+03  0.37852594256E+03  0.87160134160E+02 0.  0.
     200001    1    1    2    0    0  0.43111927439E+03 -0.12518004633E+03 -0.19649134865E+02  0.76005852489E+03  0.61300000000E+03 0. -1.
         13    1    4    4    0    0 -0.43120176448E+02 -0.38826871990E+02  0.67704482616E+02  0.89167167365E+02  0.10566000000E+00 0.  1.
    -200003    1    4    4    0    0 -0.20168472250E+03 -0.17902045559E+03  0.10051591901E+03  0.28935877519E+03  0.30000000000E+02 0.  1.
    -200000    1    3    3    0    0 -0.18631437545E+03  0.34302737390E+03 -0.11857441030E+02  0.40338867691E+03  0.10100000000E+03 0.  1.
<mgrwt>
<rscale>  0 0.15359006E+04</rscale>
<asrwt>0</asrwt>
<pdfrwt beam="1">  1        2 0.10037567E+00 0.15359006E+04</pdfrwt>
<pdfrwt beam="2">  1       -2 0.11990621E+00 0.15359006E+04</pdfrwt>
<totfact> 0.23014605E+01</totfact>
</mgrwt>
</event>
<event>
 8    2  0.4306980E-052  0.1476426E+04  0.7818608E-02  0.8900283E-01
          2   -1    0    0  501    0  0.00000000000E+00  0.00000000000E+00  0.23340454716E+04  0.23340454716E+04  0.25500000000E-02 0.  1.
         -2   -1    0    0    0  501 -0.00000000000E+00 -0.00000000000E+00 -0.23348224755E+03  0.23348224756E+03  0.25500000000E-02 0. -1.
    -200001    2    1    2    0    0 -0.12378975917E+03 -0.24144066735E+03  0.15878158940E+04  0.17235512238E+04  0.61306770215E+03 0.  0.
   -5000001    2    3    3    0    0  0.12386879746E+03 -0.28997338154E+03  0.12416158202E+04  0.12833857139E+04  0.77723899601E+02 0.  0.
     200001    1    1    2    0    0  0.12378975917E+03  0.24144066735E+03  0.51274733011E+03  0.84397649544E+03  0.61300000000E+03 0. -1.
         13    1    4    4    0    0  0.33078874732E+02 -0.27474649462E+02  0.22554801350E+03  0.22961050907E+03  0.10566000000E+00 0.  1.
    -200003    1    4    4    0    0  0.90789922726E+02 -0.26249873208E+03  0.10160678067E+04  0.10537752048E+04  0.30000000000E+02 0.  1.
    -200000    1    3    3    0    0 -0.24765855662E+03  0.48532714192E+02  0.34620007374E+03  0.44016550986E+03  0.10100000000E+03 0. -1.
<mgrwt>
<rscale>  0 0.14764257E+04</rscale>
<asrwt>0</asrwt>
<pdfrwt beam="1">  1        2 0.33343505E+00 0.14764257E+04</pdfrwt>
<pdfrwt beam="2">  1       -2 0.33354609E-01 0.14764257E+04</pdfrwt>
<totfact> 0.43887514E+01</totfact>
</mgrwt>
</event>
<event>
 8    2  0.4306980E-052  0.1767490E+04  0.7818608E-02  0.8723781E-01
         -2   -1    0    0    0  501 -0.00000000000E+00  0.00000000000E+00  0.18853606313E+03  0.18853606315E+03  0.25500000000E-02 0. -1.
          2   -1    0    0  501    0  0.00000000000E+00 -0.00000000000E+00 -0.41424730843E+04  0.41424730843E+04  0.25500000000E-02 0.  1.
    -200001    2    1    2    0    0 -0.60655289558E+03  0.23665892900E+02 -0.15047270971E+04  0.17343064803E+04  0.61249395192E+03 0.  0.
   -5000001    2    3    3    0    0 -0.58481335985E+03  0.17561582352E+03 -0.84625291720E+03  0.10506759994E+04  0.12218212811E+03 0.  0.
     200001    1    1    2    0    0  0.60655289558E+03 -0.23665892900E+02 -0.24492099240E+04  0.25967026672E+04  0.61300000000E+03 0. -1.
         13    1    4    4    0    0 -0.33609537636E+03  0.43370134481E+02 -0.43886416294E+03  0.55447527921E+03  0.10566000000E+00 0.  1.
    -200003    1    4    4    0    0 -0.24871798349E+03  0.13224568904E+03 -0.40738875426E+03  0.49620072015E+03  0.30000000000E+02 0.  1.
    -200000    1    3    3    0    0 -0.21739535725E+02 -0.15194993062E+03 -0.65847417993E+03  0.68363048094E+03  0.10100000000E+03 0.  1.
<mgrwt>
<rscale>  0 0.17674904E+04</rscale>
<asrwt>0</asrwt>
<pdfrwt beam="1">  1        2 0.59178181E+00 0.17674904E+04</pdfrwt>
<pdfrwt beam="2">  1       -2 0.26933726E-01 0.17674904E+04</pdfrwt>
<totfact> 0.54424629E+00</totfact>
</mgrwt>
</event>
<event>
 8    2  0.4306980E-052  0.1413147E+04  0.7818608E-02  0.8944357E-01
          2   -1    0    0  501    0  0.00000000000E+00  0.00000000000E+00  0.32115955803E+04  0.32115955803E+04  0.25500000000E-02 0.  1.
         -2   -1    0    0    0  501 -0.00000000000E+00 -0.00000000000E+00 -0.15545110636E+03  0.15545110639E+03  0.25500000000E-02 0. -1.
    -200001    2    1    2    0    0 -0.14732461677E+03  0.16662035672E+03  0.21773719555E+04  0.22727537528E+04  0.61236762022E+03 0.  0.
   -5000001    2    3    3    0    0  0.16632661247E+03  0.21835580978E+03  0.64584531035E+03  0.70532639706E+03  0.70889772274E+02 0.  0.
     200001    1    1    2    0    0  0.14732461677E+03 -0.16662035672E+03  0.87877251840E+03  0.10942929338E+04  0.61300000000E+03 0. -1.
         13    1    4    4    0    0  0.92365525673E+02  0.11281508655E+03  0.40622219682E+03  0.43159601300E+03  0.10566000000E+00 0.  1.
    -200003    1    4    4    0    0  0.73961086798E+02  0.10554072323E+03  0.23962311353E+03  0.27373038406E+03  0.30000000000E+02 0.  1.
    -200000    1    3    3    0    0 -0.31365122924E+03 -0.51735453056E+02  0.15315266452E+04  0.15674273558E+04  0.10100000000E+03 0.  1.
<mgrwt>
<rscale>  0 0.14131470E+04</rscale>
<asrwt>0</asrwt>
<pdfrwt beam="1">  1        2 0.45879938E+00 0.14131470E+04</pdfrwt>
<pdfrwt beam="2">  1       -2 0.22207300E-01 0.14131470E+04</pdfrwt>
<totfact> 0.31145058E+01</totfact>
</mgrwt>
</event>
<event>
 8    2  0.4306980E-052  0.1550128E+04  0.7818608E-02  0.8851786E-01
         -2   -1    0    0    0  501 -0.00000000000E+00  0.00000000000E+00  0.23351161962E+03  0.23351161964E+03  0.25500000000E-02 0. -1.
          2   -1    0    0  501    0  0.00000000000E+00 -0.00000000000E+00 -0.25725663907E+04  0.25725663907E+04  0.25500000000E-02 0.  1.
    -200001    2    1    2    0    0  0.71474651499E+02  0.45383471615E+03 -0.92164487041E+03  0.11949000556E+04  0.60603820036E+03 0.  0.
   -5000001    2    3    3    0    0 -0.77488052802E+02  0.88672467904E+02  0.43679830203E+02  0.14724260564E+03  0.76845640461E+02 0.  0.
     200001    1    1    2    0    0 -0.71474651499E+02 -0.45383471615E+03 -0.14174099007E+04  0.16111779548E+04  0.61300000000E+03 0.  1.
         13    1    4    4    0    0 -0.43559012410E+02  0.47269834974E+02 -0.10805923794E+02  0.65181316447E+02  0.10566000000E+00 0.  1.
    -200003    1    4    4    0    0 -0.33929040392E+02  0.41402632930E+02  0.54485753997E+02  0.82061289193E+02  0.30000000000E+02 0.  1.
    -200000    1    3    3    0    0  0.14896270430E+03  0.36516224824E+03 -0.96532470061E+03  0.10476574499E+04  0.10100000000E+03 0. -1.
<mgrwt>
<rscale>  0 0.15501279E+04</rscale>
<asrwt>0</asrwt>
<pdfrwt beam="1">  1        2 0.36750947E+00 0.15501279E+04</pdfrwt>
<pdfrwt beam="2">  1       -2 0.33358804E-01 0.15501279E+04</pdfrwt>
<totfact> 0.32712630E+01</totfact>
</mgrwt>
</event>
<event>
 8    2  0.4306980E-052  0.1535144E+04  0.7818608E-02  0.8861413E-01
         -2   -1    0    0    0  501 -0.00000000000E+00  0.00000000000E+00  0.46712414943E+03  0.46712414944E+03  0.25500000000E-02 0. -1.
          2   -1    0    0  501    0  0.00000000000E+00 -0.00000000000E+00 -0.12612632549E+04  0.12612632549E+04  0.25500000000E-02 0.  1.
    -200001    2    1    2    0    0 -0.16944508311E+03  0.41600583072E+03 -0.27490725314E+03  0.80798357782E+03  0.61277318546E+03 0.  0.
   -5000001    2    3    3    0    0 -0.38432092190E+03  0.21895549808E+03 -0.14602548252E+03  0.47360060803E+03  0.85615496433E+02 0.  0.
     200001    1    1    2    0    0  0.16944508311E+03 -0.41600583072E+03 -0.51923185230E+03  0.92040382650E+03  0.61300000000E+03 0. -1.
         13    1    4    4    0    0 -0.16048714636E+02 -0.62087370383E+01 -0.10594169570E+02  0.20207851197E+02  0.10566000000E+00 0.  1.
    -200003    1    4    4    0    0 -0.36827220726E+03  0.22516423511E+03 -0.13543131295E+03  0.45339275683E+03  0.30000000000E+02 0.  1.
    -200000    1    3    3    0    0  0.21487583879E+03  0.19705033264E+03 -0.12888177063E+03  0.33438296979E+03  0.10100000000E+03 0. -1.
<mgrwt>
<rscale>  0 0.15351437E+04</rscale>
<asrwt>0</asrwt>
<pdfrwt beam="1">  1        2 0.18018046E+00 0.15351437E+04</pdfrwt>
<pdfrwt beam="2">  1       -2 0.66732022E-01 0.15351437E+04</pdfrwt>
<totfact> 0.39293660E+01</totfact>
</mgrwt>
</event>
<event>
 8    2  0.4306980E-052  0.1342738E+04  0.7818608E-02  0.8996344E-01
         -2   -1    0    0    0  501 -0.00000000000E+00  0.00000000000E+00  0.46486788554E+03  0.46486788554E+03  0.25500000000E-02 0. -1.
          2   -1    0    0  501    0  0.00000000000E+00 -0.00000000000E+00 -0.96960054266E+03  0.96960054267E+03  0.25500000000E-02 0.  1.
    -200001    2    1    2    0    0  0.91975830664E+02 -0.25824300286E+03 -0.24499650789E+03  0.71448171363E+03  0.61262698951E+03 0.  0.
   -5000001    2    3    3    0    0  0.10321686503E+03  0.67765380304E+02 -0.18422699832E+03  0.36763627249E+03  0.29320807278E+03 0.  0.
     200001    1    1    2    0    0 -0.91975830664E+02  0.25824300286E+03 -0.25973614924E+03  0.71998671458E+03  0.61300000000E+03 0. -1.
         13    1    4    4    0    0  0.16326008995E+03  0.13565863137E+03 -0.81445598909E+02  0.22735548812E+03  0.10566000000E+00 0.  1.
    -200003    1    4    4    0    0 -0.60043224912E+02 -0.67893251062E+02 -0.10278139941E+03  0.14028078436E+03  0.30000000000E+02 0.  1.
    -200000    1    3    3    0    0 -0.11241034371E+02 -0.32600838316E+03 -0.60769509568E+02  0.34684544114E+03  0.10100000000E+03 0.  1.
<mgrwt>
<rscale>  0 0.13427377E+04</rscale>
<asrwt>0</asrwt>
<pdfrwt beam="1">  1        2 0.13851436E+00 0.13427377E+04</pdfrwt>
<pdfrwt beam="2">  1       -2 0.66409698E-01 0.13427377E+04</pdfrwt>
<totfact> 0.59844711E+01</totfact>
</mgrwt>
</event>
<event>
 8    2  0.4306980E-052  0.2679105E+04  0.7818608E-02  0.8341817E-01
         -2   -1    0    0    0  501 -0.00000000000E+00  0.00000000000E+00  0.56714413031E+03  0.56714413032E+03  0.25500000000E-02 0. -1.
          2   -1    0    0  501    0  0.00000000000E+00 -0.00000000000E+00 -0.31639240471E+04  0.31639240471E+04  0.25500000000E-02 0.  1.
    -200001    2    1    2    0    0 -0.97997952863E+02 -0.86195346265E+03 -0.24350704073E+04  0.26565979191E+04  0.61268037746E+03 0.  0.
   -5000001    2    3    3    0    0 -0.16715586857E+03 -0.77447648124E+03 -0.23555419416E+04  0.24864191412E+04  0.77119407005E+02 0.  0.
     200001    1    1    2    0    0  0.97997952863E+02  0.86195346265E+03 -0.16170950952E+03  0.10744702583E+04  0.61300000000E+03 0. -1.
         13    1    4    4    0    0 -0.58560205157E+02 -0.14246975302E+03 -0.44504909851E+03  0.47095184403E+03  0.10566000000E+00 0.  1.
    -200003    1    4    4    0    0 -0.10859566341E+03 -0.63200672822E+03 -0.19104928431E+04  0.20154672972E+04  0.30000000000E+02 0.  1.
    -200000    1    3    3    0    0  0.69157915702E+02 -0.87476981406E+02 -0.79528465655E+02  0.17017877785E+03  0.10100000000E+03 0. -1.
<mgrwt>
<rscale>  0 0.26791050E+04</rscale>
<asrwt>0</asrwt>
<pdfrwt beam="1">  1        2 0.45198914E+00 0.26791050E+04</pdfrwt>
<pdfrwt beam="2">  1       -2 0.81020591E-01 0.26791050E+04</pdfrwt>
<totfact> 0.22591693E+00</totfact>
</mgrwt>
</event>
<event>
 8    2  0.4306980E-052  0.1445199E+04  0.7818608E-02  0.8921736E-01
         -2   -1    0    0    0  501 -0.00000000000E+00  0.00000000000E+00  0.40182032153E+03  0.40182032154E+03  0.25500000000E-02 0. -1.
          2   -1    0    0  501    0  0.00000000000E+00 -0.00000000000E+00 -0.12994608870E+04  0.12994608870E+04  0.25500000000E-02 0.  1.
    -200001    2    1    2    0    0  0.17973965607E+03 -0.15917894841E+03 -0.80035838331E+03  0.10357910850E+04  0.61208279546E+03 0.  0.
   -5000001    2    3    3    0    0  0.36580843881E+03  0.26257582150E+02 -0.44763023108E+03  0.58454121173E+03  0.82524722998E+02 0.  0.
     200001    1    1    2    0    0 -0.17973965607E+03  0.15917894841E+03 -0.97282182193E+02  0.66549012356E+03  0.61300000000E+03 0. -1.
         13    1    4    4    0    0  0.31059636500E+03  0.27550745372E+02 -0.38942469783E+03  0.49887949643E+03  0.10566000000E+00 0.  1.
    -200003    1    4    4    0    0  0.55212073814E+02 -0.12931632225E+01 -0.58205533255E+02  0.85661715296E+02  0.30000000000E+02 0. -1.
    -200000    1    3    3    0    0 -0.18606878274E+03 -0.18543653056E+03 -0.35272815222E+03  0.45124987329E+03  0.10100000000E+03 0.  1.
<mgrwt>
<rscale>  0 0.14451987E+04</rscale>
<asrwt>0</asrwt>
<pdfrwt beam="1">  1        2 0.18563727E+00 0.14451987E+04</pdfrwt>
<pdfrwt beam="2">  1       -2 0.57402904E-01 0.14451987E+04</pdfrwt>
<totfact> 0.51880921E+01</totfact>
</mgrwt>
</event>
<event>
 8    2  0.4306980E-052  0.1494157E+04  0.7818608E-02  0.8888348E-01
         -2   -1    0    0    0  501 -0.00000000000E+00  0.00000000000E+00  0.18834912612E+03  0.18834912614E+03  0.25500000000E-02 0. -1.
          2   -1    0    0  501    0  0.00000000000E+00 -0.00000000000E+00 -0.29632531786E+04  0.29632531786E+04  0.25500000000E-02 0.  1.
    -200001    2    1    2    0    0  0.25954463761E+03  0.10336517331E+03 -0.20682702034E+04  0.21753092264E+04  0.61333581225E+03 0.  0.
   -5000001    2    3    3    0    0  0.74753367778E+02  0.28377762149E+03 -0.52104177126E+03  0.60342714246E+03  0.80758803905E+02 0.  0.
     200001    1    1    2    0    0 -0.25954463761E+03 -0.10336517331E+03 -0.70663384909E+03  0.97629307825E+03  0.61300000000E+03 0. -1.
         13    1    4    4    0    0 -0.14892398212E+02  0.48585244993E+02 -0.82202180459E+02  0.96641187864E+02  0.10566000000E+00 0.  1.
    -200003    1    4    4    0    0  0.89645765990E+02  0.23519237649E+03 -0.43883959080E+03  0.50678595460E+03  0.30000000000E+02 0.  1.
    -200000    1    3    3    0    0  0.18479126984E+03 -0.18041244817E+03 -0.15472284321E+04  0.15718820840E+04  0.10100000000E+03 0.  1.
<mgrwt>
<rscale>  0 0.14941568E+04</rscale>
<asrwt>0</asrwt>
<pdfrwt beam="1">  1        2 0.42332185E+00 0.14941568E+04</pdfrwt>
<pdfrwt beam="2">  1       -2 0.26907020E-01 0.14941568E+04</pdfrwt>
<totfact> 0.30171186E+01</totfact>
</mgrwt>
</event>
<event>
 8    2  0.4306980E-052  0.2231534E+04  0.7818608E-02  0.8505416E-01
          2   -1    0    0  501    0  0.00000000000E+00  0.00000000000E+00  0.22682574185E+04  0.22682574185E+04  0.25500000000E-02 0.  1.
         -2   -1    0    0    0  501 -0.00000000000E+00 -0.00000000000E+00 -0.54885143568E+03  0.54885143569E+03  0.25500000000E-02 0. -1.
    -200001    2    1    2    0    0 -0.71066633885E+02  0.22260515942E+03 -0.27948274521E+03  0.71331973204E+03  0.61327882061E+03 0.  0.
   -5000001    2    3    3    0    0  0.18563741007E+03  0.28130176290E+03 -0.25509028821E+03  0.43023273234E+03  0.80232281566E+02 0.  0.
     200001    1    1    2    0    0  0.71066633885E+02 -0.22260515942E+03  0.19988887281E+04  0.21037891222E+04  0.61300000000E+03 0.  1.
         13    1    4    4    0    0  0.79946829030E+02  0.65169479869E+02 -0.62553464604E+02  0.12062961360E+03  0.10566000000E+00 0.  1.
    -200003    1    4    4    0    0  0.10569058104E+03  0.21613228303E+03 -0.19253682361E+03  0.30960311874E+03  0.30000000000E+02 0.  1.
    -200000    1    3    3    0    0 -0.25670404396E+03 -0.58696603481E+02 -0.24392456994E+02  0.28308699971E+03  0.10100000000E+03 0.  1.
<mgrwt>
<rscale>  0 0.22315343E+04</rscale>
<asrwt>0</asrwt>
<pdfrwt beam="1">  1        2 0.32403677E+00 0.22315343E+04</pdfrwt>
<pdfrwt beam="2">  1       -2 0.78407350E-01 0.22315343E+04</pdfrwt>
<totfact> 0.77204341E+00</totfact>
</mgrwt>
</event>
<event>
 8    2  0.4306980E-052  0.1437079E+04  0.7818608E-02  0.8927408E-01
          2   -1    0    0  501    0  0.00000000000E+00  0.00000000000E+00  0.10608879284E+04  0.10608879284E+04  0.25500000000E-02 0.  1.
         -2   -1    0    0    0  501 -0.00000000000E+00 -0.00000000000E+00 -0.48666653820E+03  0.48666653821E+03  0.25500000000E-02 0. -1.
    -200001    2    1    2    0    0 -0.25736927427E+02  0.22024316976E+03  0.61241799213E+03  0.89456333061E+03  0.61320332038E+03 0.  0.
   -5000001    2    3    3    0    0  0.15753279980E+03  0.77298109987E+01  0.56191930232E+03  0.59207227579E+03  0.99598917936E+02 0.  0.
     200001    1    1    2    0    0  0.25736927427E+02 -0.22024316976E+03 -0.38196601958E+02  0.65299113598E+03  0.61300000000E+03 0. -1.
         13    1    4    4    0    0  0.14631040304E+03  0.14734950798E+02  0.50902846688E+03  0.52984322594E+03  0.10566000000E+00 0.  1.
    -200003    1    4    4    0    0  0.11222396760E+02 -0.70051397990E+01  0.52890835436E+02  0.62229049854E+02  0.30000000000E+02 0. -1.
    -200000    1    3    3    0    0 -0.18326972722E+03  0.21251335876E+03  0.50498689811E+02  0.30249105481E+03  0.10100000000E+03 0. -1.
<mgrwt>
<rscale>  0 0.14370785E+04</rscale>
<asrwt>0</asrwt>
<pdfrwt beam="1">  1        2 0.15155542E+00 0.14370785E+04</pdfrwt>
<pdfrwt beam="2">  1       -2 0.69523791E-01 0.14370785E+04</pdfrwt>
<totfact> 0.47298631E+01</totfact>
</mgrwt>
</event>
<event>
 8    2  0.4306980E-052  0.1523682E+04  0.7818608E-02  0.8868855E-01
         -2   -1    0    0    0  501 -0.00000000000E+00  0.00000000000E+00  0.72395683192E+03  0.72395683193E+03  0.25500000000E-02 0. -1.
          2   -1    0    0  501    0  0.00000000000E+00 -0.00000000000E+00 -0.80170793355E+03  0.80170793355E+03  0.25500000000E-02 0.  1.
    -200001    2    1    2    0    0 -0.32263343606E+03 -0.27547741623E+03 -0.19585545665E+03  0.77088149885E+03  0.61312216112E+03 0.  0.
   -5000001    2    3    3    0    0  0.53706279830E+02 -0.95373585712E+02  0.15555843281E+03  0.21611876288E+03  0.10260803236E+03 0.  0.
     200001    1    1    2    0    0  0.32263343606E+03  0.27547741623E+03  0.11810435502E+03  0.75478326663E+03  0.61300000000E+03 0.  1.
         13    1    4    4    0    0  0.56953502353E+02 -0.94183054799E+02  0.84022932681E+02  0.13847026259E+03  0.10566000000E+00 0.  1.
    -200003    1    4    4    0    0 -0.32472225234E+01 -0.11905309129E+01  0.71535500130E+02  0.77648500287E+02  0.30000000000E+02 0.  1.
    -200000    1    3    3    0    0 -0.37633971589E+03 -0.18010383052E+03 -0.35141388946E+03  0.55476273597E+03  0.10100000000E+03 0.  1.
<mgrwt>
<rscale>  0 0.15236823E+04</rscale>
<asrwt>0</asrwt>
<pdfrwt beam="1">  1        2 0.11452970E+00 0.15236823E+04</pdfrwt>
<pdfrwt beam="2">  1       -2 0.10342241E+00 0.15236823E+04</pdfrwt>
<totfact> 0.27930838E+01</totfact>
</mgrwt>
</event>
<event>
 8    2  0.4306980E-052  0.1380986E+04  0.7818608E-02  0.8967698E-01
         -2   -1    0    0    0  501 -0.00000000000E+00  0.00000000000E+00  0.69612926844E+03  0.69612926844E+03  0.25500000000E-02 0. -1.
          2   -1    0    0  501    0  0.00000000000E+00 -0.00000000000E+00 -0.68490280862E+03  0.68490280862E+03  0.25500000000E-02 0.  1.
    -200001    2    1    2    0    0 -0.19087456262E+03  0.20682608984E+02 -0.24751827312E+03  0.68851586368E+03  0.61312961928E+03 0.  0.
   -5000001    2    3    3    0    0 -0.24889106138E+03  0.16603553867E+03  0.72077585408E+02  0.31860249398E+03  0.82448834516E+02 0.  0.
     200001    1    1    2    0    0  0.19087456262E+03 -0.20682608984E+02  0.25874473294E+03  0.69251621338E+03  0.61300000000E+03 0. -1.
         13    1    4    4    0    0 -0.26584175305E+02  0.40509915097E+02 -0.85441907522E+01  0.49201483285E+02  0.10566000000E+00 0.  1.
    -200003    1    4    4    0    0 -0.22230688608E+03  0.12552562357E+03  0.80621776161E+02  0.26940101069E+03  0.30000000000E+02 0.  1.
    -200000    1    3    3    0    0  0.58016498761E+02 -0.14535292969E+03 -0.31959585853E+03  0.36991336971E+03  0.10100000000E+03 0.  1.
<mgrwt>
<rscale>  0 0.13809864E+04</rscale>
<asrwt>0</asrwt>
<pdfrwt beam="1">  1        2 0.97843258E-01 0.13809864E+04</pdfrwt>
<pdfrwt beam="2">  1       -2 0.99447039E-01 0.13809864E+04</pdfrwt>
<totfact> 0.37783255E+01</totfact>
</mgrwt>
</event>
<event>
 8    2  0.4306980E-052  0.1332351E+04  0.7818608E-02  0.9004296E-01
         -2   -1    0    0    0  501 -0.00000000000E+00  0.00000000000E+00  0.23833185797E+03  0.23833185798E+03  0.25500000000E-02 0. -1.
          2   -1    0    0  501    0  0.00000000000E+00 -0.00000000000E+00 -0.18620677106E+04  0.18620677106E+04  0.25500000000E-02 0.  1.
    -200001    2    1    2    0    0 -0.17315332334E+03 -0.11942295127E+03 -0.10563121474E+04  0.12390154638E+04  0.61247045002E+03 0.  0.
   -5000001    2    3    3    0    0  0.87627078300E+02 -0.62428584445E+02  0.11896129663E+02  0.13333707526E+03  0.77855152239E+02 0.  0.
     200001    1    1    2    0    0  0.17315332334E+03  0.11942295127E+03 -0.56742370520E+03  0.86138410474E+03  0.61300000000E+03 0. -1.
         13    1    4    4    0    0  0.24160637559E+02 -0.45204392521E+02 -0.19087206906E+02  0.54694662829E+02  0.10566000000E+00 0.  1.
    -200003    1    4    4    0    0  0.63466440741E+02 -0.17224191924E+02  0.30983336569E+02  0.78642412429E+02  0.30000000000E+02 0.  1.
    -200000    1    3    3    0    0 -0.26078040164E+03 -0.56994366830E+02 -0.10682082771E+04  0.11056783886E+04  0.10100000000E+03 0.  1.
<mgrwt>
<rscale>  0 0.13323514E+04</rscale>
<asrwt>0</asrwt>
<pdfrwt beam="1">  1        2 0.26600967E+00 0.13323514E+04</pdfrwt>
<pdfrwt beam="2">  1       -2 0.34047409E-01 0.13323514E+04</pdfrwt>
<totfact> 0.74679963E+01</totfact>
</mgrwt>
</event>
<event>
 8    2  0.4306980E-052  0.2064072E+04  0.7818608E-02  0.8577237E-01
          2   -1    0    0  501    0  0.00000000000E+00  0.00000000000E+00  0.11504315005E+04  0.11504315005E+04  0.25500000000E-02 0.  1.
         -2   -1    0    0    0  501 -0.00000000000E+00 -0.00000000000E+00 -0.92582527705E+03  0.92582527705E+03  0.25500000000E-02 0. -1.
    -200001    2    1    2    0    0 -0.56982373611E+03  0.55634675684E+02 -0.49321982729E+03  0.97224701922E+03  0.61172229072E+03 0.  0.
   -5000001    2    3    3    0    0 -0.30357534823E+03 -0.52571092661E+02 -0.23107856459E+02  0.41206583650E+03  0.27265833701E+03 0.  0.
     200001    1    1    2    0    0  0.56982373611E+03 -0.55634675684E+02  0.71782605076E+03  0.11040097583E+04  0.61300000000E+03 0.  1.
         13    1    4    4    0    0 -0.96783825139E+02 -0.36386324413E+02 -0.13848279207E+03  0.17282525358E+03  0.10566000000E+00 0.  1.
    -200003    1    4    4    0    0 -0.20679152309E+03 -0.16184768248E+02  0.11537493561E+03  0.23924058292E+03  0.30000000000E+02 0.  1.
    -200000    1    3    3    0    0 -0.26624838788E+03  0.10820576834E+03 -0.47011197083E+03  0.56018118272E+03  0.10100000000E+03 0. -1.
<mgrwt>
<rscale>  0 0.20640722E+04</rscale>
<asrwt>0</asrwt>
<pdfrwt beam="1">  1        2 0.16434736E+00 0.20640722E+04</pdfrwt>
<pdfrwt beam="2">  1       -2 0.13226075E+00 0.20640722E+04</pdfrwt>
<totfact> 0.88065366E+00</totfact>
</mgrwt>
</event>
<event>
 8    2  0.4306980E-052  0.1600280E+04  0.7818608E-02  0.8820376E-01
         -2   -1    0    0    0  501 -0.00000000000E+00  0.00000000000E+00  0.75568937897E+03  0.75568937897E+03  0.25500000000E-02 0. -1.
          2   -1    0    0  501    0  0.00000000000E+00 -0.00000000000E+00 -0.84720480048E+03  0.84720480048E+03  0.25500000000E-02 0.  1.
    -200001    2    1    2    0    0 -0.26096313064E+03 -0.13076499915E+03 -0.47001246694E+03  0.82557168914E+03  0.61274436290E+03 0.  0.
   -5000001    2    3    3    0    0 -0.94799669191E+02 -0.32388556222E+03 -0.26920555952E+03  0.48582139573E+03  0.22284963670E+03 0.  0.
     200001    1    1    2    0    0  0.26096313064E+03  0.13076499915E+03  0.37849704543E+03  0.77732249032E+03  0.61300000000E+03 0. -1.
         13    1    4    4    0    0 -0.11180421928E+03 -0.16355095697E+03 -0.25253973057E+03  0.32097573998E+03  0.10566000000E+00 0.  1.
    -200003    1    4    4    0    0  0.17004550086E+02 -0.16033460525E+03 -0.16665828949E+02  0.16484565575E+03  0.30000000000E+02 0.  1.
    -200000    1    3    3    0    0 -0.16616346145E+03  0.19312056307E+03 -0.20080690742E+03  0.33975029341E+03  0.10100000000E+03 0.  1.
<mgrwt>
<rscale>  0 0.16002796E+04</rscale>
<asrwt>0</asrwt>
<pdfrwt beam="1">  1        2 0.12102926E+00 0.16002796E+04</pdfrwt>
<pdfrwt beam="2">  1       -2 0.10795563E+00 0.16002796E+04</pdfrwt>
<totfact> 0.23305777E+01</totfact>
</mgrwt>
</event>
<event>
 8    2  0.4306980E-052  0.1247477E+04  0.7818608E-02  0.9072286E-01
         -2   -1    0    0    0  501 -0.00000000000E+00  0.00000000000E+00  0.14166791574E+03  0.14166791576E+03  0.25500000000E-02 0. -1.
          2   -1    0    0  501    0  0.00000000000E+00 -0.00000000000E+00 -0.27462074335E+04  0.27462074335E+04  0.25500000000E-02 0.  1.
    -200001    2    1    2    0    0  0.35285119913E+02 -0.98636819244E+02 -0.11938441713E+04  0.13461864629E+04  0.61317193819E+03 0.  0.
   -5000001    2    3    3    0    0  0.70712650682E+02  0.48550452976E+02 -0.11526290174E+04  0.11595882530E+04  0.93455011521E+02 0.  0.
     200001    1    1    2    0    0 -0.35285119913E+02  0.98636819244E+02 -0.14106953465E+04  0.15416888864E+04  0.61300000000E+03 0. -1.
         13    1    4    4    0    0  0.39619672527E+02  0.20489845663E+02 -0.93028240034E+03  0.93135111949E+03  0.10566000000E+00 0.  1.
    -200003    1    4    4    0    0  0.31092978155E+02  0.28060607313E+02 -0.22234661710E+03  0.22823713350E+03  0.30000000000E+02 0. -1.
    -200000    1    3    3    0    0 -0.35427530769E+02 -0.14718727222E+03 -0.41215153870E+02  0.18659820993E+03  0.10100000000E+03 0. -1.
<mgrwt>
<rscale>  0 0.12474766E+04</rscale>
<asrwt>0</asrwt>
<pdfrwt beam="1">  1        2 0.39231532E+00 0.12474766E+04</pdfrwt>
<pdfrwt beam="2">  1       -2 0.20238275E-01 0.12474766E+04</pdfrwt>
<totfact> 0.67493479E+01</totfact>
</mgrwt>
</event>
<event>
 8    2  0.4306980E-052  0.2555085E+04  0.7818608E-02  0.8383620E-01
         -2   -1    0    0    0  501 -0.00000000000E+00  0.00000000000E+00  0.16319138238E+04  0.16319138238E+04  0.25500000000E-02 0. -1.
          2   -1    0    0  501    0  0.00000000000E+00 -0.00000000000E+00 -0.10001233731E+04  0.10001233731E+04  0.25500000000E-02 0.  1.
    -200001    2    1    2    0    0  0.37909140430E+03 -0.65696555974E+03  0.11659845717E+04  0.15200810834E+04  0.61303543081E+03 0.  0.
   -5000001    2    3    3    0    0  0.44533206728E+02 -0.33363799990E+03  0.11872542086E+03  0.36968001102E+03  0.96281169053E+02 0.  0.
     200001    1    1    2    0    0 -0.37909140430E+03  0.65696555974E+03 -0.53419412094E+03  0.11119561135E+04  0.61300000000E+03 0.  1.
         13    1    4    4    0    0  0.61306009730E+02 -0.18932077173E+03  0.45031120960E+02  0.20403086643E+03  0.10566000000E+00 0.  1.
    -200003    1    4    4    0    0 -0.16772803002E+02 -0.14431722817E+03  0.73694299899E+02  0.16564914459E+03  0.30000000000E+02 0.  1.
    -200000    1    3    3    0    0  0.33455819757E+03 -0.32332755984E+03  0.10472591508E+04  0.11504010724E+04  0.10100000000E+03 0. -1.
<mgrwt>
<rscale>  0 0.25550852E+04</rscale>
<asrwt>0</asrwt>
<pdfrwt beam="1">  1        2 0.14287477E+00 0.25550852E+04</pdfrwt>
<pdfrwt beam="2">  1       -2 0.23313055E+00 0.25550852E+04</pdfrwt>
<totfact> 0.20484495E+00</totfact>
</mgrwt>
</event>
<event>
 8    2  0.4306980E-052  0.1323897E+04  0.7818608E-02  0.9010826E-01
          2   -1    0    0  501    0  0.00000000000E+00  0.00000000000E+00  0.15936561957E+04  0.15936561957E+04  0.25500000000E-02 0.  1.
         -2   -1    0    0    0  501 -0.00000000000E+00 -0.00000000000E+00 -0.27495006381E+03  0.27495006382E+03  0.25500000000E-02 0. -1.
    -200001    2    1    2    0    0  0.87645514224E+02  0.22828678229E+03  0.72836101439E+03  0.98312732193E+03  0.61337832756E+03 0.  0.
   -5000001    2    3    3    0    0  0.19739703198E+03 -0.37087604627E+02  0.62830963620E+03  0.66268974742E+03  0.63589494003E+02 0.  0.
     200001    1    1    2    0    0 -0.87645514224E+02 -0.22828678229E+03  0.59034511746E+03  0.88547893755E+03  0.61300000000E+03 0. -1.
         13    1    4    4    0    0  0.48987369813E+02  0.94871329093E+01  0.11171088414E+03  0.12234827703E+03  0.10566000000E+00 0.  1.
    -200003    1    4    4    0    0  0.14840966217E+03 -0.46574737537E+02  0.51659875206E+03  0.54034147039E+03  0.30000000000E+02 0. -1.
    -200000    1    3    3    0    0 -0.10975151775E+03  0.26537438691E+03  0.10005137819E+03  0.32043757451E+03  0.10100000000E+03 0.  1.
<mgrwt>
<rscale>  0 0.13238971E+04</rscale>
<asrwt>0</asrwt>
<pdfrwt beam="1">  1        2 0.22766517E+00 0.13238971E+04</pdfrwt>
<pdfrwt beam="2">  1       -2 0.39278580E-01 0.13238971E+04</pdfrwt>
<totfact> 0.78212182E+01</totfact>
</mgrwt>
</event>
<event>
 8    2  0.4306980E-052  0.1547969E+04  0.7818608E-02  0.8853166E-01
         -2   -1    0    0    0  501 -0.00000000000E+00  0.00000000000E+00  0.40585464254E+03  0.40585464255E+03  0.25500000000E-02 0. -1.
          2   -1    0    0  501    0  0.00000000000E+00 -0.00000000000E+00 -0.14760264288E+04  0.14760264288E+04  0.25500000000E-02 0.  1.
    -200001    2    1    2    0    0  0.12064989964E+03 -0.12091827306E+03  0.35319953130E+00  0.63650146165E+03  0.61315280224E+03 0.  0.
   -5000001    2    3    3    0    0  0.13707925448E+03  0.15370448892E+03 -0.18631571430E+03  0.28903366676E+03  0.80069489822E+02 0.  0.
     200001    1    1    2    0    0 -0.12064989964E+03  0.12091827306E+03 -0.10705249858E+04  0.12453796097E+04  0.61300000000E+03 0.  1.
         13    1    4    4    0    0  0.64419930856E+02  0.11667064781E+03 -0.10064038576E+03  0.16700438905E+03  0.10566000000E+00 0.  1.
    -200003    1    4    4    0    0  0.72659323625E+02  0.37033841108E+02 -0.85675328536E+02  0.12202927770E+03  0.30000000000E+02 0.  1.
    -200000    1    3    3    0    0 -0.16429354846E+02 -0.27462276198E+03  0.18666891383E+03  0.34746779490E+03  0.10100000000E+03 0. -1.
<mgrwt>
<rscale>  0 0.15479692E+04</rscale>
<asrwt>0</asrwt>
<pdfrwt beam="1">  1        2 0.21086092E+00 0.15479692E+04</pdfrwt>
<pdfrwt beam="2">  1       -2 0.57979235E-01 0.15479692E+04</pdfrwt>
<totfact> 0.40422099E+01</totfact>
</mgrwt>
</event>
<event>
 8    2  0.4306980E-052  0.1447820E+04  0.7818608E-02  0.8919913E-01
          2   -1    0    0  501    0  0.00000000000E+00  0.00000000000E+00  0.71578910173E+03  0.71578910174E+03  0.25500000000E-02 0.  1.
         -2   -1    0    0    0  501 -0.00000000000E+00 -0.00000000000E+00 -0.73212286750E+03  0.73212286750E+03  0.25500000000E-02 0. -1.
    -200001    2    1    2    0    0  0.19802768612E+03  0.19680159514E+03  0.25739337891E+03  0.72083468171E+03  0.61270339849E+03 0.  0.
   -5000001    2    3    3    0    0 -0.42185262170E+02  0.36167473729E+01 -0.12540243347E+03  0.21908147553E+03  0.17458019760E+03 0.  0.
     200001    1    1    2    0    0 -0.19802768612E+03 -0.19680159514E+03 -0.27372714467E+03  0.72707728754E+03  0.61300000000E+03 0. -1.
         13    1    4    4    0    0  0.22123661628E+02  0.63155316633E+02 -0.10455077688E+03  0.12413269727E+03  0.10566000000E+00 0.  1.
    -200003    1    4    4    0    0 -0.64308923798E+02 -0.59538569261E+02 -0.20851656597E+02  0.94948778257E+02  0.30000000000E+02 0.  1.
    -200000    1    3    3    0    0  0.24021294829E+03  0.19318484776E+03  0.38279581238E+03  0.50175320618E+03  0.10100000000E+03 0.  1.
<mgrwt>
<rscale>  0 0.14478198E+04</rscale>
<asrwt>0</asrwt>
<pdfrwt beam="1">  1        2 0.10225559E+00 0.14478198E+04</pdfrwt>
<pdfrwt beam="2">  1       -2 0.10458898E+00 0.14478198E+04</pdfrwt>
<totfact> 0.31570370E+01</totfact>
</mgrwt>
</event>
<event>
 8    2  0.4306980E-052  0.1855471E+04  0.7818608E-02  0.8677344E-01
          2   -1    0    0  501    0  0.00000000000E+00  0.00000000000E+00  0.42461794699E+03  0.42461794700E+03  0.25500000000E-02 0.  1.
         -2   -1    0    0    0  501 -0.00000000000E+00 -0.00000000000E+00 -0.20269833534E+04  0.20269833534E+04  0.25500000000E-02 0. -1.
    -200001    2    1    2    0    0  0.59514106295E+03 -0.25380321443E+03 -0.11416524191E+04  0.14482895776E+04  0.61283235720E+03 0.  0.
   -5000001    2    3    3    0    0 -0.45373092453E+02  0.11087773844E+03 -0.22888827079E+03  0.27075402776E+03  0.81026616885E+02 0.  0.
     200001    1    1    2    0    0 -0.59514106295E+03  0.25380321443E+03 -0.46071298731E+03  0.10033117228E+04  0.61300000000E+03 0.  1.
         13    1    4    4    0    0 -0.53945720596E+02  0.45792990310E+02 -0.13398324916E+03  0.15152115678E+03  0.10566000000E+00 0.  1.
    -200003    1    4    4    0    0  0.85726281435E+01  0.65084748126E+02 -0.94905021633E+02  0.11923287098E+03  0.30000000000E+02 0.  1.
    -200000    1    3    3    0    0  0.64051415541E+03 -0.36468095287E+03 -0.91276414835E+03  0.11775355499E+04  0.10100000000E+03 0. -1.
<mgrwt>
<rscale>  0 0.18554714E+04</rscale>
<asrwt>0</asrwt>
<pdfrwt beam="1">  1        2 0.60659708E-01 0.18554714E+04</pdfrwt>
<pdfrwt beam="2">  1       -2 0.28956904E+00 0.18554714E+04</pdfrwt>
<totfact> 0.28090112E+00</totfact>
</mgrwt>
</event>
<event>
 8    2  0.4306980E-052  0.1311134E+04  0.7818608E-02  0.9020782E-01
          2   -1    0    0  501    0  0.00000000000E+00  0.00000000000E+00  0.83506353870E+03  0.83506353870E+03  0.25500000000E-02 0.  1.
         -2   -1    0    0    0  501 -0.00000000000E+00 -0.00000000000E+00 -0.51465284295E+03  0.51465284296E+03  0.25500000000E-02 0. -1.
    -200001    2    1    2    0    0  0.18523612533E+03 -0.10845853152E+03  0.38688433546E+02  0.64175302936E+03  0.60355155589E+03 0.  0.
   -5000001    2    3    3    0    0 -0.16724318695E+03  0.10625819482E+03  0.84836529183E+01  0.21577384334E+03  0.85001715001E+02 0.  0.
     200001    1    1    2    0    0 -0.18523612533E+03  0.10845853152E+03  0.28172226220E+03  0.70796335230E+03  0.61300000000E+03 0. -1.
         13    1    4    4    0    0 -0.10196844245E+03  0.71646604300E+02  0.38708913332E+02  0.13049593978E+03  0.10566000000E+00 0.  1.
    -200003    1    4    4    0    0 -0.65274744502E+02  0.34611590519E+02 -0.30225260413E+02  0.85277903557E+02  0.30000000000E+02 0.  1.
    -200000    1    3    3    0    0  0.35247931228E+03 -0.21471672634E+03  0.30204780628E+02  0.42597918602E+03  0.10100000000E+03 0. -1.
<mgrwt>
<rscale>  0 0.13111336E+04</rscale>
<asrwt>0</asrwt>
<pdfrwt beam="1">  1        2 0.11929479E+00 0.13111336E+04</pdfrwt>
<pdfrwt beam="2">  1       -2 0.73521835E-01 0.13111336E+04</pdfrwt>
<totfact> 0.58830633E+01</totfact>
</mgrwt>
</event>
<event>
 8    2  0.4306980E-052  0.1427007E+04  0.7818608E-02  0.8934498E-01
         -2   -1    0    0    0  501 -0.00000000000E+00  0.00000000000E+00  0.28720487786E+03  0.28720487787E+03  0.25500000000E-02 0. -1.
          2   -1    0    0  501    0  0.00000000000E+00 -0.00000000000E+00 -0.17725583425E+04  0.17725583425E+04  0.25500000000E-02 0.  1.
    -200001    2    1    2    0    0 -0.23405751345E+03  0.26733985196E+03 -0.84140019906E+03  0.11023195801E+04  0.61717148804E+03 0.  0.
   -5000001    2    3    3    0    0  0.14412346152E+03 -0.62912917813E+02 -0.10274844503E+03  0.20348969881E+03  0.78238144023E+02 0.  0.
     200001    1    1    2    0    0  0.23405751345E+03 -0.26733985196E+03 -0.64395326560E+03  0.95744364029E+03  0.61300000000E+03 0. -1.
         13    1    4    4    0    0  0.94328549602E+02 -0.15666928382E+02 -0.33057513969E+02  0.10117380248E+03  0.10566000000E+00 0.  1.
    -200003    1    4    4    0    0  0.49794911914E+02 -0.47245989431E+02 -0.69690931062E+02  0.10231589633E+03  0.30000000000E+02 0.  1.
    -200000    1    3    3    0    0 -0.37818097496E+03  0.33025276977E+03 -0.73865175403E+03  0.89882988129E+03  0.10100000000E+03 0. -1.
<mgrwt>
<rscale>  0 0.14270072E+04</rscale>
<asrwt>0</asrwt>
<pdfrwt beam="1">  1        2 0.25322261E+00 0.14270072E+04</pdfrwt>
<pdfrwt beam="2">  1       -2 0.41029269E-01 0.14270072E+04</pdfrwt>
<totfact> 0.57520916E+01</totfact>
</mgrwt>
</event>
<event>
 8    2  0.4306980E-052  0.1987694E+04  0.7818608E-02  0.8612396E-01
          2   -1    0    0  501    0  0.00000000000E+00  0.00000000000E+00  0.99413983283E+03  0.99413983284E+03  0.25500000000E-02 0.  1.
         -2   -1    0    0    0  501 -0.00000000000E+00 -0.00000000000E+00 -0.99355467060E+03  0.99355467061E+03  0.25500000000E-02 0. -1.
    -200001    2    1    2    0    0 -0.49011491220E+03 -0.60224876879E+03 -0.94603712866E+02  0.99384032470E+03  0.61306812170E+03 0.  0.
   -5000001    2    3    3    0    0 -0.30484866837E+03 -0.17213460785E+02  0.10834810551E+03  0.33963826623E+03  0.10191087323E+03 0.  0.
     200001    1    1    2    0    0  0.49011491220E+03  0.60224876879E+03  0.95188875098E+02  0.99385417875E+03  0.61300000000E+03 0.  1.
         13    1    4    4    0    0 -0.44376881530E+02 -0.11599256452E+02 -0.17065547072E+02  0.48939701935E+02  0.10566000000E+00 0.  1.
    -200003    1    4    4    0    0 -0.26047178684E+03 -0.56142043322E+01  0.12541365259E+03  0.29069856430E+03  0.30000000000E+02 0.  1.
    -200000    1    3    3    0    0 -0.18526624383E+03 -0.58503530801E+03 -0.20295181838E+03  0.65420205847E+03  0.10100000000E+03 0. -1.
<mgrwt>
<rscale>  0 0.19876944E+04</rscale>
<asrwt>0</asrwt>
<pdfrwt beam="1">  1        2 0.14201998E+00 0.19876944E+04</pdfrwt>
<pdfrwt beam="2">  1       -2 0.14193638E+00 0.19876944E+04</pdfrwt>
<totfact> 0.91614254E+00</totfact>
</mgrwt>
</event>
<event>
 8    2  0.4306980E-052  0.1546965E+04  0.7818608E-02  0.8853809E-01
          2   -1    0    0  501    0  0.00000000000E+00  0.00000000000E+00  0.39835253301E+03  0.39835253302E+03  0.25500000000E-02 0.  1.
         -2   -1    0    0    0  501 -0.00000000000E+00 -0.00000000000E+00 -0.15018731377E+04  0.15018731377E+04  0.25500000000E-02 0. -1.
    -200001    2    1    2    0    0  0.13257027139E+03 -0.25551022159E+03 -0.10107484107E+04  0.12166790153E+04  0.61305393429E+03 0.  0.
   -5000001    2    3    3    0    0 -0.64728824042E+02 -0.26387044529E+03 -0.13923840990E+03  0.31738623323E+03  0.86771272271E+02 0.  0.
     200001    1    1    2    0    0 -0.13257027139E+03  0.25551022159E+03 -0.92772194023E+02  0.68354665545E+03  0.61300000000E+03 0.  1.
         13    1    4    4    0    0 -0.52819934372E+02 -0.70761814773E+02 -0.30447892480E+02  0.93403775178E+02  0.10566000000E+00 0.  1.
    -200003    1    4    4    0    0 -0.11908889670E+02 -0.19310863052E+03 -0.10879051742E+03  0.22398245805E+03  0.30000000000E+02 0.  1.
    -200000    1    3    3    0    0  0.19729909543E+03  0.83602236999E+01 -0.87151000078E+03  0.89929278205E+03  0.10100000000E+03 0. -1.
<mgrwt>
<rscale>  0 0.15469647E+04</rscale>
<asrwt>0</asrwt>
<pdfrwt beam="1">  1        2 0.56907506E-01 0.15469647E+04</pdfrwt>
<pdfrwt beam="2">  1       -2 0.21455330E+00 0.15469647E+04</pdfrwt>
<totfact> 0.89671960E+00</totfact>
</mgrwt>
</event>
<event>
 8    2  0.4306980E-052  0.1366967E+04  0.7818608E-02  0.8978083E-01
          2   -1    0    0  501    0  0.00000000000E+00  0.00000000000E+00  0.85670666290E+03  0.85670666291E+03  0.25500000000E-02 0.  1.
         -2   -1    0    0    0  501 -0.00000000000E+00 -0.00000000000E+00 -0.54528518098E+03  0.54528518099E+03  0.25500000000E-02 0. -1.
    -200001    2    1    2    0    0 -0.57212603912E+02  0.53820408592E+02 -0.14392862920E+03  0.63434437134E+03  0.61278659639E+03 0.  0.
   -5000001    2    3    3    0    0  0.23110382800E+03 -0.10954821845E+02  0.73625715831E+02  0.25374866927E+03  0.73747228336E+02 0.  0.
     200001    1    1    2    0    0  0.57212603912E+02 -0.53820408592E+02  0.45535011112E+03  0.76764747256E+03  0.61300000000E+03 0.  1.
         13    1    4    4    0    0  0.69307401192E+01  0.13159737128E+02  0.69860644340E+00  0.14890032065E+02  0.10566000000E+00 0.  1.
    -200003    1    4    4    0    0  0.22417308788E+03 -0.24114558974E+02  0.72927109388E+02  0.23885863721E+03  0.30000000000E+02 0.  1.
    -200000    1    3    3    0    0 -0.28831643191E+03  0.64775230438E+02 -0.21755434503E+03  0.38059570206E+03  0.10100000000E+03 0. -1.
<mgrwt>
<rscale>  0 0.13669666E+04</rscale>
<asrwt>0</asrwt>
<pdfrwt beam="1">  1        2 0.12238667E+00 0.13669666E+04</pdfrwt>
<pdfrwt beam="2">  1       -2 0.77897882E-01 0.13669666E+04</pdfrwt>
<totfact> 0.49825997E+01</totfact>
</mgrwt>
</event>
<event>
 8    2  0.4306980E-052  0.1400794E+04  0.7818608E-02  0.8953244E-01
          2   -1    0    0  501    0  0.00000000000E+00  0.00000000000E+00  0.19128131802E+04  0.19128131802E+04  0.25500000000E-02 0.  1.
         -2   -1    0    0    0  501 -0.00000000000E+00 -0.00000000000E+00 -0.25645771383E+03  0.25645771384E+03  0.25500000000E-02 0. -1.
    -200001    2    1    2    0    0 -0.15794350736E+03  0.12249379911E+03  0.12536357001E+04  0.14090715172E+04  0.61149749779E+03 0.  0.
   -5000001    2    3    3    0    0 -0.16749588367E+03  0.39700438885E+02  0.12614892900E+04  0.12778897073E+04  0.10961696650E+03 0.  0.
     200001    1    1    2    0    0  0.15794350736E+03 -0.12249379911E+03  0.40271976629E+03  0.76019937681E+03  0.61300000000E+03 0. -1.
         13    1    4    4    0    0 -0.11214278905E+03  0.43611300724E+02  0.10586984133E+04  0.10655140976E+04  0.10566000000E+00 0.  1.
    -200003    1    4    4    0    0 -0.55353094621E+02 -0.39108618399E+01  0.20279087668E+03  0.21237560968E+03  0.30000000000E+02 0.  1.
    -200000    1    3    3    0    0  0.95523763106E+01  0.82793360222E+02 -0.78535898861E+01  0.13118180996E+03  0.10100000000E+03 0. -1.
<mgrwt>
<rscale>  0 0.14007936E+04</rscale>
<asrwt>0</asrwt>
<pdfrwt beam="1">  1        2 0.27325903E+00 0.14007936E+04</pdfrwt>
<pdfrwt beam="2">  1       -2 0.36636816E-01 0.14007936E+04</pdfrwt>
<totfact> 0.60813602E+01</totfact>
</mgrwt>
</event>
<event>
 8    2  0.4306980E-052  0.1775842E+04  0.7818608E-02  0.8719253E-01
          2   -1    0    0  501    0  0.00000000000E+00  0.00000000000E+00  0.32108373839E+04  0.32108373839E+04  0.25500000000E-02 0.  1.
         -2   -1    0    0    0  501 -0.00000000000E+00 -0.00000000000E+00 -0.24554451384E+03  0.24554451385E+03  0.25500000000E-02 0. -1.
    -200001    2    1    2    0    0  0.24866946050E+03 -0.27823115074E+03  0.46546577927E+03  0.85558325932E+03  0.61328235596E+03 0.  0.
   -5000001    2    3    3    0    0  0.21630813250E+03  0.14405843099E+03  0.15811776847E+03  0.32262965334E+03  0.10745522223E+03 0.  0.
     200001    1    1    2    0    0 -0.24866946050E+03  0.27823115074E+03  0.24998270908E+04  0.26007986384E+04  0.61300000000E+03 0.  1.
         13    1    4    4    0    0  0.70981498984E+02  0.77187064461E+02  0.15069855819E+02  0.10594020878E+03  0.10566000000E+00 0.  1.
    -200003    1    4    4    0    0  0.14532663351E+03  0.66871366526E+02  0.14304791265E+03  0.21668944456E+03  0.30000000000E+02 0. -1.
    -200000    1    3    3    0    0  0.32361328007E+02 -0.42228958173E+03  0.30734801080E+03  0.53295360599E+03  0.10100000000E+03 0. -1.
<mgrwt>
<rscale>  0 0.17758418E+04</rscale>
<asrwt>0</asrwt>
<pdfrwt beam="1">  1        2 0.45869103E+00 0.17758418E+04</pdfrwt>
<pdfrwt beam="2">  1       -2 0.35077789E-01 0.17758418E+04</pdfrwt>
<totfact> 0.12981012E+01</totfact>
</mgrwt>
</event>
<event>
 8    2  0.4306980E-052  0.1265150E+04  0.7818608E-02  0.9057667E-01
          2   -1    0    0  501    0  0.00000000000E+00  0.00000000000E+00  0.42979385837E+03  0.42979385837E+03  0.25500000000E-02 0.  1.
         -2   -1    0    0    0  501 -0.00000000000E+00 -0.00000000000E+00 -0.93103098660E+03  0.93103098661E+03  0.25500000000E-02 0. -1.
    -200001    2    1    2    0    0 -0.76137751545E+02  0.76732700647E+02 -0.12881677691E+03  0.63546232690E+03  0.61280807953E+03 0.  0.
   -5000001    2    3    3    0    0  0.16792655088E+03 -0.62036036425E+02  0.13348084034E+03  0.23819014549E+03  0.82883136774E+02 0.  0.
     200001    1    1    2    0    0  0.76137751545E+02 -0.76732700647E+02 -0.37242035132E+03  0.72536251808E+03  0.61300000000E+03 0. -1.
         13    1    4    4    0    0  0.13667796716E+03 -0.58725980248E+02  0.12413863017E+03  0.19375246612E+03  0.10566000000E+00 0.  1.
    -200003    1    4    4    0    0  0.31248583728E+02 -0.33100561777E+01  0.93422101728E+01  0.44437679370E+02  0.30000000000E+02 0.  1.
    -200000    1    3    3    0    0 -0.24406430243E+03  0.13876873707E+03 -0.26229761725E+03  0.39727218142E+03  0.10100000000E+03 0. -1.
<mgrwt>
<rscale>  0 0.12651504E+04</rscale>
<asrwt>0</asrwt>
<pdfrwt beam="1">  1        2 0.61399123E-01 0.12651504E+04</pdfrwt>
<pdfrwt beam="2">  1       -2 0.13300443E+00 0.12651504E+04</pdfrwt>
<totfact> 0.32136086E+01</totfact>
</mgrwt>
</event>
<event>
 8    2  0.4306980E-052  0.1841018E+04  0.7818608E-02  0.8684786E-01
          2   -1    0    0  501    0  0.00000000000E+00  0.00000000000E+00  0.96844673563E+03  0.96844673563E+03  0.25500000000E-02 0.  1.
         -2   -1    0    0    0  501 -0.00000000000E+00 -0.00000000000E+00 -0.87494374195E+03  0.87494374195E+03  0.25500000000E-02 0. -1.
    -200001    2    1    2    0    0  0.31986557820E+03 -0.12541231413E+03  0.64102535708E+03  0.95255268366E+03  0.61514296718E+03 0.  0.
   -5000001    2    3    3    0    0  0.39843388423E+03 -0.28084705513E+03  0.48819934367E+03  0.69978850938E+03  0.11722086086E+03 0.  0.
     200001    1    1    2    0    0 -0.31986557820E+03  0.12541231413E+03 -0.54752236341E+03  0.89083779393E+03  0.61300000000E+03 0. -1.
         13    1    4    4    0    0  0.24224708268E+03 -0.21523661328E+03  0.26913017560E+03  0.42123806967E+03  0.10566000000E+00 0.  1.
    -200003    1    4    4    0    0  0.15618680156E+03 -0.65610441850E+02  0.21906916807E+03  0.27855043970E+03  0.30000000000E+02 0. -1.
    -200000    1    3    3    0    0 -0.78568306030E+02  0.15543474100E+03  0.15282601341E+03  0.25276417428E+03  0.10100000000E+03 0.  1.
<mgrwt>
<rscale>  0 0.18410176E+04</rscale>
<asrwt>0</asrwt>
<pdfrwt beam="1">  1        2 0.13834953E+00 0.18410176E+04</pdfrwt>
<pdfrwt beam="2">  1       -2 0.12499196E+00 0.18410176E+04</pdfrwt>
<totfact> 0.13305846E+01</totfact>
</mgrwt>
</event>
<event>
 8    2  0.4306980E-052  0.1599281E+04  0.7818608E-02  0.8820990E-01
         -2   -1    0    0    0  501 -0.00000000000E+00  0.00000000000E+00  0.14274223564E+04  0.14274223564E+04  0.25500000000E-02 0. -1.
          2   -1    0    0  501    0  0.00000000000E+00 -0.00000000000E+00 -0.44795749254E+03  0.44795749254E+03  0.25500000000E-02 0.  1.
    -200001    2    1    2    0    0 -0.63202952483E+02 -0.22957620317E+02  0.10868186290E+04  0.12494281764E+04  0.61267803138E+03 0.  0.
   -5000001    2    3    3    0    0  0.25791112430E+03 -0.24117624660E+02  0.37160625523E+03  0.45895658583E+03  0.73825001839E+02 0.  0.
     200001    1    1    2    0    0  0.63202952483E+02  0.22957620317E+02 -0.10735376508E+03  0.62595167258E+03  0.61300000000E+03 0.  1.
         13    1    4    4    0    0  0.15019405348E+03  0.14207725442E+02  0.19785290453E+03  0.24880895514E+03  0.10566000000E+00 0.  1.
    -200003    1    4    4    0    0  0.10771707082E+03 -0.38325350102E+02  0.17375335069E+03  0.21014763069E+03  0.30000000000E+02 0.  1.
    -200000    1    3    3    0    0 -0.32111407678E+03  0.11600043429E+01  0.71521237374E+03  0.79047159055E+03  0.10100000000E+03 0. -1.
<mgrwt>
<rscale>  0 0.15992805E+04</rscale>
<asrwt>0</asrwt>
<pdfrwt beam="1">  1        2 0.63993928E-01 0.15992805E+04</pdfrwt>
<pdfrwt beam="2">  1       -2 0.20391748E+00 0.15992805E+04</pdfrwt>
<totfact> 0.91640414E+00</totfact>
</mgrwt>
</event>
<event>
 8    2  0.4306980E-052  0.1561394E+04  0.7818608E-02  0.8844623E-01
          2   -1    0    0  501    0  0.00000000000E+00  0.00000000000E+00  0.19046405035E+04  0.19046405035E+04  0.25500000000E-02 0.  1.
         -2   -1    0    0    0  501 -0.00000000000E+00 -0.00000000000E+00 -0.32000144837E+03  0.32000144838E+03  0.25500000000E-02 0. -1.
    -200001    2    1    2    0    0  0.34887755950E+03  0.19973525524E+03  0.11722797907E+04  0.13835599781E+04  0.61513297875E+03 0.  0.
   -5000001    2    3    3    0    0  0.39906811388E+03  0.34718489872E+03  0.75734148490E+03  0.92898843615E+03  0.98288739562E+02 0.  0.
     200001    1    1    2    0    0 -0.34887755950E+03 -0.19973525524E+03  0.41235926443E+03  0.84108197381E+03  0.61300000000E+03 0.  1.
         13    1    4    4    0    0  0.15995622539E+03  0.82366975954E+02  0.24818221495E+03  0.30653667929E+03  0.10566000000E+00 0.  1.
    -200003    1    4    4    0    0  0.23911188850E+03  0.26481792277E+03  0.50915926995E+03  0.62245175686E+03  0.30000000000E+02 0.  1.
    -200000    1    3    3    0    0 -0.50190554382E+02 -0.14744964349E+03  0.41493830579E+03  0.45457154192E+03  0.10100000000E+03 0.  1.
<mgrwt>
<rscale>  0 0.15613939E+04</rscale>
<asrwt>0</asrwt>
<pdfrwt beam="1">  1        2 0.27209150E+00 0.15613939E+04</pdfrwt>
<pdfrwt beam="2">  1       -2 0.45714493E-01 0.15613939E+04</pdfrwt>
<totfact> 0.39273922E+01</totfact>
</mgrwt>
</event>
<event>
 8    2  0.4306980E-052  0.1247733E+04  0.7818608E-02  0.9072072E-01
         -2   -1    0    0    0  501 -0.00000000000E+00  0.00000000000E+00  0.42539154810E+03  0.42539154811E+03  0.25500000000E-02 0. -1.
          2   -1    0    0  501    0  0.00000000000E+00 -0.00000000000E+00 -0.91494425032E+03  0.91494425033E+03  0.25500000000E-02 0.  1.
    -200001    2    1    2    0    0  0.10499578114E+03  0.32670995223E+02 -0.28494657275E+03  0.68480229341E+03  0.61291771369E+03 0.  0.
   -5000001    2    3    3    0    0  0.21728598195E+03 -0.97852809177E+02  0.81572937790E+02  0.26744979933E+03  0.89927085811E+02 0.  0.
     200001    1    1    2    0    0 -0.10499578114E+03 -0.32670995223E+02 -0.20460612948E+03  0.65553350502E+03  0.61300000000E+03 0. -1.
         13    1    4    4    0    0  0.11708464712E+03 -0.93741487166E+02  0.45655045141E+02  0.15678225447E+03  0.10566000000E+00 0.  1.
    -200003    1    4    4    0    0  0.10020133483E+03 -0.41113220114E+01  0.35917892649E+02  0.11066754485E+03  0.30000000000E+02 0. -1.
    -200000    1    3    3    0    0 -0.11229020081E+03  0.13052380440E+03 -0.36651951054E+03  0.41735249408E+03  0.10100000000E+03 0.  1.
<mgrwt>
<rscale>  0 0.12477332E+04</rscale>
<asrwt>0</asrwt>
<pdfrwt beam="1">  1        2 0.13070632E+00 0.12477332E+04</pdfrwt>
<pdfrwt beam="2">  1       -2 0.60770221E-01 0.12477332E+04</pdfrwt>
<totfact> 0.78912155E+01</totfact>
</mgrwt>
</event>
<event>
 8    2  0.4306980E-052  0.1631710E+04  0.7818608E-02  0.8801301E-01
         -2   -1    0    0    0  501 -0.00000000000E+00  0.00000000000E+00  0.21296226341E+03  0.21296226342E+03  0.25500000000E-02 0. -1.
          2   -1    0    0  501    0  0.00000000000E+00 -0.00000000000E+00 -0.31255284896E+04  0.31255284897E+04  0.25500000000E-02 0.  1.
    -200001    2    1    2    0    0  0.84036370515E+02 -0.53115925293E+03 -0.14104421045E+04  0.16292985050E+04  0.61324907247E+03 0.  0.
   -5000001    2    3    3    0    0 -0.47280753437E+02 -0.16407484013E+03 -0.26806250532E+02  0.18824183388E+03  0.74568023616E+02 0.  0.
     200001    1    1    2    0    0 -0.84036370515E+02  0.53115925293E+03 -0.15021241218E+04  0.17091922481E+04  0.61300000000E+03 0.  1.
         13    1    4    4    0    0 -0.44578212872E+01 -0.93481127624E+02 -0.35212276818E+02  0.99992544698E+02  0.10566000000E+00 0.  1.
    -200003    1    4    4    0    0 -0.42822932150E+02 -0.70593712507E+02  0.84060262869E+01  0.88249289184E+02  0.30000000000E+02 0.  1.
    -200000    1    3    3    0    0  0.13131712395E+03 -0.36708441280E+03 -0.13836358539E+04  0.14410566711E+04  0.10100000000E+03 0.  1.
<mgrwt>
<rscale>  0 0.16317103E+04</rscale>
<asrwt>0</asrwt>
<pdfrwt beam="1">  1        2 0.44650404E+00 0.16317103E+04</pdfrwt>
<pdfrwt beam="2">  1       -2 0.30423182E-01 0.16317103E+04</pdfrwt>
<totfact> 0.19257593E+01</totfact>
</mgrwt>
</event>
<event>
 8    2  0.4306980E-052  0.1735263E+04  0.7818608E-02  0.8741504E-01
         -2   -1    0    0    0  501 -0.00000000000E+00  0.00000000000E+00  0.18595074221E+04  0.18595074221E+04  0.25500000000E-02 0. -1.
          2   -1    0    0  501    0  0.00000000000E+00 -0.00000000000E+00 -0.40482993150E+03  0.40482993151E+03  0.25500000000E-02 0.  1.
    -200001    2    1    2    0    0  0.34171315210E+03 -0.63644781149E+02  0.13873966734E+04  0.15564431208E+04  0.61386246215E+03 0.  0.
   -5000001    2    3    3    0    0 -0.60808606321E+02  0.17814739027E+03  0.62116092032E+03  0.65211715664E+03  0.63100854046E+02 0.  0.
     200001    1    1    2    0    0 -0.34171315210E+03  0.63644781149E+02  0.67280817207E+02  0.70789423281E+03  0.61300000000E+03 0.  1.
         13    1    4    4    0    0 -0.11186768205E+02  0.10119782365E+03  0.33896854596E+03  0.35392913077E+03  0.10566000000E+00 0.  1.
    -200003    1    4    4    0    0 -0.49621838116E+02  0.76949566615E+02  0.28219237436E+03  0.29818802586E+03  0.30000000000E+02 0.  1.
    -200000    1    3    3    0    0  0.40252175842E+03 -0.24179217142E+03  0.76623575304E+03  0.90432596413E+03  0.10100000000E+03 0.  1.
<mgrwt>
<rscale>  0 0.17352628E+04</rscale>
<asrwt>0</asrwt>
<pdfrwt beam="1">  1        2 0.57832847E-01 0.17352628E+04</pdfrwt>
<pdfrwt beam="2">  1       -2 0.26564392E+00 0.17352628E+04</pdfrwt>
<totfact> 0.41854456E+00</totfact>
</mgrwt>
</event>
<event>
 8    2  0.4306980E-052  0.1576996E+04  0.7818608E-02  0.8834806E-01
          2   -1    0    0  501    0  0.00000000000E+00  0.00000000000E+00  0.23482478568E+04  0.23482478568E+04  0.25500000000E-02 0. -1.
         -2   -1    0    0    0  501 -0.00000000000E+00 -0.00000000000E+00 -0.26476293484E+03  0.26476293485E+03  0.25500000000E-02 0.  1.
    -200001    2    1    2    0    0 -0.23906698677E+02 -0.88240539281E+02  0.23532323988E+03  0.66369590532E+03  0.61380559177E+03 0.  0.
   -5000001    2    3    3    0    0  0.23536306453E+02 -0.84154743530E+02  0.42680306072E+03  0.44203613393E+03  0.74827217503E+02 0.  0.
     200001    1    1    2    0    0  0.23906698677E+02  0.88240539281E+02  0.18481616821E+04  0.19493148864E+04  0.61300000000E+03 0. -1.
         13    1    4    4    0    0  0.42106901160E+02 -0.39099009202E+02  0.19644779637E+03  0.20467894740E+03  0.10566000000E+00 0.  1.
    -200003    1    4    4    0    0 -0.18570594708E+02 -0.45055734327E+02  0.23035526435E+03  0.23735718653E+03  0.30000000000E+02 0.  1.
    -200000    1    3    3    0    0 -0.47443005130E+02 -0.40857957511E+01 -0.19147982084E+03  0.22165977139E+03  0.10100000000E+03 0.  1.
<mgrwt>
<rscale>  0 0.15769959E+04</rscale>
<asrwt>0</asrwt>
<pdfrwt beam="1">  1        2 0.33546399E+00 0.15769959E+04</pdfrwt>
<pdfrwt beam="2">  1       -2 0.37823275E-01 0.15769959E+04</pdfrwt>
<totfact> 0.33639892E+01</totfact>
</mgrwt>
</event>
<event>
 8    2  0.4306980E-052  0.1358320E+04  0.7818608E-02  0.8984553E-01
         -2   -1    0    0    0  501 -0.00000000000E+00  0.00000000000E+00  0.28973985467E+03  0.28973985468E+03  0.25500000000E-02 0. -1.
          2   -1    0    0  501    0  0.00000000000E+00 -0.00000000000E+00 -0.15919748971E+04  0.15919748971E+04  0.25500000000E-02 0.  1.
    -200001    2    1    2    0    0 -0.14256259260E+03 -0.23009548553E+03 -0.50093614869E+03  0.83714931947E+03  0.61368879145E+03 0.  0.
   -5000001    2    3    3    0    0 -0.28866401946E+03 -0.33528619169E+03 -0.25312715883E+03  0.51462644113E+03  0.70875023154E+02 0.  0.
     200001    1    1    2    0    0  0.14256259260E+03  0.23009548553E+03 -0.80129889369E+03  0.10445654323E+04  0.61300000000E+03 0.  1.
         13    1    4    4    0    0 -0.12344327439E+03 -0.15295671793E+03 -0.79668403371E+02  0.21208739993E+03  0.10566000000E+00 0.  1.
    -200003    1    4    4    0    0 -0.16522074507E+03 -0.18232947376E+03 -0.17345875546E+03  0.30253904120E+03  0.30000000000E+02 0.  1.
    -200000    1    3    3    0    0  0.14610142686E+03  0.10519070616E+03 -0.24780898986E+03  0.32252287834E+03  0.10100000000E+03 0. -1.
<mgrwt>
<rscale>  0 0.13583204E+04</rscale>
<asrwt>0</asrwt>
<pdfrwt beam="1">  1        2 0.22742498E+00 0.13583204E+04</pdfrwt>
<pdfrwt beam="2">  1       -2 0.41391409E-01 0.13583204E+04</pdfrwt>
<totfact> 0.70558025E+01</totfact>
</mgrwt>
</event>
<event>
 8    2  0.4306980E-052  0.1328753E+04  0.7818608E-02  0.9007070E-01
          2   -1    0    0  501    0  0.00000000000E+00  0.00000000000E+00  0.14703652816E+04  0.14703652816E+04  0.25500000000E-02 0.  1.
         -2   -1    0    0    0  501 -0.00000000000E+00 -0.00000000000E+00 -0.30019466777E+03  0.30019466778E+03  0.25500000000E-02 0. -1.
    -200001    2    1    2    0    0 -0.80280406855E+02  0.15290239214E+03  0.33381327647E+03  0.71932891814E+03  0.61333408815E+03 0.  0.
   -5000001    2    3    3    0    0 -0.23444456049E+03  0.14674669808E+03  0.38232992274E+03  0.52864765582E+03  0.23831350955E+03 0.  0.
     200001    1    1    2    0    0  0.80280406855E+02 -0.15290239214E+03  0.83635733732E+03  0.10512310312E+04  0.61300000000E+03 0.  1.
         13    1    4    4    0    0 -0.16009227798E+03  0.10042102994E+03  0.39236821104E+03  0.43550745679E+03  0.10566000000E+00 0.  1.
    -200003    1    4    4    0    0 -0.74352282506E+02  0.46325668143E+02 -0.10038288295E+02  0.93140199026E+02  0.30000000000E+02 0.  1.
    -200000    1    3    3    0    0  0.15416415363E+03  0.61556940599E+01 -0.48516646277E+02  0.19068126232E+03  0.10100000000E+03 0. -1.
<mgrwt>
<rscale>  0 0.13287525E+04</rscale>
<asrwt>0</asrwt>
<pdfrwt beam="1">  1        2 0.21005218E+00 0.13287525E+04</pdfrwt>
<pdfrwt beam="2">  1       -2 0.42884953E-01 0.13287525E+04</pdfrwt>
<totfact> 0.76468907E+01</totfact>
</mgrwt>
</event>
<event>
 8    2  0.4306980E-052  0.1311666E+04  0.7818608E-02  0.9020365E-01
          2   -1    0    0  501    0  0.00000000000E+00  0.00000000000E+00  0.86110641593E+03  0.86110641593E+03  0.25500000000E-02 0.  1.
         -2   -1    0    0    0  501 -0.00000000000E+00 -0.00000000000E+00 -0.49949328689E+03  0.49949328690E+03  0.25500000000E-02 0. -1.
    -200001    2    1    2    0    0 -0.93276678386E+02 -0.21443206505E+03  0.22508968948E+03  0.69045844996E+03  0.60941435293E+03 0.  0.
   -5000001    2    3    3    0    0 -0.27910600848E+03 -0.29389410494E+03  0.81937202384E+02  0.42298809596E+03  0.89057932280E+02 0.  0.
     200001    1    1    2    0    0  0.93276678386E+02  0.21443206505E+03  0.13652343956E+03  0.67014125287E+03  0.61300000000E+03 0. -1.
         13    1    4    4    0    0 -0.11069487882E+03 -0.17290766753E+03  0.46183722998E+02  0.21043613074E+03  0.10566000000E+00 0.  1.
    -200003    1    4    4    0    0 -0.16841112966E+03 -0.12098643741E+03  0.35753479386E+02  0.21255196522E+03  0.30000000000E+02 0.  1.
    -200000    1    3    3    0    0  0.18582933009E+03  0.79462039892E+02  0.14315248709E+03  0.26747035400E+03  0.10100000000E+03 0. -1.
<mgrwt>
<rscale>  0 0.13116659E+04</rscale>
<asrwt>0</asrwt>
<pdfrwt beam="1">  1        2 0.12301520E+00 0.13116659E+04</pdfrwt>
<pdfrwt beam="2">  1       -2 0.71356185E-01 0.13116659E+04</pdfrwt>
<totfact> 0.60325481E+01</totfact>
</mgrwt>
</event>
<event>
 8    2  0.4306980E-052  0.1904197E+04  0.7818608E-02  0.8652770E-01
         -2   -1    0    0    0  501 -0.00000000000E+00  0.00000000000E+00  0.62452023954E+03  0.62452023955E+03  0.25500000000E-02 0. -1.
          2   -1    0    0  501    0  0.00000000000E+00 -0.00000000000E+00 -0.14515005193E+04  0.14515005193E+04  0.25500000000E-02 0.  1.
    -200001    2    1    2    0    0  0.46667769067E+03  0.47139091379E+03 -0.74240615316E+03  0.11688717945E+04  0.61245156154E+03 0.  0.
   -5000001    2    3    3    0    0  0.18631732741E+03  0.55408880858E+03 -0.43935870736E+03  0.73588261512E+03  0.82210675771E+02 0.  0.
     200001    1    1    2    0    0 -0.46667769067E+03 -0.47139091379E+03 -0.84574126599E+02  0.90714896432E+03  0.61300000000E+03 0. -1.
         13    1    4    4    0    0  0.10523425365E+03  0.27691303036E+03 -0.26324515643E+03  0.39629925318E+03  0.10566000000E+00 0.  1.
    -200003    1    4    4    0    0  0.81083073760E+02  0.27717577822E+03 -0.17611355094E+03  0.33958336194E+03  0.30000000000E+02 0.  1.
    -200000    1    3    3    0    0  0.28036036326E+03 -0.82697894788E+02 -0.30304744579E+03  0.43298917941E+03  0.10100000000E+03 0.  1.
<mgrwt>
<rscale>  0 0.19041969E+04</rscale>
<asrwt>0</asrwt>
<pdfrwt beam="1">  1        2 0.20735722E+00 0.19041969E+04</pdfrwt>
<pdfrwt beam="2">  1       -2 0.89217178E-01 0.19041969E+04</pdfrwt>
<totfact> 0.15725373E+01</totfact>
</mgrwt>
</event>
<event>
 8    2  0.4306980E-052  0.2790656E+04  0.7818608E-02  0.8306175E-01
          2   -1    0    0  501    0  0.00000000000E+00  0.00000000000E+00  0.29413388959E+04  0.29413388959E+04  0.25500000000E-02 0.  1.
         -2   -1    0    0    0  501 -0.00000000000E+00 -0.00000000000E+00 -0.66192291110E+03  0.66192291110E+03  0.25500000000E-02 0. -1.
    -200001    2    1    2    0    0  0.82968807219E+02  0.70679426510E+03 -0.19200264256E+03  0.95937811292E+03  0.61408419020E+03 0.  0.
   -5000001    2    3    3    0    0  0.22285359853E+03  0.21910654471E+03 -0.28702813430E+03  0.43341431993E+03  0.88269012285E+02 0.  0.
     200001    1    1    2    0    0 -0.82968807219E+02 -0.70679426510E+03  0.24714186274E+04  0.26438836941E+04  0.61300000000E+03 0.  1.
         13    1    4    4    0    0  0.17708882982E+03  0.14950011579E+03 -0.23803720330E+03  0.33222350848E+03  0.10566000000E+00 0.  1.
    -200003    1    4    4    0    0  0.45764768706E+02  0.69606428915E+02 -0.48990930999E+02  0.10119081145E+03  0.30000000000E+02 0. -1.
    -200000    1    3    3    0    0 -0.13988479131E+03  0.48768772039E+03  0.95025491733E+02  0.52596379299E+03  0.10100000000E+03 0.  1.
<mgrwt>
<rscale>  0 0.27906556E+04</rscale>
<asrwt>0</asrwt>
<pdfrwt beam="1">  1        2 0.42019127E+00 0.27906556E+04</pdfrwt>
<pdfrwt beam="2">  1       -2 0.94560417E-01 0.27906556E+04</pdfrwt>
<totfact> 0.20994503E+00</totfact>
</mgrwt>
</event>
<event>
 8    2  0.4306980E-052  0.1387529E+04  0.7818608E-02  0.8962896E-01
          2   -1    0    0  501    0  0.00000000000E+00  0.00000000000E+00  0.14560529163E+04  0.14560529163E+04  0.25500000000E-02 0.  1.
         -2   -1    0    0    0  501 -0.00000000000E+00 -0.00000000000E+00 -0.33055737414E+03  0.33055737415E+03  0.25500000000E-02 0. -1.
    -200001    2    1    2    0    0 -0.11496956358E+03  0.10749694072E+03  0.93579787737E+03  0.11259077879E+04  0.60595138975E+03 0.  0.
   -5000001    2    3    3    0    0  0.17510203864E+03  0.82161887708E+02  0.70446912483E+03  0.74055419562E+03  0.12137738294E+03 0.  0.
     200001    1    1    2    0    0  0.11496956358E+03 -0.10749694072E+03  0.18969766475E+03  0.66070250251E+03  0.61300000000E+03 0. -1.
         13    1    4    4    0    0  0.10986444338E+02 -0.94049113559E+01  0.21352199887E+03  0.21401123681E+03  0.10566000000E+00 0.  1.
    -200003    1    4    4    0    0  0.16411559430E+03  0.91566799064E+02  0.49094712596E+03  0.52654295881E+03  0.30000000000E+02 0.  1.
    -200000    1    3    3    0    0 -0.29007160222E+03  0.25335053015E+02  0.23132875254E+03  0.38535359227E+03  0.10100000000E+03 0.  1.
<mgrwt>
<rscale>  0 0.13875288E+04</rscale>
<asrwt>0</asrwt>
<pdfrwt beam="1">  1        2 0.20800756E+00 0.13875288E+04</pdfrwt>
<pdfrwt beam="2">  1       -2 0.47222482E-01 0.13875288E+04</pdfrwt>
<totfact> 0.63936443E+01</totfact>
</mgrwt>
</event>
<event>
 8    2  0.4306980E-052  0.1805513E+04  0.7818608E-02  0.8703373E-01
         -2   -1    0    0    0  501 -0.00000000000E+00  0.00000000000E+00  0.42154222087E+03  0.42154222087E+03  0.25500000000E-02 0. -1.
          2   -1    0    0  501    0  0.00000000000E+00 -0.00000000000E+00 -0.19333031706E+04  0.19333031706E+04  0.25500000000E-02 0.  1.
    -200001    2    1    2    0    0  0.46672005306E+03 -0.12036531811E+03 -0.13486577425E+04  0.15581728904E+04  0.61376675710E+03 0.  0.
   -5000001    2    3    3    0    0  0.27339625014E+03  0.11021166726E+03 -0.11368640227E+04  0.11766005923E+04  0.70972010718E+02 0.  0.
     200001    1    1    2    0    0 -0.46672005306E+03  0.12036531811E+03 -0.16310320717E+03  0.79667250105E+03  0.61300000000E+03 0. -1.
         13    1    4    4    0    0  0.17848744357E+03  0.59614166195E+02 -0.79480473722E+03  0.81677793665E+03  0.10566000000E+00 0.  1.
    -200003    1    4    4    0    0  0.94908806567E+02  0.50597501061E+02 -0.34205928552E+03  0.35982265560E+03  0.30000000000E+02 0. -1.
    -200000    1    3    3    0    0  0.19332380292E+03 -0.23057698537E+03 -0.21179371978E+03  0.38157229813E+03  0.10100000000E+03 0. -1.
<mgrwt>
<rscale>  0 0.18055126E+04</rscale>
<asrwt>0</asrwt>
<pdfrwt beam="1">  1        2 0.27618616E+00 0.18055126E+04</pdfrwt>
<pdfrwt beam="2">  1       -2 0.60220318E-01 0.18055126E+04</pdfrwt>
<totfact> 0.21119530E+01</totfact>
</mgrwt>
</event>
<event>
 8    2  0.4306980E-052  0.1800046E+04  0.7818608E-02  0.8706275E-01
         -2   -1    0    0    0  501 -0.00000000000E+00  0.00000000000E+00  0.68440592519E+03  0.68440592520E+03  0.25500000000E-02 0. -1.
          2   -1    0    0  501    0  0.00000000000E+00 -0.00000000000E+00 -0.11835684827E+04  0.11835684827E+04  0.25500000000E-02 0.  1.
    -200001    2    1    2    0    0  0.48229420230E+00 -0.40546219306E+03 -0.78832580551E+03  0.10781743024E+04  0.61367941799E+03 0.  0.
   -5000001    2    3    3    0    0  0.20039603184E+03 -0.17114654543E+03 -0.68637910596E+03  0.73837516353E+03  0.68058029793E+02 0.  0.
     200001    1    1    2    0    0 -0.48229420230E+00  0.40546219306E+03  0.28916324804E+03  0.78980010549E+03  0.61300000000E+03 0. -1.
         13    1    4    4    0    0  0.35369873445E+02 -0.72422067160E+01 -0.12144908073E+03  0.12670188585E+03  0.10566000000E+00 0.  1.
    -200003    1    4    4    0    0  0.16502615839E+03 -0.16390433871E+03 -0.56493002524E+03  0.61167327767E+03  0.30000000000E+02 0.  1.
    -200000    1    3    3    0    0 -0.19991373763E+03 -0.23431564763E+03 -0.10194669955E+03  0.33979913886E+03  0.10100000000E+03 0. -1.
<mgrwt>
<rscale>  0 0.18000459E+04</rscale>
<asrwt>0</asrwt>
<pdfrwt beam="1">  1        2 0.16908121E+00 0.18000459E+04</pdfrwt>
<pdfrwt beam="2">  1       -2 0.97772275E-01 0.18000459E+04</pdfrwt>
<totfact> 0.18020870E+01</totfact>
</mgrwt>
</event>
<event>
 8    2  0.4306980E-052  0.1868314E+04  0.7818608E-02  0.8670791E-01
         -2   -1    0    0    0  501 -0.00000000000E+00  0.00000000000E+00  0.48316279806E+03  0.48316279807E+03  0.25500000000E-02 0. -1.
          2   -1    0    0  501    0  0.00000000000E+00 -0.00000000000E+00 -0.18061184004E+04  0.18061184004E+04  0.25500000000E-02 0.  1.
    -200001    2    1    2    0    0  0.58101779810E+03 -0.22299872784E+03 -0.10659309668E+04  0.13787095222E+04  0.61426460609E+03 0.  0.
   -5000001    2    3    3    0    0  0.94253766699E+02 -0.33891608229E+03 -0.42379825600E+03  0.55839770733E+03  0.91951913511E+02 0.  0.
     200001    1    1    2    0    0 -0.58101779810E+03  0.22299872784E+03 -0.25702463552E+03  0.91057167625E+03  0.61300000000E+03 0. -1.
         13    1    4    4    0    0  0.80256938921E+02 -0.20522575158E+03 -0.30647595416E+03  0.37747358450E+03  0.10566000000E+00 0.  1.
    -200003    1    4    4    0    0  0.13996827778E+02 -0.13369033072E+03 -0.11732230184E+03  0.18092412284E+03  0.30000000000E+02 0.  1.
    -200000    1    3    3    0    0  0.48676403140E+03  0.11591735445E+03 -0.64213271084E+03  0.82031181490E+03  0.10100000000E+03 0. -1.
<mgrwt>
<rscale>  0 0.18683139E+04</rscale>
<asrwt>0</asrwt>
<pdfrwt beam="1">  1        2 0.25801691E+00 0.18683139E+04</pdfrwt>
<pdfrwt beam="2">  1       -2 0.69023258E-01 0.18683139E+04</pdfrwt>
<totfact> 0.18241434E+01</totfact>
</mgrwt>
</event>
<event>
 8    2  0.4306980E-052  0.1302462E+04  0.7818608E-02  0.9027615E-01
         -2   -1    0    0    0  501 -0.00000000000E+00  0.00000000000E+00  0.26469381341E+03  0.26469381342E+03  0.25500000000E-02 0. -1.
          2   -1    0    0  501    0  0.00000000000E+00 -0.00000000000E+00 -0.16022342940E+04  0.16022342940E+04  0.25500000000E-02 0.  1.
    -200001    2    1    2    0    0  0.17014446378E+03 -0.78509656391E+02 -0.50499837114E+03  0.81621012971E+03  0.61323952603E+03 0.  0.
   -5000001    2    3    3    0    0 -0.10538769184E+03  0.19362999956E+03 -0.15479484751E+03  0.28440051238E+03  0.91230829804E+02 0.  0.
     200001    1    1    2    0    0 -0.17014446378E+03  0.78509656391E+02 -0.83254210950E+03  0.10507179778E+04  0.61300000000E+03 0. -1.
         13    1    4    4    0    0 -0.54696613495E+02  0.15039125462E+03 -0.76727716716E+02  0.17747225887E+03  0.10566000000E+00 0.  1.
    -200003    1    4    4    0    0 -0.50691078345E+02  0.43238744943E+02 -0.78067130796E+02  0.10692825351E+03  0.30000000000E+02 0.  1.
    -200000    1    3    3    0    0  0.27553215562E+03 -0.27213965595E+03 -0.35020352363E+03  0.53180961733E+03  0.10100000000E+03 0.  1.
<mgrwt>
<rscale>  0 0.13024615E+04</rscale>
<asrwt>0</asrwt>
<pdfrwt beam="1">  1        2 0.22889061E+00 0.13024615E+04</pdfrwt>
<pdfrwt beam="2">  1       -2 0.37813403E-01 0.13024615E+04</pdfrwt>
<totfact> 0.83461693E+01</totfact>
</mgrwt>
</event>
<event>
 8    2  0.4306980E-052  0.1353555E+04  0.7818608E-02  0.8988141E-01
         -2   -1    0    0    0  501 -0.00000000000E+00  0.00000000000E+00  0.85843414299E+03  0.85843414299E+03  0.25500000000E-02 0. -1.
          2   -1    0    0  501    0  0.00000000000E+00 -0.00000000000E+00 -0.53356187441E+03  0.53356187442E+03  0.25500000000E-02 0.  1.
    -200001    2    1    2    0    0  0.16071175501E+03 -0.17527663776E+03  0.32728318067E+03  0.73448177388E+03  0.61302449206E+03 0.  0.
   -5000001    2    3    3    0    0  0.40091879774E+02 -0.36212568442E+03  0.78782172005E+02  0.38603454424E+03  0.10036766701E+03 0.  0.
     200001    1    1    2    0    0 -0.16071175501E+03  0.17527663776E+03 -0.24109120954E+01  0.65751424353E+03  0.61300000000E+03 0.  1.
         13    1    4    4    0    0 -0.13305148129E+02 -0.40303817845E+01 -0.14725752347E+01  0.13980364299E+02  0.10566000000E+00 0.  1.
    -200003    1    4    4    0    0  0.53397027903E+02 -0.35809530263E+03  0.80254747240E+02  0.37205417994E+03  0.30000000000E+02 0.  1.
    -200000    1    3    3    0    0  0.12061987524E+03  0.18684904665E+03  0.24850100867E+03  0.34844722964E+03  0.10100000000E+03 0. -1.
<mgrwt>
<rscale>  0 0.13535549E+04</rscale>
<asrwt>0</asrwt>
<pdfrwt beam="1">  1        2 0.76223126E-01 0.13535549E+04</pdfrwt>
<pdfrwt beam="2">  1       -2 0.12263345E+00 0.13535549E+04</pdfrwt>
<totfact> 0.30633982E+01</totfact>
</mgrwt>
</event>
<event>
 8    2  0.4306980E-052  0.2302416E+04  0.7818608E-02  0.8476969E-01
         -2   -1    0    0    0  501 -0.00000000000E+00  0.00000000000E+00  0.49476508613E+03  0.49476508613E+03  0.25500000000E-02 0. -1.
          2   -1    0    0  501    0  0.00000000000E+00 -0.00000000000E+00 -0.26786051016E+04  0.26786051016E+04  0.25500000000E-02 0.  1.
    -200001    2    1    2    0    0 -0.80849905336E+03  0.54380988907E+03 -0.10780538643E+04  0.15771459156E+04  0.61301646808E+03 0.  0.
   -5000001    2    3    3    0    0 -0.46733140428E+03  0.50017287610E+03 -0.36789787077E+03  0.78164475987E+03  0.83953200719E+02 0.  0.
     200001    1    1    2    0    0  0.80849905336E+03 -0.54380988907E+03 -0.11057861512E+04  0.15962242721E+04  0.61300000000E+03 0.  1.
         13    1    4    4    0    0 -0.26154542770E+03  0.23017127475E+03 -0.19997255736E+03  0.40171365590E+03  0.10566000000E+00 0.  1.
    -200003    1    4    4    0    0 -0.20578597657E+03  0.27000160135E+03 -0.16792531341E+03  0.37993110398E+03  0.30000000000E+02 0. -1.
    -200000    1    3    3    0    0 -0.34116764908E+03  0.43637012971E+02 -0.71015599350E+03  0.79550115574E+03  0.10100000000E+03 0.  1.
<mgrwt>
<rscale>  0 0.23024164E+04</rscale>
<asrwt>0</asrwt>
<pdfrwt beam="1">  1        2 0.38265786E+00 0.23024164E+04</pdfrwt>
<pdfrwt beam="2">  1       -2 0.70680728E-01 0.23024164E+04</pdfrwt>
<totfact> 0.58677177E+00</totfact>
</mgrwt>
</event>
<event>
 8    2  0.4306980E-052  0.1352796E+04  0.7818608E-02  0.8988714E-01
          2   -1    0    0  501    0  0.00000000000E+00  0.00000000000E+00  0.36620412442E+04  0.36620412442E+04  0.25500000000E-02 0.  1.
         -2   -1    0    0    0  501 -0.00000000000E+00 -0.00000000000E+00 -0.12493422838E+03  0.12493422841E+03  0.25500000000E-02 0. -1.
    -200001    2    1    2    0    0  0.78495756443E+02  0.26655721009E+03  0.16021894652E+04  0.17383444034E+04  0.61450455851E+03 0.  0.
   -5000001    2    3    3    0    0  0.14234445258E+02  0.28375834034E+03  0.25847693298E+03  0.38920031762E+03  0.62810406816E+02 0.  0.
     200001    1    1    2    0    0 -0.78495756443E+02 -0.26655721009E+03  0.19349175507E+04  0.20486310693E+04  0.61300000000E+03 0.  1.
         13    1    4    4    0    0  0.91655082334E+01  0.47911355418E+02  0.20938421313E+02  0.53084208294E+02  0.10566000000E+00 0.  1.
    -200003    1    4    4    0    0  0.50689370245E+01  0.23584698492E+03  0.23753851167E+03  0.33611610932E+03  0.30000000000E+02 0.  1.
    -200000    1    3    3    0    0  0.64261311185E+02 -0.17201130251E+02  0.13437125322E+04  0.13491440858E+04  0.10100000000E+03 0.  1.
<mgrwt>
<rscale>  0 0.13527961E+04</rscale>
<asrwt>0</asrwt>
<pdfrwt beam="1">  1        2 0.52314878E+00 0.13527961E+04</pdfrwt>
<pdfrwt beam="2">  1       -2 0.17847746E-01 0.13527961E+04</pdfrwt>
<totfact> 0.24704948E+01</totfact>
</mgrwt>
</event>
<event>
 8    2  0.4306980E-052  0.1767577E+04  0.7818608E-02  0.8723734E-01
         -2   -1    0    0    0  501 -0.00000000000E+00  0.00000000000E+00  0.14117834057E+04  0.14117834057E+04  0.25500000000E-02 0. -1.
          2   -1    0    0  501    0  0.00000000000E+00 -0.00000000000E+00 -0.55325904368E+03  0.55325904369E+03  0.25500000000E-02 0.  1.
    -200001    2    1    2    0    0  0.58543013945E+03 -0.21603196548E+03  0.28837183103E+03  0.92089630692E+03  0.61277519278E+03 0.  0.
   -5000001    2    3    3    0    0  0.32029200490E+03  0.10486964400E+03  0.30694725858E+03  0.49215148786E+03  0.18550433099E+03 0.  0.
     200001    1    1    2    0    0 -0.58543013945E+03  0.21603196548E+03  0.57015253103E+03  0.10441461425E+04  0.61300000000E+03 0. -1.
         13    1    4    4    0    0  0.12555273586E+03  0.14481437855E+02  0.22941417115E+03  0.26192379543E+03  0.10566000000E+00 0.  1.
    -200003    1    4    4    0    0  0.19473926903E+03  0.90388206148E+02  0.77533087433E+02  0.23022769243E+03  0.30000000000E+02 0.  1.
    -200000    1    3    3    0    0  0.26513813456E+03 -0.32090160948E+03 -0.18575427549E+02  0.42874481906E+03  0.10100000000E+03 0.  1.
<mgrwt>
<rscale>  0 0.17675768E+04</rscale>
<asrwt>0</asrwt>
<pdfrwt beam="1">  1        2 0.79037008E-01 0.17675768E+04</pdfrwt>
<pdfrwt beam="2">  1       -2 0.20168334E+00 0.17675768E+04</pdfrwt>
<totfact> 0.73421412E+00</totfact>
</mgrwt>
</event>
<event>
 8    2  0.4306980E-052  0.1307308E+04  0.7818608E-02  0.9023790E-01
          2   -1    0    0  501    0  0.00000000000E+00  0.00000000000E+00  0.55310896260E+03  0.55310896260E+03  0.25500000000E-02 0.  1.
         -2   -1    0    0    0  501 -0.00000000000E+00 -0.00000000000E+00 -0.77247587147E+03  0.77247587148E+03  0.25500000000E-02 0. -1.
    -200001    2    1    2    0    0 -0.19884135342E+03  0.76277844977E+02 -0.18390094394E+03  0.67567481867E+03  0.61429692326E+03 0.  0.
   -5000001    2    3    3    0    0 -0.18129796249E+03 -0.84302243430E+02 -0.33677477693E+03  0.43141032233E+03  0.18089167029E+03 0.  0.
     200001    1    1    2    0    0  0.19884135342E+03 -0.76277844977E+02 -0.35465964938E+02  0.64991001541E+03  0.61300000000E+03 0.  1.
         13    1    4    4    0    0 -0.12868207243E+03 -0.21344180147E+02 -0.64603657249E+02  0.14556199190E+03  0.10566000000E+00 0.  1.
    -200003    1    4    4    0    0 -0.52615890059E+02 -0.62958063283E+02 -0.27217111968E+03  0.28584833043E+03  0.30000000000E+02 0.  1.
    -200000    1    3    3    0    0 -0.17543390932E+02  0.16058008841E+03  0.15287383299E+03  0.24426449634E+03  0.10100000000E+03 0.  1.
<mgrwt>
<rscale>  0 0.13073077E+04</rscale>
<asrwt>0</asrwt>
<pdfrwt beam="1">  1        2 0.79015566E-01 0.13073077E+04</pdfrwt>
<pdfrwt beam="2">  1       -2 0.11035370E+00 0.13073077E+04</pdfrwt>
<totfact> 0.38199730E+01</totfact>
</mgrwt>
</event>
<event>
 8    2  0.4306980E-052  0.1307158E+04  0.7818608E-02  0.9023908E-01
         -2   -1    0    0    0  501 -0.00000000000E+00  0.00000000000E+00  0.19190743581E+03  0.19190743582E+03  0.25500000000E-02 0. -1.
          2   -1    0    0  501    0  0.00000000000E+00 -0.00000000000E+00 -0.22258936894E+04  0.22258936894E+04  0.25500000000E-02 0.  1.
    -200001    2    1    2    0    0 -0.22110984350E+03  0.82996870231E+00 -0.10969889261E+04  0.12764759115E+04  0.61409754676E+03 0.  0.
   -5000001    2    3    3    0    0 -0.68000746625E+01 -0.82536665275E+02 -0.10024059977E+04  0.10081000500E+04  0.67744995985E+02 0.  0.
     200001    1    1    2    0    0  0.22110984350E+03 -0.82996870231E+00 -0.93699732752E+03  0.11413252137E+04  0.61300000000E+03 0. -1.
         13    1    4    4    0    0 -0.29894203196E+01  0.30344516691E+00 -0.32064519190E+03  0.32065928797E+03  0.10566000000E+00 0.  1.
    -200003    1    4    4    0    0 -0.38106543429E+01 -0.82840110442E+02 -0.68176080581E+03  0.68744076204E+03  0.30000000000E+02 0.  1.
    -200000    1    3    3    0    0 -0.21430976884E+03  0.83366633977E+02 -0.94582928366E+02  0.26837586147E+03  0.10100000000E+03 0. -1.
<mgrwt>
<rscale>  0 0.13071581E+04</rscale>
<asrwt>0</asrwt>
<pdfrwt beam="1">  1        2 0.31798480E+00 0.13071581E+04</pdfrwt>
<pdfrwt beam="2">  1       -2 0.27415349E-01 0.13071581E+04</pdfrwt>
<totfact> 0.72937524E+01</totfact>
</mgrwt>
</event>
<event>
 8    2  0.4306980E-052  0.1466347E+04  0.7818608E-02  0.8907145E-01
          2   -1    0    0  501    0  0.00000000000E+00  0.00000000000E+00  0.48539877315E+03  0.48539877315E+03  0.25500000000E-02 0.  1.
         -2   -1    0    0    0  501 -0.00000000000E+00 -0.00000000000E+00 -0.11074264338E+04  0.11074264338E+04  0.25500000000E-02 0. -1.
    -200001    2    1    2    0    0  0.15615224070E+02 -0.36617471742E+03 -0.13143898577E+03  0.72635304537E+03  0.61317597852E+03 0.  0.
   -5000001    2    3    3    0    0  0.20808424307E+03 -0.42674751003E+03 -0.13829547165E+03  0.50060673227E+03  0.77903615952E+02 0.  0.
     200001    1    1    2    0    0 -0.15615224070E+02  0.36617471742E+03 -0.49058867491E+03  0.86647216161E+03  0.61300000000E+03 0. -1.
         13    1    4    4    0    0  0.13933750401E+03 -0.32998984347E+03 -0.11291983124E+03  0.37557840229E+03  0.10566000000E+00 0.  1.
    -200003    1    4    4    0    0  0.68746739058E+02 -0.96757666563E+02 -0.25375640413E+02  0.12502832997E+03  0.30000000000E+02 0. -1.
    -200000    1    3    3    0    0 -0.19246901900E+03  0.60572792609E+02  0.68564858841E+01  0.22574631310E+03  0.10100000000E+03 0.  1.
<mgrwt>
<rscale>  0 0.14663471E+04</rscale>
<asrwt>0</asrwt>
<pdfrwt beam="1">  1        2 0.69342683E-01 0.14663471E+04</pdfrwt>
<pdfrwt beam="2">  1       -2 0.15820377E+00 0.14663471E+04</pdfrwt>
<totfact> 0.17494098E+01</totfact>
</mgrwt>
</event>
<event>
 8    2  0.4306980E-052  0.1664499E+04  0.7818608E-02  0.8781875E-01
          2   -1    0    0  501    0  0.00000000000E+00  0.00000000000E+00  0.21830739499E+04  0.21830739499E+04  0.25500000000E-02 0.  1.
         -2   -1    0    0    0  501 -0.00000000000E+00 -0.00000000000E+00 -0.31727707404E+03  0.31727707405E+03  0.25500000000E-02 0. -1.
    -200001    2    1    2    0    0  0.46791872572E+03 -0.15842030489E+03  0.52648469738E+03  0.94678382609E+03  0.61251004063E+03 0.  0.
   -5000001    2    3    3    0    0  0.29836557890E+03 -0.34163578449E+03  0.14799287872E+03  0.48226984528E+03  0.70322710425E+02 0.  0.
     200001    1    1    2    0    0 -0.46791872572E+03  0.15842030489E+03  0.13393121785E+04  0.15535671979E+04  0.61300000000E+03 0.  1.
         13    1    4    4    0    0  0.46726372704E+02 -0.89220263937E+02  0.42877239926E+02  0.10946267981E+03  0.10566000000E+00 0.  1.
    -200003    1    4    4    0    0  0.25163920619E+03 -0.25241552056E+03  0.10511563879E+03  0.37280716548E+03  0.30000000000E+02 0.  1.
    -200000    1    3    3    0    0  0.16955314683E+03  0.18321547960E+03  0.37849181866E+03  0.46451398080E+03  0.10100000000E+03 0. -1.
<mgrwt>
<rscale>  0 0.16644991E+04</rscale>
<asrwt>0</asrwt>
<pdfrwt beam="1">  1        2 0.31186772E+00 0.16644991E+04</pdfrwt>
<pdfrwt beam="2">  1       -2 0.45325294E-01 0.16644991E+04</pdfrwt>
<totfact> 0.28490691E+01</totfact>
</mgrwt>
</event>
<event>
 8    2  0.4306980E-052  0.1245416E+04  0.7818608E-02  0.9074007E-01
         -2   -1    0    0    0  501 -0.00000000000E+00  0.00000000000E+00  0.92356534674E+02  0.92356534709E+02  0.25500000000E-02 0. -1.
          2   -1    0    0  501    0  0.00000000000E+00 -0.00000000000E+00 -0.41985705196E+04  0.41985705196E+04  0.25500000000E-02 0.  1.
    -200001    2    1    2    0    0  0.35781390504E+02 -0.69873175403E+02 -0.17907338343E+04  0.18943920772E+04  0.61305065722E+03 0.  0.
   -5000001    2    3    3    0    0 -0.10739540293E+03  0.52742541981E+02 -0.16013995636E+04  0.16087652675E+04  0.96589727779E+02 0.  0.
     200001    1    1    2    0    0 -0.35781390504E+02  0.69873175403E+02 -0.23154801506E+04  0.23965349771E+04  0.61300000000E+03 0.  1.
         13    1    4    4    0    0 -0.83678804210E+02  0.57232340683E+02 -0.79369136447E+03  0.80013978547E+03  0.10566000000E+00 0.  1.
    -200003    1    4    4    0    0 -0.23716598717E+02 -0.44897987022E+01 -0.80770819911E+03  0.80862548207E+03  0.30000000000E+02 0.  1.
    -200000    1    3    3    0    0  0.14317679343E+03 -0.12261571738E+03 -0.18933427071E+03  0.28562680965E+03  0.10100000000E+03 0. -1.
<mgrwt>
<rscale>  0 0.12454163E+04</rscale>
<asrwt>0</asrwt>
<pdfrwt beam="1">  1        2 0.59979567E+00 0.12454163E+04</pdfrwt>
<pdfrwt beam="2">  1       -2 0.13193793E-01 0.12454163E+04</pdfrwt>
<totfact> 0.18308573E+01</totfact>
</mgrwt>
</event>
<event>
 8    2  0.4306980E-052  0.2515959E+04  0.7818608E-02  0.8397322E-01
          2   -1    0    0  501    0  0.00000000000E+00  0.00000000000E+00  0.29399251874E+04  0.29399251874E+04  0.25500000000E-02 0.  1.
         -2   -1    0    0    0  501 -0.00000000000E+00 -0.00000000000E+00 -0.53828305560E+03  0.53828305561E+03  0.25500000000E-02 0. -1.
    -200001    2    1    2    0    0 -0.13675462031E+03 -0.53608775003E+03  0.25128727487E+04  0.26450016948E+04  0.61270923953E+03 0.  0.
   -5000001    2    3    3    0    0  0.11858668697E+02 -0.33222714019E+03  0.49538003988E+03  0.60928980747E+03  0.12376261498E+03 0.  0.
     200001    1    1    2    0    0  0.13675462031E+03  0.53608775003E+03 -0.11123061691E+03  0.83320654825E+03  0.61300000000E+03 0. -1.
         13    1    4    4    0    0 -0.57482044878E+01 -0.47640109167E+01 -0.59026060502E+01  0.95178556969E+01  0.10566000000E+00 0.  1.
    -200003    1    4    4    0    0  0.17606873184E+02 -0.32746312928E+03  0.50128264593E+03  0.59977195177E+03  0.30000000000E+02 0.  1.
    -200000    1    3    3    0    0 -0.14861328900E+03 -0.20386060983E+03  0.20174927088E+04  0.20357118873E+04  0.10100000000E+03 0.  1.
<mgrwt>
<rscale>  0 0.25159586E+04</rscale>
<asrwt>0</asrwt>
<pdfrwt beam="1">  1        2 0.41998931E+00 0.25159586E+04</pdfrwt>
<pdfrwt beam="2">  1       -2 0.76897581E-01 0.25159586E+04</pdfrwt>
<totfact> 0.34459053E+00</totfact>
</mgrwt>
</event>
<event>
 8    2  0.4306980E-052  0.1816871E+04  0.7818608E-02  0.8697379E-01
         -2   -1    0    0    0  501 -0.00000000000E+00  0.00000000000E+00  0.48938191506E+03  0.48938191506E+03  0.25500000000E-02 0. -1.
          2   -1    0    0  501    0  0.00000000000E+00 -0.00000000000E+00 -0.16863214884E+04  0.16863214884E+04  0.25500000000E-02 0.  1.
    -200001    2    1    2    0    0  0.51170515560E+03  0.27603589348E+03 -0.10040038991E+04  0.13090828665E+04  0.60633005951E+03 0.  0.
   -5000001    2    3    3    0    0  0.51566134080E+03 -0.24496114263E+02 -0.66149308707E+03  0.84233904439E+03  0.73859890643E+02 0.  0.
     200001    1    1    2    0    0 -0.51170515560E+03 -0.27603589348E+03 -0.19293567422E+03  0.86662053700E+03  0.61300000000E+03 0. -1.
         13    1    4    4    0    0  0.38411201691E+03 -0.49789614694E+01 -0.51082275790E+03  0.63914531426E+03  0.10566000000E+00 0.  1.
    -200003    1    4    4    0    0  0.13154932389E+03 -0.19517152794E+02 -0.15067032917E+03  0.20319373013E+03  0.30000000000E+02 0.  1.
    -200000    1    3    3    0    0 -0.39561851951E+01  0.30053200774E+03 -0.34251081206E+03  0.46674382209E+03  0.10100000000E+03 0. -1.
<mgrwt>
<rscale>  0 0.18168712E+04</rscale>
<asrwt>0</asrwt>
<pdfrwt beam="1">  1        2 0.24090307E+00 0.18168712E+04</pdfrwt>
<pdfrwt beam="2">  1       -2 0.69911703E-01 0.18168712E+04</pdfrwt>
<totfact> 0.20554020E+01</totfact>
</mgrwt>
</event>
<event>
 8    2  0.4306980E-052  0.1803452E+04  0.7818608E-02  0.8704466E-01
          2   -1    0    0  501    0  0.00000000000E+00  0.00000000000E+00  0.22587255229E+04  0.22587255229E+04  0.25500000000E-02 0.  1.
         -2   -1    0    0    0  501 -0.00000000000E+00 -0.00000000000E+00 -0.35998608138E+03  0.35998608139E+03  0.25500000000E-02 0. -1.
    -200001    2    1    2    0    0  0.14100537575E+03 -0.24466504634E+03  0.80695922514E+02  0.67943474477E+03  0.61267955702E+03 0.  0.
   -5000001    2    3    3    0    0  0.43766298376E+02 -0.48542096707E+02  0.32293724001E+03  0.33767239248E+03  0.73907777870E+02 0.  0.
     200001    1    1    2    0    0 -0.14100537575E+03  0.24466504634E+03  0.18180435190E+04  0.19392768595E+04  0.61300000000E+03 0.  1.
         13    1    4    4    0    0  0.48688024117E+02 -0.44597067861E+02  0.18677495100E+03  0.19810178101E+03  0.10566000000E+00 0.  1.
    -200003    1    4    4    0    0 -0.49217257408E+01 -0.39450288463E+01  0.13616228901E+03  0.13957061147E+03  0.30000000000E+02 0. -1.
    -200000    1    3    3    0    0  0.97239077375E+02 -0.19612294964E+03 -0.24224131749E+03  0.34176235229E+03  0.10100000000E+03 0. -1.
<mgrwt>
<rscale>  0 0.18034520E+04</rscale>
<asrwt>0</asrwt>
<pdfrwt beam="1">  1        2 0.32267507E+00 0.18034520E+04</pdfrwt>
<pdfrwt beam="2">  1       -2 0.51426583E-01 0.18034520E+04</pdfrwt>
<totfact> 0.19936451E+01</totfact>
</mgrwt>
</event>
<event>
 8    2  0.4306980E-052  0.1252127E+04  0.7818608E-02  0.9068415E-01
         -2   -1    0    0    0  501 -0.00000000000E+00  0.00000000000E+00  0.83015168793E+03  0.83015168793E+03  0.25500000000E-02 0. -1.
          2   -1    0    0  501    0  0.00000000000E+00 -0.00000000000E+00 -0.47214942947E+03  0.47214942947E+03  0.25500000000E-02 0.  1.
    -200001    2    1    2    0    0  0.95022559483E+02 -0.19401335327E+01  0.26810500940E+03  0.67549686860E+03  0.61268480681E+03 0.  0.
   -5000001    2    3    3    0    0 -0.67053672645E+02  0.22290706418E+03 -0.26986221893E+02  0.25823819329E+03  0.10851246021E+03 0.  0.
     200001    1    1    2    0    0 -0.95022559483E+02  0.19401335327E+01  0.89897249059E+02  0.62680424880E+03  0.61300000000E+03 0. -1.
         13    1    4    4    0    0  0.26173651633E+02  0.45832821215E+02 -0.17713849860E+02  0.55673145961E+02  0.10566000000E+00 0.  1.
    -200003    1    4    4    0    0 -0.93227324278E+02  0.17707424297E+03 -0.92723720330E+01  0.20256504732E+03  0.30000000000E+02 0.  1.
    -200000    1    3    3    0    0  0.16207623213E+03 -0.22484719772E+03  0.29509123129E+03  0.41725867532E+03  0.10100000000E+03 0.  1.
<mgrwt>
<rscale>  0 0.12521272E+04</rscale>
<asrwt>0</asrwt>
<pdfrwt beam="1">  1        2 0.67449919E-01 0.12521272E+04</pdfrwt>
<pdfrwt beam="2">  1       -2 0.11859310E+00 0.12521272E+04</pdfrwt>
<totfact> 0.38588087E+01</totfact>
</mgrwt>
</event>
<event>
 8    2  0.4306980E-052  0.1416319E+04  0.7818608E-02  0.8942090E-01
          2   -1    0    0  501    0  0.00000000000E+00  0.00000000000E+00  0.11362132352E+04  0.11362132352E+04  0.25500000000E-02 0.  1.
         -2   -1    0    0    0  501 -0.00000000000E+00 -0.00000000000E+00 -0.44136957852E+03  0.44136957853E+03  0.25500000000E-02 0. -1.
    -200001    2    1    2    0    0 -0.94980271771E+02  0.33888329906E+03  0.30824756831E+03  0.77192241510E+03  0.61399064256E+03 0.  0.
   -5000001    2    3    3    0    0  0.18828876601E+02  0.15331466809E+03  0.44174660688E+03  0.49731135860E+03  0.16828133781E+03 0.  0.
     200001    1    1    2    0    0  0.94980271771E+02 -0.33888329906E+03  0.38659608840E+03  0.80566039867E+03  0.61300000000E+03 0. -1.
         13    1    4    4    0    0  0.47321648555E+02  0.12174148482E+03  0.42182400632E+03  0.44158332285E+03  0.10566000000E+00 0.  1.
    -200003    1    4    4    0    0 -0.28492771954E+02  0.31573183267E+02  0.19922600560E+02  0.55728035748E+02  0.30000000000E+02 0.  1.
    -200000    1    3    3    0    0 -0.11380914837E+03  0.18556863097E+03 -0.13349903857E+03  0.27461105650E+03  0.10100000000E+03 0. -1.
<mgrwt>
<rscale>  0 0.14163191E+04</rscale>
<asrwt>0</asrwt>
<pdfrwt beam="1">  1        2 0.16231618E+00 0.14163191E+04</pdfrwt>
<pdfrwt beam="2">  1       -2 0.63052797E-01 0.14163191E+04</pdfrwt>
<totfact> 0.52774767E+01</totfact>
</mgrwt>
</event>
<event>
 8    2  0.4306980E-052  0.2174802E+04  0.7818608E-02  0.8528990E-01
          2   -1    0    0  501    0  0.00000000000E+00  0.00000000000E+00  0.16382579234E+04  0.16382579234E+04  0.25500000000E-02 0.  1.
         -2   -1    0    0    0  501 -0.00000000000E+00 -0.00000000000E+00 -0.72176736897E+03  0.72176736898E+03  0.25500000000E-02 0. -1.
    -200001    2    1    2    0    0 -0.16900015493E+02  0.57473962606E+03 -0.29079740447E+03  0.88899692284E+03  0.61248767342E+03 0.  0.
   -5000001    2    3    3    0    0 -0.40700672439E+02  0.10965857850E+03 -0.37479574232E+03  0.40513374711E+03  0.99899729802E+02 0.  0.
     200001    1    1    2    0    0  0.16900015493E+02 -0.57473962606E+03  0.12072879589E+04  0.14710283695E+04  0.61300000000E+03 0.  1.
         13    1    4    4    0    0 -0.55298005305E+02  0.10682747060E+03 -0.28890380345E+03  0.31294631597E+03  0.10566000000E+00 0.  1.
    -200003    1    4    4    0    0  0.14597332866E+02  0.28311078994E+01 -0.85891938864E+02  0.92187431142E+02  0.30000000000E+02 0.  1.
    -200000    1    3    3    0    0  0.23800656946E+02  0.46508104756E+03  0.83998337846E+02  0.48386317573E+03  0.10100000000E+03 0. -1.
<mgrwt>
<rscale>  0 0.21748022E+04</rscale>
<asrwt>0</asrwt>
<pdfrwt beam="1">  1        2 0.23403685E+00 0.21748022E+04</pdfrwt>
<pdfrwt beam="2">  1       -2 0.10310962E+00 0.21748022E+04</pdfrwt>
<totfact> 0.87314535E+00</totfact>
</mgrwt>
</event>
<event>
 8    2  0.4306980E-052  0.1590413E+04  0.7818608E-02  0.8826459E-01
          2   -1    0    0  501    0  0.00000000000E+00  0.00000000000E+00  0.25437647465E+04  0.25437647465E+04  0.25500000000E-02 0.  1.
         -2   -1    0    0    0  501 -0.00000000000E+00 -0.00000000000E+00 -0.24858963324E+03  0.24858963325E+03  0.25500000000E-02 0. -1.
    -200001    2    1    2    0    0 -0.53133208210E+02 -0.29247271957E+03  0.42182205464E+03  0.79896929108E+03  0.60996282904E+03 0.  0.
   -5000001    2    3    3    0    0 -0.16177829683E+03 -0.27229746406E+03  0.49778400108E+03  0.63109429735E+03  0.22399324577E+03 0.  0.
     200001    1    1    2    0    0  0.53133208210E+02  0.29247271957E+03  0.18733530586E+04  0.19933850887E+04  0.61300000000E+03 0.  1.
         13    1    4    4    0    0  0.40395588100E+02  0.78289815344E+01  0.54829486424E+02  0.68552025757E+02  0.10566000000E+00 0.  1.
    -200003    1    4    4    0    0 -0.20217388493E+03 -0.28012644560E+03  0.44295451465E+03  0.56254227159E+03  0.30000000000E+02 0.  1.
    -200000    1    3    3    0    0  0.10864508862E+03 -0.20175255505E+02 -0.75961946437E+02  0.16787499374E+03  0.10100000000E+03 0. -1.
<mgrwt>
<rscale>  0 0.15904132E+04</rscale>
<asrwt>0</asrwt>
<pdfrwt beam="1">  1        2 0.36339496E+00 0.15904132E+04</pdfrwt>
<pdfrwt beam="2">  1       -2 0.35512805E-01 0.15904132E+04</pdfrwt>
<totfact> 0.29971958E+01</totfact>
</mgrwt>
</event>
<event>
 8    2  0.4306980E-052  0.1494929E+04  0.7818608E-02  0.8887832E-01
         -2   -1    0    0    0  501 -0.00000000000E+00  0.00000000000E+00  0.27316505979E+03  0.27316505980E+03  0.25500000000E-02 0. -1.
          2   -1    0    0  501    0  0.00000000000E+00 -0.00000000000E+00 -0.20452946659E+04  0.20452946659E+04  0.25500000000E-02 0.  1.
    -200001    2    1    2    0    0 -0.41713053484E+03 -0.24438266305E+01 -0.79323557215E+03  0.10904506113E+04  0.62117308969E+03 0.  0.
   -5000001    2    3    3    0    0 -0.18807451650E+03 -0.29607830775E+03 -0.43850804238E+03  0.56631275880E+03  0.73392434664E+02 0.  0.
     200001    1    1    2    0    0  0.41713053484E+03  0.24438266305E+01 -0.97889403400E+03  0.12280091145E+04  0.61300000000E+03 0. -1.
         13    1    4    4    0    0 -0.12575479986E+02 -0.39725751597E+02 -0.26312790727E+02  0.49281357090E+02  0.10566000000E+00 0.  1.
    -200003    1    4    4    0    0 -0.17549903651E+03 -0.25635255615E+03 -0.41219525166E+03  0.51703140171E+03  0.30000000000E+02 0.  1.
    -200000    1    3    3    0    0 -0.22905601834E+03  0.29363448112E+03 -0.35472752976E+03  0.52413785249E+03  0.10100000000E+03 0.  1.
<mgrwt>
<rscale>  0 0.14949288E+04</rscale>
<asrwt>0</asrwt>
<pdfrwt beam="1">  1        2 0.29218494E+00 0.14949288E+04</pdfrwt>
<pdfrwt beam="2">  1       -2 0.39023581E-01 0.14949288E+04</pdfrwt>
<totfact> 0.45680743E+01</totfact>
</mgrwt>
</event>
<event>
 8    2  0.4306980E-052  0.1338262E+04  0.7818608E-02  0.8999762E-01
         -2   -1    0    0    0  501 -0.00000000000E+00  0.00000000000E+00  0.26123220901E+03  0.26123220902E+03  0.25500000000E-02 0.  1.
          2   -1    0    0  501    0  0.00000000000E+00 -0.00000000000E+00 -0.17139392931E+04  0.17139392931E+04  0.25500000000E-02 0. -1.
    -200001    2    1    2    0    0 -0.23025957736E+03  0.47739682277E+01 -0.52232932377E+03  0.83744831933E+03  0.61273934210E+03 0.  0.
   -5000001    2    3    3    0    0  0.60235894083E+01 -0.81250450200E+02  0.10637440074E+03  0.15283214317E+03  0.73513478797E+02 0.  0.
     200001    1    1    2    0    0  0.23025957736E+03 -0.47739682277E+01 -0.93037776031E+03  0.11377231828E+04  0.61300000000E+03 0. -1.
         13    1    4    4    0    0  0.28477598530E+02 -0.58803814644E+02  0.55052524854E+02  0.85438011983E+02  0.10566000000E+00 0.  1.
    -200003    1    4    4    0    0 -0.22454009122E+02 -0.22446635556E+02  0.51321875887E+02  0.67394131183E+02  0.30000000000E+02 0.  1.
    -200000    1    3    3    0    0 -0.23628316676E+03  0.86024418428E+02 -0.62870372451E+03  0.68461617617E+03  0.10100000000E+03 0. -1.
<mgrwt>
<rscale>  0 0.13382618E+04</rscale>
<asrwt>0</asrwt>
<pdfrwt beam="1">  1        2 0.24484846E+00 0.13382618E+04</pdfrwt>
<pdfrwt beam="2">  1       -2 0.37318888E-01 0.13382618E+04</pdfrwt>
<totfact> 0.74675775E+01</totfact>
</mgrwt>
</event>
<event>
 8    2  0.4306980E-052  0.1574555E+04  0.7818608E-02  0.8836334E-01
          2   -1    0    0  501    0  0.00000000000E+00  0.00000000000E+00  0.63612018210E+03  0.63612018210E+03  0.25500000000E-02 0.  1.
         -2   -1    0    0    0  501 -0.00000000000E+00 -0.00000000000E+00 -0.97435310119E+03  0.97435310119E+03  0.25500000000E-02 0. -1.
    -200001    2    1    2    0    0 -0.31191147996E+02 -0.41071887685E+03 -0.44835035773E+03  0.86377539673E+03  0.61272098805E+03 0.  0.
   -5000001    2    3    3    0    0 -0.12528775438E+03 -0.19379750921E+03 -0.53787936148E+03  0.59151542246E+03  0.85567467679E+02 0.  0.
     200001    1    1    2    0    0  0.31191147996E+02  0.41071887685E+03  0.11011743863E+03  0.74669788657E+03  0.61300000000E+03 0.  1.
         13    1    4    4    0    0  0.80934149217E+01 -0.36293071696E+02 -0.93683633253E+02  0.10079347559E+03  0.10566000000E+00 0.  1.
    -200003    1    4    4    0    0 -0.13338116930E+03 -0.15750443751E+03 -0.44419572823E+03  0.49072194687E+03  0.30000000000E+02 0.  1.
    -200000    1    3    3    0    0  0.94096606384E+02 -0.21692136765E+03  0.89529003756E+02  0.27225997427E+03  0.10100000000E+03 0.  1.
<mgrwt>
<rscale>  0 0.15745548E+04</rscale>
<asrwt>0</asrwt>
<pdfrwt beam="1">  1        2 0.90874312E-01 0.15745548E+04</pdfrwt>
<pdfrwt beam="2">  1       -2 0.13919330E+00 0.15745548E+04</pdfrwt>
<totfact> 0.17754646E+01</totfact>
</mgrwt>
</event>
<event>
 8    2  0.4306980E-052  0.1512233E+04  0.7818608E-02  0.8876359E-01
          2   -1    0    0  501    0  0.00000000000E+00  0.00000000000E+00  0.69660033957E+03  0.69660033958E+03  0.25500000000E-02 0.  1.
         -2   -1    0    0    0  501 -0.00000000000E+00 -0.00000000000E+00 -0.82071772863E+03  0.82071772863E+03  0.25500000000E-02 0. -1.
    -200001    2    1    2    0    0 -0.36618828541E+03 -0.19570493094E+03 -0.21477382294E+03  0.77140797351E+03  0.61363522243E+03 0.  0.
   -5000001    2    3    3    0    0 -0.56721302465E+02 -0.19076933369E+03  0.16620375735E+03  0.27027017775E+03  0.76236705034E+02 0.  0.
     200001    1    1    2    0    0  0.36618828541E+03  0.19570493094E+03  0.90656433886E+02  0.74591009470E+03  0.61300000000E+03 0.  1.
         13    1    4    4    0    0 -0.45231867407E+02 -0.87664043567E+02  0.46515917449E+02  0.10906258801E+03  0.10566000000E+00 0.  1.
    -200003    1    4    4    0    0 -0.11489435058E+02 -0.10310529012E+03  0.11968783990E+03  0.16120758974E+03  0.30000000000E+02 0.  1.
    -200000    1    3    3    0    0 -0.30946698295E+03 -0.49355972585E+01 -0.38097758029E+03  0.50113779576E+03  0.10100000000E+03 0. -1.
<mgrwt>
<rscale>  0 0.15122331E+04</rscale>
<asrwt>0</asrwt>
<pdfrwt beam="1">  1        2 0.99514335E-01 0.15122331E+04</pdfrwt>
<pdfrwt beam="2">  1       -2 0.11724539E+00 0.15122331E+04</pdfrwt>
<totfact> 0.24630924E+01</totfact>
</mgrwt>
</event>
<event>
 8    2  0.4306980E-052  0.1353971E+04  0.7818608E-02  0.8987827E-01
          2   -1    0    0  501    0  0.00000000000E+00  0.00000000000E+00  0.48929986716E+03  0.48929986717E+03  0.25500000000E-02 0.  1.
         -2   -1    0    0    0  501 -0.00000000000E+00 -0.00000000000E+00 -0.93666424315E+03  0.93666424315E+03  0.25500000000E-02 0. -1.
    -200001    2    1    2    0    0 -0.20805058876E+03 -0.21652835794E+02 -0.44955224417E+03  0.77825454612E+03  0.59985750436E+03 0.  0.
   -5000001    2    3    3    0    0 -0.23101616260E+03 -0.24909600912E+03 -0.12664505082E+03  0.36993130383E+03  0.73436445402E+02 0.  0.
     200001    1    1    2    0    0  0.20805058876E+03  0.21652835794E+02  0.21878681880E+01  0.64770956419E+03  0.61300000000E+03 0. -1.
         13    1    4    4    0    0 -0.12048884691E+02 -0.11191997224E+02 -0.24526886123E+02  0.29529912480E+02  0.10566000000E+00 0.  1.
    -200003    1    4    4    0    0 -0.21896727791E+03 -0.23790401190E+03 -0.10211816470E+03  0.34040139135E+03  0.30000000000E+02 0.  1.
    -200000    1    3    3    0    0  0.22965573842E+02  0.22744317333E+03 -0.32290719335E+03  0.40832324229E+03  0.10100000000E+03 0.  1.
<mgrwt>
<rscale>  0 0.13539715E+04</rscale>
<asrwt>0</asrwt>
<pdfrwt beam="1">  1        2 0.69899981E-01 0.13539715E+04</pdfrwt>
<pdfrwt beam="2">  1       -2 0.13380918E+00 0.13539715E+04</pdfrwt>
<totfact> 0.27150603E+01</totfact>
</mgrwt>
</event>
<event>
 8    2  0.4306980E-052  0.1349358E+04  0.7818608E-02  0.8991314E-01
         -2   -1    0    0    0  501 -0.00000000000E+00  0.00000000000E+00  0.22281628797E+03  0.22281628799E+03  0.25500000000E-02 0. -1.
          2   -1    0    0  501    0  0.00000000000E+00 -0.00000000000E+00 -0.20429024246E+04  0.20429024246E+04  0.25500000000E-02 0.  1.
    -200001    2    1    2    0    0 -0.21626308825E+03 -0.15329733230E+03 -0.10754871588E+04  0.12654855231E+04  0.61197318993E+03 0.  0.
   -5000001    2    3    3    0    0 -0.37603444754E+03  0.48612122899E+02 -0.68054511046E+03  0.78332938986E+03  0.81842784769E+02 0.  0.
     200001    1    1    2    0    0  0.21626308825E+03  0.15329733230E+03 -0.74459897789E+03  0.10002331895E+04  0.61300000000E+03 0. -1.
         13    1    4    4    0    0 -0.32081371033E+03  0.48146929466E+02 -0.58599990685E+03  0.66980255713E+03  0.10566000000E+00 0.  1.
    -200003    1    4    4    0    0 -0.55220737210E+02  0.46519343314E+00 -0.94545203608E+02  0.11352683272E+03  0.30000000000E+02 0. -1.
    -200000    1    3    3    0    0  0.15977135929E+03 -0.20190945520E+03 -0.39494204831E+03  0.48215613329E+03  0.10100000000E+03 0. -1.
<mgrwt>
<rscale>  0 0.13493583E+04</rscale>
<asrwt>0</asrwt>
<pdfrwt beam="1">  1        2 0.29184319E+00 0.13493583E+04</pdfrwt>
<pdfrwt beam="2">  1       -2 0.31830900E-01 0.13493583E+04</pdfrwt>
<totfact> 0.68401203E+01</totfact>
</mgrwt>
</event>
<event>
 8    2  0.4306980E-052  0.1838808E+04  0.7818608E-02  0.8685930E-01
          2   -1    0    0  501    0  0.00000000000E+00  0.00000000000E+00  0.28840407804E+04  0.28840407804E+04  0.25500000000E-02 0.  1.
         -2   -1    0    0    0  501 -0.00000000000E+00 -0.00000000000E+00 -0.29309686480E+03  0.29309686481E+03  0.25500000000E-02 0. -1.
    -200001    2    1    2    0    0  0.22833014378E+03 -0.49377682106E+03  0.20161410295E+04  0.21760794244E+04  0.61200229326E+03 0.  0.
   -5000001    2    3    3    0    0  0.20144717421E+03 -0.26472398446E+03  0.34420437292E+03  0.48529230605E+03  0.79826186358E+02 0.  0.
     200001    1    1    2    0    0 -0.22833014378E+03  0.49377682106E+03  0.57480288611E+03  0.10010582208E+04  0.61300000000E+03 0. -1.
         13    1    4    4    0    0  0.14203440234E+03 -0.14526436694E+03  0.23216526038E+03  0.30850644571E+03  0.10566000000E+00 0.  1.
    -200003    1    4    4    0    0  0.59412771869E+02 -0.11945961751E+03  0.11203911254E+03  0.17678586034E+03  0.30000000000E+02 0.  1.
    -200000    1    3    3    0    0  0.26882969566E+02 -0.22905283660E+03  0.16719366566E+04  0.16907871184E+04  0.10100000000E+03 0. -1.
<mgrwt>
<rscale>  0 0.18388076E+04</rscale>
<asrwt>0</asrwt>
<pdfrwt beam="1">  1        2 0.41200583E+00 0.18388076E+04</pdfrwt>
<pdfrwt beam="2">  1       -2 0.41870980E-01 0.18388076E+04</pdfrwt>
<totfact> 0.13980818E+01</totfact>
</mgrwt>
</event>
<event>
 8    2  0.4306980E-052  0.1433718E+04  0.7818608E-02  0.8929767E-01
         -2   -1    0    0    0  501 -0.00000000000E+00  0.00000000000E+00  0.30446033055E+03  0.30446033056E+03  0.25500000000E-02 0. -1.
          2   -1    0    0  501    0  0.00000000000E+00 -0.00000000000E+00 -0.16878609818E+04  0.16878609818E+04  0.25500000000E-02 0.  1.
    -200001    2    1    2    0    0 -0.14480580747E+03  0.30530051981E+03 -0.46904377790E+03  0.84080291429E+03  0.61054921654E+03 0.  0.
   -5000001    2    3    3    0    0  0.12189600512E+03 -0.93204928471E+02 -0.10782068884E+02  0.16987725291E+03  0.72084903355E+02 0.  0.
     200001    1    1    2    0    0  0.14480580747E+03 -0.30530051981E+03 -0.91435687339E+03  0.11515183981E+04  0.61300000000E+03 0. -1.
         13    1    4    4    0    0  0.56208707277E+02 -0.32015770873E+02 -0.33050433686E+02  0.72641384136E+02  0.10566000000E+00 0.  1.
    -200003    1    4    4    0    0  0.65687297839E+02 -0.61189157598E+02  0.22268364802E+02  0.97235868773E+02  0.30000000000E+02 0.  1.
    -200000    1    3    3    0    0 -0.26670181259E+03  0.39850544828E+03 -0.45826170901E+03  0.67092566138E+03  0.10100000000E+03 0. -1.
<mgrwt>
<rscale>  0 0.14337178E+04</rscale>
<asrwt>0</asrwt>
<pdfrwt beam="1">  1        2 0.24112299E+00 0.14337178E+04</pdfrwt>
<pdfrwt beam="2">  1       -2 0.43494334E-01 0.14337178E+04</pdfrwt>
<totfact> 0.56690496E+01</totfact>
</mgrwt>
</event>
<event>
 8    2  0.4306980E-052  0.1397303E+04  0.7818608E-02  0.8955773E-01
          2   -1    0    0  501    0  0.00000000000E+00  0.00000000000E+00  0.11512684735E+04  0.11512684735E+04  0.25500000000E-02 0.  1.
         -2   -1    0    0    0  501 -0.00000000000E+00 -0.00000000000E+00 -0.42397892601E+03  0.42397892602E+03  0.25500000000E-02 0. -1.
    -200001    2    1    2    0    0  0.90435459561E+02  0.32242368653E+03  0.36810073815E+03  0.78980408091E+03  0.61331617197E+03 0.  0.
   -5000001    2    3    3    0    0 -0.10992812730E+03  0.36915082549E+03  0.39801031038E+03  0.55866651372E+03  0.73072164700E+02 0.  0.
     200001    1    1    2    0    0 -0.90435459561E+02 -0.32242368653E+03  0.35918880931E+03  0.78544331859E+03  0.61300000000E+03 0.  1.
         13    1    4    4    0    0 -0.31952454225E+02  0.16159805741E+03  0.20654218793E+03  0.26418663487E+03  0.10566000000E+00 0.  1.
    -200003    1    4    4    0    0 -0.77975673072E+02  0.20755276809E+03  0.19146812245E+03  0.29447987885E+03  0.30000000000E+02 0.  1.
    -200000    1    3    3    0    0  0.20036358686E+03 -0.46727138957E+02 -0.29909572226E+02  0.23113756719E+03  0.10100000000E+03 0.  1.
<mgrwt>
<rscale>  0 0.13973025E+04</rscale>
<asrwt>0</asrwt>
<pdfrwt beam="1">  1        2 0.16446692E+00 0.13973025E+04</pdfrwt>
<pdfrwt beam="2">  1       -2 0.60568419E-01 0.13973025E+04</pdfrwt>
<totfact> 0.56412234E+01</totfact>
</mgrwt>
</event>
<event>
 8    2  0.4306980E-052  0.1709832E+04  0.7818608E-02  0.8755777E-01
         -2   -1    0    0    0  501 -0.00000000000E+00  0.00000000000E+00  0.11156527958E+04  0.11156527958E+04  0.25500000000E-02 0. -1.
          2   -1    0    0  501    0  0.00000000000E+00 -0.00000000000E+00 -0.65511552381E+03  0.65511552381E+03  0.25500000000E-02 0.  1.
    -200001    2    1    2    0    0 -0.11260819989E+03  0.56829403516E+03  0.92077897801E+02  0.85034992153E+03  0.61561183606E+03 0.  0.
   -5000001    2    3    3    0    0 -0.92299352831E+02 -0.13268675154E+02 -0.16338363444E+03  0.20685226827E+03  0.86014072175E+02 0.  0.
     200001    1    1    2    0    0  0.11260819989E+03 -0.56829403516E+03  0.36845937418E+03  0.92041839807E+03  0.61300000000E+03 0.  1.
         13    1    4    4    0    0  0.13737934676E+01  0.19215047932E+02 -0.48388829253E+02  0.52082581887E+02  0.10566000000E+00 0.  1.
    -200003    1    4    4    0    0 -0.93673146298E+02 -0.32483723086E+02 -0.11499480519E+03  0.15476968638E+03  0.30000000000E+02 0.  1.
    -200000    1    3    3    0    0 -0.20308847061E+02  0.58156271031E+03  0.25546153224E+03  0.64349765326E+03  0.10100000000E+03 0. -1.
<mgrwt>
<rscale>  0 0.17098321E+04</rscale>
<asrwt>0</asrwt>
<pdfrwt beam="1">  1        2 0.93587932E-01 0.17098321E+04</pdfrwt>
<pdfrwt beam="2">  1       -2 0.15937897E+00 0.17098321E+04</pdfrwt>
<totfact> 0.11841815E+01</totfact>
</mgrwt>
</event>
<event>
 8    2  0.4306980E-052  0.1287889E+04  0.7818608E-02  0.9039225E-01
          2   -1    0    0  501    0  0.00000000000E+00  0.00000000000E+00  0.34427942240E+04  0.34427942240E+04  0.25500000000E-02 0.  1.
         -2   -1    0    0    0  501 -0.00000000000E+00 -0.00000000000E+00 -0.12044408416E+03  0.12044408419E+03  0.25500000000E-02 0. -1.
    -200001    2    1    2    0    0 -0.67601219139E+02  0.17543499290E+03  0.14785252755E+04  0.16111096003E+04  0.61179227889E+03 0.  0.
   -5000001    2    3    3    0    0 -0.19183777777E+03  0.34346759633E+03  0.10256466634E+04  0.11022189288E+04  0.90353561747E+02 0.  0.
     200001    1    1    2    0    0  0.67601219139E+02 -0.17543499290E+03  0.18438248644E+04  0.19521287079E+04  0.61300000000E+03 0. -1.
         13    1    4    4    0    0 -0.71205049895E+01  0.80376047869E+02  0.21521021575E+03  0.22984007220E+03  0.10566000000E+00 0.  1.
    -200003    1    4    4    0    0 -0.18471727278E+03  0.26309154846E+03  0.81043644764E+03  0.87237885658E+03  0.30000000000E+02 0.  1.
    -200000    1    3    3    0    0  0.12423655863E+03 -0.16803260343E+03  0.45287861206E+03  0.50889067154E+03  0.10100000000E+03 0.  1.
<mgrwt>
<rscale>  0 0.12878885E+04</rscale>
<asrwt>0</asrwt>
<pdfrwt beam="1">  1        2 0.49182776E+00 0.12878885E+04</pdfrwt>
<pdfrwt beam="2">  1       -2 0.17206297E-01 0.12878885E+04</pdfrwt>
<totfact> 0.36087062E+01</totfact>
</mgrwt>
</event>
<event>
 8    2  0.4306980E-052  0.1587241E+04  0.7818608E-02  0.8828425E-01
         -2   -1    0    0    0  501 -0.00000000000E+00  0.00000000000E+00  0.35983983137E+03  0.35983983138E+03  0.25500000000E-02 0. -1.
          2   -1    0    0  501    0  0.00000000000E+00 -0.00000000000E+00 -0.17503168619E+04  0.17503168619E+04  0.25500000000E-02 0.  1.
    -200001    2    1    2    0    0 -0.18853486931E+03  0.45499630660E+03 -0.55227010350E+03  0.96084085833E+03  0.61289954467E+03 0.  0.
   -5000001    2    3    3    0    0 -0.29440717137E+03  0.36514207871E+02 -0.37555978332E+03  0.48359485409E+03  0.69353890519E+02 0.  0.
     200001    1    1    2    0    0  0.18853486931E+03 -0.45499630660E+03 -0.83820692705E+03  0.11493158350E+04  0.61300000000E+03 0. -1.
         13    1    4    4    0    0 -0.18822485791E+03  0.41985647220E+02 -0.26011190766E+03  0.32380489091E+03  0.10566000000E+00 0.  1.
    -200003    1    4    4    0    0 -0.10618231345E+03 -0.54714393483E+01 -0.11544787566E+03  0.15978996318E+03  0.30000000000E+02 0.  1.
    -200000    1    3    3    0    0  0.10587230206E+03  0.41848209873E+03 -0.17671032018E+03  0.47724600423E+03  0.10100000000E+03 0. -1.
<mgrwt>
<rscale>  0 0.15872413E+04</rscale>
<asrwt>0</asrwt>
<pdfrwt beam="1">  1        2 0.25004526E+00 0.15872413E+04</pdfrwt>
<pdfrwt beam="2">  1       -2 0.51405691E-01 0.15872413E+04</pdfrwt>
<totfact> 0.37125120E+01</totfact>
</mgrwt>
</event>
<event>
 8    2  0.4306980E-052  0.1364689E+04  0.7818608E-02  0.8979782E-01
         -2   -1    0    0    0  501 -0.00000000000E+00  0.00000000000E+00  0.10883631514E+03  0.10883631517E+03  0.25500000000E-02 0. -1.
          2   -1    0    0  501    0  0.00000000000E+00 -0.00000000000E+00 -0.42779301999E+04  0.42779301999E+04  0.25500000000E-02 0.  1.
    -200001    2    1    2    0    0  0.26168684261E+03  0.88301957261E+01 -0.25505963170E+04  0.26363776003E+04  0.61350411846E+03 0.  0.
   -5000001    2    3    3    0    0  0.28177992183E+03 -0.14737034078E+03 -0.20101719290E+04  0.20644843773E+04  0.34667941708E+03 0.  0.
     200001    1    1    2    0    0 -0.26168684261E+03 -0.88301957261E+01 -0.16184975678E+04  0.17503889148E+04  0.61300000000E+03 0. -1.
         13    1    4    4    0    0  0.26030805505E+03 -0.10913392443E+03 -0.19862667490E+04  0.20062218488E+04  0.10566000000E+00 0.  1.
    -200003    1    4    4    0    0  0.21471866784E+02 -0.38236416353E+02 -0.23905179942E+02  0.58262528496E+02  0.30000000000E+02 0.  1.
    -200000    1    3    3    0    0 -0.20093079219E+02  0.15620053651E+03 -0.54042438798E+03  0.57189322304E+03  0.10100000000E+03 0.  1.
<mgrwt>
<rscale>  0 0.13646892E+04</rscale>
<asrwt>0</asrwt>
<pdfrwt beam="1">  1        2 0.61113278E+00 0.13646892E+04</pdfrwt>
<pdfrwt beam="2">  1       -2 0.15548048E-01 0.13646892E+04</pdfrwt>
<totfact> 0.11976472E+01</totfact>
</mgrwt>
</event>
<event>
 8    2  0.4306980E-052  0.3059022E+04  0.7818608E-02  0.8227075E-01
          2   -1    0    0  501    0  0.00000000000E+00  0.00000000000E+00  0.14590837358E+04  0.14590837358E+04  0.25500000000E-02 0.  1.
         -2   -1    0    0    0  501 -0.00000000000E+00 -0.00000000000E+00 -0.16033373923E+04  0.16033373923E+04  0.25500000000E-02 0. -1.
    -200001    2    1    2    0    0 -0.41303855371E+03 -0.87874546790E+03 -0.10837148380E+04  0.15787935617E+04  0.61266370578E+03 0.  0.
   -5000001    2    3    3    0    0 -0.25546978327E+03 -0.88832458880E+03 -0.97328004075E+03  0.13612699506E+04  0.22670786363E+03 0.  0.
     200001    1    1    2    0    0  0.41303855371E+03  0.87874546790E+03  0.93946118148E+03  0.14836275664E+04  0.61300000000E+03 0.  1.
         13    1    4    4    0    0 -0.49766316542E+02 -0.16289870954E+03 -0.32281507529E+03  0.36499624633E+03  0.10566000000E+00 0.  1.
    -200003    1    4    4    0    0 -0.20570346673E+03 -0.72542587926E+03 -0.65046496546E+03  0.99627370427E+03  0.30000000000E+02 0.  1.
    -200000    1    3    3    0    0 -0.15756877043E+03  0.95791208962E+01 -0.11043479721E+03  0.21752361115E+03  0.10100000000E+03 0. -1.
<mgrwt>
<rscale>  0 0.30590217E+04</rscale>
<asrwt>0</asrwt>
<pdfrwt beam="1">  1        2 0.20844053E+00 0.30590217E+04</pdfrwt>
<pdfrwt beam="2">  1       -2 0.22904820E+00 0.30590217E+04</pdfrwt>
<totfact> 0.11440427E+00</totfact>
</mgrwt>
</event>
<event>
 8    2  0.4306980E-052  0.1493486E+04  0.7818608E-02  0.8888796E-01
          2   -1    0    0  501    0  0.00000000000E+00  0.00000000000E+00  0.11985029183E+04  0.11985029183E+04  0.25500000000E-02 0.  1.
         -2   -1    0    0    0  501 -0.00000000000E+00 -0.00000000000E+00 -0.46526828486E+03  0.46526828487E+03  0.25500000000E-02 0. -1.
    -200001    2    1    2    0    0 -0.52268332646E+02 -0.25483536152E+03  0.74269971381E+03  0.99778950089E+03  0.61343946979E+03 0.  0.
   -5000001    2    3    3    0    0 -0.15702130169E+03 -0.38501841567E+03  0.48286060857E+03  0.67276923578E+03  0.21579899842E+03 0.  0.
     200001    1    1    2    0    0  0.52268332646E+02  0.25483536152E+03 -0.94650803386E+01  0.66598170232E+03  0.61300000000E+03 0. -1.
         13    1    4    4    0    0 -0.15377213986E+03 -0.20765700792E+03  0.16219324376E+03  0.30508025734E+03  0.10566000000E+00 0.  1.
    -200003    1    4    4    0    0 -0.32491618261E+01 -0.17736140775E+03  0.32066736481E+03  0.36768897844E+03  0.30000000000E+02 0.  1.
    -200000    1    3    3    0    0  0.10475296904E+03  0.13018305415E+03  0.25983910525E+03  0.32502026510E+03  0.10100000000E+03 0.  1.
<mgrwt>
<rscale>  0 0.14934864E+04</rscale>
<asrwt>0</asrwt>
<pdfrwt beam="1">  1        2 0.17121470E+00 0.14934864E+04</pdfrwt>
<pdfrwt beam="2">  1       -2 0.66466898E-01 0.14934864E+04</pdfrwt>
<totfact> 0.43140283E+01</totfact>
</mgrwt>
</event>
<event>
 8    2  0.4306980E-052  0.1688991E+04  0.7818608E-02  0.8767668E-01
          2   -1    0    0  501    0  0.00000000000E+00  0.00000000000E+00  0.36209282359E+03  0.36209282360E+03  0.25500000000E-02 0.  1.
         -2   -1    0    0    0  501 -0.00000000000E+00 -0.00000000000E+00 -0.19695850003E+04  0.19695850003E+04  0.25500000000E-02 0. -1.
    -200001    2    1    2    0    0 -0.51030971791E+03  0.23784712164E+03 -0.10003669690E+04  0.13014558676E+04  0.61324223689E+03 0.  0.
   -5000001    2    3    3    0    0 -0.50184173369E+03 -0.67708889724E+02 -0.63120569003E+03  0.81164240029E+03  0.62555122902E+02 0.  0.
     200001    1    1    2    0    0  0.51030971791E+03 -0.23784712164E+03 -0.60712520770E+03  0.10302219563E+04  0.61300000000E+03 0.  1.
         13    1    4    4    0    0 -0.16628941285E+03 -0.65728271882E+01 -0.23551551796E+03  0.28837985583E+03  0.10566000000E+00 0.  1.
    -200003    1    4    4    0    0 -0.33555232085E+03 -0.61136062536E+02 -0.39569017206E+03  0.52326254446E+03  0.30000000000E+02 0. -1.
    -200000    1    3    3    0    0 -0.84679842119E+01  0.30555601136E+03 -0.36916127901E+03  0.48981346731E+03  0.10100000000E+03 0.  1.
<mgrwt>
<rscale>  0 0.16889909E+04</rscale>
<asrwt>0</asrwt>
<pdfrwt beam="1">  1        2 0.51727547E-01 0.16889909E+04</pdfrwt>
<pdfrwt beam="2">  1       -2 0.28136928E+00 0.16889909E+04</pdfrwt>
<totfact> 0.38186774E+00</totfact>
</mgrwt>
</event>
<event>
 8    2  0.4306980E-052  0.1778042E+04  0.7818608E-02  0.8718065E-01
         -2   -1    0    0    0  501 -0.00000000000E+00  0.00000000000E+00  0.18877925819E+03  0.18877925820E+03  0.25500000000E-02 0. -1.
          2   -1    0    0  501    0  0.00000000000E+00 -0.00000000000E+00 -0.41866783983E+04  0.41866783983E+04  0.25500000000E-02 0.  1.
    -200001    2    1    2    0    0 -0.14659625979E+03  0.46831922610E+03 -0.96023296501E+03  0.12379430108E+04  0.60798206377E+03 0.  0.
   -5000001    2    3    3    0    0  0.20745538093E+03  0.25376228778E+03 -0.55640716225E+03  0.65086250260E+03  0.81240589057E+02 0.  0.
     200001    1    1    2    0    0  0.14659625979E+03 -0.46831922610E+03 -0.30376661751E+04  0.31375146457E+04  0.61300000000E+03 0.  1.
         13    1    4    4    0    0  0.34756941311E+02  0.16770140336E+02 -0.36026872353E+02  0.52794216272E+02  0.10566000000E+00 0.  1.
    -200003    1    4    4    0    0  0.17269843962E+03  0.23699214745E+03 -0.52038028989E+03  0.59806828633E+03  0.30000000000E+02 0.  1.
    -200000    1    3    3    0    0 -0.35405164072E+03  0.21455693832E+03 -0.40382580277E+03  0.58708050816E+03  0.10100000000E+03 0.  1.
<mgrwt>
<rscale>  0 0.17780417E+04</rscale>
<asrwt>0</asrwt>
<pdfrwt beam="1">  1        2 0.59809686E+00 0.17780417E+04</pdfrwt>
<pdfrwt beam="2">  1       -2 0.26968468E-01 0.17780417E+04</pdfrwt>
<totfact> 0.50429210E+00</totfact>
</mgrwt>
</event>
<event>
 8    2  0.4306980E-052  0.1351440E+04  0.7818608E-02  0.8989739E-01
          2   -1    0    0  501    0  0.00000000000E+00  0.00000000000E+00  0.14908683336E+04  0.14908683337E+04  0.25500000000E-02 0.  1.
         -2   -1    0    0    0  501 -0.00000000000E+00 -0.00000000000E+00 -0.30626294075E+03  0.30626294076E+03  0.25500000000E-02 0. -1.
    -200001    2    1    2    0    0 -0.88798007135E+02 -0.21399698465E+03  0.81106044208E+03  0.10428205786E+04  0.61316875570E+03 0.  0.
   -5000001    2    3    3    0    0 -0.31576210427E+03 -0.12989669772E+03  0.62714511985E+03  0.72249042799E+03  0.11001162943E+03 0.  0.
     200001    1    1    2    0    0  0.88798007135E+02  0.21399698465E+03  0.37354495082E+03  0.75431069580E+03  0.61300000000E+03 0. -1.
         13    1    4    4    0    0 -0.17608762666E+03 -0.30229026429E+02  0.25235511583E+03  0.30919858012E+03  0.10566000000E+00 0.  1.
    -200003    1    4    4    0    0 -0.13967447761E+03 -0.99667671288E+02  0.37479000402E+03  0.41329184786E+03  0.30000000000E+02 0.  1.
    -200000    1    3    3    0    0  0.22696409714E+03 -0.84100286936E+02  0.18391532223E+03  0.32033015063E+03  0.10100000000E+03 0.  1.
<mgrwt>
<rscale>  0 0.13514403E+04</rscale>
<asrwt>0</asrwt>
<pdfrwt beam="1">  1        2 0.21298119E+00 0.13514403E+04</pdfrwt>
<pdfrwt beam="2">  1       -2 0.43751849E-01 0.13514403E+04</pdfrwt>
<totfact> 0.71550266E+01</totfact>
</mgrwt>
</event>
<event>
 8    2  0.4306980E-052  0.1781324E+04  0.7818608E-02  0.8716295E-01
         -2   -1    0    0    0  501 -0.00000000000E+00  0.00000000000E+00  0.42628737856E+03  0.42628737857E+03  0.25500000000E-02 0. -1.
          2   -1    0    0  501    0  0.00000000000E+00 -0.00000000000E+00 -0.18609018683E+04  0.18609018683E+04  0.25500000000E-02 0.  1.
    -200001    2    1    2    0    0 -0.54682381204E+03  0.24076801920E+03 -0.10346546917E+04  0.13423493871E+04  0.61188726555E+03 0.  0.
   -5000001    2    3    3    0    0 -0.47177678497E+03 -0.10536950035E+03 -0.57088689896E+03  0.75012915425E+03  0.55729975871E+02 0.  0.
     200001    1    1    2    0    0  0.54682381204E+03 -0.24076801920E+03 -0.39995979812E+03  0.94483985976E+03  0.61300000000E+03 0. -1.
         13    1    4    4    0    0 -0.50904121187E+02 -0.50763996641E+01 -0.81488620735E+02  0.96215413842E+02  0.10566000000E+00 0.  1.
    -200003    1    4    4    0    0 -0.42087266378E+03 -0.10029310069E+03 -0.48939827823E+03  0.65391374041E+03  0.30000000000E+02 0.  1.
    -200000    1    3    3    0    0 -0.75047027066E+02  0.34613751956E+03 -0.46376779269E+03  0.59222023290E+03  0.10100000000E+03 0.  1.
<mgrwt>
<rscale>  0 0.17813242E+04</rscale>
<asrwt>0</asrwt>
<pdfrwt beam="1">  1        2 0.26584312E+00 0.17813242E+04</pdfrwt>
<pdfrwt beam="2">  1       -2 0.60898198E-01 0.17813242E+04</pdfrwt>
<totfact> 0.22518976E+01</totfact>
</mgrwt>
</event>
<event>
 8    2  0.4306980E-052  0.1428759E+04  0.7818608E-02  0.8933260E-01
          2   -1    0    0  501    0  0.00000000000E+00  0.00000000000E+00  0.19975255910E+04  0.19975255910E+04  0.25500000000E-02 0.  1.
         -2   -1    0    0    0  501 -0.00000000000E+00 -0.00000000000E+00 -0.25548515930E+03  0.25548515931E+03  0.25500000000E-02 0. -1.
    -200001    2    1    2    0    0  0.17658213784E+03  0.24169449255E+03  0.53622124984E+03  0.86759876159E+03  0.61285961133E+03 0.  0.
   -5000001    2    3    3    0    0 -0.52571610045E+02 -0.14960048983E+03  0.10880376934E+03  0.23632235142E+03  0.13735324102E+03 0.  0.
     200001    1    1    2    0    0 -0.17658213784E+03 -0.24169449255E+03  0.12058191818E+04  0.13854119887E+04  0.61300000000E+03 0.  1.
         13    1    4    4    0    0  0.32908703587E+02 -0.32667620899E+02 -0.89870930480E+01  0.47232777099E+02  0.10566000000E+00 0.  1.
    -200003    1    4    4    0    0 -0.85480313632E+02 -0.11693286893E+03  0.11779086238E+03  0.18908957432E+03  0.30000000000E+02 0.  1.
    -200000    1    3    3    0    0  0.22915374789E+03  0.39129498237E+03  0.42741748051E+03  0.63127641018E+03  0.10100000000E+03 0. -1.
<mgrwt>
<rscale>  0 0.14287591E+04</rscale>
<asrwt>0</asrwt>
<pdfrwt beam="1">  1        2 0.28536080E+00 0.14287591E+04</pdfrwt>
<pdfrwt beam="2">  1       -2 0.36497880E-01 0.14287591E+04</pdfrwt>
<totfact> 0.55300624E+01</totfact>
</mgrwt>
</event>
<event>
 8    2  0.4306980E-052  0.3314797E+04  0.7818608E-02  0.8159141E-01
         -2   -1    0    0    0  501 -0.00000000000E+00  0.00000000000E+00  0.88106798336E+03  0.88106798336E+03  0.25500000000E-02 0. -1.
          2   -1    0    0  501    0  0.00000000000E+00 -0.00000000000E+00 -0.31177719096E+04  0.31177719096E+04  0.25500000000E-02 0.  1.
    -200001    2    1    2    0    0 -0.96996406072E+03  0.87897139329E+02  0.32100356724E+03  0.11941665058E+04  0.61191026081E+03 0.  0.
   -5000001    2    3    3    0    0 -0.52401886974E+03 -0.18224778860E+03 -0.72222575403E-01  0.57357319436E+03  0.14552034832E+03 0.  0.
     200001    1    1    2    0    0  0.96996406072E+03 -0.87897139329E+02 -0.25577074935E+04  0.28046733871E+04  0.61300000000E+03 0.  1.
         13    1    4    4    0    0 -0.41631696616E+03 -0.14315367480E+03 -0.53799391588E+02  0.44351682789E+03  0.10566000000E+00 0.  1.
    -200003    1    4    4    0    0 -0.10770190358E+03 -0.39094113794E+02  0.53727169013E+02  0.13005636647E+03  0.30000000000E+02 0.  1.
    -200000    1    3    3    0    0 -0.44594519098E+03  0.27014492793E+03  0.32107578982E+03  0.62059331148E+03  0.10100000000E+03 0. -1.
<mgrwt>
<rscale>  0 0.33147965E+04</rscale>
<asrwt>0</asrwt>
<pdfrwt beam="1">  1        2 0.44539598E+00 0.33147965E+04</pdfrwt>
<pdfrwt beam="2">  1       -2 0.12586686E+00 0.33147965E+04</pdfrwt>
<totfact> 0.80131707E-01</totfact>
</mgrwt>
</event>
<event>
 8    2  0.4306980E-052  0.1470771E+04  0.7818608E-02  0.8904126E-01
         -2   -1    0    0    0  501 -0.00000000000E+00  0.00000000000E+00  0.16801870952E+03  0.16801870954E+03  0.25500000000E-02 0. -1.
          2   -1    0    0  501    0  0.00000000000E+00 -0.00000000000E+00 -0.32186404295E+04  0.32186404295E+04  0.25500000000E-02 0.  1.
    -200001    2    1    2    0    0  0.24971571282E+02 -0.39250465716E+03 -0.17569717122E+04  0.19020774378E+04  0.61340483888E+03 0.  0.
   -5000001    2    3    3    0    0 -0.98708832165E+02  0.60959861646E+02 -0.96448377594E+03  0.97516587715E+03  0.85205607918E+02 0.  0.
     200001    1    1    2    0    0 -0.24971571282E+02  0.39250465716E+03 -0.12936500078E+04  0.14845817013E+04  0.61300000000E+03 0. -1.
         13    1    4    4    0    0 -0.15891461484E+02 -0.16952802638E+02 -0.24905163904E+03  0.25013329674E+03  0.10566000000E+00 0.  1.
    -200003    1    4    4    0    0 -0.82817370681E+02  0.77912664284E+02 -0.71543213690E+03  0.72503258041E+03  0.30000000000E+02 0.  1.
    -200000    1    3    3    0    0  0.12368040345E+03 -0.45346451881E+03 -0.79248793629E+03  0.92691156060E+03  0.10100000000E+03 0.  1.
<mgrwt>
<rscale>  0 0.14707710E+04</rscale>
<asrwt>0</asrwt>
<pdfrwt beam="1">  1        2 0.45980574E+00 0.14707710E+04</pdfrwt>
<pdfrwt beam="2">  1       -2 0.24002675E-01 0.14707710E+04</pdfrwt>
<totfact> 0.26698279E+01</totfact>
</mgrwt>
</event>
<event>
 8    2  0.4306980E-052  0.1574922E+04  0.7818608E-02  0.8836104E-01
         -2   -1    0    0    0  501 -0.00000000000E+00  0.00000000000E+00  0.53053270161E+03  0.53053270162E+03  0.25500000000E-02 0. -1.
          2   -1    0    0  501    0  0.00000000000E+00 -0.00000000000E+00 -0.11688151450E+04  0.11688151450E+04  0.25500000000E-02 0.  1.
    -200001    2    1    2    0    0  0.40607897330E+03  0.18158573219E+03 -0.55131466545E+03  0.93697923161E+03  0.61327702503E+03 0.  0.
   -5000001    2    3    3    0    0  0.28031786353E+03  0.39525759280E+03 -0.35558425038E+03  0.60534250847E+03  0.72060559059E+02 0.  0.
     200001    1    1    2    0    0 -0.40607897330E+03 -0.18158573219E+03 -0.86967777896E+02  0.76236861497E+03  0.61300000000E+03 0. -1.
         13    1    4    4    0    0  0.18916400258E+03  0.23210784678E+03 -0.23820942020E+03  0.38262358976E+03  0.10566000000E+00 0.  1.
    -200003    1    4    4    0    0  0.91153860948E+02  0.16314974602E+03 -0.11737483018E+03  0.22271891871E+03  0.30000000000E+02 0. -1.
    -200000    1    3    3    0    0  0.12576110977E+03 -0.21367186061E+03 -0.19573041507E+03  0.33163672313E+03  0.10100000000E+03 0.  1.
<mgrwt>
<rscale>  0 0.15749218E+04</rscale>
<asrwt>0</asrwt>
<pdfrwt beam="1">  1        2 0.16697359E+00 0.15749218E+04</pdfrwt>
<pdfrwt beam="2">  1       -2 0.75790386E-01 0.15749218E+04</pdfrwt>
<totfact> 0.33454532E+01</totfact>
</mgrwt>
</event>
<event>
 8    2  0.4306980E-052  0.2237829E+04  0.7818608E-02  0.8502846E-01
          2   -1    0    0  501    0  0.00000000000E+00  0.00000000000E+00  0.52432908179E+03  0.52432908180E+03  0.25500000000E-02 0.  1.
         -2   -1    0    0    0  501 -0.00000000000E+00 -0.00000000000E+00 -0.23877558102E+04  0.23877558102E+04  0.25500000000E-02 0. -1.
    -200001    2    1    2    0    0  0.43168767337E+03  0.45363010765E+03 -0.18371522550E+04  0.20353900364E+04  0.61282107512E+03 0.  0.
   -5000001    2    3    3    0    0  0.42618923039E+03  0.30177874666E+03 -0.17591703709E+04  0.18369681551E+04  0.84047231585E+02 0.  0.
     200001    1    1    2    0    0 -0.43168767337E+03 -0.45363010765E+03 -0.26274473367E+02  0.87669485561E+03  0.61300000000E+03 0.  1.
         13    1    4    4    0    0  0.39843407892E+02  0.11316692141E+02 -0.92205627858E+02  0.10108142088E+03  0.10566000000E+00 0.  1.
    -200003    1    4    4    0    0  0.38634582250E+03  0.29046205452E+03 -0.16669647430E+04  0.17358867342E+04  0.30000000000E+02 0.  1.
    -200000    1    3    3    0    0  0.54984429784E+01  0.15185136099E+03 -0.77981884184E+02  0.19842188128E+03  0.10100000000E+03 0.  1.
<mgrwt>
<rscale>  0 0.22378291E+04</rscale>
<asrwt>0</asrwt>
<pdfrwt beam="1">  1        2 0.74904155E-01 0.22378291E+04</pdfrwt>
<pdfrwt beam="2">  1       -2 0.34110797E+00 0.22378291E+04</pdfrwt>
<totfact> 0.10300335E+00</totfact>
</mgrwt>
</event>
<event>
 8    2  0.4306980E-052  0.1347062E+04  0.7818608E-02  0.8993055E-01
         -2   -1    0    0    0  501 -0.00000000000E+00  0.00000000000E+00  0.27344204668E+03  0.27344204669E+03  0.25500000000E-02 0. -1.
          2   -1    0    0  501    0  0.00000000000E+00 -0.00000000000E+00 -0.16590131161E+04  0.16590131161E+04  0.25500000000E-02 0.  1.
    -200001    2    1    2    0    0  0.27111636885E+03 -0.45598154897E+02 -0.76264282974E+03  0.10162718465E+04  0.61286303783E+03 0.  0.
   -5000001    2    3    3    0    0  0.37962973605E+03 -0.26101460932E+02 -0.77015000166E+03  0.86656336459E+03  0.11402200247E+03 0.  0.
     200001    1    1    2    0    0 -0.27111636885E+03  0.45598154897E+02 -0.62292823970E+03  0.91618331626E+03  0.61300000000E+03 0. -1.
         13    1    4    4    0    0  0.31993537767E+02 -0.21957209401E+02 -0.32795202770E+02  0.50805924775E+02  0.10566000000E+00 0.  1.
    -200003    1    4    4    0    0  0.34763619828E+03 -0.41442515309E+01 -0.73735479889E+03  0.81575743982E+03  0.30000000000E+02 0.  1.
    -200000    1    3    3    0    0 -0.10851336720E+03 -0.19496693965E+02  0.75071719204E+01  0.14970848195E+03  0.10100000000E+03 0.  1.
<mgrwt>
<rscale>  0 0.13470619E+04</rscale>
<asrwt>0</asrwt>
<pdfrwt beam="1">  1        2 0.23700187E+00 0.13470619E+04</pdfrwt>
<pdfrwt beam="2">  1       -2 0.39063150E-01 0.13470619E+04</pdfrwt>
<totfact> 0.72948223E+01</totfact>
</mgrwt>
</event>
<event>
 8    2  0.4306980E-052  0.1556879E+04  0.7818608E-02  0.8847486E-01
          2   -1    0    0  501    0  0.00000000000E+00  0.00000000000E+00  0.97972710138E+03  0.97972710138E+03  0.25500000000E-02 0.  1.
         -2   -1    0    0    0  501 -0.00000000000E+00 -0.00000000000E+00 -0.61850681211E+03  0.61850681212E+03  0.25500000000E-02 0. -1.
    -200001    2    1    2    0    0 -0.19920714256E+03 -0.85629890400E+02 -0.25821263041E+03  0.70019042582E+03  0.61365862345E+03 0.  0.
   -5000001    2    3    3    0    0 -0.13979630606E+01 -0.75686755843E+02  0.17846269962E+03  0.21017646553E+03  0.81208202764E+02 0.  0.
     200001    1    1    2    0    0  0.19920714256E+03  0.85629890400E+02  0.61943291968E+03  0.89804348768E+03  0.61300000000E+03 0.  1.
         13    1    4    4    0    0  0.54375271325E+01 -0.39142679652E+01  0.97359682577E+02  0.97589995136E+02  0.10566000000E+00 0.  1.
    -200003    1    4    4    0    0 -0.68354901932E+01 -0.71772487878E+02  0.81103017045E+02  0.11258647040E+03  0.30000000000E+02 0.  1.
    -200000    1    3    3    0    0 -0.19780917950E+03 -0.99431345574E+01 -0.43667533004E+03  0.49001396029E+03  0.10100000000E+03 0. -1.
<mgrwt>
<rscale>  0 0.15568788E+04</rscale>
<asrwt>0</asrwt>
<pdfrwt beam="1">  1        2 0.13996101E+00 0.15568788E+04</pdfrwt>
<pdfrwt beam="2">  1       -2 0.88358118E-01 0.15568788E+04</pdfrwt>
<totfact> 0.30743682E+01</totfact>
</mgrwt>
</event>
<event>
 8    2  0.4306980E-052  0.1448463E+04  0.7818608E-02  0.8919467E-01
          2   -1    0    0  501    0  0.00000000000E+00  0.00000000000E+00  0.11772307192E+04  0.11772307192E+04  0.25500000000E-02 0.  1.
         -2   -1    0    0    0  501 -0.00000000000E+00 -0.00000000000E+00 -0.44554687100E+03  0.44554687100E+03  0.25500000000E-02 0. -1.
    -200001    2    1    2    0    0  0.22620151568E+03 -0.31054847947E+03  0.32885980476E+03  0.79474154402E+03  0.61307248087E+03 0.  0.
   -5000001    2    3    3    0    0  0.28100354171E+03  0.72321412053E+02  0.23655408550E+03  0.38448069809E+03  0.87602481353E+02 0.  0.
     200001    1    1    2    0    0 -0.22620151568E+03  0.31054847947E+03  0.40282404341E+03  0.82803604616E+03  0.61300000000E+03 0. -1.
         13    1    4    4    0    0  0.19202626206E+03  0.33888315035E+02  0.19205162460E+03  0.27369022798E+03  0.10566000000E+00 0.  1.
    -200003    1    4    4    0    0  0.88977279653E+02  0.38433097018E+02  0.44502460906E+02  0.11079047011E+03  0.30000000000E+02 0.  1.
    -200000    1    3    3    0    0 -0.54802026031E+02 -0.38286989152E+03  0.92305719261E+02  0.41026084593E+03  0.10100000000E+03 0.  1.
<mgrwt>
<rscale>  0 0.14484633E+04</rscale>
<asrwt>0</asrwt>
<pdfrwt beam="1">  1        2 0.16817581E+00 0.14484633E+04</pdfrwt>
<pdfrwt beam="2">  1       -2 0.63649554E-01 0.14484633E+04</pdfrwt>
<totfact> 0.48856575E+01</totfact>
</mgrwt>
</event>
<event>
 8    2  0.4306980E-052  0.1604401E+04  0.7818608E-02  0.8817849E-01
          2   -1    0    0  501    0  0.00000000000E+00  0.00000000000E+00  0.66953302199E+03  0.66953302199E+03  0.25500000000E-02 0.  1.
         -2   -1    0    0    0  501 -0.00000000000E+00 -0.00000000000E+00 -0.96115634776E+03  0.96115634776E+03  0.25500000000E-02 0. -1.
    -200001    2    1    2    0    0 -0.25496515764E+03 -0.32006027605E+03  0.17654999760E+03  0.75753355741E+03  0.61256948751E+03 0.  0.
   -5000001    2    3    3    0    0 -0.44100909756E+03 -0.18129486768E+03  0.96994999101E+02  0.49220699650E+03  0.74181159213E+02 0.  0.
     200001    1    1    2    0    0  0.25496515764E+03  0.32006027605E+03 -0.46817332337E+03  0.87315581235E+03  0.61300000000E+03 0.  1.
         13    1    4    4    0    0 -0.27408881318E+02 -0.27658257101E+02  0.18310948570E+02  0.43029384873E+02  0.10566000000E+00 0.  1.
    -200003    1    4    4    0    0 -0.41360021624E+03 -0.15363661058E+03  0.78684050531E+02  0.44917761163E+03  0.30000000000E+02 0.  1.
    -200000    1    3    3    0    0  0.18604393991E+03 -0.13876540836E+03  0.79554998501E+02  0.26532656091E+03  0.10100000000E+03 0. -1.
<mgrwt>
<rscale>  0 0.16044013E+04</rscale>
<asrwt>0</asrwt>
<pdfrwt beam="1">  1        2 0.95647575E-01 0.16044013E+04</pdfrwt>
<pdfrwt beam="2">  1       -2 0.13730805E+00 0.16044013E+04</pdfrwt>
<totfact> 0.17248232E+01</totfact>
</mgrwt>
</event>
<event>
 8    2  0.4306980E-052  0.1497205E+04  0.7818608E-02  0.8886314E-01
          2   -1    0    0  501    0  0.00000000000E+00  0.00000000000E+00  0.16027659300E+04  0.16027659300E+04  0.25500000000E-02 0.  1.
         -2   -1    0    0    0  501 -0.00000000000E+00 -0.00000000000E+00 -0.34964898071E+03  0.34964898072E+03  0.25500000000E-02 0. -1.
    -200001    2    1    2    0    0 -0.38560192539E+03  0.17548692867E+03  0.71023226233E+03  0.10304727811E+04  0.61478433550E+03 0.  0.
   -5000001    2    3    3    0    0  0.96991717289E+02 -0.10372301276E+03  0.24447383758E+03  0.29699699722E+03  0.90960994373E+02 0.  0.
     200001    1    1    2    0    0  0.38560192539E+03 -0.17548692867E+03  0.54288468695E+03  0.92194212959E+03  0.61300000000E+03 0. -1.
         13    1    4    4    0    0  0.97550878484E+02 -0.97638546838E+02  0.20098341249E+03  0.24381099849E+03  0.10566000000E+00 0.  1.
    -200003    1    4    4    0    0 -0.55916119517E+00 -0.60844659173E+01  0.43490425087E+02  0.53185998731E+02  0.30000000000E+02 0. -1.
    -200000    1    3    3    0    0 -0.48259364268E+03  0.27920994143E+03  0.46575842475E+03  0.73347578390E+03  0.10100000000E+03 0.  1.
<mgrwt>
<rscale>  0 0.14972047E+04</rscale>
<asrwt>0</asrwt>
<pdfrwt beam="1">  1        2 0.22896656E+00 0.14972047E+04</pdfrwt>
<pdfrwt beam="2">  1       -2 0.49949855E-01 0.14972047E+04</pdfrwt>
<totfact> 0.47321043E+01</totfact>
</mgrwt>
</event>
<event>
 8    2  0.4306980E-052  0.1536831E+04  0.7818608E-02  0.8860323E-01
          2   -1    0    0  501    0  0.00000000000E+00  0.00000000000E+00  0.42701297728E+04  0.42701297728E+04  0.25500000000E-02 0.  1.
         -2   -1    0    0    0  501 -0.00000000000E+00 -0.00000000000E+00 -0.13827746556E+03  0.13827746558E+03  0.25500000000E-02 0. -1.
    -200001    2    1    2    0    0 -0.88417403252E+02 -0.42915172025E+03  0.25008402488E+04  0.26117553047E+04  0.61243365777E+03 0.  0.
   -5000001    2    3    3    0    0 -0.33183847741E+02  0.11818050143E+03  0.99125638997E+03  0.10018895545E+04  0.78266532889E+02 0.  0.
     200001    1    1    2    0    0  0.88417403252E+02  0.42915172025E+03  0.16310120585E+04  0.17966519338E+04  0.61300000000E+03 0.  1.
         13    1    4    4    0    0 -0.85452954418E+01  0.54573376240E+02  0.21199844678E+03  0.21907676296E+03  0.10566000000E+00 0.  1.
    -200003    1    4    4    0    0 -0.24638552299E+02  0.63607125192E+02  0.77925794319E+03  0.78281279158E+03  0.30000000000E+02 0.  1.
    -200000    1    3    3    0    0 -0.55233555511E+02 -0.54733222168E+03  0.15095838588E+04  0.16098657501E+04  0.10100000000E+03 0.  1.
<mgrwt>
<rscale>  0 0.15368314E+04</rscale>
<asrwt>0</asrwt>
<pdfrwt beam="1">  1        2 0.61001851E+00 0.15368314E+04</pdfrwt>
<pdfrwt beam="2">  1       -2 0.19753925E-01 0.15368314E+04</pdfrwt>
<totfact> 0.78629474E+00</totfact>
</mgrwt>
</event>
<event>
 8    2  0.4306980E-052  0.1504409E+04  0.7818608E-02  0.8881526E-01
         -2   -1    0    0    0  501 -0.00000000000E+00  0.00000000000E+00  0.10384964392E+04  0.10384964392E+04  0.25500000000E-02 0.  1.
          2   -1    0    0  501    0  0.00000000000E+00 -0.00000000000E+00 -0.54483763620E+03  0.54483763621E+03  0.25500000000E-02 0. -1.
    -200001    2    1    2    0    0 -0.28052898798E+03  0.33239851193E+03  0.22367056317E+03  0.78468024960E+03  0.61360352790E+03 0.  0.
   -5000001    2    3    3    0    0 -0.11967151674E+03  0.30694486503E+03 -0.14649678128E+03  0.36784949607E+03  0.72907631611E+02 0.  0.
     200001    1    1    2    0    0  0.28052898798E+03 -0.33239851193E+03  0.26998823983E+03  0.79865382581E+03  0.61300000000E+03 0. -1.
         13    1    4    4    0    0 -0.60446554610E+02  0.12608036985E+03 -0.92895333653E+02  0.16786780455E+03  0.10566000000E+00 0.  1.
    -200003    1    4    4    0    0 -0.59224962133E+02  0.18086449518E+03 -0.53601447625E+02  0.19998169152E+03  0.30000000000E+02 0.  1.
    -200000    1    3    3    0    0 -0.16085747124E+03  0.25453646900E+02  0.37016734445E+03  0.41683075353E+03  0.10100000000E+03 0.  1.
<mgrwt>
<rscale>  0 0.15044094E+04</rscale>
<asrwt>0</asrwt>
<pdfrwt beam="1">  1        2 0.77833949E-01 0.15044094E+04</pdfrwt>
<pdfrwt beam="2">  1       -2 0.14835663E+00 0.15044094E+04</pdfrwt>
<totfact> 0.18136625E+01</totfact>
</mgrwt>
</event>
<event>
 8    2  0.4306980E-052  0.1783089E+04  0.7818608E-02  0.8715345E-01
          2   -1    0    0  501    0  0.00000000000E+00  0.00000000000E+00  0.34495503173E+04  0.34495503173E+04  0.25500000000E-02 0. -1.
         -2   -1    0    0    0  501 -0.00000000000E+00 -0.00000000000E+00 -0.23042175663E+03  0.23042175664E+03  0.25500000000E-02 0.  1.
    -200001    2    1    2    0    0 -0.62565648567E+03  0.14852889588E+03  0.14583858349E+04  0.17077928688E+04  0.61331914059E+03 0.  0.
   -5000001    2    3    3    0    0 -0.18725022318E+03  0.30002568995E+03  0.79444764509E+03  0.89160278706E+03  0.19680042781E+03 0.  0.
     200001    1    1    2    0    0  0.62565648567E+03 -0.14852889588E+03  0.17607427258E+04  0.19721792052E+04  0.61300000000E+03 0.  1.
         13    1    4    4    0    0 -0.19605648697E+03  0.26869447259E+03  0.77479376130E+03  0.84317272809E+03  0.10566000000E+00 0.  1.
    -200003    1    4    4    0    0  0.88062637962E+01  0.31331217359E+02  0.19653883790E+02  0.48430058964E+02  0.30000000000E+02 0.  1.
    -200000    1    3    3    0    0 -0.43840626250E+03 -0.15149679406E+03  0.66393818983E+03  0.81619008174E+03  0.10100000000E+03 0. -1.
<mgrwt>
<rscale>  0 0.17830888E+04</rscale>
<asrwt>0</asrwt>
<pdfrwt beam="1">  1        2 0.49279287E+00 0.17830888E+04</pdfrwt>
<pdfrwt beam="2">  1       -2 0.32917396E-01 0.17830888E+04</pdfrwt>
<totfact> 0.10586641E+01</totfact>
</mgrwt>
</event>
<event>
 8    2  0.4306980E-052  0.1292716E+04  0.7818608E-02  0.9035362E-01
          2   -1    0    0  501    0  0.00000000000E+00  0.00000000000E+00  0.13309467141E+04  0.13309467141E+04  0.25500000000E-02 0.  1.
         -2   -1    0    0    0  501 -0.00000000000E+00 -0.00000000000E+00 -0.31389565459E+03  0.31389565460E+03  0.25500000000E-02 0. -1.
    -200001    2    1    2    0    0  0.66191202902E+02 -0.29313088495E+02  0.26528203231E+03  0.67213161891E+03  0.61330728348E+03 0.  0.
   -5000001    2    3    3    0    0 -0.14737490945E+03  0.15099025817E+03 -0.57770259824E+02  0.23317425809E+03  0.80718087935E+02 0.  0.
     200001    1    1    2    0    0 -0.66191202902E+02  0.29313088495E+02  0.75176902722E+03  0.97271074980E+03  0.61300000000E+03 0.  1.
         13    1    4    4    0    0 -0.31063927418E+02  0.65126315847E+02 -0.44851006151E+02  0.84958981393E+02  0.10566000000E+00 0.  1.
    -200003    1    4    4    0    0 -0.11631098203E+03  0.85863942325E+02 -0.12919253673E+02  0.14821527670E+03  0.30000000000E+02 0.  1.
    -200000    1    3    3    0    0  0.21356611235E+03 -0.18030334667E+03  0.32305229213E+03  0.43895736082E+03  0.10100000000E+03 0.  1.
<mgrwt>
<rscale>  0 0.12927156E+04</rscale>
<asrwt>0</asrwt>
<pdfrwt beam="1">  1        2 0.19013525E+00 0.12927156E+04</pdfrwt>
<pdfrwt beam="2">  1       -2 0.44842236E-01 0.12927156E+04</pdfrwt>
<totfact> 0.83476363E+01</totfact>
</mgrwt>
</event>
<event>
 8    2  0.4306980E-052  0.1643518E+04  0.7818608E-02  0.8794250E-01
          2   -1    0    0  501    0  0.00000000000E+00  0.00000000000E+00  0.23875666203E+04  0.23875666203E+04  0.25500000000E-02 0.  1.
         -2   -1    0    0    0  501 -0.00000000000E+00 -0.00000000000E+00 -0.28283522132E+03  0.28283522133E+03  0.25500000000E-02 0. -1.
    -200001    2    1    2    0    0 -0.42499641840E+03  0.17165494456E+03  0.56658631906E+03  0.95233704003E+03  0.61305660849E+03 0.  0.
   -5000001    2    3    3    0    0 -0.15560936334E+03 -0.42614299746E+02 -0.75654527566E+02  0.21670465930E+03  0.12331686552E+03 0.  0.
     200001    1    1    2    0    0  0.42499641840E+03 -0.17165494456E+03  0.15381450799E+04  0.17180648016E+04  0.61300000000E+03 0.  1.
         13    1    4    4    0    0 -0.58285187984E+02 -0.67577091126E+02 -0.32904328867E+01  0.89300977016E+02  0.10566000000E+00 0.  1.
    -200003    1    4    4    0    0 -0.97324175354E+02  0.24962791381E+02 -0.72364094679E+02  0.12740368229E+03  0.30000000000E+02 0.  1.
    -200000    1    3    3    0    0 -0.26938705506E+03  0.21426924431E+03  0.64224084663E+03  0.73563238072E+03  0.10100000000E+03 0.  1.
<mgrwt>
<rscale>  0 0.16435181E+04</rscale>
<asrwt>0</asrwt>
<pdfrwt beam="1">  1        2 0.34108095E+00 0.16435181E+04</pdfrwt>
<pdfrwt beam="2">  1       -2 0.40405031E-01 0.16435181E+04</pdfrwt>
<totfact> 0.28067040E+01</totfact>
</mgrwt>
</event>
<event>
 8    2  0.4306980E-052  0.1410745E+04  0.7818608E-02  0.8946077E-01
          2   -1    0    0  501    0  0.00000000000E+00  0.00000000000E+00  0.25529524214E+04  0.25529524214E+04  0.25500000000E-02 0.  1.
         -2   -1    0    0    0  501 -0.00000000000E+00 -0.00000000000E+00 -0.19489217961E+03  0.19489217963E+03  0.25500000000E-02 0. -1.
    -200001    2    1    2    0    0 -0.24241141882E+02 -0.19454194092E+03  0.61635848921E+03  0.89103868908E+03  0.61287678898E+03 0.  0.
   -5000001    2    3    3    0    0  0.16081890647E+03 -0.18839936214E+03  0.60408281180E+03  0.67976482646E+03  0.18922773435E+03 0.  0.
     200001    1    1    2    0    0  0.24241141882E+02  0.19454194092E+03  0.17417017526E+04  0.18568059119E+04  0.61300000000E+03 0.  1.
         13    1    4    4    0    0  0.13980217741E+03 -0.22392385911E+02  0.28419640482E+03  0.31751169338E+03  0.10566000000E+00 0.  1.
    -200003    1    4    4    0    0  0.21016729057E+02 -0.16600697623E+03  0.31988640698E+03  0.36225313308E+03  0.30000000000E+02 0.  1.
    -200000    1    3    3    0    0 -0.18506004835E+03 -0.61425787845E+01  0.12275677414E+02  0.21127386262E+03  0.10100000000E+03 0. -1.
<mgrwt>
<rscale>  0 0.14107451E+04</rscale>
<asrwt>0</asrwt>
<pdfrwt beam="1">  1        2 0.36470749E+00 0.14107451E+04</pdfrwt>
<pdfrwt beam="2">  1       -2 0.27841740E-01 0.14107451E+04</pdfrwt>
<totfact> 0.47511222E+01</totfact>
</mgrwt>
</event>
<event>
 8    2  0.4306980E-052  0.1548604E+04  0.7818608E-02  0.8852760E-01
          2   -1    0    0  501    0  0.00000000000E+00  0.00000000000E+00  0.17615022407E+04  0.17615022407E+04  0.25500000000E-02 0.  1.
         -2   -1    0    0    0  501 -0.00000000000E+00 -0.00000000000E+00 -0.34035946212E+03  0.34035946213E+03  0.25500000000E-02 0. -1.
    -200001    2    1    2    0    0 -0.32210216138E+02 -0.81365074689E+02  0.79494714089E+02  0.62421279245E+03  0.61291469822E+03 0.  0.
   -5000001    2    3    3    0    0 -0.15834344953E+03  0.15507735130E+03 -0.87244677267E+02  0.29282534852E+03  0.17033325609E+03 0.  0.
     200001    1    1    2    0    0  0.32210216138E+02  0.81365074689E+02  0.13416480645E+04  0.14776489104E+04  0.61300000000E+03 0.  1.
         13    1    4    4    0    0 -0.26269586354E+02  0.23884265027E+02 -0.97723944033E+02  0.10397369708E+03  0.10566000000E+00 0.  1.
    -200003    1    4    4    0    0 -0.13207386317E+03  0.13119308627E+03  0.10479266766E+02  0.18885165144E+03  0.30000000000E+02 0.  1.
    -200000    1    3    3    0    0  0.12613323339E+03 -0.23644242599E+03  0.16673939136E+03  0.33138744394E+03  0.10100000000E+03 0.  1.
<mgrwt>
<rscale>  0 0.15486045E+04</rscale>
<asrwt>0</asrwt>
<pdfrwt beam="1">  1        2 0.25164318E+00 0.15486045E+04</pdfrwt>
<pdfrwt beam="2">  1       -2 0.48622780E-01 0.15486045E+04</pdfrwt>
<totfact> 0.41154724E+01</totfact>
</mgrwt>
</event>
<event>
 8    2  0.4306980E-052  0.1470117E+04  0.7818608E-02  0.8904571E-01
         -2   -1    0    0    0  501 -0.00000000000E+00  0.00000000000E+00  0.38939688480E+03  0.38939688481E+03  0.25500000000E-02 0. -1.
          2   -1    0    0  501    0  0.00000000000E+00 -0.00000000000E+00 -0.13875593809E+04  0.13875593809E+04  0.25500000000E-02 0.  1.
    -200001    2    1    2    0    0 -0.97515503918E+02  0.59417494167E+02 -0.28315305542E+02  0.62395484111E+03  0.61276273965E+03 0.  0.
   -5000001    2    3    3    0    0 -0.78359767598E+02 -0.25427480648E+03  0.61788635561E+02  0.28177137873E+03  0.69147263137E+02 0.  0.
     200001    1    1    2    0    0  0.97515503918E+02 -0.59417494167E+02 -0.96984719060E+03  0.11530014246E+04  0.61300000000E+03 0.  1.
         13    1    4    4    0    0  0.72749919077E+01 -0.16217295927E+02 -0.48728244248E+01  0.18430457845E+02  0.10566000000E+00 0.  1.
    -200003    1    4    4    0    0 -0.85634759506E+02 -0.23805751056E+03  0.66661459986E+02  0.26334092089E+03  0.30000000000E+02 0.  1.
    -200000    1    3    3    0    0 -0.19155736320E+02  0.31369230065E+03 -0.90103941103E+02  0.34218346238E+03  0.10100000000E+03 0.  1.
<mgrwt>
<rscale>  0 0.14701174E+04</rscale>
<asrwt>0</asrwt>
<pdfrwt beam="1">  1        2 0.19822277E+00 0.14701174E+04</pdfrwt>
<pdfrwt beam="2">  1       -2 0.55628127E-01 0.14701174E+04</pdfrwt>
<totfact> 0.49472745E+01</totfact>
</mgrwt>
</event>
<event>
 8    2  0.4306980E-052  0.1391965E+04  0.7818608E-02  0.8959655E-01
         -2   -1    0    0    0  501 -0.00000000000E+00  0.00000000000E+00  0.31122504234E+03  0.31122504235E+03  0.25500000000E-02 0. -1.
          2   -1    0    0  501    0  0.00000000000E+00 -0.00000000000E+00 -0.15564027662E+04  0.15564027663E+04  0.25500000000E-02 0.  1.
    -200001    2    1    2    0    0 -0.30332899149E+03 -0.12403564870E+03 -0.66744846320E+03  0.96378411752E+03  0.61318761806E+03 0.  0.
   -5000001    2    3    3    0    0  0.76157548143E+02  0.56583041971E+02  0.45765411864E+02  0.12981278902E+03  0.75863525440E+02 0.  0.
     200001    1    1    2    0    0  0.30332899149E+03  0.12403564870E+03 -0.57772926071E+03  0.90384369108E+03  0.61300000000E+03 0.  1.
         13    1    4    4    0    0 -0.12100782293E+02  0.12353858630E+02  0.12734991755E+02  0.21476450689E+02  0.10566000000E+00 0.  1.
    -200003    1    4    4    0    0  0.88258330437E+02  0.44229183341E+02  0.33030420109E+02  0.10833633833E+03  0.30000000000E+02 0.  1.
    -200000    1    3    3    0    0 -0.37948653964E+03 -0.18061869067E+03 -0.71321387506E+03  0.83397132850E+03  0.10100000000E+03 0.  1.
<mgrwt>
<rscale>  0 0.13919648E+04</rscale>
<asrwt>0</asrwt>
<pdfrwt beam="1">  1        2 0.22234325E+00 0.13919648E+04</pdfrwt>
<pdfrwt beam="2">  1       -2 0.44460721E-01 0.13919648E+04</pdfrwt>
<totfact> 0.63784426E+01</totfact>
</mgrwt>
</event>
<event>
 8    2  0.4306980E-052  0.1471622E+04  0.7818608E-02  0.8903546E-01
         -2   -1    0    0    0  501 -0.00000000000E+00  0.00000000000E+00  0.80724510806E+03  0.80724510806E+03  0.25500000000E-02 0. -1.
          2   -1    0    0  501    0  0.00000000000E+00 -0.00000000000E+00 -0.67069823945E+03  0.67069823945E+03  0.25500000000E-02 0.  1.
    -200001    2    1    2    0    0  0.13769175638E+01 -0.36928695955E+03  0.24063729014E+03  0.75477077458E+03  0.61269720284E+03 0.  0.
   -5000001    2    3    3    0    0 -0.70479783694E+02 -0.26686925376E+03 -0.15405820540E+03  0.32858031696E+03  0.89691111776E+02 0.  0.
     200001    1    1    2    0    0 -0.13769175638E+01  0.36928695955E+03 -0.10409042153E+03  0.72317257294E+03  0.61300000000E+03 0.  1.
         13    1    4    4    0    0  0.10886391124E+02 -0.11274235605E+03 -0.64577010932E+02  0.13038233724E+03  0.10566000000E+00 0.  1.
    -200003    1    4    4    0    0 -0.81366174817E+02 -0.15412689771E+03 -0.89481194463E+02  0.19819797972E+03  0.30000000000E+02 0.  1.
    -200000    1    3    3    0    0  0.71856701258E+02 -0.10241770579E+03  0.39469549553E+03  0.42619045762E+03  0.10100000000E+03 0. -1.
<mgrwt>
<rscale>  0 0.14716221E+04</rscale>
<asrwt>0</asrwt>
<pdfrwt beam="1">  1        2 0.95814034E-01 0.14716221E+04</pdfrwt>
<pdfrwt beam="2">  1       -2 0.11532073E+00 0.14716221E+04</pdfrwt>
<totfact> 0.26951986E+01</totfact>
</mgrwt>
</event>
<event>
 8    2  0.4306980E-052  0.1252623E+04  0.7818608E-02  0.9068003E-01
          2   -1    0    0  501    0  0.00000000000E+00  0.00000000000E+00  0.34810742866E+04  0.34810742866E+04  0.25500000000E-02 0.  1.
         -2   -1    0    0    0  501 -0.00000000000E+00 -0.00000000000E+00 -0.11268530661E+03  0.11268530664E+03  0.25500000000E-02 0. -1.
    -200001    2    1    2    0    0 -0.25282351094E+02  0.53312354201E+02  0.20072015387E+04  0.20997443139E+04  0.61366665437E+03 0.  0.
   -5000001    2    3    3    0    0 -0.22710330832E+02  0.20623245322E+03  0.18251920086E+04  0.18414428602E+04  0.12860153672E+03 0.  0.
     200001    1    1    2    0    0  0.25282351094E+02 -0.53312354201E+02  0.13611874413E+04  0.14940152793E+04  0.61300000000E+03 0.  1.
         13    1    4    4    0    0 -0.39961254950E+01  0.18024519856E+03  0.10787358835E+04  0.10936980471E+04  0.10566000000E+00 0.  1.
    -200003    1    4    4    0    0 -0.18714205337E+02  0.25987254657E+02  0.74645612505E+03  0.74774481310E+03  0.30000000000E+02 0.  1.
    -200000    1    3    3    0    0 -0.25720202619E+01 -0.15292009902E+03  0.18200953011E+03  0.25830145378E+03  0.10100000000E+03 0. -1.
<mgrwt>
<rscale>  0 0.12526227E+04</rscale>
<asrwt>0</asrwt>
<pdfrwt beam="1">  1        2 0.49729631E+00 0.12526227E+04</pdfrwt>
<pdfrwt beam="2">  1       -2 0.16097901E-01 0.12526227E+04</pdfrwt>
<totfact> 0.38512875E+01</totfact>
</mgrwt>
</event>
<event>
 8    2  0.4306980E-052  0.1471058E+04  0.7818608E-02  0.8903930E-01
          2   -1    0    0  501    0  0.00000000000E+00  0.00000000000E+00  0.27993989432E+04  0.27993989432E+04  0.25500000000E-02 0.  1.
         -2   -1    0    0    0  501 -0.00000000000E+00 -0.00000000000E+00 -0.19325687548E+03  0.19325687549E+03  0.25500000000E-02 0. -1.
    -200001    2    1    2    0    0 -0.25509188422E+03  0.24162453540E+01  0.65844935130E+03  0.93490130825E+03  0.61270482315E+03 0.  0.
   -5000001    2    3    3    0    0 -0.30996678727E+03  0.26486024712E+02  0.70954272750E+03  0.80683045928E+03  0.22526337732E+03 0.  0.
     200001    1    1    2    0    0  0.25509188422E+03 -0.24162453540E+01  0.19476927164E+04  0.20577545104E+04  0.61300000000E+03 0.  1.
         13    1    4    4    0    0 -0.20025732940E+03 -0.27085382047E+02  0.20891588803E+03  0.29065869217E+03  0.10566000000E+00 0.  1.
    -200003    1    4    4    0    0 -0.10970945787E+03  0.53571406759E+02  0.50062683946E+03  0.51617176711E+03  0.30000000000E+02 0. -1.
    -200000    1    3    3    0    0  0.54874903056E+02 -0.24069779358E+02 -0.51093376201E+02  0.12807084897E+03  0.10100000000E+03 0. -1.
<mgrwt>
<rscale>  0 0.14710582E+04</rscale>
<asrwt>0</asrwt>
<pdfrwt beam="1">  1        2 0.39991414E+00 0.14710582E+04</pdfrwt>
<pdfrwt beam="2">  1       -2 0.27608125E-01 0.14710582E+04</pdfrwt>
<totfact> 0.35455549E+01</totfact>
</mgrwt>
</event>
<event>
 8    2  0.4306980E-052  0.1352373E+04  0.7818608E-02  0.8989034E-01
         -2   -1    0    0    0  501 -0.00000000000E+00  0.00000000000E+00  0.40297440605E+03  0.40297440606E+03  0.25500000000E-02 0. -1.
          2   -1    0    0  501    0  0.00000000000E+00 -0.00000000000E+00 -0.11346332938E+04  0.11346332938E+04  0.25500000000E-02 0.  1.
    -200001    2    1    2    0    0 -0.25988082026E+03  0.15443730652E+02 -0.23782256025E+03  0.70849982514E+03  0.61452085604E+03 0.  0.
   -5000001    2    3    3    0    0 -0.20011896339E+03  0.22821057051E+03 -0.30296255440E+03  0.45693387650E+03  0.15771681624E+03 0.  0.
     200001    1    1    2    0    0  0.25988082026E+03 -0.15443730652E+02 -0.49383632745E+03  0.82910787468E+03  0.61300000000E+03 0. -1.
         13    1    4    4    0    0 -0.10994018576E+03  0.18914624832E+03 -0.12644850980E+03  0.25269029363E+03  0.10566000000E+00 0.  1.
    -200003    1    4    4    0    0 -0.90178777626E+02  0.39064322183E+02 -0.17651404460E+03  0.20424358287E+03  0.30000000000E+02 0.  1.
    -200000    1    3    3    0    0 -0.59761856873E+02 -0.21276683985E+03  0.65139994148E+02  0.25156594864E+03  0.10100000000E+03 0. -1.
<mgrwt>
<rscale>  0 0.13523730E+04</rscale>
<asrwt>0</asrwt>
<pdfrwt beam="1">  1        2 0.16209047E+00 0.13523730E+04</pdfrwt>
<pdfrwt beam="2">  1       -2 0.57567773E-01 0.13523730E+04</pdfrwt>
<totfact> 0.64402747E+01</totfact>
</mgrwt>
</event>
<event>
 8    2  0.4306980E-052  0.1401575E+04  0.7818608E-02  0.8952679E-01
         -2   -1    0    0    0  501 -0.00000000000E+00  0.00000000000E+00  0.96509543669E+03  0.96509543669E+03  0.25500000000E-02 0. -1.
          2   -1    0    0  501    0  0.00000000000E+00 -0.00000000000E+00 -0.50886489405E+03  0.50886489406E+03  0.25500000000E-02 0.  1.
    -200001    2    1    2    0    0 -0.19235737780E+02  0.33849863289E+03  0.20697122435E+03  0.73042112813E+03  0.61296541390E+03 0.  0.
   -5000001    2    3    3    0    0  0.25936876534E+02  0.49137503367E+03  0.89503087907E+02  0.50813410179E+03  0.89818246367E+02 0.  0.
     200001    1    1    2    0    0  0.19235737780E+02 -0.33849863289E+03  0.24925931829E+03  0.74353920262E+03  0.61300000000E+03 0. -1.
         13    1    4    4    0    0  0.38126377586E+02  0.94756621653E+02  0.13958274012E+02  0.10308871225E+03  0.10566000000E+00 0.  1.
    -200003    1    4    4    0    0 -0.12189501052E+02  0.39661841201E+03  0.75544813894E+02  0.40504538954E+03  0.30000000000E+02 0.  1.
    -200000    1    3    3    0    0 -0.45172614314E+02 -0.15287640078E+03  0.11746813644E+03  0.22228702634E+03  0.10100000000E+03 0. -1.
<mgrwt>
<rscale>  0 0.14015751E+04</rscale>
<asrwt>0</asrwt>
<pdfrwt beam="1">  1        2 0.72694986E-01 0.14015751E+04</pdfrwt>
<pdfrwt beam="2">  1       -2 0.13787077E+00 0.14015751E+04</pdfrwt>
<totfact> 0.23957836E+01</totfact>
</mgrwt>
</event>
<event>
 8    2  0.4306980E-052  0.1544920E+04  0.7818608E-02  0.8855119E-01
         -2   -1    0    0    0  501 -0.00000000000E+00  0.00000000000E+00  0.33866922397E+03  0.33866922397E+03  0.25500000000E-02 0. -1.
          2   -1    0    0  501    0  0.00000000000E+00 -0.00000000000E+00 -0.17618800748E+04  0.17618800748E+04  0.25500000000E-02 0.  1.
    -200001    2    1    2    0    0  0.64832274891E+02 -0.17976373126E+03 -0.12818204528E+03  0.65507815407E+03  0.61333394515E+03 0.  0.
   -5000001    2    3    3    0    0 -0.19753159034E+03 -0.32529439672E+02 -0.13091329168E+03  0.33771212863E+03  0.23839945104E+03 0.  0.
     200001    1    1    2    0    0 -0.64832274891E+02  0.17976373126E+03 -0.12950288056E+04  0.14454711447E+04  0.61300000000E+03 0.  1.
         13    1    4    4    0    0 -0.11136686592E+03  0.71404334672E+02  0.19114490467E+02  0.13366575008E+03  0.10566000000E+00 0.  1.
    -200003    1    4    4    0    0 -0.86164724420E+02 -0.10393377434E+03 -0.15002778214E+03  0.20404637855E+03  0.30000000000E+02 0.  1.
    -200000    1    3    3    0    0  0.26236386523E+03 -0.14723429159E+03  0.27312464019E+01  0.31736602544E+03  0.10100000000E+03 0. -1.
<mgrwt>
<rscale>  0 0.15449201E+04</rscale>
<asrwt>0</asrwt>
<pdfrwt beam="1">  1        2 0.25169715E+00 0.15449201E+04</pdfrwt>
<pdfrwt beam="2">  1       -2 0.48381319E-01 0.15449201E+04</pdfrwt>
<totfact> 0.41564888E+01</totfact>
</mgrwt>
</event>
<event>
 8    2  0.4306980E-052  0.1266621E+04  0.7818608E-02  0.9056462E-01
          2   -1    0    0  501    0  0.00000000000E+00  0.00000000000E+00  0.27871397073E+04  0.27871397073E+04  0.25500000000E-02 0.  1.
         -2   -1    0    0    0  501 -0.00000000000E+00 -0.00000000000E+00 -0.14390469000E+03  0.14390469002E+03  0.25500000000E-02 0. -1.
    -200001    2    1    2    0    0  0.12214884396E+03 -0.93916341420E+02  0.13833451174E+04  0.15214940509E+04  0.61445896021E+03 0.  0.
   -5000001    2    3    3    0    0  0.18576017393E+03  0.18490104513E+03  0.97150707032E+03  0.10100283987E+04  0.87385009036E+02 0.  0.
     200001    1    1    2    0    0 -0.12214884396E+03  0.93916341420E+02  0.12598898999E+04  0.14095503464E+04  0.61300000000E+03 0.  1.
         13    1    4    4    0    0  0.14249372992E+03  0.16626108950E+03  0.72916496916E+03  0.76133355132E+03  0.10566000000E+00 0.  1.
    -200003    1    4    4    0    0  0.43266444011E+02  0.18639955628E+02  0.24234210116E+03  0.24869484739E+03  0.30000000000E+02 0. -1.
    -200000    1    3    3    0    0 -0.63611329967E+02 -0.27881738655E+03  0.41183804711E+03  0.51146565221E+03  0.10100000000E+03 0. -1.
<mgrwt>
<rscale>  0 0.12666215E+04</rscale>
<asrwt>0</asrwt>
<pdfrwt beam="1">  1        2 0.39816278E+00 0.12666215E+04</pdfrwt>
<pdfrwt beam="2">  1       -2 0.20557814E-01 0.12666215E+04</pdfrwt>
<totfact> 0.62305447E+01</totfact>
</mgrwt>
</event>
<event>
 8    2  0.4306980E-052  0.1839711E+04  0.7818608E-02  0.8685462E-01
          2   -1    0    0  501    0  0.00000000000E+00  0.00000000000E+00  0.63189788404E+03  0.63189788405E+03  0.25500000000E-02 0.  1.
         -2   -1    0    0    0  501 -0.00000000000E+00 -0.00000000000E+00 -0.13390368413E+04  0.13390368413E+04  0.25500000000E-02 0. -1.
    -200001    2    1    2    0    0  0.43900905273E+03 -0.48191097882E+03 -0.58472340284E+03  0.10677615925E+04  0.61093880278E+03 0.  0.
   -5000001    2    3    3    0    0  0.43921174617E+03 -0.53246534820E+03 -0.62633641273E+03  0.94739370668E+03  0.16979761048E+03 0.  0.
     200001    1    1    2    0    0 -0.43900905273E+03  0.48191097882E+03 -0.12241555441E+03  0.90317313282E+03  0.61300000000E+03 0. -1.
         13    1    4    4    0    0  0.14936576600E+03 -0.14316316764E+03 -0.28956971974E+03  0.35588826670E+03  0.10566000000E+00 0.  1.
    -200003    1    4    4    0    0  0.28984598017E+03 -0.38930218056E+03 -0.33676669299E+03  0.59150543998E+03  0.30000000000E+02 0.  1.
    -200000    1    3    3    0    0 -0.20269343826E+00  0.50554369381E+02  0.41613009898E+02  0.12036788584E+03  0.10100000000E+03 0.  1.
<mgrwt>
<rscale>  0 0.18397114E+04</rscale>
<asrwt>0</asrwt>
<pdfrwt beam="1">  1        2 0.90271128E-01 0.18397114E+04</pdfrwt>
<pdfrwt beam="2">  1       -2 0.19129097E+00 0.18397114E+04</pdfrwt>
<totfact> 0.73093392E+00</totfact>
</mgrwt>
</event>
<event>
 8    2  0.4306980E-052  0.1466145E+04  0.7818608E-02  0.8907284E-01
          2   -1    0    0  501    0  0.00000000000E+00  0.00000000000E+00  0.44268707717E+03  0.44268707718E+03  0.25500000000E-02 0.  1.
         -2   -1    0    0    0  501 -0.00000000000E+00 -0.00000000000E+00 -0.12139389852E+04  0.12139389852E+04  0.25500000000E-02 0. -1.
    -200001    2    1    2    0    0  0.10639557463E+03  0.58612676650E+02  0.47036463550E+02  0.62700461582E+03  0.61332446160E+03 0.  0.
   -5000001    2    3    3    0    0  0.25406106914E+03 -0.68851933895E+02  0.18097632068E+03  0.36972420355E+03  0.18616106573E+03 0.  0.
     200001    1    1    2    0    0 -0.10639557463E+03 -0.58612676650E+02 -0.81828837162E+03  0.10296214466E+04  0.61300000000E+03 0. -1.
         13    1    4    4    0    0  0.26120767004E+03 -0.98326455803E+02  0.14879003445E+03  0.31628472033E+03  0.10566000000E+00 0.  1.
    -200003    1    4    4    0    0 -0.71466009027E+01  0.29474521908E+02  0.32186286222E+02  0.53439483221E+02  0.30000000000E+02 0.  1.
    -200000    1    3    3    0    0 -0.14766549451E+03  0.12746461054E+03 -0.13393985712E+03  0.25728041227E+03  0.10100000000E+03 0. -1.
<mgrwt>
<rscale>  0 0.14661447E+04</rscale>
<asrwt>0</asrwt>
<pdfrwt beam="1">  1        2 0.63241012E-01 0.14661447E+04</pdfrwt>
<pdfrwt beam="2">  1       -2 0.17341985E+00 0.14661447E+04</pdfrwt>
<totfact> 0.15074601E+01</totfact>
</mgrwt>
</event>
<event>
 8    2  0.4306980E-052  0.1438010E+04  0.7818608E-02  0.8926755E-01
          2   -1    0    0  501    0  0.00000000000E+00  0.00000000000E+00  0.11240592345E+04  0.11240592345E+04  0.25500000000E-02 0.  1.
         -2   -1    0    0    0  501 -0.00000000000E+00 -0.00000000000E+00 -0.45991202270E+03  0.45991202271E+03  0.25500000000E-02 0. -1.
    -200001    2    1    2    0    0 -0.29658302297E+02 -0.18811016896E+03  0.68914766484E+03  0.94158580190E+03  0.61269426946E+03 0.  0.
   -5000001    2    3    3    0    0  0.36959769104E+02  0.18381065288E+03  0.42369576656E+03  0.46890327054E+03  0.72109596303E+02 0.  0.
     200001    1    1    2    0    0  0.29658302297E+02  0.18811016896E+03 -0.25000453031E+02  0.64238545532E+03  0.61300000000E+03 0. -1.
         13    1    4    4    0    0  0.22857487359E+02  0.31170310078E+02  0.13782484894E+03  0.14314242246E+03  0.10566000000E+00 0.  1.
    -200003    1    4    4    0    0  0.14102281745E+02  0.15264034280E+03  0.28587091762E+03  0.32576084808E+03  0.30000000000E+02 0.  1.
    -200000    1    3    3    0    0 -0.66618071401E+02 -0.37192082184E+03  0.26545189828E+03  0.47268253136E+03  0.10100000000E+03 0. -1.
<mgrwt>
<rscale>  0 0.14380102E+04</rscale>
<asrwt>0</asrwt>
<pdfrwt beam="1">  1        2 0.16057989E+00 0.14380102E+04</pdfrwt>
<pdfrwt beam="2">  1       -2 0.65701718E-01 0.14380102E+04</pdfrwt>
<totfact> 0.49037956E+01</totfact>
</mgrwt>
</event>
<event>
 8    2  0.4306980E-052  0.2357050E+04  0.7818608E-02  0.8455761E-01
          2   -1    0    0  501    0  0.00000000000E+00  0.00000000000E+00  0.26293105031E+04  0.26293105031E+04  0.25500000000E-02 0.  1.
         -2   -1    0    0    0  501 -0.00000000000E+00 -0.00000000000E+00 -0.52824550032E+03  0.52824550032E+03  0.25500000000E-02 0. -1.
    -200001    2    1    2    0    0 -0.11108137020E+03  0.26385662222E+03 -0.24190568273E+03  0.71885962604E+03  0.61341781416E+03 0.  0.
   -5000001    2    3    3    0    0 -0.32015576148E+03  0.27897528542E+03 -0.21099160868E+03  0.48413136818E+03  0.97666786743E+02 0.  0.
     200001    1    1    2    0    0  0.11108137020E+03 -0.26385662222E+03  0.23429706855E+04  0.24386963773E+04  0.61300000000E+03 0.  1.
         13    1    4    4    0    0 -0.28466118414E+03  0.25525909695E+03 -0.19698924708E+03  0.43010925468E+03  0.10566000000E+00 0.  1.
    -200003    1    4    4    0    0 -0.35494577344E+02  0.23716188475E+02 -0.14002361598E+02  0.54022113499E+02  0.30000000000E+02 0. -1.
    -200000    1    3    3    0    0  0.20907439128E+03 -0.15118663201E+02 -0.30914074049E+02  0.23472825787E+03  0.10100000000E+03 0. -1.
<mgrwt>
<rscale>  0 0.23570502E+04</rscale>
<asrwt>0</asrwt>
<pdfrwt beam="1">  1        2 0.37561579E+00 0.23570502E+04</pdfrwt>
<pdfrwt beam="2">  1       -2 0.75463642E-01 0.23570502E+04</pdfrwt>
<totfact> 0.53740877E+00</totfact>
</mgrwt>
</event>
<event>
 8    2  0.4306980E-052  0.1588195E+04  0.7818608E-02  0.8827833E-01
          2   -1    0    0  501    0  0.00000000000E+00  0.00000000000E+00  0.11084318815E+04  0.11084318815E+04  0.25500000000E-02 0.  1.
         -2   -1    0    0    0  501 -0.00000000000E+00 -0.00000000000E+00 -0.56890374595E+03  0.56890374596E+03  0.25500000000E-02 0. -1.
    -200001    2    1    2    0    0  0.13194025468E+03 -0.26829712986E+03  0.69862687077E+03  0.97699786017E+03  0.61404701247E+03 0.  0.
   -5000001    2    3    3    0    0  0.12284938395E+03 -0.24777309616E+03  0.22043773204E+02  0.29254949265E+03  0.92821330489E+02 0.  0.
     200001    1    1    2    0    0 -0.13194025468E+03  0.26829712986E+03 -0.15909873525E+03  0.70033776726E+03  0.61300000000E+03 0. -1.
         13    1    4    4    0    0  0.45346380474E+02 -0.64868733907E+02  0.43828454764E+02  0.90472048014E+02  0.10566000000E+00 0.  1.
    -200003    1    4    4    0    0  0.77503003478E+02 -0.18290436226E+03 -0.21784681560E+02  0.20207744464E+03  0.30000000000E+02 0.  1.
    -200000    1    3    3    0    0  0.90908707279E+01 -0.20524033701E+02  0.67658309756E+03  0.68444836752E+03  0.10100000000E+03 0.  1.
<mgrwt>
<rscale>  0 0.15881953E+04</rscale>
<asrwt>0</asrwt>
<pdfrwt beam="1">  1        2 0.15834741E+00 0.15881953E+04</pdfrwt>
<pdfrwt beam="2">  1       -2 0.81271964E-01 0.15881953E+04</pdfrwt>
<totfact> 0.30997849E+01</totfact>
</mgrwt>
</event>
<event>
 8    2  0.4306980E-052  0.1735494E+04  0.7818608E-02  0.8741376E-01
          2   -1    0    0  501    0  0.00000000000E+00  0.00000000000E+00  0.22605060478E+04  0.22605060478E+04  0.25500000000E-02 0.  1.
         -2   -1    0    0    0  501 -0.00000000000E+00 -0.00000000000E+00 -0.33310451289E+03  0.33310451290E+03  0.25500000000E-02 0. -1.
    -200001    2    1    2    0    0  0.17239144316E+03  0.45599212801E+03  0.40390449826E+03  0.88058404276E+03  0.61207988217E+03 0.  0.
   -5000001    2    3    3    0    0  0.21920001437E+03  0.29883897746E+03  0.52931732581E+03  0.65076339012E+03  0.77219024702E+02 0.  0.
     200001    1    1    2    0    0 -0.17239144316E+03 -0.45599212801E+03  0.15234970367E+04  0.17130265180E+04  0.61300000000E+03 0.  1.
         13    1    4    4    0    0  0.23242819204E+02  0.47237607313E+02  0.11976446607E+03  0.13082491615E+03  0.10566000000E+00 0.  1.
    -200003    1    4    4    0    0  0.19595719516E+03  0.25160137014E+03  0.40955285974E+03  0.51993847397E+03  0.30000000000E+02 0.  1.
    -200000    1    3    3    0    0 -0.46808571202E+02  0.15715315056E+03 -0.12541282754E+03  0.22982065264E+03  0.10100000000E+03 0. -1.
<mgrwt>
<rscale>  0 0.17354939E+04</rscale>
<asrwt>0</asrwt>
<pdfrwt beam="1">  1        2 0.32292942E+00 0.17354939E+04</pdfrwt>
<pdfrwt beam="2">  1       -2 0.47586361E-01 0.17354939E+04</pdfrwt>
<totfact> 0.23425767E+01</totfact>
</mgrwt>
</event>
<event>
 8    2  0.4306980E-052  0.1354505E+04  0.7818608E-02  0.8987425E-01
          2   -1    0    0  501    0  0.00000000000E+00  0.00000000000E+00  0.60406191886E+03  0.60406191887E+03  0.25500000000E-02 0.  1.
         -2   -1    0    0    0  501 -0.00000000000E+00 -0.00000000000E+00 -0.75931078547E+03  0.75931078547E+03  0.25500000000E-02 0. -1.
    -200001    2    1    2    0    0 -0.10879430310E+03  0.11466716411E+03 -0.32010058072E+03  0.70920923352E+03  0.61280388072E+03 0.  0.
   -5000001    2    3    3    0    0  0.18600664037E+03  0.10111800846E+03 -0.32171358583E+03  0.39728812543E+03  0.97544356049E+02 0.  0.
     200001    1    1    2    0    0  0.10879430310E+03 -0.11466716411E+03  0.16485171411E+03  0.65416347082E+03  0.61300000000E+03 0.  1.
         13    1    4    4    0    0  0.81398287341E+02  0.58420550359E+01 -0.16469221132E+03  0.18380246577E+03  0.10566000000E+00 0.  1.
    -200003    1    4    4    0    0  0.10460835303E+03  0.95275953426E+02 -0.15702137451E+03  0.21348565965E+03  0.30000000000E+02 0.  1.
    -200000    1    3    3    0    0 -0.29480094347E+03  0.13549155646E+02  0.16130051176E+01  0.31192110810E+03  0.10100000000E+03 0. -1.
<mgrwt>
<rscale>  0 0.13545047E+04</rscale>
<asrwt>0</asrwt>
<pdfrwt beam="1">  1        2 0.86294560E-01 0.13545047E+04</pdfrwt>
<pdfrwt beam="2">  1       -2 0.10847297E+00 0.13545047E+04</pdfrwt>
<totfact> 0.35778926E+01</totfact>
</mgrwt>
</event>
<event>
 8    2  0.4306980E-052  0.1282220E+04  0.7818608E-02  0.9043785E-01
         -2   -1    0    0    0  501 -0.00000000000E+00  0.00000000000E+00  0.22544401673E+03  0.22544401675E+03  0.25500000000E-02 0. -1.
          2   -1    0    0  501    0  0.00000000000E+00 -0.00000000000E+00 -0.18231655562E+04  0.18231655562E+04  0.25500000000E-02 0.  1.
    -200001    2    1    2    0    0  0.16783970195E+03  0.75580417985E+02 -0.86093708364E+03  0.10726470227E+04  0.61276129789E+03 0.  0.
   -5000001    2    3    3    0    0  0.46772029068E+02  0.32713211870E+03 -0.47170205587E+03  0.58311607741E+03  0.91205725895E+02 0.  0.
     200001    1    1    2    0    0 -0.16783970195E+03 -0.75580417985E+02 -0.73678445583E+03  0.97596255025E+03  0.61300000000E+03 0.  1.
         13    1    4    4    0    0  0.67591103582E+01  0.68439524310E+02 -0.46920450652E+02  0.83253792190E+02  0.10566000000E+00 0.  1.
    -200003    1    4    4    0    0  0.40012918710E+02  0.25869259439E+03 -0.42478160522E+03  0.49986228522E+03  0.30000000000E+02 0.  1.
    -200000    1    3    3    0    0  0.12106767288E+03 -0.25155170072E+03 -0.38923502777E+03  0.48953094529E+03  0.10100000000E+03 0.  1.
<mgrwt>
<rscale>  0 0.12822196E+04</rscale>
<asrwt>0</asrwt>
<pdfrwt beam="1">  1        2 0.26045221E+00 0.12822196E+04</pdfrwt>
<pdfrwt beam="2">  1       -2 0.32206289E-01 0.12822196E+04</pdfrwt>
<totfact> 0.87196712E+01</totfact>
</mgrwt>
</event>
<event>
 8    2  0.4306980E-052  0.1259660E+04  0.7818608E-02  0.9062181E-01
         -2   -1    0    0    0  501 -0.00000000000E+00  0.00000000000E+00  0.20535708399E+03  0.20535708400E+03  0.25500000000E-02 0. -1.
          2   -1    0    0  501    0  0.00000000000E+00 -0.00000000000E+00 -0.19316877265E+04  0.19316877265E+04  0.25500000000E-02 0.  1.
    -200001    2    1    2    0    0  0.48487604707E+02  0.12542306699E+03 -0.93515276056E+03  0.11271866846E+04  0.61478219140E+03 0.  0.
   -5000001    2    3    3    0    0 -0.12670113189E+03  0.22521980902E+03 -0.69309564482E+03  0.79636478325E+03  0.29502229735E+03 0.  0.
     200001    1    1    2    0    0 -0.48487604707E+02 -0.12542306699E+03 -0.79117788199E+03  0.10098581259E+04  0.61300000000E+03 0. -1.
         13    1    4    4    0    0 -0.10520344672E+03  0.33138739237E+02 -0.44533278387E+02  0.11895026392E+03  0.10566000000E+00 0.  1.
    -200003    1    4    4    0    0 -0.21497685168E+02  0.19208106978E+03 -0.64856236644E+03  0.67741451932E+03  0.30000000000E+02 0.  1.
    -200000    1    3    3    0    0  0.17518873659E+03 -0.99796742031E+02 -0.24205711574E+03  0.33082190137E+03  0.10100000000E+03 0. -1.
<mgrwt>
<rscale>  0 0.12596599E+04</rscale>
<asrwt>0</asrwt>
<pdfrwt beam="1">  1        2 0.27595538E+00 0.12596599E+04</pdfrwt>
<pdfrwt beam="2">  1       -2 0.29336727E-01 0.12596599E+04</pdfrwt>
<totfact> 0.91455985E+01</totfact>
</mgrwt>
</event>
<event>
 8    2  0.4306980E-052  0.2132855E+04  0.7818608E-02  0.8546907E-01
          2   -1    0    0  501    0  0.00000000000E+00  0.00000000000E+00  0.21344857237E+04  0.21344857237E+04  0.25500000000E-02 0.  1.
         -2   -1    0    0    0  501 -0.00000000000E+00 -0.00000000000E+00 -0.53280641178E+03  0.53280641178E+03  0.25500000000E-02 0. -1.
    -200001    2    1    2    0    0  0.25833305256E+03 -0.74773921608E+03  0.33890108492E+03  0.10560107349E+04  0.61192714069E+03 0.  0.
   -5000001    2    3    3    0    0  0.22163676334E+03 -0.78355668787E+03  0.35574470542E+03  0.94149341532E+03  0.31108136829E+03 0.  0.
     200001    1    1    2    0    0 -0.25833305256E+03  0.74773921608E+03  0.12627782270E+04  0.16112814006E+04  0.61300000000E+03 0.  1.
         13    1    4    4    0    0 -0.72417166939E+02 -0.14347947314E+03  0.11044415404E+03  0.19500904493E+03  0.10566000000E+00 0.  1.
    -200003    1    4    4    0    0  0.29405393028E+03 -0.64007721473E+03  0.24530055138E+03  0.74648437039E+03  0.30000000000E+02 0.  1.
    -200000    1    3    3    0    0  0.36696289225E+02  0.35817471786E+02 -0.16843620494E+02  0.11451731956E+03  0.10100000000E+03 0. -1.
<mgrwt>
<rscale>  0 0.21328551E+04</rscale>
<asrwt>0</asrwt>
<pdfrwt beam="1">  1        2 0.30492654E+00 0.21328551E+04</pdfrwt>
<pdfrwt beam="2">  1       -2 0.76115201E-01 0.21328551E+04</pdfrwt>
<totfact> 0.97523337E+00</totfact>
</mgrwt>
</event>
<event>
 8    2  0.4306980E-052  0.1415073E+04  0.7818608E-02  0.8942980E-01
         -2   -1    0    0    0  501 -0.00000000000E+00  0.00000000000E+00  0.22131015882E+03  0.22131015884E+03  0.25500000000E-02 0. -1.
          2   -1    0    0  501    0  0.00000000000E+00 -0.00000000000E+00 -0.22620185354E+04  0.22620185354E+04  0.25500000000E-02 0.  1.
    -200001    2    1    2    0    0 -0.23360912538E+03 -0.96258664645E+02 -0.55762540807E+03  0.85878474425E+03  0.60226753794E+03 0.  0.
   -5000001    2    3    3    0    0 -0.21815223685E+03  0.16463665289E+03 -0.31343011071E+03  0.48711604048E+03  0.25366902978E+03 0.  0.
     200001    1    1    2    0    0  0.23360912538E+03  0.96258664645E+02 -0.14830829686E+04  0.16245439500E+04  0.61300000000E+03 0.  1.
         13    1    4    4    0    0  0.37273009905E+02  0.10092316781E+03 -0.10011682279E+03  0.14696309889E+03  0.10566000000E+00 0.  1.
    -200003    1    4    4    0    0 -0.25542524676E+03  0.63713485085E+02 -0.21331328792E+03  0.34015294158E+03  0.30000000000E+02 0.  1.
    -200000    1    3    3    0    0 -0.15456888524E+02 -0.26089531754E+03 -0.24419529736E+03  0.37166870378E+03  0.10100000000E+03 0. -1.
<mgrwt>
<rscale>  0 0.14150727E+04</rscale>
<asrwt>0</asrwt>
<pdfrwt beam="1">  1        2 0.32314549E+00 0.14150727E+04</pdfrwt>
<pdfrwt beam="2">  1       -2 0.31615738E-01 0.14150727E+04</pdfrwt>
<totfact> 0.53167060E+01</totfact>
</mgrwt>
</event>
<event>
 8    2  0.4306980E-052  0.2129912E+04  0.7818608E-02  0.8548180E-01
         -2   -1    0    0    0  501 -0.00000000000E+00  0.00000000000E+00  0.54712438789E+03  0.54712438789E+03  0.25500000000E-02 0. -1.
          2   -1    0    0  501    0  0.00000000000E+00 -0.00000000000E+00 -0.20728953173E+04  0.20728953173E+04  0.25500000000E-02 0.  1.
    -200001    2    1    2    0    0 -0.81993142775E+03  0.17343452258E+03 -0.47415283198E+03  0.11421710314E+04  0.61430178011E+03 0.  0.
   -5000001    2    3    3    0    0 -0.43495733276E+03 -0.52926017363E+02 -0.51780555185E+03  0.68222461298E+03  0.72930023976E+02 0.  0.
     200001    1    1    2    0    0  0.81993142775E+03 -0.17343452258E+03 -0.10516180975E+04  0.14778486738E+04  0.61300000000E+03 0.  1.
         13    1    4    4    0    0 -0.15930895445E+03  0.95990219935E+01 -0.19944181814E+03  0.25543792627E+03  0.10566000000E+00 0.  1.
    -200003    1    4    4    0    0 -0.27564837831E+03 -0.62525039356E+02 -0.31836373371E+03  0.42678668671E+03  0.30000000000E+02 0. -1.
    -200000    1    3    3    0    0 -0.38497409499E+03  0.22636053995E+03  0.43652719869E+02  0.45994641841E+03  0.10100000000E+03 0. -1.
<mgrwt>
<rscale>  0 0.21299123E+04</rscale>
<asrwt>0</asrwt>
<pdfrwt beam="1">  1        2 0.29612790E+00 0.21299123E+04</pdfrwt>
<pdfrwt beam="2">  1       -2 0.78160628E-01 0.21299123E+04</pdfrwt>
<totfact> 0.98927741E+00</totfact>
</mgrwt>
</event>
<event>
 8    2  0.4306980E-052  0.1489967E+04  0.7818608E-02  0.8891152E-01
         -2   -1    0    0    0  501 -0.00000000000E+00  0.00000000000E+00  0.14392938995E+03  0.14392938997E+03  0.25500000000E-02 0. -1.
          2   -1    0    0  501    0  0.00000000000E+00 -0.00000000000E+00 -0.38560615024E+04  0.38560615024E+04  0.25500000000E-02 0.  1.
    -200001    2    1    2    0    0  0.18939231551E+03  0.18891389193E+03 -0.97411589480E+03  0.11814700541E+04  0.61270858037E+03 0.  0.
   -5000001    2    3    3    0    0  0.18372171332E+01 -0.33980533866E+01 -0.87536405644E+03  0.87796762441E+03  0.67453658703E+02 0.  0.
     200001    1    1    2    0    0 -0.18939231551E+03 -0.18891389193E+03 -0.27380162176E+04  0.28185208383E+04  0.61300000000E+03 0.  1.
         13    1    4    4    0    0  0.13111617558E+02  0.43130489370E+00 -0.42508995130E+02  0.44487373151E+02  0.10566000000E+00 0.  1.
    -200003    1    4    4    0    0 -0.11274400425E+02 -0.38293582803E+01 -0.83285506131E+03  0.83348025126E+03  0.30000000000E+02 0.  1.
    -200000    1    3    3    0    0  0.18755509838E+03  0.19231194532E+03 -0.98751838358E+02  0.30350242968E+03  0.10100000000E+03 0. -1.
<mgrwt>
<rscale>  0 0.14899672E+04</rscale>
<asrwt>0</asrwt>
<pdfrwt beam="1">  1        2 0.55086587E+00 0.14899672E+04</pdfrwt>
<pdfrwt beam="2">  1       -2 0.20561344E-01 0.14899672E+04</pdfrwt>
<totfact> 0.14275612E+01</totfact>
</mgrwt>
</event>
<event>
 8    2  0.4306980E-052  0.1329619E+04  0.7818608E-02  0.9006401E-01
         -2   -1    0    0    0  501 -0.00000000000E+00  0.00000000000E+00  0.16830324185E+03  0.16830324187E+03  0.25500000000E-02 0.  1.
          2   -1    0    0  501    0  0.00000000000E+00 -0.00000000000E+00 -0.26260456755E+04  0.26260456755E+04  0.25500000000E-02 0. -1.
    -200001    2    1    2    0    0  0.14246294126E+03 -0.29098702637E+02 -0.78544367366E+03  0.10073137843E+04  0.61369118574E+03 0.  0.
   -5000001    2    3    3    0    0 -0.10975247468E+03  0.22176282770E+03 -0.36054078179E+03  0.44403091491E+03  0.77132617111E+02 0.  0.
     200001    1    1    2    0    0 -0.14246294126E+03  0.29098702637E+02 -0.16722987600E+04  0.17870351331E+04  0.61300000000E+03 0. -1.
         13    1    4    4    0    0 -0.28912899097E+02  0.11302862307E+03 -0.12768686000E+03  0.17296060461E+03  0.10566000000E+00 0.  1.
    -200003    1    4    4    0    0 -0.80839575584E+02  0.10873420463E+03 -0.23285392179E+03  0.27107031030E+03  0.30000000000E+02 0.  1.
    -200000    1    3    3    0    0  0.25221541594E+03 -0.25086153033E+03 -0.42490289187E+03  0.56328286940E+03  0.10100000000E+03 0.  1.
<mgrwt>
<rscale>  0 0.13296195E+04</rscale>
<asrwt>0</asrwt>
<pdfrwt beam="1">  1        2 0.37514936E+00 0.13296195E+04</pdfrwt>
<pdfrwt beam="2">  1       -2 0.24043322E-01 0.13296195E+04</pdfrwt>
<totfact> 0.57159693E+01</totfact>
</mgrwt>
</event>
<event>
 8    2  0.4306980E-052  0.1384745E+04  0.7818608E-02  0.8964936E-01
         -2   -1    0    0    0  501 -0.00000000000E+00  0.00000000000E+00  0.17438581837E+04  0.17438581837E+04  0.25500000000E-02 0. -1.
          2   -1    0    0  501    0  0.00000000000E+00 -0.00000000000E+00 -0.27489595473E+03  0.27489595474E+03  0.25500000000E-02 0.  1.
    -200001    2    1    2    0    0  0.27005188215E+03 -0.29022702807E+02  0.48170143351E+03  0.82534590378E+03  0.61269017742E+03 0.  0.
   -5000001    2    3    3    0    0 -0.15118421036E+03  0.48335688131E+02  0.30635466075E+03  0.35166704949E+03  0.67996553777E+02 0.  0.
     200001    1    1    2    0    0 -0.27005188215E+03  0.29022702807E+02  0.98726079545E+03  0.11934082347E+04  0.61300000000E+03 0. -1.
         13    1    4    4    0    0 -0.22452371686E+02  0.32566243981E+02  0.70231949020E+02  0.80605254596E+02  0.10566000000E+00 0.  1.
    -200003    1    4    4    0    0 -0.12873183867E+03  0.15769444150E+02  0.23612271173E+03  0.27106179489E+03  0.30000000000E+02 0.  1.
    -200000    1    3    3    0    0  0.42123609251E+03 -0.77358390938E+02  0.17534677277E+03  0.47367885429E+03  0.10100000000E+03 0.  1.
<mgrwt>
<rscale>  0 0.13847448E+04</rscale>
<asrwt>0</asrwt>
<pdfrwt beam="1">  1        2 0.39270851E-01 0.13847448E+04</pdfrwt>
<pdfrwt beam="2">  1       -2 0.24912259E+00 0.13847448E+04</pdfrwt>
<totfact> 0.83602050E+00</totfact>
</mgrwt>
</event>
<event>
 8    2  0.4306980E-052  0.1705322E+04  0.7818608E-02  0.8758335E-01
          2   -1    0    0  501    0  0.00000000000E+00  0.00000000000E+00  0.19475932343E+04  0.19475932343E+04  0.25500000000E-02 0.  1.
         -2   -1    0    0    0  501 -0.00000000000E+00 -0.00000000000E+00 -0.37329707456E+03  0.37329707457E+03  0.25500000000E-02 0. -1.
    -200001    2    1    2    0    0  0.15354259748E+03 -0.22039726736E+03  0.15062720145E+04  0.16481744929E+04  0.61275891905E+03 0.  0.
   -5000001    2    3    3    0    0  0.13808060065E+03 -0.41061391774E+03  0.90360868271E+03  0.10079983149E+04  0.10900417297E+03 0.  0.
     200001    1    1    2    0    0 -0.15354259748E+03  0.22039726736E+03  0.68024145278E+02  0.67271581596E+03  0.61300000000E+03 0. -1.
         13    1    4    4    0    0  0.57128792460E+01 -0.16531197883E+03  0.30397719094E+03  0.34606766840E+03  0.10566000000E+00 0.  1.
    -200003    1    4    4    0    0  0.13236772141E+03 -0.24530193890E+03  0.59963149177E+03  0.66193064654E+03  0.30000000000E+02 0.  1.
    -200000    1    3    3    0    0  0.15461996833E+02  0.19021665038E+03  0.60266333177E+03  0.64017617801E+03  0.10100000000E+03 0.  1.
<mgrwt>
<rscale>  0 0.17053221E+04</rscale>
<asrwt>0</asrwt>
<pdfrwt beam="1">  1        2 0.27822761E+00 0.17053221E+04</pdfrwt>
<pdfrwt beam="2">  1       -2 0.53328152E-01 0.17053221E+04</pdfrwt>
<totfact> 0.26981407E+01</totfact>
</mgrwt>
</event>
<event>
 8    2  0.4306980E-052  0.1687185E+04  0.7818608E-02  0.8768707E-01
         -2   -1    0    0    0  501 -0.00000000000E+00  0.00000000000E+00  0.40465958758E+03  0.40465958759E+03  0.25500000000E-02 0. -1.
          2   -1    0    0  501    0  0.00000000000E+00 -0.00000000000E+00 -0.17586343681E+04  0.17586343681E+04  0.25500000000E-02 0.  1.
    -200001    2    1    2    0    0  0.50384100877E+03  0.14714223155E+03 -0.99081777111E+03  0.12783314639E+04  0.61392579162E+03 0.  0.
   -5000001    2    3    3    0    0  0.48066199743E+02 -0.11510844827E+03 -0.83395195888E+02  0.22470779976E+03  0.16726781565E+03 0.  0.
     200001    1    1    2    0    0 -0.50384100877E+03 -0.14714223155E+03 -0.36315700942E+03  0.88496249181E+03  0.61300000000E+03 0. -1.
         13    1    4    4    0    0  0.10492718885E+03 -0.93012617302E+02 -0.63102595288E+02  0.15376283892E+03  0.10566000000E+00 0.  1.
    -200003    1    4    4    0    0 -0.56860989108E+02 -0.22095830971E+02 -0.20292600600E+02  0.70944960834E+02  0.30000000000E+02 0.  1.
    -200000    1    3    3    0    0  0.45577480902E+03  0.26225067982E+03 -0.90742257522E+03  0.10536236641E+04  0.10100000000E+03 0.  1.
<mgrwt>
<rscale>  0 0.16871849E+04</rscale>
<asrwt>0</asrwt>
<pdfrwt beam="1">  1        2 0.25123348E+00 0.16871849E+04</pdfrwt>
<pdfrwt beam="2">  1       -2 0.57808514E-01 0.16871849E+04</pdfrwt>
<totfact> 0.28595846E+01</totfact>
</mgrwt>
</event>
<event>
 8    2  0.4306980E-052  0.1432316E+04  0.7818608E-02  0.8930753E-01
         -2   -1    0    0    0  501 -0.00000000000E+00  0.00000000000E+00  0.28930448817E+03  0.28930448819E+03  0.25500000000E-02 0. -1.
          2   -1    0    0  501    0  0.00000000000E+00 -0.00000000000E+00 -0.17728121945E+04  0.17728121945E+04  0.25500000000E-02 0.  1.
    -200001    2    1    2    0    0 -0.14372631251E+03  0.21687391474E+03 -0.36231957700E+03  0.75807551419E+03  0.61295306634E+03 0.  0.
   -5000001    2    3    3    0    0 -0.14399573968E+03 -0.16949673006E+02  0.12388321413E+03  0.20919693301E+03  0.85989775995E+02 0.  0.
     200001    1    1    2    0    0  0.14372631251E+03 -0.21687391474E+03 -0.11211881294E+04  0.13040411685E+04  0.61300000000E+03 0.  1.
         13    1    4    4    0    0 -0.86414447623E+02 -0.28569565665E+02  0.32811935272E+02  0.96748700770E+02  0.10566000000E+00 0.  1.
    -200003    1    4    4    0    0 -0.57581292054E+02  0.11619892660E+02  0.91071278861E+02  0.11244823224E+03  0.30000000000E+02 0.  1.
    -200000    1    3    3    0    0  0.26942716258E+00  0.23382358775E+03 -0.48620279114E+03  0.54887858119E+03  0.10100000000E+03 0.  1.
<mgrwt>
<rscale>  0 0.14323163E+04</rscale>
<asrwt>0</asrwt>
<pdfrwt beam="1">  1        2 0.25325888E+00 0.14323163E+04</pdfrwt>
<pdfrwt beam="2">  1       -2 0.41329214E-01 0.14323163E+04</pdfrwt>
<totfact> 0.56663755E+01</totfact>
</mgrwt>
</event>
<event>
 8    2  0.4306980E-052  0.1971279E+04  0.7818608E-02  0.8620167E-01
         -2   -1    0    0    0  501 -0.00000000000E+00  0.00000000000E+00  0.97497012936E+03  0.97497012936E+03  0.25500000000E-02 0. -1.
          2   -1    0    0  501    0  0.00000000000E+00 -0.00000000000E+00 -0.99642598844E+03  0.99642598844E+03  0.25500000000E-02 0.  1.
    -200001    2    1    2    0    0 -0.18932110983E+03 -0.28408482541E+03  0.68092983218E+03  0.97859133842E+03  0.61435242380E+03 0.  0.
   -5000001    2    3    3    0    0 -0.11784282952E+03 -0.13768332584E+01 -0.73283103971E+02  0.16368575712E+03  0.86797382542E+02 0.  0.
     200001    1    1    2    0    0  0.18932110983E+03  0.28408482541E+03 -0.70238569126E+03  0.99280477937E+03  0.61300000000E+03 0.  1.
         13    1    4    4    0    0  0.47677709035E+01 -0.34175508585E+00 -0.29790257926E+02  0.30171494282E+02  0.10566000000E+00 0.  1.
    -200003    1    4    4    0    0 -0.12261060042E+03 -0.10350781725E+01 -0.43492846045E+02  0.13351426284E+03  0.30000000000E+02 0.  1.
    -200000    1    3    3    0    0 -0.71478280306E+02 -0.28270799216E+03  0.75421293615E+03  0.81490558131E+03  0.10100000000E+03 0. -1.
<mgrwt>
<rscale>  0 0.19712794E+04</rscale>
<asrwt>0</asrwt>
<pdfrwt beam="1">  1        2 0.14234657E+00 0.19712794E+04</pdfrwt>
<pdfrwt beam="2">  1       -2 0.13928145E+00 0.19712794E+04</pdfrwt>
<totfact> 0.96041417E+00</totfact>
</mgrwt>
</event>
<event>
 8    2  0.4306980E-052  0.2415237E+04  0.7818608E-02  0.8433821E-01
          2   -1    0    0  501    0  0.00000000000E+00  0.00000000000E+00  0.31686901368E+04  0.31686901368E+04  0.25500000000E-02 0.  1.
         -2   -1    0    0    0  501 -0.00000000000E+00 -0.00000000000E+00 -0.46023525070E+03  0.46023525071E+03  0.25500000000E-02 0. -1.
    -200001    2    1    2    0    0  0.62856241621E+03 -0.77615734343E+03  0.17925578635E+04  0.21415964767E+04  0.61291177364E+03 0.  0.
   -5000001    2    3    3    0    0  0.39611484918E+03 -0.17952214280E+03  0.11140550954E+04  0.12032082626E+04  0.13212189118E+03 0.  0.
     200001    1    1    2    0    0 -0.62856241621E+03  0.77615734343E+03  0.91589702255E+03  0.14873289107E+04  0.61300000000E+03 0.  1.
         13    1    4    4    0    0  0.23009276390E+03 -0.11076147053E+03  0.48261242598E+03  0.54600874373E+03  0.10566000000E+00 0.  1.
    -200003    1    4    4    0    0  0.16602208527E+03 -0.68760672274E+02  0.63144266946E+03  0.65719951892E+03  0.30000000000E+02 0. -1.
    -200000    1    3    3    0    0  0.23244756703E+03 -0.59663520063E+03  0.67850276806E+03  0.93838821407E+03  0.10100000000E+03 0. -1.
<mgrwt>
<rscale>  0 0.24152374E+04</rscale>
<asrwt>0</asrwt>
<pdfrwt beam="1">  1        2 0.45267003E+00 0.24152374E+04</pdfrwt>
<pdfrwt beam="2">  1       -2 0.65747891E-01 0.24152374E+04</pdfrwt>
<totfact> 0.36362032E+00</totfact>
</mgrwt>
</event>
<event>
 8    2  0.4306980E-052  0.1268153E+04  0.7818608E-02  0.9055209E-01
          2   -1    0    0  501    0  0.00000000000E+00  0.00000000000E+00  0.38101532266E+03  0.38101532267E+03  0.25500000000E-02 0.  1.
         -2   -1    0    0    0  501 -0.00000000000E+00 -0.00000000000E+00 -0.10552145013E+04  0.10552145013E+04  0.25500000000E-02 0. -1.
    -200001    2    1    2    0    0  0.39025170953E+02 -0.10704805330E+03 -0.46765129747E+03  0.77940924200E+03  0.61302429055E+03 0.  0.
   -5000001    2    3    3    0    0 -0.24409386560E+03 -0.10786343858E+03 -0.37092427284E+03  0.46363373471E+03  0.78454363657E+02 0.  0.
     200001    1    1    2    0    0 -0.39025170953E+02  0.10704805330E+03 -0.20654788117E+03  0.65682058197E+03  0.61300000000E+03 0. -1.
         13    1    4    4    0    0 -0.59027058277E+02 -0.33517133098E+02 -0.14912518746E+03  0.16384725973E+03  0.10566000000E+00 0.  1.
    -200003    1    4    4    0    0 -0.18506680732E+03 -0.74346305484E+02 -0.22179908538E+03  0.29978647499E+03  0.30000000000E+02 0. -1.
    -200000    1    3    3    0    0  0.28311903655E+03  0.81538528035E+00 -0.96727024632E+02  0.31577550729E+03  0.10100000000E+03 0.  1.
<mgrwt>
<rscale>  0 0.12681528E+04</rscale>
<asrwt>0</asrwt>
<pdfrwt beam="1">  1        2 0.54430761E-01 0.12681528E+04</pdfrwt>
<pdfrwt beam="2">  1       -2 0.15074493E+00 0.12681528E+04</pdfrwt>
<totfact> 0.26536278E+01</totfact>
</mgrwt>
</event>
<event>
 8    2  0.4306980E-052  0.1370553E+04  0.7818608E-02  0.8975414E-01
         -2   -1    0    0    0  501 -0.00000000000E+00  0.00000000000E+00  0.20880785984E+03  0.20880785986E+03  0.25500000000E-02 0. -1.
          2   -1    0    0  501    0  0.00000000000E+00 -0.00000000000E+00 -0.22489748868E+04  0.22489748868E+04  0.25500000000E-02 0.  1.
    -200001    2    1    2    0    0  0.44388074269E+02  0.25036183168E+03 -0.13261949607E+04  0.14830127946E+04  0.61309259294E+03 0.  0.
   -5000001    2    3    3    0    0 -0.20420433921E+03  0.96564367202E+02 -0.19283155771E+03  0.30820836357E+03  0.82366841405E+02 0.  0.
     200001    1    1    2    0    0 -0.44388074269E+02 -0.25036183168E+03 -0.71397206633E+03  0.97476995204E+03  0.61300000000E+03 0. -1.
         13    1    4    4    0    0 -0.36898257136E+02  0.72828430567E+01 -0.22411261081E+01  0.37676982270E+02  0.10566000000E+00 0.  1.
    -200003    1    4    4    0    0 -0.16730608208E+03  0.89281524145E+02 -0.19059043160E+03  0.27053138130E+03  0.30000000000E+02 0.  1.
    -200000    1    3    3    0    0  0.24859241348E+03  0.15379746448E+03 -0.11333634030E+04  0.11748044311E+04  0.10100000000E+03 0.  1.
<mgrwt>
<rscale>  0 0.13705526E+04</rscale>
<asrwt>0</asrwt>
<pdfrwt beam="1">  1        2 0.32128211E+00 0.13705526E+04</pdfrwt>
<pdfrwt beam="2">  1       -2 0.29829696E-01 0.13705526E+04</pdfrwt>
<totfact> 0.60412458E+01</totfact>
</mgrwt>
</event>
<event>
 8    2  0.4306980E-052  0.1411945E+04  0.7818608E-02  0.8945217E-01
         -2   -1    0    0    0  501 -0.00000000000E+00  0.00000000000E+00  0.19806486253E+03  0.19806486255E+03  0.25500000000E-02 0. -1.
          2   -1    0    0  501    0  0.00000000000E+00 -0.00000000000E+00 -0.25163321938E+04  0.25163321938E+04  0.25500000000E-02 0.  1.
    -200001    2    1    2    0    0  0.10754359862E+03 -0.27156423913E+03 -0.79134845560E+03  0.10433007053E+04  0.61394724687E+03 0.  0.
   -5000001    2    3    3    0    0  0.85811536432E+02 -0.45563398139E+03 -0.55795114142E+03  0.72861155899E+03  0.67818750357E+02 0.  0.
     200001    1    1    2    0    0 -0.10754359862E+03  0.27156423913E+03 -0.15269188756E+04  0.16710963510E+04  0.61300000000E+03 0. -1.
         13    1    4    4    0    0  0.13243545278E+02 -0.20244404541E+02 -0.46086011424E+02  0.52049582321E+02  0.10566000000E+00 0.  1.
    -200003    1    4    4    0    0  0.72567991153E+02 -0.43538957685E+03 -0.51186512999E+03  0.67656197667E+03  0.30000000000E+02 0.  1.
    -200000    1    3    3    0    0  0.21732062188E+02  0.18406974227E+03 -0.23339731418E+03  0.31468914632E+03  0.10100000000E+03 0. -1.
<mgrwt>
<rscale>  0 0.14119447E+04</rscale>
<asrwt>0</asrwt>
<pdfrwt beam="1">  1        2 0.35947601E+00 0.14119447E+04</pdfrwt>
<pdfrwt beam="2">  1       -2 0.28294982E-01 0.14119447E+04</pdfrwt>
<totfact> 0.48205401E+01</totfact>
</mgrwt>
</event>
<event>
 8    2  0.4306980E-052  0.1793524E+04  0.7818608E-02  0.8709751E-01
         -2   -1    0    0    0  501 -0.00000000000E+00  0.00000000000E+00  0.58046659898E+03  0.58046659898E+03  0.25500000000E-02 0. -1.
          2   -1    0    0  501    0  0.00000000000E+00 -0.00000000000E+00 -0.13854063689E+04  0.13854063689E+04  0.25500000000E-02 0.  1.
    -200001    2    1    2    0    0 -0.25643780275E+03  0.31655132236E+03 -0.96342325242E+03  0.12129778220E+04  0.61413821496E+03 0.  0.
   -5000001    2    3    3    0    0 -0.36806744157E+03 -0.69647648730E+01 -0.44247969093E+03  0.58154530052E+03  0.82972948496E+02 0.  0.
     200001    1    1    2    0    0  0.25643780275E+03 -0.31655132236E+03  0.15848348253E+03  0.75289514582E+03  0.61300000000E+03 0. -1.
         13    1    4    4    0    0 -0.23606209353E+03  0.26063445120E+02 -0.29356794305E+03  0.37760662537E+03  0.10566000000E+00 0.  1.
    -200003    1    4    4    0    0 -0.13200534804E+03 -0.33028209993E+02 -0.14891174788E+03  0.20393867515E+03  0.30000000000E+02 0.  1.
    -200000    1    3    3    0    0  0.11162963882E+03  0.32351608723E+03 -0.52094356149E+03  0.63143252151E+03  0.10100000000E+03 0. -1.
<mgrwt>
<rscale>  0 0.17935240E+04</rscale>
<asrwt>0</asrwt>
<pdfrwt beam="1">  1        2 0.19791519E+00 0.17935240E+04</pdfrwt>
<pdfrwt beam="2">  1       -2 0.82923801E-01 0.17935240E+04</pdfrwt>
<totfact> 0.20350423E+01</totfact>
</mgrwt>
</event>
<event>
 8    2  0.4306980E-052  0.1487988E+04  0.7818608E-02  0.8892480E-01
         -2   -1    0    0    0  501 -0.00000000000E+00  0.00000000000E+00  0.38361910015E+03  0.38361910016E+03  0.25500000000E-02 0. -1.
          2   -1    0    0  501    0  0.00000000000E+00 -0.00000000000E+00 -0.14429080084E+04  0.14429080084E+04  0.25500000000E-02 0.  1.
    -200001    2    1    2    0    0 -0.20987011011E+03 -0.11765496363E+03 -0.95463742685E+03  0.11597369721E+04  0.61300006045E+03 0.  0.
   -5000001    2    3    3    0    0 -0.33001777640E+03  0.12002965137E+03 -0.39861507426E+03  0.53500399353E+03  0.63375434667E+02 0.  0.
     200001    1    1    2    0    0  0.20987011011E+03  0.11765496363E+03 -0.10465148145E+03  0.66679013652E+03  0.61300000000E+03 0.  1.
         13    1    4    4    0    0 -0.15018327908E+03  0.78866497511E+02 -0.20062388535E+03  0.26272589573E+03  0.10566000000E+00 0.  1.
    -200003    1    4    4    0    0 -0.17983449731E+03  0.41163153860E+02 -0.19799118890E+03  0.27227809780E+03  0.30000000000E+02 0.  1.
    -200000    1    3    3    0    0  0.12014766629E+03 -0.23768461500E+03 -0.55602235259E+03  0.62473297856E+03  0.10100000000E+03 0.  1.
<mgrwt>
<rscale>  0 0.14879880E+04</rscale>
<asrwt>0</asrwt>
<pdfrwt beam="1">  1        2 0.20612971E+00 0.14879880E+04</pdfrwt>
<pdfrwt beam="2">  1       -2 0.54802729E-01 0.14879880E+04</pdfrwt>
<totfact> 0.47575616E+01</totfact>
</mgrwt>
</event>
<event>
 8    2  0.4306980E-052  0.1707309E+04  0.7818608E-02  0.8757207E-01
          2   -1    0    0  501    0  0.00000000000E+00  0.00000000000E+00  0.21194018656E+04  0.21194018656E+04  0.25500000000E-02 0.  1.
         -2   -1    0    0    0  501 -0.00000000000E+00 -0.00000000000E+00 -0.34383549528E+03  0.34383549529E+03  0.25500000000E-02 0. -1.
    -200001    2    1    2    0    0  0.19143625790E+03  0.84368104449E+02  0.71356539090E+02  0.64009009125E+03  0.60071436754E+03 0.  0.
   -5000001    2    3    3    0    0  0.80462119854E+02 -0.11106088127E+03  0.26662822523E+03  0.32570214749E+03  0.12721087340E+03 0.  0.
     200001    1    1    2    0    0 -0.19143625790E+03 -0.84368104449E+02  0.17042098312E+04  0.18231472696E+04  0.61300000000E+03 0.  1.
         13    1    4    4    0    0  0.10850151024E+03 -0.86568058426E+02  0.18823213043E+03  0.23387593411E+03  0.10566000000E+00 0.  1.
    -200003    1    4    4    0    0 -0.28039390390E+02 -0.24492822849E+02  0.78396094802E+02  0.91826213385E+02  0.30000000000E+02 0.  1.
    -200000    1    3    3    0    0  0.11097413804E+03  0.19542898572E+03 -0.19527168614E+03  0.31438794376E+03  0.10100000000E+03 0. -1.
<mgrwt>
<rscale>  0 0.17073085E+04</rscale>
<asrwt>0</asrwt>
<pdfrwt beam="1">  1        2 0.30277169E+00 0.17073085E+04</pdfrwt>
<pdfrwt beam="2">  1       -2 0.49119357E-01 0.17073085E+04</pdfrwt>
<totfact> 0.26041671E+01</totfact>
</mgrwt>
</event>
<event>
 8    2  0.4306980E-052  0.1268264E+04  0.7818608E-02  0.9055118E-01
          2   -1    0    0  501    0  0.00000000000E+00  0.00000000000E+00  0.19719559129E+03  0.19719559130E+03  0.25500000000E-02 0.  1.
         -2   -1    0    0    0  501 -0.00000000000E+00 -0.00000000000E+00 -0.20392109505E+04  0.20392109505E+04  0.25500000000E-02 0. -1.
    -200001    2    1    2    0    0 -0.10123980531E+02  0.23008310213E+02 -0.63169674387E+03  0.87947175046E+03  0.61139014248E+03 0.  0.
   -5000001    2    3    3    0    0  0.18574735119E+03 -0.91484535864E+02 -0.58521475923E+03  0.62681434350E+03  0.86881574714E+02 0.  0.
     200001    1    1    2    0    0  0.10123980531E+02 -0.23008310213E+02 -0.12103186153E+04  0.13569347914E+04  0.61300000000E+03 0. -1.
         13    1    4    4    0    0  0.16838931997E+03 -0.69623921270E+02 -0.50223115640E+03  0.53426454039E+03  0.10566000000E+00 0.  1.
    -200003    1    4    4    0    0  0.17358031228E+02 -0.21860614595E+02 -0.82983602828E+02  0.92549803117E+02  0.30000000000E+02 0. -1.
    -200000    1    3    3    0    0 -0.19587133173E+03  0.11449284608E+03 -0.46481984645E+02  0.25265740696E+03  0.10100000000E+03 0.  1.
<mgrwt>
<rscale>  0 0.12682640E+04</rscale>
<asrwt>0</asrwt>
<pdfrwt beam="1">  1        2 0.28170800E-01 0.12682640E+04</pdfrwt>
<pdfrwt beam="2">  1       -2 0.29131584E+00 0.12682640E+04</pdfrwt>
<totfact> 0.67997187E+00</totfact>
</mgrwt>
</event>
<event>
 8    2  0.4306980E-052  0.1244855E+04  0.7818608E-02  0.9074476E-01
         -2   -1    0    0    0  501 -0.00000000000E+00  0.00000000000E+00  0.28530566641E+03  0.28530566643E+03  0.25500000000E-02 0. -1.
          2   -1    0    0  501    0  0.00000000000E+00 -0.00000000000E+00 -0.13578976940E+04  0.13578976940E+04  0.25500000000E-02 0.  1.
    -200001    2    1    2    0    0 -0.34363237811E+01  0.47698208543E+02 -0.66474427268E+03  0.90537159192E+03  0.61280163510E+03 0.  0.
   -5000001    2    3    3    0    0 -0.60013661311E+02  0.71157434296E+01  0.89355351695E+02  0.14135904289E+03  0.91354949413E+02 0.  0.
     200001    1    1    2    0    0  0.34363237811E+01 -0.47698208543E+02 -0.40784775488E+03  0.73783176848E+03  0.61300000000E+03 0. -1.
         13    1    4    4    0    0 -0.27332168519E+02 -0.90596156861E+01  0.89626391415E+02  0.94138330528E+02  0.10566000000E+00 0.  1.
    -200003    1    4    4    0    0 -0.32681492792E+02  0.16175359116E+02 -0.27103972043E+00  0.47220712364E+02  0.30000000000E+02 0.  1.
    -200000    1    3    3    0    0  0.56577337530E+02  0.40582465113E+02 -0.75409962437E+03  0.76401254903E+03  0.10100000000E+03 0.  1.
<mgrwt>
<rscale>  0 0.12448549E+04</rscale>
<asrwt>0</asrwt>
<pdfrwt beam="1">  1        2 0.19398538E+00 0.12448549E+04</pdfrwt>
<pdfrwt beam="2">  1       -2 0.40757953E-01 0.12448549E+04</pdfrwt>
<totfact> 0.97781579E+01</totfact>
</mgrwt>
</event>
<event>
 8    2  0.4306980E-052  0.1413876E+04  0.7818608E-02  0.8943835E-01
         -2   -1    0    0    0  501 -0.00000000000E+00  0.00000000000E+00  0.29133380250E+03  0.29133380251E+03  0.25500000000E-02 0. -1.
          2   -1    0    0  501    0  0.00000000000E+00 -0.00000000000E+00 -0.17154260632E+04  0.17154260632E+04  0.25500000000E-02 0.  1.
    -200001    2    1    2    0    0  0.26538489536E+03 -0.20102995209E+03 -0.87585617692E+03  0.11195316043E+04  0.61268653159E+03 0.  0.
   -5000001    2    3    3    0    0  0.12286883077E+03 -0.34505262989E+03 -0.79719941523E+03  0.87986256884E+03  0.66881727155E+02 0.  0.
     200001    1    1    2    0    0 -0.26538489536E+03  0.20102995209E+03 -0.54823608377E+03  0.88722826142E+03  0.61300000000E+03 0. -1.
         13    1    4    4    0    0  0.10053327735E+03 -0.24961021211E+03 -0.60117771844E+03  0.65865534095E+03  0.10566000000E+00 0.  1.
    -200003    1    4    4    0    0  0.22335553418E+02 -0.95442417778E+02 -0.19602169679E+03  0.22120722789E+03  0.30000000000E+02 0.  1.
    -200000    1    3    3    0    0  0.14251606459E+03  0.14402267780E+03 -0.78656761685E+02  0.23966903543E+03  0.10100000000E+03 0.  1.
<mgrwt>
<rscale>  0 0.14138764E+04</rscale>
<asrwt>0</asrwt>
<pdfrwt beam="1">  1        2 0.24506086E+00 0.14138764E+04</pdfrwt>
<pdfrwt beam="2">  1       -2 0.41619116E-01 0.14138764E+04</pdfrwt>
<totfact> 0.59932151E+01</totfact>
</mgrwt>
</event>
<event>
 8    2  0.4306980E-052  0.2031919E+04  0.7818608E-02  0.8591841E-01
          2   -1    0    0  501    0  0.00000000000E+00  0.00000000000E+00  0.24293903306E+04  0.24293903306E+04  0.25500000000E-02 0.  1.
         -2   -1    0    0    0  501 -0.00000000000E+00 -0.00000000000E+00 -0.42486938233E+03  0.42486938234E+03  0.25500000000E-02 0. -1.
    -200001    2    1    2    0    0  0.33278353956E+01 -0.70395899546E+03  0.44040511529E+03  0.10327777117E+04  0.61408777426E+03 0.  0.
   -5000001    2    3    3    0    0 -0.29777994222E+02  0.87749636461E+02  0.33404959281E+02  0.13625739361E+03  0.94145941859E+02 0.  0.
     200001    1    1    2    0    0 -0.33278353956E+01  0.70395899546E+03  0.15641158330E+04  0.18214820012E+04  0.61300000000E+03 0.  1.
         13    1    4    4    0    0  0.25708357785E+01 -0.16275197350E+02 -0.44904057958E+01  0.17078236257E+02  0.10566000000E+00 0.  1.
    -200003    1    4    4    0    0 -0.32348830000E+02  0.10402483381E+03  0.37895365077E+02  0.11917915735E+03  0.30000000000E+02 0.  1.
    -200000    1    3    3    0    0  0.33105829617E+02 -0.79170863193E+03  0.40700015601E+03  0.89652031813E+03  0.10100000000E+03 0. -1.
<mgrwt>
<rscale>  0 0.20319189E+04</rscale>
<asrwt>0</asrwt>
<pdfrwt beam="1">  1        2 0.34705577E+00 0.20319189E+04</pdfrwt>
<pdfrwt beam="2">  1       -2 0.60695625E-01 0.20319189E+04</pdfrwt>
<totfact> 0.11289810E+01</totfact>
</mgrwt>
</event>
<event>
 8    2  0.4306980E-052  0.1465154E+04  0.7818608E-02  0.8907961E-01
         -2   -1    0    0    0  501 -0.00000000000E+00  0.00000000000E+00  0.24233033726E+03  0.24233033727E+03  0.25500000000E-02 0. -1.
          2   -1    0    0  501    0  0.00000000000E+00 -0.00000000000E+00 -0.22146179967E+04  0.22146179967E+04  0.25500000000E-02 0.  1.
    -200001    2    1    2    0    0  0.97127881980E+02 -0.21610356848E+03 -0.44332634064E+03  0.79272890968E+03  0.61298148599E+03 0.  0.
   -5000001    2    3    3    0    0  0.27155316697E+03 -0.22616205575E+03 -0.70321613112E+02  0.36863118513E+03  0.77803749437E+02 0.  0.
     200001    1    1    2    0    0 -0.97127881980E+02  0.21610356848E+03 -0.15289613188E+04  0.16642194242E+04  0.61300000000E+03 0.  1.
         13    1    4    4    0    0  0.50950000252E+02 -0.40933508145E+02  0.14313272531E+02  0.66905422421E+02  0.10566000000E+00 0.  1.
    -200003    1    4    4    0    0  0.22060316672E+03 -0.18522854761E+03 -0.84634885644E+02  0.30172576271E+03  0.30000000000E+02 0. -1.
    -200000    1    3    3    0    0 -0.17442528499E+03  0.10058487267E+02 -0.37300472752E+03  0.42409772455E+03  0.10100000000E+03 0.  1.
<mgrwt>
<rscale>  0 0.14651541E+04</rscale>
<asrwt>0</asrwt>
<pdfrwt beam="1">  1        2 0.31637399E+00 0.14651541E+04</pdfrwt>
<pdfrwt beam="2">  1       -2 0.34618621E-01 0.14651541E+04</pdfrwt>
<totfact> 0.47185382E+01</totfact>
</mgrwt>
</event>
<event>
 8    2  0.4306980E-052  0.2309769E+04  0.7818608E-02  0.8474079E-01
         -2   -1    0    0    0  501 -0.00000000000E+00  0.00000000000E+00  0.76785820737E+03  0.76785820737E+03  0.25500000000E-02 0. -1.
          2   -1    0    0  501    0  0.00000000000E+00 -0.00000000000E+00 -0.17369855843E+04  0.17369855843E+04  0.25500000000E-02 0.  1.
    -200001    2    1    2    0    0  0.20559158612E+03 -0.62218452469E+03  0.30406567944E+03  0.94722668794E+03  0.61269974530E+03 0.  0.
   -5000001    2    3    3    0    0  0.24584333569E+03 -0.19345796089E+02  0.12077342989E+03  0.30782713774E+03  0.13913346052E+03 0.  0.
     200001    1    1    2    0    0 -0.20559158612E+03  0.62218452469E+03 -0.12731930564E+04  0.15576171037E+04  0.61300000000E+03 0.  1.
         13    1    4    4    0    0  0.51887694427E+02 -0.49375989857E+02 -0.66099715709E+01  0.71930689525E+02  0.10566000000E+00 0.  1.
    -200003    1    4    4    0    0  0.19395564126E+03  0.30030193767E+02  0.12738340146E+03  0.23589644822E+03  0.30000000000E+02 0.  1.
    -200000    1    3    3    0    0 -0.40251749569E+02 -0.60283872860E+03  0.18329224955E+03  0.63939955020E+03  0.10100000000E+03 0. -1.
<mgrwt>
<rscale>  0 0.23097694E+04</rscale>
<asrwt>0</asrwt>
<pdfrwt beam="1">  1        2 0.24814080E+00 0.23097694E+04</pdfrwt>
<pdfrwt beam="2">  1       -2 0.10969403E+00 0.23097694E+04</pdfrwt>
<totfact> 0.66109334E+00</totfact>
</mgrwt>
</event>
<event>
 8    2  0.4306980E-052  0.1628321E+04  0.7818608E-02  0.8803336E-01
         -2   -1    0    0    0  501 -0.00000000000E+00  0.00000000000E+00  0.39556848184E+03  0.39556848185E+03  0.25500000000E-02 0. -1.
          2   -1    0    0  501    0  0.00000000000E+00 -0.00000000000E+00 -0.16757087125E+04  0.16757087125E+04  0.25500000000E-02 0.  1.
    -200001    2    1    2    0    0  0.51611740574E+03 -0.11859824602E+03 -0.53363806003E+03  0.96969777768E+03  0.61245528853E+03 0.  0.
   -5000001    2    3    3    0    0  0.92969077035E+02  0.18011012835E+03 -0.28758501365E+03  0.38743984288E+03  0.16223928057E+03 0.  0.
     200001    1    1    2    0    0 -0.51611740574E+03  0.11859824602E+03 -0.74650217057E+03  0.11015794166E+04  0.61300000000E+03 0.  1.
         13    1    4    4    0    0  0.78008445689E+02  0.19737339014E+03 -0.27565617617E+03  0.34789066006E+03  0.10566000000E+00 0.  1.
    -200003    1    4    4    0    0  0.14960631346E+02 -0.17263261792E+02 -0.11928837472E+02  0.39549182816E+02  0.30000000000E+02 0.  1.
    -200000    1    3    3    0    0  0.42314832870E+03 -0.29870837436E+03 -0.24605304639E+03  0.58225793480E+03  0.10100000000E+03 0. -1.
<mgrwt>
<rscale>  0 0.16283213E+04</rscale>
<asrwt>0</asrwt>
<pdfrwt beam="1">  1        2 0.23938696E+00 0.16283213E+04</pdfrwt>
<pdfrwt beam="2">  1       -2 0.56509784E-01 0.16283213E+04</pdfrwt>
<totfact> 0.33268473E+01</totfact>
</mgrwt>
</event>
<event>
 8    2  0.4306980E-052  0.1371597E+04  0.7818608E-02  0.8974638E-01
         -2   -1    0    0    0  501 -0.00000000000E+00  0.00000000000E+00  0.70797917951E+03  0.70797917952E+03  0.25500000000E-02 0. -1.
          2   -1    0    0  501    0  0.00000000000E+00 -0.00000000000E+00 -0.66431287711E+03  0.66431287712E+03  0.25500000000E-02 0.  1.
    -200001    2    1    2    0    0  0.27226574531E+03  0.13725975442E+03  0.65968701832E+02  0.68728455793E+03  0.61240453762E+03 0.  0.
   -5000001    2    3    3    0    0 -0.23351249175E+02  0.30108777404E+03  0.11220354767E+03  0.33152102915E+03  0.78213989445E+02 0.  0.
     200001    1    1    2    0    0 -0.27226574531E+03 -0.13725975442E+03 -0.22302399432E+02  0.68500749870E+03  0.61300000000E+03 0. -1.
         13    1    4    4    0    0  0.23468915055E+02  0.12866055960E+03  0.47336420629E+02  0.13908658258E+03  0.10566000000E+00 0.  1.
    -200003    1    4    4    0    0 -0.46820164231E+02  0.17242721444E+03  0.64867127045E+02  0.19243444657E+03  0.30000000000E+02 0.  1.
    -200000    1    3    3    0    0  0.29561699449E+03 -0.16382801962E+03 -0.46234845843E+02  0.35576352878E+03  0.10100000000E+03 0. -1.
<mgrwt>
<rscale>  0 0.13715972E+04</rscale>
<asrwt>0</asrwt>
<pdfrwt beam="1">  1        2 0.94901839E-01 0.13715972E+04</pdfrwt>
<pdfrwt beam="2">  1       -2 0.10113988E+00 0.13715972E+04</pdfrwt>
<totfact> 0.37704748E+01</totfact>
</mgrwt>
</event>
<event>
 8    2  0.4306980E-052  0.1898838E+04  0.7818608E-02  0.8655435E-01
         -2   -1    0    0    0  501 -0.00000000000E+00  0.00000000000E+00  0.50824922203E+03  0.50824922203E+03  0.25500000000E-02 0. -1.
          2   -1    0    0  501    0  0.00000000000E+00 -0.00000000000E+00 -0.17735330843E+04  0.17735330843E+04  0.25500000000E-02 0.  1.
    -200001    2    1    2    0    0  0.70985612126E+03 -0.14807932850E+03 -0.65142956124E+03  0.11511146703E+04  0.61227551838E+03 0.  0.
   -5000001    2    3    3    0    0  0.76114300325E+03 -0.20980677773E+03 -0.49072044896E+03  0.94503448920E+03  0.17007666324E+03 0.  0.
     200001    1    1    2    0    0 -0.70985612126E+03  0.14807932850E+03 -0.61385430106E+03  0.11306676361E+04  0.61300000000E+03 0.  1.
         13    1    4    4    0    0  0.30766810169E+03 -0.80398266401E+02 -0.29436718380E+03  0.43333081139E+03  0.10566000000E+00 0.  1.
    -200003    1    4    4    0    0  0.45347490156E+03 -0.12940851133E+03 -0.19635326516E+03  0.51170367781E+03  0.30000000000E+02 0.  1.
    -200000    1    3    3    0    0 -0.51286881993E+02  0.61727449227E+02 -0.16070911228E+03  0.20608018106E+03  0.10100000000E+03 0.  1.
<mgrwt>
<rscale>  0 0.18988384E+04</rscale>
<asrwt>0</asrwt>
<pdfrwt beam="1">  1        2 0.25336187E+00 0.18988384E+04</pdfrwt>
<pdfrwt beam="2">  1       -2 0.72607032E-01 0.18988384E+04</pdfrwt>
<totfact> 0.16934950E+01</totfact>
</mgrwt>
</event>
<event>
 8    2  0.4306980E-052  0.1400433E+04  0.7818608E-02  0.8953505E-01
         -2   -1    0    0    0  501 -0.00000000000E+00  0.00000000000E+00  0.70368216385E+03  0.70368216385E+03  0.25500000000E-02 0. -1.
          2   -1    0    0  501    0  0.00000000000E+00 -0.00000000000E+00 -0.69676780677E+03  0.69676780677E+03  0.25500000000E-02 0.  1.
    -200001    2    1    2    0    0  0.12581162231E+03  0.12548785159E+03 -0.28421322605E+03  0.69895154948E+03  0.61333542655E+03 0.  0.
   -5000001    2    3    3    0    0  0.12931346226E+03 -0.17414892730E+03  0.56397667536E+02  0.23418145258E+03  0.67900187228E+02 0.  0.
     200001    1    1    2    0    0 -0.12581162231E+03 -0.12548785159E+03  0.29112758313E+03  0.70149842114E+03  0.61300000000E+03 0. -1.
         13    1    4    4    0    0  0.85343317784E+02 -0.13198624893E+03  0.24188529106E+02  0.15902499144E+03  0.10566000000E+00 0.  1.
    -200003    1    4    4    0    0  0.43970144474E+02 -0.42162678370E+02  0.32209138430E+02  0.75156461138E+02  0.30000000000E+02 0. -1.
    -200000    1    3    3    0    0 -0.35018399531E+01  0.29963677890E+03 -0.34061089358E+03  0.46477009691E+03  0.10100000000E+03 0.  1.
<mgrwt>
<rscale>  0 0.14004329E+04</rscale>
<asrwt>0</asrwt>
<pdfrwt beam="1">  1        2 0.99538258E-01 0.14004329E+04</pdfrwt>
<pdfrwt beam="2">  1       -2 0.10052602E+00 0.14004329E+04</pdfrwt>
<totfact> 0.36007522E+01</totfact>
</mgrwt>
</event>
<event>
 8    2  0.4306980E-052  0.1790907E+04  0.7818608E-02  0.8711150E-01
          2   -1    0    0  501    0  0.00000000000E+00  0.00000000000E+00  0.22145134071E+04  0.22145134072E+04  0.25500000000E-02 0.  1.
         -2   -1    0    0    0  501 -0.00000000000E+00 -0.00000000000E+00 -0.36208277686E+03  0.36208277687E+03  0.25500000000E-02 0. -1.
    -200001    2    1    2    0    0 -0.46571648060E+03 -0.42904188114E+03  0.11543589980E+04  0.14523000576E+04  0.61291270581E+03 0.  0.
   -5000001    2    3    3    0    0 -0.51533849987E+03 -0.16173244109E+03  0.95646228442E+03  0.11011864139E+04  0.77847701944E+02 0.  0.
     200001    1    1    2    0    0  0.46571648060E+03  0.42904188114E+03  0.69807163232E+03  0.11242961264E+04  0.61300000000E+03 0. -1.
         13    1    4    4    0    0 -0.34425734730E+03 -0.10624062374E+03  0.68854644226E+03  0.77710771815E+03  0.10566000000E+00 0.  1.
    -200003    1    4    4    0    0 -0.17108115257E+03 -0.55491817359E+02  0.26791584216E+03  0.32407869575E+03  0.30000000000E+02 0.  1.
    -200000    1    3    3    0    0  0.49622019268E+02 -0.26730944005E+03  0.19789671355E+03  0.35111364367E+03  0.10100000000E+03 0.  1.
<mgrwt>
<rscale>  0 0.17909072E+04</rscale>
<asrwt>0</asrwt>
<pdfrwt beam="1">  1        2 0.31635906E+00 0.17909072E+04</pdfrwt>
<pdfrwt beam="2">  1       -2 0.51726110E-01 0.17909072E+04</pdfrwt>
<totfact> 0.20787578E+01</totfact>
</mgrwt>
</event>
<event>
 8    2  0.4306980E-052  0.1346345E+04  0.7818608E-02  0.8993599E-01
         -2   -1    0    0    0  501 -0.00000000000E+00  0.00000000000E+00  0.17392954930E+03  0.17392954932E+03  0.25500000000E-02 0. -1.
          2   -1    0    0  501    0  0.00000000000E+00 -0.00000000000E+00 -0.26054308931E+04  0.26054308931E+04  0.25500000000E-02 0.  1.
    -200001    2    1    2    0    0  0.54974863660E+01 -0.27156268449E+03 -0.11511949903E+04  0.13341165624E+04  0.61712282602E+03 0.  0.
   -5000001    2    3    3    0    0  0.17857268826E+03 -0.29394594399E+03 -0.31618722028E+03  0.47510840655E+03  0.86378334804E+02 0.  0.
     200001    1    1    2    0    0 -0.54974863660E+01  0.27156268449E+03 -0.12803063535E+04  0.14452438801E+04  0.61300000000E+03 0. -1.
         13    1    4    4    0    0  0.71774333645E+02 -0.18401360954E+03 -0.15944192358E+03  0.25383912548E+03  0.10566000000E+00 0.  1.
    -200003    1    4    4    0    0  0.10679835462E+03 -0.10993233445E+03 -0.15674529671E+03  0.22126928107E+03  0.30000000000E+02 0. -1.
    -200000    1    3    3    0    0 -0.17307520190E+03  0.22383259500E+02 -0.83500777002E+03  0.85900815585E+03  0.10100000000E+03 0.  1.
<mgrwt>
<rscale>  0 0.13463453E+04</rscale>
<asrwt>0</asrwt>
<pdfrwt beam="1">  1        2 0.37220439E+00 0.13463453E+04</pdfrwt>
<pdfrwt beam="2">  1       -2 0.24847080E-01 0.13463453E+04</pdfrwt>
<totfact> 0.55158997E+01</totfact>
</mgrwt>
</event>
<event>
 8    2  0.4306980E-052  0.1368455E+04  0.7818608E-02  0.8976975E-01
          2   -1    0    0  501    0  0.00000000000E+00  0.00000000000E+00  0.63283813431E+03  0.63283813432E+03  0.25500000000E-02 0.  1.
         -2   -1    0    0    0  501 -0.00000000000E+00 -0.00000000000E+00 -0.73978959961E+03  0.73978959961E+03  0.25500000000E-02 0. -1.
    -200001    2    1    2    0    0 -0.30046043978E+03  0.31611307426E+02 -0.23042095936E+02  0.68408904010E+03  0.61332791064E+03 0.  0.
   -5000001    2    3    3    0    0 -0.17210913614E+03  0.41386574449E+02  0.27734778817E+03  0.34202954898E+03  0.93423837904E+02 0.  0.
     200001    1    1    2    0    0  0.30046043978E+03 -0.31611307426E+02 -0.83909369363E+02  0.68853869383E+03  0.61300000000E+03 0.  1.
         13    1    4    4    0    0 -0.42631182346E+02  0.35962485500E+02  0.14059667986E+03  0.15125526643E+03  0.10566000000E+00 0.  1.
    -200003    1    4    4    0    0 -0.12947795379E+03  0.54240889492E+01  0.13675110831E+03  0.19077428255E+03  0.30000000000E+02 0.  1.
    -200000    1    3    3    0    0 -0.12835130364E+03 -0.97752670237E+01 -0.30038988410E+03  0.34205949112E+03  0.10100000000E+03 0. -1.
<mgrwt>
<rscale>  0 0.13684547E+04</rscale>
<asrwt>0</asrwt>
<pdfrwt beam="1">  1        2 0.90405448E-01 0.13684547E+04</pdfrwt>
<pdfrwt beam="2">  1       -2 0.10568423E+00 0.13684547E+04</pdfrwt>
<totfact> 0.36000276E+01</totfact>
</mgrwt>
</event>
<event>
 8    2  0.4306980E-052  0.1681273E+04  0.7818608E-02  0.8772118E-01
          2   -1    0    0  501    0  0.00000000000E+00  0.00000000000E+00  0.20384738806E+04  0.20384738806E+04  0.25500000000E-02 0.  1.
         -2   -1    0    0    0  501 -0.00000000000E+00 -0.00000000000E+00 -0.34666602688E+03  0.34666602689E+03  0.25500000000E-02 0. -1.
    -200001    2    1    2    0    0 -0.48296520501E+03  0.28039259267E+03  0.10388919918E+04  0.13297046807E+04  0.61395649026E+03 0.  0.
   -5000001    2    3    3    0    0 -0.51300958197E+03  0.40034210931E+03  0.92574211217E+03  0.11340150121E+04  0.74424147568E+02 0.  0.
     200001    1    1    2    0    0  0.48296520501E+03 -0.28039259267E+03  0.65291586198E+03  0.10554352269E+04  0.61300000000E+03 0. -1.
         13    1    4    4    0    0 -0.38181653771E+03  0.27017435948E+03  0.65876393295E+03  0.80792820443E+03  0.10566000000E+00 0.  1.
    -200003    1    4    4    0    0 -0.13119304426E+03  0.13016774983E+03  0.26697817922E+03  0.32608680767E+03  0.30000000000E+02 0. -1.
    -200000    1    3    3    0    0  0.30044376962E+02 -0.11994951664E+03  0.11314987959E+03  0.19568966855E+03  0.10100000000E+03 0. -1.
<mgrwt>
<rscale>  0 0.16812729E+04</rscale>
<asrwt>0</asrwt>
<pdfrwt beam="1">  1        2 0.29121056E+00 0.16812729E+04</pdfrwt>
<pdfrwt beam="2">  1       -2 0.49523717E-01 0.16812729E+04</pdfrwt>
<totfact> 0.28248669E+01</totfact>
</mgrwt>
</event>
<event>
 8    2  0.4306980E-052  0.1805659E+04  0.7818608E-02  0.8703296E-01
          2   -1    0    0  501    0  0.00000000000E+00  0.00000000000E+00  0.15353467409E+04  0.15353467409E+04  0.25500000000E-02 0.  1.
         -2   -1    0    0    0  501 -0.00000000000E+00 -0.00000000000E+00 -0.53089078344E+03  0.53089078345E+03  0.25500000000E-02 0. -1.
    -200001    2    1    2    0    0 -0.31089600538E+03  0.51626720174E+03  0.82100736489E+03  0.11872548534E+04  0.61019082583E+03 0.  0.
   -5000001    2    3    3    0    0  0.14388374974E+03  0.27955064213E+03  0.22683606066E+03  0.39599011006E+03  0.80637918452E+02 0.  0.
     200001    1    1    2    0    0  0.31089600538E+03 -0.51626720174E+03  0.18344859257E+03  0.87898267097E+03  0.61300000000E+03 0. -1.
         13    1    4    4    0    0  0.32626543989E+02  0.97032201673E+02  0.37996079777E+02  0.10919456386E+03  0.10566000000E+00 0.  1.
    -200003    1    4    4    0    0  0.11125720575E+03  0.18251844046E+03  0.18883998088E+03  0.28679554620E+03  0.30000000000E+02 0.  1.
    -200000    1    3    3    0    0 -0.45477975512E+03  0.23671655960E+03  0.59417130424E+03  0.79126474333E+03  0.10100000000E+03 0.  1.
<mgrwt>
<rscale>  0 0.18056594E+04</rscale>
<asrwt>0</asrwt>
<pdfrwt beam="1">  1        2 0.21933525E+00 0.18056594E+04</pdfrwt>
<pdfrwt beam="2">  1       -2 0.75841541E-01 0.18056594E+04</pdfrwt>
<totfact> 0.20640948E+01</totfact>
</mgrwt>
</event>
<event>
 8    2  0.4306980E-052  0.1397771E+04  0.7818608E-02  0.8955434E-01
          2   -1    0    0  501    0  0.00000000000E+00  0.00000000000E+00  0.11174227701E+04  0.11174227701E+04  0.25500000000E-02 0.  1.
         -2   -1    0    0    0  501 -0.00000000000E+00 -0.00000000000E+00 -0.43711388874E+03  0.43711388875E+03  0.25500000000E-02 0. -1.
    -200001    2    1    2    0    0 -0.31352597412E+02  0.74844921241E+02 -0.22996057965E+02  0.61805837010E+03  0.61227655726E+03 0.  0.
   -5000001    2    3    3    0    0  0.19963073228E+03  0.11367833180E+03  0.12387671838E+03  0.32372192179E+03  0.19150782987E+03 0.  0.
     200001    1    1    2    0    0  0.31352597412E+02 -0.74844921241E+02  0.70330493927E+03  0.93647828870E+03  0.61300000000E+03 0.  1.
         13    1    4    4    0    0  0.15747059643E+03  0.14961484972E+03  0.43378794468E+02  0.22150242204E+03  0.10566000000E+00 0.  1.
    -200003    1    4    4    0    0  0.42160135857E+02 -0.35936517926E+02  0.80497923910E+02  0.10221949975E+03  0.30000000000E+02 0.  1.
    -200000    1    3    3    0    0 -0.23098332970E+03 -0.38833410556E+02 -0.14687277634E+03  0.29433644831E+03  0.10100000000E+03 0. -1.
<mgrwt>
<rscale>  0 0.13977711E+04</rscale>
<asrwt>0</asrwt>
<pdfrwt beam="1">  1        2 0.15963182E+00 0.13977711E+04</pdfrwt>
<pdfrwt beam="2">  1       -2 0.62444841E-01 0.13977711E+04</pdfrwt>
<totfact> 0.55332113E+01</totfact>
</mgrwt>
</event>
<event>
 8    2  0.4306980E-052  0.1396603E+04  0.7818608E-02  0.8956281E-01
          2   -1    0    0  501    0  0.00000000000E+00  0.00000000000E+00  0.13516584490E+04  0.13516584490E+04  0.25500000000E-02 0.  1.
         -2   -1    0    0    0  501 -0.00000000000E+00 -0.00000000000E+00 -0.36076073536E+03  0.36076073537E+03  0.25500000000E-02 0. -1.
    -200001    2    1    2    0    0 -0.22006329965E+03  0.24307083331E+03  0.41432656220E+03  0.80924999837E+03  0.61295005821E+03 0.  0.
   -5000001    2    3    3    0    0 -0.36680963653E+03  0.26105638455E+03  0.43268000097E+03  0.62926162053E+03  0.77836099984E+02 0.  0.
     200001    1    1    2    0    0  0.22006329965E+03 -0.24307083331E+03  0.57657115144E+03  0.90316918599E+03  0.61300000000E+03 0.  1.
         13    1    4    4    0    0 -0.92060763586E+02  0.73402023708E+02  0.15631004904E+03  0.19569334141E+03  0.10566000000E+00 0.  1.
    -200003    1    4    4    0    0 -0.27474887295E+03  0.18765436084E+03  0.27636995193E+03  0.43356827912E+03  0.30000000000E+02 0.  1.
    -200000    1    3    3    0    0  0.14674633689E+03 -0.17985551239E+02 -0.18353438778E+02  0.17998837784E+03  0.10100000000E+03 0. -1.
<mgrwt>
<rscale>  0 0.13966034E+04</rscale>
<asrwt>0</asrwt>
<pdfrwt beam="1">  1        2 0.19309407E+00 0.13966034E+04</pdfrwt>
<pdfrwt beam="2">  1       -2 0.51537247E-01 0.13966034E+04</pdfrwt>
<totfact> 0.60924821E+01</totfact>
</mgrwt>
</event>
<event>
 8    2  0.4306980E-052  0.1756873E+04  0.7818608E-02  0.8729576E-01
         -2   -1    0    0    0  501 -0.00000000000E+00  0.00000000000E+00  0.27096061601E+03  0.27096061602E+03  0.25500000000E-02 0. -1.
          2   -1    0    0  501    0  0.00000000000E+00 -0.00000000000E+00 -0.28478319818E+04  0.28478319818E+04  0.25500000000E-02 0.  1.
    -200001    2    1    2    0    0 -0.25447785128E+03 -0.23574559609E+03 -0.22207996418E+04  0.23295581361E+04  0.61200906675E+03 0.  0.
   -5000001    2    3    3    0    0 -0.36516430752E+03 -0.11259298283E+03 -0.80219039517E+03  0.89775114763E+03  0.12816216948E+03 0.  0.
     200001    1    1    2    0    0  0.25447785128E+03  0.23574559609E+03 -0.35607172398E+03  0.78923446167E+03  0.61300000000E+03 0. -1.
         13    1    4    4    0    0 -0.14514466391E+03 -0.63672100286E+02 -0.20774844741E+03  0.26130545035E+03  0.10566000000E+00 0.  1.
    -200003    1    4    4    0    0 -0.22001964361E+03 -0.48920882544E+02 -0.59444194776E+03  0.63644569728E+03  0.30000000000E+02 0.  1.
    -200000    1    3    3    0    0  0.11068645625E+03 -0.12315261326E+03 -0.14186092466E+04  0.14318069885E+04  0.10100000000E+03 0. -1.
<mgrwt>
<rscale>  0 0.17568726E+04</rscale>
<asrwt>0</asrwt>
<pdfrwt beam="1">  1        2 0.40683312E+00 0.17568726E+04</pdfrwt>
<pdfrwt beam="2">  1       -2 0.38708661E-01 0.17568726E+04</pdfrwt>
<totfact> 0.17188231E+01</totfact>
</mgrwt>
</event>
<event>
 8    2  0.4306980E-052  0.1408965E+04  0.7818608E-02  0.8947354E-01
         -2   -1    0    0    0  501 -0.00000000000E+00  0.00000000000E+00  0.50682152077E+03  0.50682152078E+03  0.25500000000E-02 0. -1.
          2   -1    0    0  501    0  0.00000000000E+00 -0.00000000000E+00 -0.97923192066E+03  0.97923192066E+03  0.25500000000E-02 0.  1.
    -200001    2    1    2    0    0 -0.26331790806E+03  0.32510188740E+02  0.24010300060E+00  0.66778653452E+03  0.61281772573E+03 0.  0.
   -5000001    2    3    3    0    0 -0.27069656459E+02  0.28126913834E+03  0.75564709610E+02  0.30231554012E+03  0.76417052897E+02 0.  0.
     200001    1    1    2    0    0  0.26331790806E+03 -0.32510188740E+02 -0.47265050288E+03  0.81826690692E+03  0.61300000000E+03 0. -1.
         13    1    4    4    0    0  0.18799708834E+02  0.95251370754E+02  0.40735693240E+02  0.10528846352E+03  0.10566000000E+00 0.  1.
    -200003    1    4    4    0    0 -0.45869365294E+02  0.18601776759E+03  0.34829016370E+02  0.19702707660E+03  0.30000000000E+02 0.  1.
    -200000    1    3    3    0    0 -0.23624825160E+03 -0.24875894960E+03 -0.75324606610E+02  0.36547099441E+03  0.10100000000E+03 0. -1.
<mgrwt>
<rscale>  0 0.14089653E+04</rscale>
<asrwt>0</asrwt>
<pdfrwt beam="1">  1        2 0.13989027E+00 0.14089653E+04</pdfrwt>
<pdfrwt beam="2">  1       -2 0.72403075E-01 0.14089653E+04</pdfrwt>
<totfact> 0.48662385E+01</totfact>
</mgrwt>
</event>
<event>
 8    2  0.4306980E-052  0.1712520E+04  0.7818608E-02  0.8754256E-01
         -2   -1    0    0    0  501 -0.00000000000E+00  0.00000000000E+00  0.28780426191E+04  0.28780426191E+04  0.25500000000E-02 0. -1.
          2   -1    0    0  501    0  0.00000000000E+00 -0.00000000000E+00 -0.25475007902E+03  0.25475007903E+03  0.25500000000E-02 0.  1.
    -200001    2    1    2    0    0 -0.49010860614E+03  0.32952249757E+03  0.14833781318E+04  0.17101313258E+04  0.61265565144E+03 0.  0.
   -5000001    2    3    3    0    0  0.82446090677E+02 -0.63888422976E+02  0.35198183109E+03  0.37864733318E+03  0.92755080987E+02 0.  0.
     200001    1    1    2    0    0  0.49010860614E+03 -0.32952249757E+03  0.11399144083E+04  0.14226613724E+04  0.61300000000E+03 0. -1.
         13    1    4    4    0    0  0.62017408359E+02 -0.69662971211E+02  0.17940932863E+03  0.20220486360E+03  0.10566000000E+00 0.  1.
    -200003    1    4    4    0    0  0.20428682318E+02  0.57745482355E+01  0.17257250246E+03  0.17644246958E+03  0.30000000000E+02 0.  1.
    -200000    1    3    3    0    0 -0.57255469682E+03  0.39341092055E+03  0.11313963007E+04  0.13314839926E+04  0.10100000000E+03 0.  1.
<mgrwt>
<rscale>  0 0.17125205E+04</rscale>
<asrwt>0</asrwt>
<pdfrwt beam="1">  1        2 0.36392875E-01 0.17125205E+04</pdfrwt>
<pdfrwt beam="2">  1       -2 0.41114887E+00 0.17125205E+04</pdfrwt>
<totfact> 0.86090459E-01</totfact>
</mgrwt>
</event>
<event>
 8    2  0.4306980E-052  0.1358620E+04  0.7818608E-02  0.8984329E-01
          2   -1    0    0  501    0  0.00000000000E+00  0.00000000000E+00  0.34125751433E+04  0.34125751433E+04  0.25500000000E-02 0.  1.
         -2   -1    0    0    0  501 -0.00000000000E+00 -0.00000000000E+00 -0.13522395314E+03  0.13522395317E+03  0.25500000000E-02 0. -1.
    -200001    2    1    2    0    0  0.68603458553E+02 -0.27380851632E+03  0.18422736970E+04  0.19619573801E+04  0.61288404154E+03 0.  0.
   -5000001    2    3    3    0    0 -0.31686661729E+02 -0.23181079575E+03  0.25998424665E+03  0.37272397321E+03  0.12880629697E+03 0.  0.
     200001    1    1    2    0    0 -0.68603458553E+02  0.27380851632E+03  0.14350774931E+04  0.15858417163E+04  0.61300000000E+03 0. -1.
         13    1    4    4    0    0  0.31984763744E+02 -0.90208086487E+01  0.37322358413E+02  0.49973690098E+02  0.10566000000E+00 0.  1.
    -200003    1    4    4    0    0 -0.63671425472E+02 -0.22278998710E+03  0.22266188824E+03  0.32275028311E+03  0.30000000000E+02 0.  1.
    -200000    1    3    3    0    0  0.10029012028E+03 -0.41997720569E+02  0.15822894504E+04  0.15892334069E+04  0.10100000000E+03 0.  1.
<mgrwt>
<rscale>  0 0.13586197E+04</rscale>
<asrwt>0</asrwt>
<pdfrwt beam="1">  1        2 0.48751075E+00 0.13586197E+04</pdfrwt>
<pdfrwt beam="2">  1       -2 0.19317707E-01 0.13586197E+04</pdfrwt>
<totfact> 0.30551335E+01</totfact>
</mgrwt>
</event>
<event>
 8    2  0.4306980E-052  0.1853120E+04  0.7818608E-02  0.8678550E-01
          2   -1    0    0  501    0  0.00000000000E+00  0.00000000000E+00  0.63245542488E+03  0.63245542488E+03  0.25500000000E-02 0.  1.
         -2   -1    0    0    0  501 -0.00000000000E+00 -0.00000000000E+00 -0.13574287772E+04  0.13574287772E+04  0.25500000000E-02 0. -1.
    -200001    2    1    2    0    0  0.26162493919E+03 -0.48816557576E+03 -0.81288835134E+03  0.11590705736E+04  0.61311001029E+03 0.  0.
   -5000001    2    3    3    0    0  0.11610971260E+03 -0.45134253691E+03 -0.84856959241E+03  0.97466675499E+03  0.11275362141E+03 0.  0.
     200001    1    1    2    0    0 -0.26162493919E+03  0.48816557576E+03  0.87914999032E+02  0.83081362845E+03  0.61300000000E+03 0.  1.
         13    1    4    4    0    0 -0.12034094045E+02 -0.14295327586E+02 -0.13687911074E+02  0.23163460102E+02  0.10566000000E+00 0.  1.
    -200003    1    4    4    0    0  0.12814380664E+03 -0.43704720932E+03 -0.83488168134E+03  0.95150329489E+03  0.30000000000E+02 0.  1.
    -200000    1    3    3    0    0  0.14551522659E+03 -0.36823038858E+02  0.35681241069E+02  0.18440381863E+03  0.10100000000E+03 0.  1.
<mgrwt>
<rscale>  0 0.18531197E+04</rscale>
<asrwt>0</asrwt>
<pdfrwt beam="1">  1        2 0.90350775E-01 0.18531197E+04</pdfrwt>
<pdfrwt beam="2">  1       -2 0.19391840E+00 0.18531197E+04</pdfrwt>
<totfact> 0.70049538E+00</totfact>
</mgrwt>
</event>
<event>
 8    2  0.4306980E-052  0.1334305E+04  0.7818608E-02  0.9002795E-01
          2   -1    0    0  501    0  0.00000000000E+00  0.00000000000E+00  0.11368002773E+04  0.11368002773E+04  0.25500000000E-02 0.  1.
         -2   -1    0    0    0  501 -0.00000000000E+00 -0.00000000000E+00 -0.39153106908E+03  0.39153106909E+03  0.25500000000E-02 0. -1.
    -200001    2    1    2    0    0 -0.24587828206E+03 -0.80314156403E+02  0.42693119198E+03  0.79075790198E+03  0.61328730914E+03 0.  0.
   -5000001    2    3    3    0    0 -0.19821334012E+03 -0.32070035872E+03  0.17775654317E+03  0.42696334655E+03  0.92536816308E+02 0.  0.
     200001    1    1    2    0    0  0.24587828206E+03  0.80314156403E+02  0.31833801623E+03  0.73757344440E+03  0.61300000000E+03 0.  1.
         13    1    4    4    0    0 -0.43277323682E+02 -0.98601491222E+02  0.12745172107E+02  0.10843261222E+03  0.10566000000E+00 0.  1.
    -200003    1    4    4    0    0 -0.15493601644E+03 -0.22209886750E+03  0.16501137107E+03  0.31853073433E+03  0.30000000000E+02 0.  1.
    -200000    1    3    3    0    0 -0.47664941943E+02  0.24038620232E+03  0.24917464881E+03  0.36379455543E+03  0.10100000000E+03 0.  1.
<mgrwt>
<rscale>  0 0.13343053E+04</rscale>
<asrwt>0</asrwt>
<pdfrwt beam="1">  1        2 0.16240004E+00 0.13343053E+04</pdfrwt>
<pdfrwt beam="2">  1       -2 0.55933009E-01 0.13343053E+04</pdfrwt>
<totfact> 0.68286300E+01</totfact>
</mgrwt>
</event>
<event>
 8    2  0.4306980E-052  0.1350308E+04  0.7818608E-02  0.8990595E-01
         -2   -1    0    0    0  501 -0.00000000000E+00  0.00000000000E+00  0.91495136991E+03  0.91495136991E+03  0.25500000000E-02 0. -1.
          2   -1    0    0  501    0  0.00000000000E+00 -0.00000000000E+00 -0.49820460871E+03  0.49820460872E+03  0.25500000000E-02 0.  1.
    -200001    2    1    2    0    0  0.33635059292E+01  0.23068348567E+03  0.39899287263E+02  0.65750447010E+03  0.61440539658E+03 0.  0.
   -5000001    2    3    3    0    0  0.19590046810E+03 -0.81656136454E+02 -0.10940765949E+03  0.24870123418E+03  0.69552497463E+02 0.  0.
     200001    1    1    2    0    0 -0.33635059292E+01 -0.23068348567E+03  0.37684747393E+03  0.75565150853E+03  0.61300000000E+03 0.  1.
         13    1    4    4    0    0  0.83994300018E+02 -0.46791260412E+02 -0.77716302012E+02  0.12362968595E+03  0.10566000000E+00 0.  1.
    -200003    1    4    4    0    0  0.11190616808E+03 -0.34864876042E+02 -0.31691357482E+02  0.12507154823E+03  0.30000000000E+02 0. -1.
    -200000    1    3    3    0    0 -0.19253696217E+03  0.31233962212E+03  0.14930694676E+03  0.40880323592E+03  0.10100000000E+03 0.  1.
<mgrwt>
<rscale>  0 0.13503081E+04</rscale>
<asrwt>0</asrwt>
<pdfrwt beam="1">  1        2 0.71172086E-01 0.13503081E+04</pdfrwt>
<pdfrwt beam="2">  1       -2 0.13070734E+00 0.13503081E+04</pdfrwt>
<totfact> 0.28239158E+01</totfact>
</mgrwt>
</event>
<event>
 8    2  0.4306980E-052  0.1564313E+04  0.7818608E-02  0.8842777E-01
         -2   -1    0    0    0  501 -0.00000000000E+00  0.00000000000E+00  0.16550857095E+03  0.16550857097E+03  0.25500000000E-02 0. -1.
          2   -1    0    0  501    0  0.00000000000E+00 -0.00000000000E+00 -0.36962947656E+04  0.36962947656E+04  0.25500000000E-02 0.  1.
    -200001    2    1    2    0    0 -0.13315713596E+03 -0.28369176687E+03 -0.84882434571E+03  0.10928865446E+04  0.61293261307E+03 0.  0.
   -5000001    2    3    3    0    0 -0.18875042564E+03  0.11304322461E+03 -0.50489102980E+03  0.55531757874E+03  0.71113764263E+02 0.  0.
     200001    1    1    2    0    0  0.13315713596E+03  0.28369176687E+03 -0.26819618489E+04  0.27689167919E+04  0.61300000000E+03 0.  1.
         13    1    4    4    0    0 -0.14812933993E+03  0.93387836290E+02 -0.35292684969E+03  0.39398091541E+03  0.10566000000E+00 0.  1.
    -200003    1    4    4    0    0 -0.40621085716E+02  0.19655388323E+02 -0.15196418012E+03  0.16133666333E+03  0.30000000000E+02 0.  1.
    -200000    1    3    3    0    0  0.55593289683E+02 -0.39673499148E+03 -0.34393331590E+03  0.53756896591E+03  0.10100000000E+03 0. -1.
<mgrwt>
<rscale>  0 0.15643126E+04</rscale>
<asrwt>0</asrwt>
<pdfrwt beam="1">  1        2 0.52804206E+00 0.15643126E+04</pdfrwt>
<pdfrwt beam="2">  1       -2 0.23644084E-01 0.15643126E+04</pdfrwt>
<totfact> 0.14005466E+01</totfact>
</mgrwt>
</event>
<event>
 8    2  0.4306980E-052  0.1357470E+04  0.7818608E-02  0.8985193E-01
          2   -1    0    0  501    0  0.00000000000E+00  0.00000000000E+00  0.36892311955E+04  0.36892311955E+04  0.25500000000E-02 0.  1.
         -2   -1    0    0    0  501 -0.00000000000E+00 -0.00000000000E+00 -0.12487184474E+03  0.12487184477E+03  0.25500000000E-02 0. -1.
    -200001    2    1    2    0    0  0.28415878307E+02  0.16003558783E+03  0.24616645895E+04  0.25420481719E+04  0.61302325064E+03 0.  0.
   -5000001    2    3    3    0    0 -0.33225899646E+02  0.35734875689E+03  0.18985751058E+04  0.19337694840E+04  0.77941585332E+02 0.  0.
     200001    1    1    2    0    0 -0.28415878307E+02 -0.16003558783E+03  0.11026947613E+04  0.12720548684E+04  0.61300000000E+03 0. -1.
         13    1    4    4    0    0 -0.47465267783E+02  0.15202671237E+03  0.82044404898E+03  0.83575924858E+03  0.10566000000E+00 0.  1.
    -200003    1    4    4    0    0  0.14239368137E+02  0.20532204452E+03  0.10781310568E+04  0.10980102354E+04  0.30000000000E+02 0. -1.
    -200000    1    3    3    0    0  0.61641777954E+02 -0.19731316906E+03  0.56308948371E+03  0.60827868789E+03  0.10100000000E+03 0.  1.
<mgrwt>
<rscale>  0 0.13574699E+04</rscale>
<asrwt>0</asrwt>
<pdfrwt beam="1">  1        2 0.52703299E+00 0.13574699E+04</pdfrwt>
<pdfrwt beam="2">  1       -2 0.17838836E-01 0.13574699E+04</pdfrwt>
<totfact> 0.23760379E+01</totfact>
</mgrwt>
</event>
<event>
 8    2  0.4306980E-052  0.1464175E+04  0.7818608E-02  0.8908632E-01
         -2   -1    0    0    0  501 -0.00000000000E+00  0.00000000000E+00  0.40071163124E+03  0.40071163125E+03  0.25500000000E-02 0.  1.
          2   -1    0    0  501    0  0.00000000000E+00 -0.00000000000E+00 -0.13375012419E+04  0.13375012419E+04  0.25500000000E-02 0. -1.
    -200001    2    1    2    0    0  0.13868656867E+03 -0.36230733051E+03 -0.58313117241E+03  0.93115410390E+03  0.61360038698E+03 0.  0.
   -5000001    2    3    3    0    0  0.21908408937E+03 -0.33558317629E+03 -0.65659803560E+03  0.78023584211E+03  0.13051085215E+03 0.  0.
     200001    1    1    2    0    0 -0.13868656867E+03  0.36230733051E+03 -0.35365843822E+03  0.80705876923E+03  0.61300000000E+03 0. -1.
         13    1    4    4    0    0  0.18961722816E+03 -0.24728934136E+03 -0.41021526431E+03  0.51515365262E+03  0.10566000000E+00 0.  1.
    -200003    1    4    4    0    0  0.29466861213E+02 -0.88293834925E+02 -0.24638277129E+03  0.26508218949E+03  0.30000000000E+02 0.  1.
    -200000    1    3    3    0    0 -0.80397520702E+02 -0.26724154220E+02  0.73466863193E+02  0.15091826179E+03  0.10100000000E+03 0. -1.
<mgrwt>
<rscale>  0 0.14641753E+04</rscale>
<asrwt>0</asrwt>
<pdfrwt beam="1">  1        2 0.19107160E+00 0.14641753E+04</pdfrwt>
<pdfrwt beam="2">  1       -2 0.57244519E-01 0.14641753E+04</pdfrwt>
<totfact> 0.49650687E+01</totfact>
</mgrwt>
</event>
<event>
 8    2  0.4306980E-052  0.1795291E+04  0.7818608E-02  0.8708808E-01
         -2   -1    0    0    0  501 -0.00000000000E+00  0.00000000000E+00  0.90417904202E+03  0.90417904203E+03  0.25500000000E-02 0. -1.
          2   -1    0    0  501    0  0.00000000000E+00 -0.00000000000E+00 -0.89115921864E+03  0.89115921864E+03  0.25500000000E-02 0.  1.
    -200001    2    1    2    0    0 -0.62441327668E+03  0.19373024270E+02  0.20935282523E+03  0.89835280830E+03  0.61068969910E+03 0.  0.
   -5000001    2    3    3    0    0 -0.59384123631E+03 -0.19120993932E+03  0.11198452050E+03  0.64347750354E+03  0.11096895915E+03 0.  0.
     200001    1    1    2    0    0  0.62441327668E+03 -0.19373024270E+02 -0.19633300184E+03  0.89698545237E+03  0.61300000000E+03 0.  1.
         13    1    4    4    0    0 -0.45043692198E+03 -0.10506355678E+03  0.64448437404E+02  0.46699612835E+03  0.10566000000E+00 0.  1.
    -200003    1    4    4    0    0 -0.14340431433E+03 -0.86146382537E+02  0.47536083092E+02  0.17648137519E+03  0.30000000000E+02 0.  1.
    -200000    1    3    3    0    0 -0.30572040362E+02  0.21058296359E+03  0.97368304733E+02  0.25487530475E+03  0.10100000000E+03 0.  1.
<mgrwt>
<rscale>  0 0.17952911E+04</rscale>
<asrwt>0</asrwt>
<pdfrwt beam="1">  1        2 0.12730846E+00 0.17952911E+04</pdfrwt>
<pdfrwt beam="2">  1       -2 0.12916844E+00 0.17952911E+04</pdfrwt>
<totfact> 0.13780477E+01</totfact>
</mgrwt>
</event>
<event>
 8    2  0.4306980E-052  0.1255993E+04  0.7818608E-02  0.9065210E-01
         -2   -1    0    0    0  501 -0.00000000000E+00  0.00000000000E+00  0.18171858493E+03  0.18171858495E+03  0.25500000000E-02 0. -1.
          2   -1    0    0  501    0  0.00000000000E+00 -0.00000000000E+00 -0.21702781662E+04  0.21702781662E+04  0.25500000000E-02 0.  1.
    -200001    2    1    2    0    0  0.31490431529E+02 -0.95031783589E+02 -0.81363857223E+03  0.10230004891E+04  0.61196371397E+03 0.  0.
   -5000001    2    3    3    0    0  0.75551082371E+02  0.14805055880E+03 -0.71368028068E+03  0.73800395191E+03  0.87654754562E+02 0.  0.
     200001    1    1    2    0    0 -0.31490431529E+02  0.95031783589E+02 -0.11749210090E+04  0.13289962621E+04  0.61300000000E+03 0.  1.
         13    1    4    4    0    0  0.67252631309E+02  0.65112376899E+02 -0.45636781813E+03  0.46586922482E+03  0.10566000000E+00 0.  1.
    -200003    1    4    4    0    0  0.82984510622E+01  0.82938181899E+02 -0.25731246255E+03  0.27213472709E+03  0.30000000000E+02 0.  1.
    -200000    1    3    3    0    0 -0.44060650842E+02 -0.24308234239E+03 -0.99958291552E+02  0.28499653714E+03  0.10100000000E+03 0. -1.
<mgrwt>
<rscale>  0 0.12559934E+04</rscale>
<asrwt>0</asrwt>
<pdfrwt beam="1">  1        2 0.31003972E+00 0.12559934E+04</pdfrwt>
<pdfrwt beam="2">  1       -2 0.25959799E-01 0.12559934E+04</pdfrwt>
<totfact> 0.86416188E+01</totfact>
</mgrwt>
</event>
<event>
 8    2  0.4306980E-052  0.1800615E+04  0.7818608E-02  0.8705973E-01
          2   -1    0    0  501    0  0.00000000000E+00  0.00000000000E+00  0.73713919825E+03  0.73713919825E+03  0.25500000000E-02 0.  1.
         -2   -1    0    0    0  501 -0.00000000000E+00 -0.00000000000E+00 -0.10995935682E+04  0.10995935682E+04  0.25500000000E-02 0. -1.
    -200001    2    1    2    0    0  0.51133193540E+03  0.91739211076E+02  0.23270583579E+03  0.83680221810E+03  0.61335920569E+03 0.  0.
   -5000001    2    3    3    0    0  0.37458664252E+03 -0.16839598085E+03  0.62079568278E+02  0.48228294307E+03  0.24509305428E+03 0.  0.
     200001    1    1    2    0    0 -0.51133193540E+03 -0.91739211076E+02 -0.59516020570E+03  0.99993054832E+03  0.61300000000E+03 0. -1.
         13    1    4    4    0    0  0.52868503131E+02 -0.11501493585E+03 -0.50058286482E+02  0.13612258190E+03  0.10566000000E+00 0.  1.
    -200003    1    4    4    0    0  0.32171813939E+03 -0.53381044996E+02  0.11213785476E+03  0.34616036118E+03  0.30000000000E+02 0.  1.
    -200000    1    3    3    0    0  0.13674529287E+03  0.26013519193E+03  0.17062626751E+03  0.35451927503E+03  0.10100000000E+03 0.  1.
<mgrwt>
<rscale>  0 0.18006149E+04</rscale>
<asrwt>0</asrwt>
<pdfrwt beam="1">  1        2 0.10530560E+00 0.18006149E+04</pdfrwt>
<pdfrwt beam="2">  1       -2 0.15708479E+00 0.18006149E+04</pdfrwt>
<totfact> 0.10574685E+01</totfact>
</mgrwt>
</event>
<event>
 8    2  0.4306980E-052  0.1991520E+04  0.7818608E-02  0.8610596E-01
          2   -1    0    0  501    0  0.00000000000E+00  0.00000000000E+00  0.99941846532E+03  0.99941846532E+03  0.25500000000E-02 0.  1.
         -2   -1    0    0    0  501 -0.00000000000E+00 -0.00000000000E+00 -0.99211486119E+03  0.99211486119E+03  0.25500000000E-02 0. -1.
    -200001    2    1    2    0    0 -0.45807763920E+02  0.28721974197E+03  0.73254353210E+03  0.99838908496E+03  0.61283538337E+03 0.  0.
   -5000001    2    3    3    0    0 -0.16839011837E+02  0.10078488767E+03  0.74655515846E+03  0.78392587326E+03  0.21622678891E+03 0.  0.
     200001    1    1    2    0    0  0.45807763920E+02 -0.28721974197E+03 -0.72523992797E+03  0.99314424156E+03  0.61300000000E+03 0. -1.
         13    1    4    4    0    0 -0.63996740149E+00 -0.67471626698E+02  0.20851825287E+03  0.21916364413E+03  0.10566000000E+00 0.  1.
    -200003    1    4    4    0    0 -0.16199044436E+02  0.16825651436E+03  0.53803690559E+03  0.56476222913E+03  0.30000000000E+02 0.  1.
    -200000    1    3    3    0    0 -0.28968752083E+02  0.18643485431E+03 -0.14011626356E+02  0.21446321169E+03  0.10100000000E+03 0.  1.
<mgrwt>
<rscale>  0 0.19915199E+04</rscale>
<asrwt>0</asrwt>
<pdfrwt beam="1">  1        2 0.14277407E+00 0.19915199E+04</pdfrwt>
<pdfrwt beam="2">  1       -2 0.14173069E+00 0.19915199E+04</pdfrwt>
<totfact> 0.91244777E+00</totfact>
</mgrwt>
</event>
<event>
 8    2  0.4306980E-052  0.1304857E+04  0.7818608E-02  0.9025722E-01
          2   -1    0    0  501    0  0.00000000000E+00  0.00000000000E+00  0.12266378570E+04  0.12266378570E+04  0.25500000000E-02 0.  1.
         -2   -1    0    0    0  501 -0.00000000000E+00 -0.00000000000E+00 -0.34701609199E+03  0.34701609200E+03  0.25500000000E-02 0. -1.
    -200001    2    1    2    0    0 -0.14004991845E+03  0.17194541611E+03  0.46865541909E+03  0.80304279979E+03  0.61323782555E+03 0.  0.
   -5000001    2    3    3    0    0 -0.11916774070E+02 -0.20708898283E+03  0.77078806351E+02  0.23416810190E+03  0.76587866172E+02 0.  0.
     200001    1    1    2    0    0  0.14004991845E+03 -0.17194541611E+03  0.41096634587E+03  0.77061114916E+03  0.61300000000E+03 0. -1.
         13    1    4    4    0    0 -0.13267241768E+02 -0.77838851906E+02  0.62447771421E+02  0.10067095852E+03  0.10566000000E+00 0.  1.
    -200003    1    4    4    0    0  0.13504676984E+01 -0.12925013092E+03  0.14631034930E+02  0.13349714337E+03  0.30000000000E+02 0.  1.
    -200000    1    3    3    0    0 -0.12813314438E+03  0.37903439893E+03  0.39157661274E+03  0.56887469790E+03  0.10100000000E+03 0.  1.
<mgrwt>
<rscale>  0 0.13048572E+04</rscale>
<asrwt>0</asrwt>
<pdfrwt beam="1">  1        2 0.17523398E+00 0.13048572E+04</pdfrwt>
<pdfrwt beam="2">  1       -2 0.49573727E-01 0.13048572E+04</pdfrwt>
<totfact> 0.77904478E+01</totfact>
</mgrwt>
</event>
<event>
 8    2  0.4306980E-052  0.1327386E+04  0.7818608E-02  0.9008125E-01
          2   -1    0    0  501    0  0.00000000000E+00  0.00000000000E+00  0.15504002910E+04  0.15504002910E+04  0.25500000000E-02 0.  1.
         -2   -1    0    0    0  501 -0.00000000000E+00 -0.00000000000E+00 -0.28411265093E+03  0.28411265094E+03  0.25500000000E-02 0. -1.
    -200001    2    1    2    0    0 -0.61328993692E+02 -0.14836285388E+03  0.90543237481E+03  0.11052953445E+04  0.61326766703E+03 0.  0.
   -5000001    2    3    3    0    0 -0.32347571560E+03 -0.10416832822E+03  0.47154753255E+03  0.58651685978E+03  0.78468924805E+02 0.  0.
     200001    1    1    2    0    0  0.61328993692E+02  0.14836285388E+03  0.36085526522E+03  0.72921759737E+03  0.61300000000E+03 0. -1.
         13    1    4    4    0    0 -0.23113550373E+03 -0.50638200632E+02  0.29697297605E+03  0.37971148010E+03  0.10566000000E+00 0.  1.
    -200003    1    4    4    0    0 -0.92340211872E+02 -0.53530127590E+02  0.17457455650E+03  0.20680537968E+03  0.30000000000E+02 0. -1.
    -200000    1    3    3    0    0  0.26214672191E+03 -0.44194525660E+02  0.43388484225E+03  0.51877848475E+03  0.10100000000E+03 0.  1.
<mgrwt>
<rscale>  0 0.13273859E+04</rscale>
<asrwt>0</asrwt>
<pdfrwt beam="1">  1        2 0.22148576E+00 0.13273859E+04</pdfrwt>
<pdfrwt beam="2">  1       -2 0.40587522E-01 0.13273859E+04</pdfrwt>
<totfact> 0.77289521E+01</totfact>
</mgrwt>
</event>
<event>
 8    2  0.4306980E-052  0.1396095E+04  0.7818608E-02  0.8956650E-01
         -2   -1    0    0    0  501 -0.00000000000E+00  0.00000000000E+00  0.44876942451E+03  0.44876942452E+03  0.25500000000E-02 0. -1.
          2   -1    0    0  501    0  0.00000000000E+00 -0.00000000000E+00 -0.10857923047E+04  0.10857923047E+04  0.25500000000E-02 0.  1.
    -200001    2    1    2    0    0  0.25800799449E+03  0.21018238038E+03 -0.33147067238E+03  0.77306589211E+03  0.61401409483E+03 0.  0.
   -5000001    2    3    3    0    0  0.21240725963E+03  0.16045764032E+03 -0.46322048644E+03  0.59387049512E+03  0.25931727216E+03 0.  0.
     200001    1    1    2    0    0 -0.25800799449E+03 -0.21018238038E+03 -0.30555220780E+03  0.76149583711E+03  0.61300000000E+03 0. -1.
         13    1    4    4    0    0  0.21389274594E+03  0.56913779106E+01 -0.26483146443E+03  0.34046764056E+03  0.10566000000E+00 0.  1.
    -200003    1    4    4    0    0 -0.14854863100E+01  0.15476626241E+03 -0.19838902201E+03  0.25340285456E+03  0.30000000000E+02 0.  1.
    -200000    1    3    3    0    0  0.45600734859E+02  0.49724740067E+02  0.13174981406E+03  0.17919539698E+03  0.10100000000E+03 0. -1.
<mgrwt>
<rscale>  0 0.13960951E+04</rscale>
<asrwt>0</asrwt>
<pdfrwt beam="1">  1        2 0.15511319E+00 0.13960951E+04</pdfrwt>
<pdfrwt beam="2">  1       -2 0.64109918E-01 0.13960951E+04</pdfrwt>
<totfact> 0.54615218E+01</totfact>
</mgrwt>
</event>
<event>
 8    2  0.4306980E-052  0.1320210E+04  0.7818608E-02  0.9013691E-01
          2   -1    0    0  501    0  0.00000000000E+00  0.00000000000E+00  0.18800815495E+04  0.18800815495E+04  0.25500000000E-02 0.  1.
         -2   -1    0    0    0  501 -0.00000000000E+00 -0.00000000000E+00 -0.23176563389E+03  0.23176563390E+03  0.25500000000E-02 0. -1.
    -200001    2    1    2    0    0  0.10005709744E+03  0.16220248282E+03  0.57858863917E+03  0.86428695874E+03  0.61311178874E+03 0.  0.
   -5000001    2    3    3    0    0  0.23341226930E+03 -0.42090191692E+02  0.53559946403E+03  0.59676468322E+03  0.11405450263E+03 0.  0.
     200001    1    1    2    0    0 -0.10005709744E+03 -0.16220248282E+03  0.10697272764E+04  0.12475602246E+04  0.61300000000E+03 0.  1.
         13    1    4    4    0    0  0.51046198143E+02 -0.52631329957E+02  0.10505954686E+03  0.12811436605E+03  0.10566000000E+00 0.  1.
    -200003    1    4    4    0    0  0.18236607116E+03  0.10541138265E+02  0.43053991716E+03  0.46865031716E+03  0.30000000000E+02 0.  1.
    -200000    1    3    3    0    0 -0.13335517186E+03  0.20429267451E+03  0.42989175141E+02  0.26752227552E+03  0.10100000000E+03 0. -1.
<mgrwt>
<rscale>  0 0.13202095E+04</rscale>
<asrwt>0</asrwt>
<pdfrwt beam="1">  1        2 0.26858306E+00 0.13202095E+04</pdfrwt>
<pdfrwt beam="2">  1       -2 0.33109378E-01 0.13202095E+04</pdfrwt>
<totfact> 0.77150661E+01</totfact>
</mgrwt>
</event>
<event>
 8    2  0.4306980E-052  0.1730192E+04  0.7818608E-02  0.8744330E-01
          2   -1    0    0  501    0  0.00000000000E+00  0.00000000000E+00  0.15702169350E+04  0.15702169350E+04  0.25500000000E-02 0.  1.
         -2   -1    0    0    0  501 -0.00000000000E+00 -0.00000000000E+00 -0.47661614841E+03  0.47661614841E+03  0.25500000000E-02 0. -1.
    -200001    2    1    2    0    0 -0.34525533705E+03 -0.16363233289E+03  0.11093811617E+04  0.13243410016E+04  0.61414634938E+03 0.  0.
   -5000001    2    3    3    0    0 -0.77703894831E+02 -0.13688350148E+03  0.10024255640E+04  0.10178450406E+04  0.79853159695E+02 0.  0.
     200001    1    1    2    0    0  0.34525533705E+03  0.16363233289E+03 -0.15780375047E+02  0.72249208187E+03  0.61300000000E+03 0. -1.
         13    1    4    4    0    0  0.75318932271E+01 -0.51007384199E+02  0.31996612852E+03  0.32409384015E+03  0.10566000000E+00 0.  1.
    -200003    1    4    4    0    0 -0.85235788058E+02 -0.85876117283E+02  0.68245943545E+03  0.69375120045E+03  0.30000000000E+02 0.  1.
    -200000    1    3    3    0    0 -0.26755144222E+03 -0.26748831404E+02  0.10695559770E+03  0.30649596098E+03  0.10100000000E+03 0. -1.
<mgrwt>
<rscale>  0 0.17301916E+04</rscale>
<asrwt>0</asrwt>
<pdfrwt beam="1">  1        2 0.22431670E+00 0.17301916E+04</pdfrwt>
<pdfrwt beam="2">  1       -2 0.68088021E-01 0.17301916E+04</pdfrwt>
<totfact> 0.25215826E+01</totfact>
</mgrwt>
</event>
<event>
 8    2  0.4306980E-052  0.4579156E+04  0.7818608E-02  0.7896924E-01
          2   -1    0    0  501    0  0.00000000000E+00  0.00000000000E+00  0.37438004059E+04  0.37438004059E+04  0.25500000000E-02 0.  1.
         -2   -1    0    0    0  501 -0.00000000000E+00 -0.00000000000E+00 -0.14002264349E+04  0.14002264349E+04  0.25500000000E-02 0. -1.
    -200001    2    1    2    0    0 -0.21516934863E+03 -0.56719138603E+03 -0.12103360736E+04  0.14869720802E+04  0.61495417646E+03 0.  0.
   -5000001    2    3    3    0    0 -0.10524898520E+03 -0.66559891279E+03 -0.10321352646E+04  0.12345378195E+04  0.68419016459E+02 0.  0.
     200001    1    1    2    0    0  0.21516934863E+03  0.56719138603E+03  0.35539100446E+04  0.36570547606E+04  0.61300000000E+03 0.  1.
         13    1    4    4    0    0 -0.53150220136E+02 -0.33011398407E+03 -0.46214404446E+03  0.57041854578E+03  0.10566000000E+00 0.  1.
    -200003    1    4    4    0    0 -0.52098765061E+02 -0.33548492871E+03 -0.56999122011E+03  0.66411927371E+03  0.30000000000E+02 0.  1.
    -200000    1    3    3    0    0 -0.10992036343E+03  0.98407526756E+02 -0.17820080905E+03  0.25243426068E+03  0.10100000000E+03 0. -1.
<mgrwt>
<rscale>  0 0.45791564E+04</rscale>
<asrwt>0</asrwt>
<pdfrwt beam="1">  1        2 0.53482863E+00 0.45791564E+04</pdfrwt>
<pdfrwt beam="2">  1       -2 0.20003235E+00 0.45791564E+04</pdfrwt>
<totfact> 0.85406374E-02</totfact>
</mgrwt>
</event>
<event>
 8    2  0.4306980E-052  0.1573462E+04  0.7818608E-02  0.8837019E-01
         -2   -1    0    0    0  501 -0.00000000000E+00  0.00000000000E+00  0.84834190007E+03  0.84834190007E+03  0.25500000000E-02 0. -1.
          2   -1    0    0  501    0  0.00000000000E+00 -0.00000000000E+00 -0.72959443325E+03  0.72959443326E+03  0.25500000000E-02 0.  1.
    -200001    2    1    2    0    0  0.49008001207E+03  0.83576094889E+01  0.11390179629E+03  0.79305369982E+03  0.61295373702E+03 0.  0.
   -5000001    2    3    3    0    0  0.29257371337E+03 -0.22214100963E+03 -0.43155518528E+02  0.43667419482E+03  0.23211192931E+03 0.  0.
     200001    1    1    2    0    0 -0.49008001207E+03 -0.83576094889E+01  0.48456705224E+01  0.78488263351E+03  0.61300000000E+03 0.  1.
         13    1    4    4    0    0  0.22236071451E+03 -0.13879142357E+03 -0.13145661084E+03  0.29323744357E+03  0.10566000000E+00 0.  1.
    -200003    1    4    4    0    0  0.70212998858E+02 -0.83349586061E+02  0.88301092313E+02  0.14343675125E+03  0.30000000000E+02 0.  1.
    -200000    1    3    3    0    0  0.19750629870E+03  0.23049861912E+03  0.15705731482E+03  0.35637950500E+03  0.10100000000E+03 0. -1.
<mgrwt>
<rscale>  0 0.15734618E+04</rscale>
<asrwt>0</asrwt>
<pdfrwt beam="1">  1        2 0.10422778E+00 0.15734618E+04</pdfrwt>
<pdfrwt beam="2">  1       -2 0.12119170E+00 0.15734618E+04</pdfrwt>
<totfact> 0.21325254E+01</totfact>
</mgrwt>
</event>
<event>
 8    2  0.4306980E-052  0.1497288E+04  0.7818608E-02  0.8886258E-01
          2   -1    0    0  501    0  0.00000000000E+00  0.00000000000E+00  0.27924420949E+04  0.27924420949E+04  0.25500000000E-02 0.  1.
         -2   -1    0    0    0  501 -0.00000000000E+00 -0.00000000000E+00 -0.20070883299E+03  0.20070883301E+03  0.25500000000E-02 0. -1.
    -200001    2    1    2    0    0  0.81516092270E+02  0.31310600748E+03  0.73092308501E+03  0.10074360038E+04  0.61318716588E+03 0.  0.
   -5000001    2    3    3    0    0  0.17471069153E+03  0.76177775623E+02 -0.18770363742E+02  0.20927468713E+03  0.84360469926E+02 0.  0.
     200001    1    1    2    0    0 -0.81516092270E+02 -0.31310600748E+03  0.18608101769E+04  0.19857149240E+04  0.61300000000E+03 0.  1.
         13    1    4    4    0    0  0.45743868581E+01  0.28813713647E+02 -0.51066813377E+01  0.29618313044E+02  0.10566000000E+00 0.  1.
    -200003    1    4    4    0    0  0.17013630467E+03  0.47364061976E+02 -0.13663682405E+02  0.17965637409E+03  0.30000000000E+02 0.  1.
    -200000    1    3    3    0    0 -0.93194599255E+02  0.23692823185E+03  0.74969344875E+03  0.79816131670E+03  0.10100000000E+03 0.  1.
<mgrwt>
<rscale>  0 0.14972879E+04</rscale>
<asrwt>0</asrwt>
<pdfrwt beam="1">  1        2 0.39892027E+00 0.14972879E+04</pdfrwt>
<pdfrwt beam="2">  1       -2 0.28672692E-01 0.14972879E+04</pdfrwt>
<totfact> 0.33277154E+01</totfact>
</mgrwt>
</event>
<event>
 8    2  0.4306980E-052  0.1894283E+04  0.7818608E-02  0.8657707E-01
          2   -1    0    0  501    0  0.00000000000E+00  0.00000000000E+00  0.24589323984E+04  0.24589323984E+04  0.25500000000E-02 0.  1.
         -2   -1    0    0    0  501 -0.00000000000E+00 -0.00000000000E+00 -0.36482394690E+03  0.36482394691E+03  0.25500000000E-02 0. -1.
    -200001    2    1    2    0    0 -0.46464115362E+03  0.54810424056E+03  0.11502292092E+04  0.14884711008E+04  0.61335904988E+03 0.  0.
   -5000001    2    3    3    0    0 -0.16560530304E+03  0.12122086411E+03  0.84938568078E+03  0.87825828087E+03  0.88101980200E+02 0.  0.
     200001    1    1    2    0    0  0.46464115362E+03 -0.54810424056E+03  0.94387924231E+03  0.13352852445E+04  0.61300000000E+03 0. -1.
         13    1    4    4    0    0 -0.53630571785E+02  0.86626743670E+02  0.35974616177E+03  0.37389536373E+03  0.10566000000E+00 0.  1.
    -200003    1    4    4    0    0 -0.11197473125E+03  0.34594120444E+02  0.48963951901E+03  0.50436291714E+03  0.30000000000E+02 0.  1.
    -200000    1    3    3    0    0 -0.29903585058E+03  0.42688337645E+03  0.30084352843E+03  0.61021281994E+03  0.10100000000E+03 0. -1.
<mgrwt>
<rscale>  0 0.18942834E+04</rscale>
<asrwt>0</asrwt>
<pdfrwt beam="1">  1        2 0.35127606E+00 0.18942834E+04</pdfrwt>
<pdfrwt beam="2">  1       -2 0.52117707E-01 0.18942834E+04</pdfrwt>
<totfact> 0.15140524E+01</totfact>
</mgrwt>
</event>
<event>
 8    2  0.4306980E-052  0.1871418E+04  0.7818608E-02  0.8669216E-01
         -2   -1    0    0    0  501 -0.00000000000E+00  0.00000000000E+00  0.44942619628E+03  0.44942619629E+03  0.25500000000E-02 0. -1.
          2   -1    0    0  501    0  0.00000000000E+00 -0.00000000000E+00 -0.19481534575E+04  0.19481534575E+04  0.25500000000E-02 0.  1.
    -200001    2    1    2    0    0 -0.40168792484E+03  0.58066957457E+03 -0.69954745051E+03  0.11675439984E+04  0.61258632765E+03 0.  0.
   -5000001    2    3    3    0    0 -0.62011320394E+02  0.14489658943E+02 -0.43827618480E+03  0.45032466877E+03  0.81553289730E+02 0.  0.
     200001    1    1    2    0    0  0.40168792484E+03 -0.58066957457E+03 -0.79917981073E+03  0.12300356555E+04  0.61300000000E+03 0.  1.
         13    1    4    4    0    0 -0.15714512602E+02 -0.14576049934E+02 -0.27029489844E+03  0.27114341302E+03  0.10566000000E+00 0.  1.
    -200003    1    4    4    0    0 -0.46296807792E+02  0.29065708877E+02 -0.16798128636E+03  0.17918125575E+03  0.30000000000E+02 0.  1.
    -200000    1    3    3    0    0 -0.33967660445E+03  0.56617991563E+03 -0.26127126571E+03  0.71721932960E+03  0.10100000000E+03 0. -1.
<mgrwt>
<rscale>  0 0.18714179E+04</rscale>
<asrwt>0</asrwt>
<pdfrwt beam="1">  1        2 0.27830763E+00 0.18714179E+04</pdfrwt>
<pdfrwt beam="2">  1       -2 0.64203744E-01 0.18714179E+04</pdfrwt>
<totfact> 0.18011347E+01</totfact>
</mgrwt>
</event>
<event>
 8    2  0.4306980E-052  0.1417536E+04  0.7818608E-02  0.8941222E-01
          2   -1    0    0  501    0  0.00000000000E+00  0.00000000000E+00  0.87996886575E+03  0.87996886575E+03  0.25500000000E-02 0.  1.
         -2   -1    0    0    0  501 -0.00000000000E+00 -0.00000000000E+00 -0.57087464022E+03  0.57087464022E+03  0.25500000000E-02 0. -1.
    -200001    2    1    2    0    0 -0.30110855235E+03 -0.57569461011E+02  0.33741226167E+03  0.76487593071E+03  0.61417224939E+03 0.  0.
   -5000001    2    3    3    0    0 -0.16237549849E+03 -0.90837285857E+02 -0.14730621979E+03  0.24960259095E+03  0.77363531515E+02 0.  0.
     200001    1    1    2    0    0  0.30110855235E+03  0.57569461011E+02 -0.28318036141E+02  0.68596757526E+03  0.61300000000E+03 0. -1.
         13    1    4    4    0    0 -0.97175855753E+02 -0.76339399299E+02 -0.65668891430E+02  0.13994022042E+03  0.10566000000E+00 0.  1.
    -200003    1    4    4    0    0 -0.65199642738E+02 -0.14497886558E+02 -0.81637328359E+02  0.10966237053E+03  0.30000000000E+02 0.  1.
    -200000    1    3    3    0    0 -0.13873305386E+03  0.33267824845E+02  0.48471848146E+03  0.51527333976E+03  0.10100000000E+03 0.  1.
<mgrwt>
<rscale>  0 0.14175358E+04</rscale>
<asrwt>0</asrwt>
<pdfrwt beam="1">  1        2 0.12570984E+00 0.14175358E+04</pdfrwt>
<pdfrwt beam="2">  1       -2 0.81553520E-01 0.14175358E+04</pdfrwt>
<totfact> 0.43211704E+01</totfact>
</mgrwt>
</event>
<event>
 8    2  0.4306980E-052  0.1399398E+04  0.7818608E-02  0.8954254E-01
          2   -1    0    0  501    0  0.00000000000E+00  0.00000000000E+00  0.13350175555E+04  0.13350175555E+04  0.25500000000E-02 0.  1.
         -2   -1    0    0    0  501 -0.00000000000E+00 -0.00000000000E+00 -0.36672094126E+03  0.36672094127E+03  0.25500000000E-02 0. -1.
    -200001    2    1    2    0    0 -0.17880307549E+03  0.77909015916E+02  0.15003116633E+03  0.66088898900E+03  0.61337146196E+03 0.  0.
   -5000001    2    3    3    0    0 -0.38399219727E+03  0.46198457965E+02  0.17278156991E+02  0.39455743497E+03  0.76109984228E+02 0.  0.
     200001    1    1    2    0    0  0.17880307549E+03 -0.77909015916E+02  0.81826544790E+03  0.10408495078E+04  0.61300000000E+03 0.  1.
         13    1    4    4    0    0 -0.17014677538E+03  0.23952498991E+02  0.39605319175E+02  0.17632991763E+03  0.10566000000E+00 0.  1.
    -200003    1    4    4    0    0 -0.21384542189E+03  0.22245958975E+02 -0.22327162184E+02  0.21822751734E+03  0.30000000000E+02 0. -1.
    -200000    1    3    3    0    0  0.20518912178E+03  0.31710557951E+02  0.13275300934E+03  0.26633155403E+03  0.10100000000E+03 0. -1.
<mgrwt>
<rscale>  0 0.13993983E+04</rscale>
<asrwt>0</asrwt>
<pdfrwt beam="1">  1        2 0.19071679E+00 0.13993983E+04</pdfrwt>
<pdfrwt beam="2">  1       -2 0.52388706E-01 0.13993983E+04</pdfrwt>
<totfact> 0.60147817E+01</totfact>
</mgrwt>
</event>
<event>
 8    2  0.4306980E-052  0.1566468E+04  0.7818608E-02  0.8841417E-01
         -2   -1    0    0    0  501 -0.00000000000E+00  0.00000000000E+00  0.20940795536E+04  0.20940795536E+04  0.25500000000E-02 0. -1.
          2   -1    0    0  501    0  0.00000000000E+00 -0.00000000000E+00 -0.29294762182E+03  0.29294762183E+03  0.25500000000E-02 0.  1.
    -200001    2    1    2    0    0 -0.27182065710E+03  0.23035679128E+02  0.28545833259E+03  0.72948303683E+03  0.61338562849E+03 0.  0.
   -5000001    2    3    3    0    0 -0.32279467989E+03 -0.22299423803E+03  0.18200547160E+03  0.43959932638E+03  0.78732080511E+02 0.  0.
     200001    1    1    2    0    0  0.27182065710E+03 -0.23035679128E+02  0.15156735992E+04  0.16575441386E+04  0.61300000000E+03 0. -1.
         13    1    4    4    0    0 -0.11170919899E+03 -0.85578303310E+02  0.29990715217E+02  0.14388205343E+03  0.10566000000E+00 0.  1.
    -200003    1    4    4    0    0 -0.21108548089E+03 -0.13741593472E+03  0.15201475638E+03  0.29571727294E+03  0.30000000000E+02 0. -1.
    -200000    1    3    3    0    0  0.50974022791E+02  0.24602991716E+03  0.10345286099E+03  0.28988371045E+03  0.10100000000E+03 0.  1.
<mgrwt>
<rscale>  0 0.15664682E+04</rscale>
<asrwt>0</asrwt>
<pdfrwt beam="1">  1        2 0.41849661E-01 0.15664682E+04</pdfrwt>
<pdfrwt beam="2">  1       -2 0.29915421E+00 0.15664682E+04</pdfrwt>
<totfact> 0.38071762E+00</totfact>
</mgrwt>
</event>
<event>
 8    2  0.4306980E-052  0.1749484E+04  0.7818608E-02  0.8733634E-01
          2   -1    0    0  501    0  0.00000000000E+00  0.00000000000E+00  0.54200306587E+03  0.54200306587E+03  0.25500000000E-02 0.  1.
         -2   -1    0    0    0  501 -0.00000000000E+00 -0.00000000000E+00 -0.14117517373E+04  0.14117517373E+04  0.25500000000E-02 0. -1.
    -200001    2    1    2    0    0 -0.13031151167E+03  0.55422128925E+03 -0.14656892106E+03  0.84790658624E+03  0.61099983866E+03 0.  0.
   -5000001    2    3    3    0    0 -0.19042516407E+03  0.11030757146E+03  0.13586694329E+03  0.30879244478E+03  0.16871112662E+03 0.  0.
     200001    1    1    2    0    0  0.13031151167E+03 -0.55422128925E+03 -0.72317975035E+03  0.11058482169E+04  0.61300000000E+03 0. -1.
         13    1    4    4    0    0 -0.11532982279E+03  0.15261850305E+02  0.14233979775E+03  0.18383286237E+03  0.10566000000E+00 0.  1.
    -200003    1    4    4    0    0 -0.75095341278E+02  0.95045721152E+02 -0.64728544633E+01  0.12495958241E+03  0.30000000000E+02 0.  1.
    -200000    1    3    3    0    0  0.60113652403E+02  0.44391371779E+03 -0.28243586435E+03  0.53911414146E+03  0.10100000000E+03 0. -1.
<mgrwt>
<rscale>  0 0.17494842E+04</rscale>
<asrwt>0</asrwt>
<pdfrwt beam="1">  1        2 0.77429010E-01 0.17494842E+04</pdfrwt>
<pdfrwt beam="2">  1       -2 0.20167882E+00 0.17494842E+04</pdfrwt>
<totfact> 0.75311853E+00</totfact>
</mgrwt>
</event>
<event>
 8    2  0.4306980E-052  0.1282829E+04  0.7818608E-02  0.9043294E-01
         -2   -1    0    0    0  501 -0.00000000000E+00  0.00000000000E+00  0.23848660575E+03  0.23848660576E+03  0.25500000000E-02 0. -1.
          2   -1    0    0  501    0  0.00000000000E+00 -0.00000000000E+00 -0.17250965131E+04  0.17250965131E+04  0.25500000000E-02 0.  1.
    -200001    2    1    2    0    0 -0.86652729133E+02 -0.15653317940E+03 -0.84406533184E+03  0.10576891608E+04  0.61175873085E+03 0.  0.
   -5000001    2    3    3    0    0  0.25375893836E+03 -0.82151829213E+02 -0.34721139556E+03  0.44248389213E+03  0.63982183016E+02 0.  0.
     200001    1    1    2    0    0  0.86652729133E+02  0.15653317940E+03 -0.64254457555E+03  0.90589395808E+03  0.61300000000E+03 0. -1.
         13    1    4    4    0    0  0.22244066342E+02 -0.24627750620E+02 -0.52899429207E+02  0.62447460817E+02  0.10566000000E+00 0.  1.
    -200003    1    4    4    0    0  0.23151487202E+03 -0.57524078593E+02 -0.29431196635E+03  0.38003643131E+03  0.30000000000E+02 0.  1.
    -200000    1    3    3    0    0 -0.34041166750E+03 -0.74381350190E+02 -0.49685393629E+03  0.61520526869E+03  0.10100000000E+03 0. -1.
<mgrwt>
<rscale>  0 0.12828288E+04</rscale>
<asrwt>0</asrwt>
<pdfrwt beam="1">  1        2 0.24644235E+00 0.12828288E+04</pdfrwt>
<pdfrwt beam="2">  1       -2 0.34069516E-01 0.12828288E+04</pdfrwt>
<totfact> 0.88087247E+01</totfact>
</mgrwt>
</event>
<event>
 8    2  0.4306980E-052  0.1315549E+04  0.7818608E-02  0.9017325E-01
         -2   -1    0    0    0  501 -0.00000000000E+00  0.00000000000E+00  0.13054681143E+03  0.13054681146E+03  0.25500000000E-02 0. -1.
          2   -1    0    0  501    0  0.00000000000E+00 -0.00000000000E+00 -0.33142670924E+04  0.33142670924E+04  0.25500000000E-02 0.  1.
    -200001    2    1    2    0    0 -0.86326335571E+02  0.13699977946E+03 -0.11344986387E+04  0.12997499153E+04  0.61322223164E+03 0.  0.
   -5000001    2    3    3    0    0 -0.99290462258E+02 -0.67904259607E+02 -0.14479857565E+03  0.28394434899E+03  0.21257511953E+03 0.  0.
     200001    1    1    2    0    0  0.86326335571E+02 -0.13699977946E+03 -0.20492216423E+04  0.21450639886E+04  0.61300000000E+03 0.  1.
         13    1    4    4    0    0 -0.90799976785E+02  0.62076441850E+02 -0.55581664155E+02  0.12323738463E+03  0.10566000000E+00 0.  1.
    -200003    1    4    4    0    0 -0.84904854737E+01 -0.12998070146E+03 -0.89216911499E+02  0.16070696436E+03  0.30000000000E+02 0.  1.
    -200000    1    3    3    0    0  0.12964126687E+02  0.20490403906E+03 -0.98970006302E+03  0.10158055663E+04  0.10100000000E+03 0.  1.
<mgrwt>
<rscale>  0 0.13155486E+04</rscale>
<asrwt>0</asrwt>
<pdfrwt beam="1">  1        2 0.47346668E+00 0.13155486E+04</pdfrwt>
<pdfrwt beam="2">  1       -2 0.18649546E-01 0.13155486E+04</pdfrwt>
<totfact> 0.37285448E+01</totfact>
</mgrwt>
</event>
<event>
 8    2  0.4306980E-052  0.1705190E+04  0.7818608E-02  0.8758410E-01
          2   -1    0    0  501    0  0.00000000000E+00  0.00000000000E+00  0.18900488873E+04  0.18900488873E+04  0.25500000000E-02 0.  1.
         -2   -1    0    0    0  501 -0.00000000000E+00 -0.00000000000E+00 -0.38460308787E+03  0.38460308787E+03  0.25500000000E-02 0. -1.
    -200001    2    1    2    0    0 -0.34479743753E+03 -0.25378601728E+03  0.12990289729E+04  0.14989783829E+04  0.61332479528E+03 0.  0.
   -5000001    2    3    3    0    0  0.61251348165E+02  0.51387701271E+02  0.69568942796E+03  0.70385183868E+03  0.70931002701E+02 0.  0.
     200001    1    1    2    0    0  0.34479743753E+03  0.25378601728E+03  0.20641682656E+03  0.77567359229E+03  0.61300000000E+03 0. -1.
         13    1    4    4    0    0 -0.23519009462E+01 -0.16651361357E+01  0.22332636956E+03  0.22334498566E+03  0.10566000000E+00 0.  1.
    -200003    1    4    4    0    0  0.63603249112E+02  0.53052837407E+02  0.47236305840E+03  0.48050685302E+03  0.30000000000E+02 0.  1.
    -200000    1    3    3    0    0 -0.40604878569E+03 -0.30517371855E+03  0.60333954496E+03  0.79512654425E+03  0.10100000000E+03 0. -1.
<mgrwt>
<rscale>  0 0.17051905E+04</rscale>
<asrwt>0</asrwt>
<pdfrwt beam="1">  1        2 0.27000698E+00 0.17051905E+04</pdfrwt>
<pdfrwt beam="2">  1       -2 0.54943299E-01 0.17051905E+04</pdfrwt>
<totfact> 0.27156645E+01</totfact>
</mgrwt>
</event>
<event>
 8    2  0.4306980E-052  0.1541065E+04  0.7818608E-02  0.8857595E-01
         -2   -1    0    0    0  501 -0.00000000000E+00  0.00000000000E+00  0.32987756182E+03  0.32987756183E+03  0.25500000000E-02 0. -1.
          2   -1    0    0  501    0  0.00000000000E+00 -0.00000000000E+00 -0.17998210125E+04  0.17998210125E+04  0.25500000000E-02 0.  1.
    -200001    2    1    2    0    0  0.12245187906E+03  0.41649189563E+03 -0.97160421741E+03  0.12282713986E+04  0.61333181188E+03 0.  0.
   -5000001    2    3    3    0    0  0.25989464529E+03  0.13056993996E+03 -0.17647095667E+03  0.36625064415E+03  0.13566060563E+03 0.  0.
     200001    1    1    2    0    0 -0.12245187906E+03 -0.41649189563E+03 -0.49833923331E+03  0.90142717580E+03  0.61300000000E+03 0.  1.
         13    1    4    4    0    0  0.12560921637E+03 -0.48520857743E+01 -0.49053709151E+02  0.13493515301E+03  0.10566000000E+00 0.  1.
    -200003    1    4    4    0    0  0.13428542892E+03  0.13542202574E+03 -0.12741724751E+03  0.23131549114E+03  0.30000000000E+02 0.  1.
    -200000    1    3    3    0    0 -0.13744276623E+03  0.28592195567E+03 -0.79513326075E+03  0.86202075443E+03  0.10100000000E+03 0. -1.
<mgrwt>
<rscale>  0 0.15410653E+04</rscale>
<asrwt>0</asrwt>
<pdfrwt beam="1">  1        2 0.25711728E+00 0.15410653E+04</pdfrwt>
<pdfrwt beam="2">  1       -2 0.47125367E-01 0.15410653E+04</pdfrwt>
<totfact> 0.41908703E+01</totfact>
</mgrwt>
</event>
<event>
 8    2  0.4306980E-052  0.1677125E+04  0.7818608E-02  0.8774519E-01
         -2   -1    0    0    0  501 -0.00000000000E+00  0.00000000000E+00  0.13255173120E+04  0.13255173120E+04  0.25500000000E-02 0.  1.
          2   -1    0    0  501    0  0.00000000000E+00 -0.00000000000E+00 -0.53050011681E+03  0.53050011682E+03  0.25500000000E-02 0. -1.
    -200001    2    1    2    0    0 -0.56972005083E+03 -0.29880728335E+02  0.44567539479E+03  0.94866827455E+03  0.61308330867E+03 0.  0.
   -5000001    2    3    3    0    0 -0.29242632799E+03 -0.66353815463E+02  0.54968033047E+03  0.63364427315E+03  0.97162817264E+02 0.  0.
     200001    1    1    2    0    0  0.56972005083E+03  0.29880728335E+02  0.34934180038E+03  0.90734915426E+03  0.61300000000E+03 0. -1.
         13    1    4    4    0    0 -0.16279172493E+03 -0.57490301679E+02  0.38352395244E+03  0.42059114797E+03  0.10566000000E+00 0.  1.
    -200003    1    4    4    0    0 -0.12963460306E+03 -0.88635137843E+01  0.16615637803E+03  0.21305312518E+03  0.30000000000E+02 0.  1.
    -200000    1    3    3    0    0 -0.27729372284E+03  0.36473087128E+02 -0.10400493568E+03  0.31502400140E+03  0.10100000000E+03 0. -1.
<mgrwt>
<rscale>  0 0.16771250E+04</rscale>
<asrwt>0</asrwt>
<pdfrwt beam="1">  1        2 0.75785731E-01 0.16771250E+04</pdfrwt>
<pdfrwt beam="2">  1       -2 0.18935962E+00 0.16771250E+04</pdfrwt>
<totfact> 0.93720089E+00</totfact>
</mgrwt>
</event>
<event>
 8    2  0.4306980E-052  0.1546455E+04  0.7818608E-02  0.8854135E-01
          2   -1    0    0  501    0  0.00000000000E+00  0.00000000000E+00  0.15193937123E+04  0.15193937123E+04  0.25500000000E-02 0.  1.
         -2   -1    0    0    0  501 -0.00000000000E+00 -0.00000000000E+00 -0.39349945856E+03  0.39349945857E+03  0.25500000000E-02 0. -1.
    -200001    2    1    2    0    0 -0.40282986666E+03  0.19718469728E+02  0.86530915739E+03  0.11342184557E+04  0.61239762243E+03 0.  0.
   -5000001    2    3    3    0    0 -0.19193722340E+03  0.29373394916E+03  0.54050117429E+03  0.64918091509E+03  0.78579962428E+02 0.  0.
     200001    1    1    2    0    0  0.40282986666E+03 -0.19718469728E+02  0.26058509634E+03  0.77867471511E+03  0.61300000000E+03 0. -1.
         13    1    4    4    0    0 -0.13299437361E+03  0.23901478490E+03  0.40174051114E+03  0.48601545270E+03  0.10566000000E+00 0.  1.
    -200003    1    4    4    0    0 -0.58942849784E+02  0.54719164267E+02  0.13876066316E+03  0.16316546239E+03  0.30000000000E+02 0.  1.
    -200000    1    3    3    0    0 -0.21089264326E+03 -0.27401547944E+03  0.32480798310E+03  0.48503754065E+03  0.10100000000E+03 0.  1.
<mgrwt>
<rscale>  0 0.15464548E+04</rscale>
<asrwt>0</asrwt>
<pdfrwt beam="1">  1        2 0.21705625E+00 0.15464548E+04</pdfrwt>
<pdfrwt beam="2">  1       -2 0.56214207E-01 0.15464548E+04</pdfrwt>
<totfact> 0.40894221E+01</totfact>
</mgrwt>
</event>
<event>
 8    2  0.4306980E-052  0.1251410E+04  0.7818608E-02  0.9069010E-01
         -2   -1    0    0    0  501 -0.00000000000E+00  0.00000000000E+00  0.16798310467E+04  0.16798310467E+04  0.25500000000E-02 0. -1.
          2   -1    0    0  501    0  0.00000000000E+00 -0.00000000000E+00 -0.23306321646E+03  0.23306321647E+03  0.25500000000E-02 0.  1.
    -200001    2    1    2    0    0  0.72070501127E+02 -0.96952605106E+01  0.57011433424E+03  0.84071027371E+03  0.61357579402E+03 0.  0.
   -5000001    2    3    3    0    0  0.22491017786E+03 -0.17860021487E+03  0.17727546586E+03  0.37550899803E+03  0.16461406972E+03 0.  0.
     200001    1    1    2    0    0 -0.72070501127E+02  0.96952605106E+01  0.87665349598E+03  0.10721839894E+04  0.61300000000E+03 0. -1.
         13    1    4    4    0    0  0.20659381169E+03 -0.20134446407E+03  0.16257810370E+03  0.33113780697E+03  0.10566000000E+00 0.  1.
    -200003    1    4    4    0    0  0.18316366165E+02  0.22744249201E+02  0.14697362167E+02  0.44371191057E+02  0.30000000000E+02 0.  1.
    -200000    1    3    3    0    0 -0.15283967673E+03  0.16890495436E+03  0.39283886838E+03  0.46520127569E+03  0.10100000000E+03 0. -1.
<mgrwt>
<rscale>  0 0.12514101E+04</rscale>
<asrwt>0</asrwt>
<pdfrwt beam="1">  1        2 0.33294744E-01 0.12514101E+04</pdfrwt>
<pdfrwt beam="2">  1       -2 0.23997587E+00 0.12514101E+04</pdfrwt>
<totfact> 0.11566027E+01</totfact>
</mgrwt>
</event>
<event>
 8    2  0.4306980E-052  0.1313524E+04  0.7818608E-02  0.9018909E-01
         -2   -1    0    0    0  501 -0.00000000000E+00  0.00000000000E+00  0.21376923127E+03  0.21376923129E+03  0.25500000000E-02 0. -1.
          2   -1    0    0  501    0  0.00000000000E+00 -0.00000000000E+00 -0.20177660328E+04  0.20177660328E+04  0.25500000000E-02 0.  1.
    -200001    2    1    2    0    0  0.37749305242E+02 -0.15390287159E+03 -0.11988098238E+04  0.13556748974E+04  0.61286077527E+03 0.  0.
   -5000001    2    3    3    0    0  0.15674309422E+03  0.97068812088E+02 -0.94212473267E+03  0.96422305639E+03  0.90201655696E+02 0.  0.
     200001    1    1    2    0    0 -0.37749305242E+02  0.15390287159E+03 -0.60518697772E+03  0.87586036668E+03  0.61300000000E+03 0. -1.
         13    1    4    4    0    0  0.20325698644E+02  0.46754582829E+02 -0.35384516443E+03  0.35749900223E+03  0.10566000000E+00 0.  1.
    -200003    1    4    4    0    0  0.13641739558E+03  0.50314229258E+02 -0.58827956824E+03  0.60672405416E+03  0.30000000000E+02 0.  1.
    -200000    1    3    3    0    0 -0.11899378898E+03 -0.25097168368E+03 -0.25668509113E+03  0.39145184101E+03  0.10100000000E+03 0.  1.
<mgrwt>
<rscale>  0 0.13135240E+04</rscale>
<asrwt>0</asrwt>
<pdfrwt beam="1">  1        2 0.28825228E+00 0.13135240E+04</pdfrwt>
<pdfrwt beam="2">  1       -2 0.30538463E-01 0.13135240E+04</pdfrwt>
<totfact> 0.76360563E+01</totfact>
</mgrwt>
</event>
<event>
 8    2  0.4306980E-052  0.1976432E+04  0.7818608E-02  0.8617720E-01
          2   -1    0    0  501    0  0.00000000000E+00  0.00000000000E+00  0.14320228980E+04  0.14320228980E+04  0.25500000000E-02 0.  1.
         -2   -1    0    0    0  501 -0.00000000000E+00 -0.00000000000E+00 -0.68195165330E+03  0.68195165331E+03  0.25500000000E-02 0. -1.
    -200001    2    1    2    0    0  0.66996741351E+03  0.14484194311E+03 -0.12892055048E+02  0.91910321079E+03  0.61216744715E+03 0.  0.
   -5000001    2    3    3    0    0  0.59691772299E+03 -0.67972351834E+02  0.14870676312E+03  0.62424500851E+03  0.81468525395E+02 0.  0.
     200001    1    1    2    0    0 -0.66996741351E+03 -0.14484194311E+03  0.76296329975E+03  0.11948713405E+04  0.61300000000E+03 0.  1.
         13    1    4    4    0    0  0.51083099065E+03 -0.64589660365E+02  0.13124545480E+03  0.53136193484E+03  0.10566000000E+00 0.  1.
    -200003    1    4    4    0    0  0.86086732338E+02 -0.33826914691E+01  0.17461308320E+02  0.92883073670E+02  0.30000000000E+02 0. -1.
    -200000    1    3    3    0    0  0.73049690524E+02  0.21281429494E+03 -0.16159881816E+03  0.29485820228E+03  0.10100000000E+03 0.  1.
<mgrwt>
<rscale>  0 0.19764315E+04</rscale>
<asrwt>0</asrwt>
<pdfrwt beam="1">  1        2 0.20457470E+00 0.19764315E+04</pdfrwt>
<pdfrwt beam="2">  1       -2 0.97421665E-01 0.19764315E+04</pdfrwt>
<totfact> 0.13054145E+01</totfact>
</mgrwt>
</event>
<event>
 8    2  0.4306980E-052  0.1592648E+04  0.7818608E-02  0.8825077E-01
          2   -1    0    0  501    0  0.00000000000E+00  0.00000000000E+00  0.12426532056E+04  0.12426532056E+04  0.25500000000E-02 0.  1.
         -2   -1    0    0    0  501 -0.00000000000E+00 -0.00000000000E+00 -0.51030493884E+03  0.51030493885E+03  0.25500000000E-02 0. -1.
    -200001    2    1    2    0    0  0.37742719130E+03  0.11076139423E+03  0.11621678025E+02  0.72829469389E+03  0.61282846423E+03 0.  0.
   -5000001    2    3    3    0    0  0.36885158697E+03  0.26404589755E+03  0.16537564655E+03  0.48868884508E+03  0.75471541767E+02 0.  0.
     200001    1    1    2    0    0 -0.37742719130E+03 -0.11076139423E+03  0.72072658872E+03  0.10246634505E+04  0.61300000000E+03 0.  1.
         13    1    4    4    0    0  0.23517516138E+03  0.14471166496E+03  0.77108440303E+02  0.28669591074E+03  0.10566000000E+00 0.  1.
    -200003    1    4    4    0    0  0.13367642558E+03  0.11933423259E+03  0.88267206247E+02  0.20199293434E+03  0.30000000000E+02 0.  1.
    -200000    1    3    3    0    0  0.85756043319E+01 -0.15328450331E+03 -0.15375396853E+03  0.23960584881E+03  0.10100000000E+03 0.  1.
<mgrwt>
<rscale>  0 0.15926482E+04</rscale>
<asrwt>0</asrwt>
<pdfrwt beam="1">  1        2 0.17752189E+00 0.15926482E+04</pdfrwt>
<pdfrwt beam="2">  1       -2 0.72900706E-01 0.15926482E+04</pdfrwt>
<totfact> 0.33048616E+01</totfact>
</mgrwt>
</event>
<event>
 8    2  0.4306980E-052  0.1394849E+04  0.7818608E-02  0.8957555E-01
         -2   -1    0    0    0  501 -0.00000000000E+00  0.00000000000E+00  0.63519433296E+03  0.63519433297E+03  0.25500000000E-02 0. -1.
          2   -1    0    0  501    0  0.00000000000E+00 -0.00000000000E+00 -0.76575154004E+03  0.76575154004E+03  0.25500000000E-02 0.  1.
    -200001    2    1    2    0    0  0.29582772535E+03  0.11109837612E+03 -0.16621144548E+03  0.71036849359E+03  0.61411746418E+03 0.  0.
   -5000001    2    3    3    0    0  0.35192020389E+02  0.30467057045E+03 -0.35678751203E+02  0.34616944170E+03  0.15651732902E+03 0.  0.
     200001    1    1    2    0    0 -0.29582772535E+03 -0.11109837612E+03  0.35654238405E+02  0.69057737943E+03  0.61300000000E+03 0.  1.
         13    1    4    4    0    0  0.94146878618E+01  0.52598362279E+02  0.53753649863E+02  0.75793733907E+02  0.10566000000E+00 0.  1.
    -200003    1    4    4    0    0  0.25777332527E+02  0.25207220817E+03 -0.89432401066E+02  0.27037570779E+03  0.30000000000E+02 0.  1.
    -200000    1    3    3    0    0  0.26063570496E+03 -0.19357219433E+03 -0.13053269428E+03  0.36419905189E+03  0.10100000000E+03 0. -1.
<mgrwt>
<rscale>  0 0.13948492E+04</rscale>
<asrwt>0</asrwt>
<pdfrwt beam="1">  1        2 0.10939308E+00 0.13948492E+04</pdfrwt>
<pdfrwt beam="2">  1       -2 0.90742048E-01 0.13948492E+04</pdfrwt>
<totfact> 0.40671978E+01</totfact>
</mgrwt>
</event>
<event>
 8    2  0.4306980E-052  0.1333901E+04  0.7818608E-02  0.9003105E-01
         -2   -1    0    0    0  501 -0.00000000000E+00  0.00000000000E+00  0.12038665874E+04  0.12038665874E+04  0.25500000000E-02 0. -1.
          2   -1    0    0  501    0  0.00000000000E+00 -0.00000000000E+00 -0.36949538219E+03  0.36949538220E+03  0.25500000000E-02 0.  1.
    -200001    2    1    2    0    0 -0.10898567883E+03  0.19068419906E+03  0.24763765728E+03  0.69685549603E+03  0.61322494330E+03 0.  0.
   -5000001    2    3    3    0    0  0.39993054201E+02  0.33284054603E+03  0.30325167075E+03  0.46085335966E+03  0.89677030662E+02 0.  0.
     200001    1    1    2    0    0  0.10898567883E+03 -0.19068419906E+03  0.58673354795E+03  0.87650647359E+03  0.61300000000E+03 0. -1.
         13    1    4    4    0    0 -0.22962291536E+02  0.50012845456E+02  0.37953433423E+02  0.66850772739E+02  0.10566000000E+00 0.  1.
    -200003    1    4    4    0    0  0.62955345737E+02  0.28282770058E+03  0.26529823732E+03  0.39400258692E+03  0.30000000000E+02 0.  1.
    -200000    1    3    3    0    0 -0.14897873303E+03 -0.14215634697E+03 -0.55614013464E+02  0.23600213638E+03  0.10100000000E+03 0.  1.
<mgrwt>
<rscale>  0 0.13339013E+04</rscale>
<asrwt>0</asrwt>
<pdfrwt beam="1">  1        2 0.52785054E-01 0.13339013E+04</pdfrwt>
<pdfrwt beam="2">  1       -2 0.17198094E+00 0.13339013E+04</pdfrwt>
<totfact> 0.19079666E+01</totfact>
</mgrwt>
</event>
<event>
 8    2  0.4306980E-052  0.2167735E+04  0.7818608E-02  0.8531979E-01
          2   -1    0    0  501    0  0.00000000000E+00  0.00000000000E+00  0.12547459417E+04  0.12547459417E+04  0.25500000000E-02 0.  1.
         -2   -1    0    0    0  501 -0.00000000000E+00 -0.00000000000E+00 -0.93626009104E+03  0.93626009105E+03  0.25500000000E-02 0. -1.
    -200001    2    1    2    0    0 -0.30377818885E+03  0.64019176568E+03  0.70986990526E+03  0.11755863348E+04  0.61315680154E+03 0.  0.
   -5000001    2    3    3    0    0 -0.17197632928E+03  0.53141766243E+03  0.78229803856E+03  0.96427999267E+03  0.76583897606E+02 0.  0.
     200001    1    1    2    0    0  0.30377818885E+03 -0.64019176568E+03 -0.39138405458E+03  0.10154196980E+04  0.61300000000E+03 0. -1.
         13    1    4    4    0    0 -0.15010296113E+03  0.41937266736E+03  0.60502664124E+03  0.75130658246E+03  0.10566000000E+00 0.  1.
    -200003    1    4    4    0    0 -0.21873368152E+02  0.11204499507E+03  0.17727139731E+03  0.21297341022E+03  0.30000000000E+02 0.  1.
    -200000    1    3    3    0    0 -0.13180185958E+03  0.10877410325E+03 -0.72428133292E+02  0.21130634212E+03  0.10100000000E+03 0. -1.
<mgrwt>
<rscale>  0 0.21677348E+04</rscale>
<asrwt>0</asrwt>
<pdfrwt beam="1">  1        2 0.17924942E+00 0.21677348E+04</pdfrwt>
<pdfrwt beam="2">  1       -2 0.13375144E+00 0.21677348E+04</pdfrwt>
<totfact> 0.74024344E+00</totfact>
</mgrwt>
</event>
<event>
 8    2  0.4306980E-052  0.1246592E+04  0.7818608E-02  0.9073025E-01
         -2   -1    0    0    0  501 -0.00000000000E+00  0.00000000000E+00  0.10083521809E+04  0.10083521809E+04  0.25500000000E-02 0. -1.
          2   -1    0    0  501    0  0.00000000000E+00 -0.00000000000E+00 -0.38527993511E+03  0.38527993511E+03  0.25500000000E-02 0.  1.
    -200001    2    1    2    0    0  0.17587326169E+02  0.87815079442E+02  0.38748085374E+03  0.73084021336E+03  0.61316001438E+03 0.  0.
   -5000001    2    3    3    0    0  0.25706630363E+03 -0.51949993003E+02  0.86610976044E+02  0.30940440636E+03  0.13945515145E+03 0.  0.
     200001    1    1    2    0    0 -0.17587326169E+02 -0.87815079442E+02  0.23559139207E+03  0.66279190266E+03  0.61300000000E+03 0.  1.
         13    1    4    4    0    0  0.21574369844E+03  0.76463288876E+01  0.44792783613E+02  0.22047724234E+03  0.10566000000E+00 0.  1.
    -200003    1    4    4    0    0  0.41322605198E+02 -0.59596321891E+02  0.41818192431E+02  0.88927164024E+02  0.30000000000E+02 0.  1.
    -200000    1    3    3    0    0 -0.23947897746E+03  0.13976507245E+03  0.30086987769E+03  0.42143580701E+03  0.10100000000E+03 0. -1.
<mgrwt>
<rscale>  0 0.12465919E+04</rscale>
<asrwt>0</asrwt>
<pdfrwt beam="1">  1        2 0.55039992E-01 0.12465919E+04</pdfrwt>
<pdfrwt beam="2">  1       -2 0.14405031E+00 0.12465919E+04</pdfrwt>
<totfact> 0.29590313E+01</totfact>
</mgrwt>
</event>
<event>
 8    2  0.4306980E-052  0.1556668E+04  0.7818608E-02  0.8847620E-01
         -2   -1    0    0    0  501 -0.00000000000E+00  0.00000000000E+00  0.54164606670E+03  0.54164606671E+03  0.25500000000E-02 0. -1.
          2   -1    0    0  501    0  0.00000000000E+00 -0.00000000000E+00 -0.11184500393E+04  0.11184500394E+04  0.25500000000E-02 0.  1.
    -200001    2    1    2    0    0 -0.22813694441E+03  0.31800611504E+03  0.64022191077E+01  0.72785535566E+03  0.61364328053E+03 0.  0.
   -5000001    2    3    3    0    0 -0.58725902902E+02  0.30119977399E+03  0.15217143246E+03  0.48202570397E+03  0.33914981779E+03 0.  0.
     200001    1    1    2    0    0  0.22813694441E+03 -0.31800611504E+03 -0.58320619175E+03  0.93224075040E+03  0.61300000000E+03 0.  1.
         13    1    4    4    0    0 -0.19710736525E+03  0.21338146782E+03  0.10465846128E+03  0.30876588044E+03  0.10566000000E+00 0.  1.
    -200003    1    4    4    0    0  0.13838146234E+03  0.87818306171E+02  0.47512971187E+02  0.17325982353E+03  0.30000000000E+02 0.  1.
    -200000    1    3    3    0    0 -0.16941104151E+03  0.16806341047E+02 -0.14576921336E+03  0.24582965168E+03  0.10100000000E+03 0.  1.
<mgrwt>
<rscale>  0 0.15566683E+04</rscale>
<asrwt>0</asrwt>
<pdfrwt beam="1">  1        2 0.15977858E+00 0.15566683E+04</pdfrwt>
<pdfrwt beam="2">  1       -2 0.77378010E-01 0.15566683E+04</pdfrwt>
<totfact> 0.34221914E+01</totfact>
</mgrwt>
</event>
<event>
 8    2  0.4306980E-052  0.1646289E+04  0.7818608E-02  0.8792605E-01
          2   -1    0    0  501    0  0.00000000000E+00  0.00000000000E+00  0.74285901737E+03  0.74285901737E+03  0.25500000000E-02 0.  1.
         -2   -1    0    0    0  501 -0.00000000000E+00 -0.00000000000E+00 -0.91210744085E+03  0.91210744085E+03  0.25500000000E-02 0. -1.
    -200001    2    1    2    0    0  0.16548305759E+03 -0.47654143671E+03 -0.30251586223E+03  0.84997851205E+03  0.61357252285E+03 0.  0.
   -5000001    2    3    3    0    0  0.27181174347E+03 -0.26267023543E+02  0.94305965859E+01  0.28291199941E+03  0.73339503968E+02 0.  0.
     200001    1    1    2    0    0 -0.16548305759E+03  0.47654143671E+03  0.13326743875E+03  0.80498794617E+03  0.61300000000E+03 0.  1.
         13    1    4    4    0    0  0.81560962813E+02 -0.31067736639E+02  0.21453664869E+02  0.89875835546E+02  0.10566000000E+00 0.  1.
    -200003    1    4    4    0    0  0.19025078066E+03  0.48007130963E+01 -0.12023068283E+02  0.19303616386E+03  0.30000000000E+02 0.  1.
    -200000    1    3    3    0    0 -0.10632868588E+03 -0.45027441317E+03 -0.31194645882E+03  0.56706651264E+03  0.10100000000E+03 0.  1.
<mgrwt>
<rscale>  0 0.16462894E+04</rscale>
<asrwt>0</asrwt>
<pdfrwt beam="1">  1        2 0.10612272E+00 0.16462894E+04</pdfrwt>
<pdfrwt beam="2">  1       -2 0.13030106E+00 0.16462894E+04</pdfrwt>
<totfact> 0.17279423E+01</totfact>
</mgrwt>
</event>
<event>
 8    2  0.4306980E-052  0.1488697E+04  0.7818608E-02  0.8892005E-01
          2   -1    0    0  501    0  0.00000000000E+00  0.00000000000E+00  0.43189746473E+03  0.43189746474E+03  0.25500000000E-02 0. -1.
         -2   -1    0    0    0  501 -0.00000000000E+00 -0.00000000000E+00 -0.12828377624E+04  0.12828377624E+04  0.25500000000E-02 0.  1.
    -200001    2    1    2    0    0 -0.31662486461E+03  0.10052858114E+03 -0.72395442314E+03  0.10060380331E+04  0.61452845065E+03 0.  0.
   -5000001    2    3    3    0    0 -0.41940411293E+03  0.18097127898E+03 -0.30993294577E+03  0.56033702874E+03  0.96274301586E+02 0.  0.
     200001    1    1    2    0    0  0.31662486461E+03 -0.10052858114E+03 -0.12698587448E+03  0.70869719403E+03  0.61300000000E+03 0. -1.
         13    1    4    4    0    0 -0.49360136181E+02  0.55690102823E+02 -0.59923009100E+02  0.95543648558E+02  0.10566000000E+00 0.  1.
    -200003    1    4    4    0    0 -0.37004397675E+03  0.12528117616E+03 -0.25000993667E+03  0.46479338019E+03  0.30000000000E+02 0.  1.
    -200000    1    3    3    0    0  0.10277924833E+03 -0.80442697841E+02 -0.41402147737E+03  0.44570100432E+03  0.10100000000E+03 0.  1.
<mgrwt>
<rscale>  0 0.14886966E+04</rscale>
<asrwt>0</asrwt>
<pdfrwt beam="1">  1        2 0.61699639E-01 0.14886966E+04</pdfrwt>
<pdfrwt beam="2">  1       -2 0.18326254E+00 0.14886966E+04</pdfrwt>
<totfact> 0.13220008E+01</totfact>
</mgrwt>
</event>
<event>
 8    2  0.4306980E-052  0.2374449E+04  0.7818608E-02  0.8449132E-01
         -2   -1    0    0    0  501 -0.00000000000E+00  0.00000000000E+00  0.13884100628E+04  0.13884100628E+04  0.25500000000E-02 0. -1.
          2   -1    0    0  501    0  0.00000000000E+00 -0.00000000000E+00 -0.10151911711E+04  0.10151911711E+04  0.25500000000E-02 0.  1.
    -200001    2    1    2    0    0 -0.92925391322E+03  0.40648936045E+03  0.12133156267E+03  0.11920061440E+04  0.61433774418E+03 0.  0.
   -5000001    2    3    3    0    0 -0.37796130044E+03 -0.13087523973E+03 -0.46126192112E+01  0.40540129065E+03  0.65923115790E+02 0.  0.
     200001    1    1    2    0    0  0.92925391322E+03 -0.40648936045E+03  0.25188732905E+03  0.12115950899E+04  0.61300000000E+03 0. -1.
         13    1    4    4    0    0 -0.28398841505E+03 -0.86007872695E+02  0.32762089511E+01  0.29674487149E+03  0.10566000000E+00 0.  1.
    -200003    1    4    4    0    0 -0.93972885395E+02 -0.44867367034E+02 -0.78888281623E+01  0.10865641916E+03  0.30000000000E+02 0. -1.
    -200000    1    3    3    0    0 -0.55129261278E+03  0.53736460018E+03  0.12594418188E+03  0.78660485339E+03  0.10100000000E+03 0.  1.
<mgrwt>
<rscale>  0 0.23744487E+04</rscale>
<asrwt>0</asrwt>
<pdfrwt beam="1">  1        2 0.14502731E+00 0.23744487E+04</pdfrwt>
<pdfrwt beam="2">  1       -2 0.19834430E+00 0.23744487E+04</pdfrwt>
<totfact> 0.33941582E+00</totfact>
</mgrwt>
</event>
<event>
 8    2  0.4306980E-052  0.1451713E+04  0.7818608E-02  0.8917214E-01
         -2   -1    0    0    0  501 -0.00000000000E+00  0.00000000000E+00  0.30327696534E+03  0.30327696535E+03  0.25500000000E-02 0. -1.
          2   -1    0    0  501    0  0.00000000000E+00 -0.00000000000E+00 -0.17372491091E+04  0.17372491091E+04  0.25500000000E-02 0.  1.
    -200001    2    1    2    0    0  0.10860094212E+03  0.28913685863E+03 -0.10485393349E+04  0.12533020035E+04  0.61313692399E+03 0.  0.
   -5000001    2    3    3    0    0 -0.13596372505E+03  0.26982965997E+03 -0.89292845917E+03  0.94573024119E+03  0.76093862911E+02 0.  0.
     200001    1    1    2    0    0 -0.10860094212E+03 -0.28913685863E+03 -0.38543280881E+03  0.78722407087E+03  0.61300000000E+03 0. -1.
         13    1    4    4    0    0 -0.12033277155E+03  0.19842755837E+03 -0.68897477557E+03  0.72700737573E+03  0.10566000000E+00 0.  1.
    -200003    1    4    4    0    0 -0.15630953495E+02  0.71402101595E+02 -0.20395368360E+03  0.21872286546E+03  0.30000000000E+02 0. -1.
    -200000    1    3    3    0    0  0.24456466717E+03  0.19307198668E+02 -0.15561087575E+03  0.30757176236E+03  0.10100000000E+03 0.  1.
<mgrwt>
<rscale>  0 0.14517130E+04</rscale>
<asrwt>0</asrwt>
<pdfrwt beam="1">  1        2 0.24817844E+00 0.14517130E+04</pdfrwt>
<pdfrwt beam="2">  1       -2 0.43325282E-01 0.14517130E+04</pdfrwt>
<totfact> 0.53781311E+01</totfact>
</mgrwt>
</event>
<event>
 8    2  0.4306980E-052  0.1338702E+04  0.7818608E-02  0.8999425E-01
         -2   -1    0    0    0  501 -0.00000000000E+00  0.00000000000E+00  0.31398297170E+03  0.31398297171E+03  0.25500000000E-02 0. -1.
          2   -1    0    0  501    0  0.00000000000E+00 -0.00000000000E+00 -0.14269262422E+04  0.14269262422E+04  0.25500000000E-02 0.  1.
    -200001    2    1    2    0    0  0.64381897509E+02 -0.14804344061E+03 -0.83421364918E+03  0.10484346001E+04  0.61419932361E+03 0.  0.
   -5000001    2    3    3    0    0  0.24985435907E+03 -0.26022801248E+03 -0.35761365976E+03  0.51520485401E+03  0.86038902424E+02 0.  0.
     200001    1    1    2    0    0 -0.64381897509E+02  0.14804344061E+03 -0.27872962134E+03  0.69247461386E+03  0.61300000000E+03 0. -1.
         13    1    4    4    0    0  0.19081538179E+03 -0.21728592133E+03 -0.30530210493E+03  0.42051524107E+03  0.10566000000E+00 0.  1.
    -200003    1    4    4    0    0  0.59038977280E+02 -0.42942091154E+02 -0.52311554823E+02  0.94689612941E+02  0.30000000000E+02 0.  1.
    -200000    1    3    3    0    0 -0.18547246156E+03  0.11218457188E+03 -0.47659998942E+03  0.53322974606E+03  0.10100000000E+03 0. -1.
<mgrwt>
<rscale>  0 0.13387017E+04</rscale>
<asrwt>0</asrwt>
<pdfrwt beam="1">  1        2 0.20384660E+00 0.13387017E+04</pdfrwt>
<pdfrwt beam="2">  1       -2 0.44854711E-01 0.13387017E+04</pdfrwt>
<totfact> 0.73742959E+01</totfact>
</mgrwt>
</event>
<event>
 8    2  0.4306980E-052  0.1503103E+04  0.7818608E-02  0.8882392E-01
         -2   -1    0    0    0  501 -0.00000000000E+00  0.00000000000E+00  0.13786948530E+03  0.13786948532E+03  0.25500000000E-02 0. -1.
          2   -1    0    0  501    0  0.00000000000E+00 -0.00000000000E+00 -0.40968446829E+04  0.40968446829E+04  0.25500000000E-02 0.  1.
    -200001    2    1    2    0    0  0.39998677906E+03 -0.76319595610E+02 -0.15515995543E+04  0.17173662399E+04  0.61324670491E+03 0.  0.
   -5000001    2    3    3    0    0  0.70227740165E+02  0.15808296366E+03 -0.10191923909E+04  0.10410941267E+04  0.12329514211E+03 0.  0.
     200001    1    1    2    0    0 -0.39998677906E+03  0.76319595610E+02 -0.24073756433E+04  0.25173479283E+04  0.61300000000E+03 0.  1.
         13    1    4    4    0    0  0.85378117918E+02  0.84086218113E+02 -0.43230313412E+03  0.44860442043E+03  0.10566000000E+00 0.  1.
    -200003    1    4    4    0    0 -0.15150377753E+02  0.73996745548E+02 -0.58688925675E+03  0.59248970623E+03  0.30000000000E+02 0.  1.
    -200000    1    3    3    0    0  0.32975903890E+03 -0.23440255927E+03 -0.53240716342E+03  0.67627211327E+03  0.10100000000E+03 0. -1.
<mgrwt>
<rscale>  0 0.15031033E+04</rscale>
<asrwt>0</asrwt>
<pdfrwt beam="1">  1        2 0.58526345E+00 0.15031033E+04</pdfrwt>
<pdfrwt beam="2">  1       -2 0.19695643E-01 0.15031033E+04</pdfrwt>
<totfact> 0.10561178E+01</totfact>
</mgrwt>
</event>
<event>
 8    2  0.4306980E-052  0.1251250E+04  0.7818608E-02  0.9069143E-01
          2   -1    0    0  501    0  0.00000000000E+00  0.00000000000E+00  0.10015747968E+04  0.10015747968E+04  0.25500000000E-02 0.  1.
         -2   -1    0    0    0  501 -0.00000000000E+00 -0.00000000000E+00 -0.39079129956E+03  0.39079129957E+03  0.25500000000E-02 0. -1.
    -200001    2    1    2    0    0 -0.54488962503E+02  0.65374201735E+01  0.17769013394E+03  0.63980337722E+03  0.61217872627E+03 0.  0.
   -5000001    2    3    3    0    0  0.15376179897E+02 -0.20026689660E+03 -0.11074236426E+03  0.26424583225E+03  0.13122016552E+03 0.  0.
     200001    1    1    2    0    0  0.54488962503E+02 -0.65374201735E+01  0.43309336325E+03  0.75256271911E+03  0.61300000000E+03 0.  1.
         13    1    4    4    0    0  0.18899276099E+01  0.18359849435E+02 -0.47181407497E+01  0.19050667018E+02  0.10566000000E+00 0.  1.
    -200003    1    4    4    0    0  0.13486252287E+02 -0.21862674604E+03 -0.10602422351E+03  0.24519516523E+03  0.30000000000E+02 0.  1.
    -200000    1    3    3    0    0 -0.69865142399E+02  0.20680431677E+03  0.28843249820E+03  0.37555754496E+03  0.10100000000E+03 0.  1.
<mgrwt>
<rscale>  0 0.12512501E+04</rscale>
<asrwt>0</asrwt>
<pdfrwt beam="1">  1        2 0.14308211E+00 0.12512501E+04</pdfrwt>
<pdfrwt beam="2">  1       -2 0.55827329E-01 0.12512501E+04</pdfrwt>
<totfact> 0.83099572E+01</totfact>
</mgrwt>
</event>
<event>
 8    2  0.4306980E-052  0.1993926E+04  0.7818608E-02  0.8609466E-01
          2   -1    0    0  501    0  0.00000000000E+00  0.00000000000E+00  0.43894099013E+03  0.43894099014E+03  0.25500000000E-02 0.  1.
         -2   -1    0    0    0  501 -0.00000000000E+00 -0.00000000000E+00 -0.22643947030E+04  0.22643947030E+04  0.25500000000E-02 0. -1.
    -200001    2    1    2    0    0  0.40567872549E+03 -0.32187551137E+03 -0.11081416782E+03  0.81020684317E+03  0.61316904341E+03 0.  0.
   -5000001    2    3    3    0    0  0.57087067613E+02 -0.22244860110E+03  0.20212059332E+03  0.32078778024E+03  0.96487057614E+02 0.  0.
     200001    1    1    2    0    0 -0.40567872549E+03  0.32187551137E+03 -0.17146395451E+04  0.18931288500E+04  0.61300000000E+03 0. -1.
         13    1    4    4    0    0 -0.14303768162E+02 -0.15090081359E+02 -0.36679743845E+00  0.20795529410E+02  0.10566000000E+00 0.  1.
    -200003    1    4    4    0    0  0.71390835774E+02 -0.20735851974E+03  0.20248739076E+03  0.29999225083E+03  0.30000000000E+02 0.  1.
    -200000    1    3    3    0    0  0.34859165788E+03 -0.99426910263E+02 -0.31293476114E+03  0.48941906293E+03  0.10100000000E+03 0. -1.
<mgrwt>
<rscale>  0 0.19939264E+04</rscale>
<asrwt>0</asrwt>
<pdfrwt beam="1">  1        2 0.62705857E-01 0.19939264E+04</pdfrwt>
<pdfrwt beam="2">  1       -2 0.32348495E+00 0.19939264E+04</pdfrwt>
<totfact> 0.16577160E+00</totfact>
</mgrwt>
</event>
<event>
 8    2  0.4306980E-052  0.1557174E+04  0.7818608E-02  0.8847298E-01
          2   -1    0    0  501    0  0.00000000000E+00  0.00000000000E+00  0.12452579714E+04  0.12452579714E+04  0.25500000000E-02 0.  1.
         -2   -1    0    0    0  501 -0.00000000000E+00 -0.00000000000E+00 -0.48680518091E+03  0.48680518092E+03  0.25500000000E-02 0. -1.
    -200001    2    1    2    0    0 -0.10928378285E+03 -0.25476815646E+03 -0.55886108601E+02  0.67576461435E+03  0.61374652596E+03 0.  0.
   -5000001    2    3    3    0    0 -0.68551449523E+02 -0.20018137001E+03  0.25503307832E+03  0.34183261374E+03  0.83879572330E+02 0.  0.
     200001    1    1    2    0    0  0.10928378285E+03  0.25476815646E+03  0.81433889906E+03  0.10562985379E+04  0.61300000000E+03 0.  1.
         13    1    4    4    0    0 -0.10137245467E+02  0.11602666564E+01  0.34924542413E+02  0.36384677973E+02  0.10566000000E+00 0.  1.
    -200003    1    4    4    0    0 -0.58414204056E+02 -0.20134163666E+03  0.22010853590E+03  0.30544793577E+03  0.30000000000E+02 0.  1.
    -200000    1    3    3    0    0 -0.40732333326E+02 -0.54586786457E+02 -0.31091918692E+03  0.33393200060E+03  0.10100000000E+03 0. -1.
<mgrwt>
<rscale>  0 0.15571744E+04</rscale>
<asrwt>0</asrwt>
<pdfrwt beam="1">  1        2 0.17789400E+00 0.15571744E+04</pdfrwt>
<pdfrwt beam="2">  1       -2 0.69543597E-01 0.15571744E+04</pdfrwt>
<totfact> 0.36618563E+01</totfact>
</mgrwt>
</event>
<event>
 8    2  0.4306980E-052  0.1308861E+04  0.7818608E-02  0.9022567E-01
         -2   -1    0    0    0  501 -0.00000000000E+00  0.00000000000E+00  0.19723617536E+03  0.19723617538E+03  0.25500000000E-02 0. -1.
          2   -1    0    0  501    0  0.00000000000E+00 -0.00000000000E+00 -0.21714046193E+04  0.21714046193E+04  0.25500000000E-02 0.  1.
    -200001    2    1    2    0    0  0.21908323263E+03  0.38965524193E+02 -0.10865070547E+04  0.12671747186E+04  0.61295873642E+03 0.  0.
   -5000001    2    3    3    0    0  0.58295616438E+02  0.16167973296E+03 -0.40991009135E+03  0.55380532942E+03  0.33035639082E+03 0.  0.
     200001    1    1    2    0    0 -0.21908323263E+03 -0.38965524193E+02 -0.88766138924E+03  0.11014660761E+04  0.61300000000E+03 0. -1.
         13    1    4    4    0    0 -0.65867147717E+02  0.21453552681E+03 -0.18996631952E+03  0.29402582731E+03  0.10566000000E+00 0.  1.
    -200003    1    4    4    0    0  0.12416276416E+03 -0.52855793852E+02 -0.21994377183E+03  0.25977950211E+03  0.30000000000E+02 0.  1.
    -200000    1    3    3    0    0  0.16078761619E+03 -0.12271420876E+03 -0.67659696334E+03  0.71336938913E+03  0.10100000000E+03 0.  1.
<mgrwt>
<rscale>  0 0.13088614E+04</rscale>
<asrwt>0</asrwt>
<pdfrwt beam="1">  1        2 0.31020065E+00 0.13088614E+04</pdfrwt>
<pdfrwt beam="2">  1       -2 0.28176598E-01 0.13088614E+04</pdfrwt>
<totfact> 0.73967300E+01</totfact>
</mgrwt>
</event>
<event>
 8    2  0.4306980E-052  0.1417636E+04  0.7818608E-02  0.8941151E-01
          2   -1    0    0  501    0  0.00000000000E+00  0.00000000000E+00  0.11418800092E+04  0.11418800092E+04  0.25500000000E-02 0.  1.
         -2   -1    0    0    0  501 -0.00000000000E+00 -0.00000000000E+00 -0.43999647448E+03  0.43999647449E+03  0.25500000000E-02 0. -1.
    -200001    2    1    2    0    0 -0.23693244694E+03  0.23742665031E+03  0.21664537213E+03  0.73115122067E+03  0.61248550312E+03 0.  0.
   -5000001    2    3    3    0    0 -0.41490926207E+02 -0.13626091778E+03 -0.10459949242E+03  0.19148553752E+03  0.73736846914E+02 0.  0.
     200001    1    1    2    0    0  0.23693244694E+03 -0.23742665031E+03  0.48523816256E+03  0.85072526299E+03  0.61300000000E+03 0.  1.
         13    1    4    4    0    0 -0.33903026539E+02 -0.19513719532E+02 -0.32227695840E+02  0.50683685755E+02  0.10566000000E+00 0.  1.
    -200003    1    4    4    0    0 -0.75878996679E+01 -0.11674719825E+03 -0.72371796577E+02  0.14080185176E+03  0.30000000000E+02 0.  1.
    -200000    1    3    3    0    0 -0.19544152073E+03  0.37368756809E+03  0.32124486454E+03  0.53966568315E+03  0.10100000000E+03 0. -1.
<mgrwt>
<rscale>  0 0.14176363E+04</rscale>
<asrwt>0</asrwt>
<pdfrwt beam="1">  1        2 0.16312572E+00 0.14176363E+04</pdfrwt>
<pdfrwt beam="2">  1       -2 0.62856638E-01 0.14176363E+04</pdfrwt>
<totfact> 0.52719447E+01</totfact>
</mgrwt>
</event>
<event>
 8    2  0.4306980E-052  0.2247780E+04  0.7818608E-02  0.8498800E-01
         -2   -1    0    0    0  501 -0.00000000000E+00  0.00000000000E+00  0.82010596230E+03  0.82010596231E+03  0.25500000000E-02 0. -1.
          2   -1    0    0  501    0  0.00000000000E+00 -0.00000000000E+00 -0.15402016807E+04  0.15402016807E+04  0.25500000000E-02 0.  1.
    -200001    2    1    2    0    0  0.24720956536E+03 -0.45070512030E+03 -0.11889328926E+04  0.14330401677E+04  0.61302122673E+03 0.  0.
   -5000001    2    3    3    0    0  0.33817278463E+03 -0.52540205830E+03 -0.87786292151E+03  0.10854492203E+04  0.13095245588E+03 0.  0.
     200001    1    1    2    0    0 -0.24720956536E+03  0.45070512030E+03  0.46883717428E+03  0.92726747525E+03  0.61300000000E+03 0. -1.
         13    1    4    4    0    0  0.18540122521E+03 -0.29703537081E+03 -0.59215500477E+03  0.68793254514E+03  0.10566000000E+00 0.  1.
    -200003    1    4    4    0    0  0.15277155943E+03 -0.22836668749E+03 -0.28570791674E+03  0.39751667514E+03  0.30000000000E+02 0.  1.
    -200000    1    3    3    0    0 -0.90963219271E+02  0.74696937996E+02 -0.31106997112E+03  0.34759094744E+03  0.10100000000E+03 0. -1.
<mgrwt>
<rscale>  0 0.22477799E+04</rscale>
<asrwt>0</asrwt>
<pdfrwt beam="1">  1        2 0.22002881E+00 0.22477799E+04</pdfrwt>
<pdfrwt beam="2">  1       -2 0.11715799E+00 0.22477799E+04</pdfrwt>
<totfact> 0.71761989E+00</totfact>
</mgrwt>
</event>
<event>
 8    2  0.4306980E-052  0.1594439E+04  0.7818608E-02  0.8823972E-01
         -2   -1    0    0    0  501 -0.00000000000E+00  0.00000000000E+00  0.30068682176E+03  0.30068682177E+03  0.25500000000E-02 0. -1.
          2   -1    0    0  501    0  0.00000000000E+00 -0.00000000000E+00 -0.21136902214E+04  0.21136902214E+04  0.25500000000E-02 0.  1.
    -200001    2    1    2    0    0 -0.14605021206E+02 -0.46642136201E+03 -0.59624257960E+03  0.97422493774E+03  0.61306347305E+03 0.  0.
   -5000001    2    3    3    0    0 -0.16821610743E+03 -0.34458652461E+03 -0.62987313921E+02  0.39716144748E+03  0.82056577463E+02 0.  0.
     200001    1    1    2    0    0  0.14605021206E+02  0.46642136201E+03 -0.12167608200E+04  0.14401521054E+04  0.61300000000E+03 0.  1.
         13    1    4    4    0    0 -0.99572863007E+02 -0.15970277853E+03 -0.77994039049E+00  0.18820295425E+03  0.10566000000E+00 0.  1.
    -200003    1    4    4    0    0 -0.68643244419E+02 -0.18488374608E+03 -0.62207373531E+02  0.20895849323E+03  0.30000000000E+02 0.  1.
    -200000    1    3    3    0    0  0.15361108622E+03 -0.12183483740E+03 -0.53325526568E+03  0.57706349026E+03  0.10100000000E+03 0.  1.
<mgrwt>
<rscale>  0 0.15944388E+04</rscale>
<asrwt>0</asrwt>
<pdfrwt beam="1">  1        2 0.30195574E+00 0.15944388E+04</pdfrwt>
<pdfrwt beam="2">  1       -2 0.42955261E-01 0.15944388E+04</pdfrwt>
<totfact> 0.34618703E+01</totfact>
</mgrwt>
</event>
<event>
 8    2  0.4306980E-052  0.1482947E+04  0.7818608E-02  0.8895873E-01
         -2   -1    0    0    0  501 -0.00000000000E+00  0.00000000000E+00  0.17792074237E+03  0.17792074238E+03  0.25500000000E-02 0. -1.
          2   -1    0    0  501    0  0.00000000000E+00 -0.00000000000E+00 -0.30900443762E+04  0.30900443762E+04  0.25500000000E-02 0.  1.
    -200001    2    1    2    0    0 -0.23539121716E+03 -0.16215697671E+02 -0.69868350200E+03  0.95912164378E+03  0.61325664906E+03 0.  0.
   -5000001    2    3    3    0    0 -0.20080180562E+03  0.68307762904E+01  0.33925085773E+02  0.21841663486E+03  0.78656787974E+02 0.  0.
     200001    1    1    2    0    0  0.23539121716E+03  0.16215697671E+02 -0.22134401318E+04  0.23088434748E+04  0.61300000000E+03 0.  1.
         13    1    4    4    0    0 -0.13980400077E+03 -0.22647525567E+02  0.24430828047E+02  0.14371828544E+03  0.10566000000E+00 0.  1.
    -200003    1    4    4    0    0 -0.60997804841E+02  0.29478301857E+02  0.94942577265E+01  0.74698349417E+02  0.30000000000E+02 0.  1.
    -200000    1    3    3    0    0 -0.34589411547E+02 -0.23046473962E+02 -0.73260858778E+03  0.74070500892E+03  0.10100000000E+03 0.  1.
<mgrwt>
<rscale>  0 0.14829471E+04</rscale>
<asrwt>0</asrwt>
<pdfrwt beam="1">  1        2 0.44143488E+00 0.14829471E+04</pdfrwt>
<pdfrwt beam="2">  1       -2 0.25417251E-01 0.14829471E+04</pdfrwt>
<totfact> 0.28464251E+01</totfact>
</mgrwt>
</event>
<event>
 8    2  0.4306980E-052  0.1480954E+04  0.7818608E-02  0.8897218E-01
         -2   -1    0    0    0  501 -0.00000000000E+00  0.00000000000E+00  0.57796906500E+03  0.57796906501E+03  0.25500000000E-02 0. -1.
          2   -1    0    0  501    0  0.00000000000E+00 -0.00000000000E+00 -0.94867768023E+03  0.94867768023E+03  0.25500000000E-02 0.  1.
    -200001    2    1    2    0    0  0.38216345470E+03  0.53930396048E+02 -0.27027472772E+02  0.72487176346E+03  0.61298547736E+03 0.  0.
   -5000001    2    3    3    0    0  0.43993200355E+03  0.20363248185E+03  0.10776127929E+02  0.53153777277E+03  0.21773819954E+03 0.  0.
     200001    1    1    2    0    0 -0.38216345470E+03 -0.53930396048E+02 -0.34368114245E+03  0.80177498178E+03  0.61300000000E+03 0. -1.
         13    1    4    4    0    0  0.31476388402E+03  0.64746994471E+02 -0.64505766657E+02  0.32776436822E+03  0.10566000000E+00 0.  1.
    -200003    1    4    4    0    0  0.12516811953E+03  0.13888548738E+03  0.75281894586E+02  0.20377340455E+03  0.30000000000E+02 0.  1.
    -200000    1    3    3    0    0 -0.57768548847E+02 -0.14970208580E+03 -0.37803600702E+02  0.19333399069E+03  0.10100000000E+03 0.  1.
<mgrwt>
<rscale>  0 0.14809542E+04</rscale>
<asrwt>0</asrwt>
<pdfrwt beam="1">  1        2 0.13552538E+00 0.14809542E+04</pdfrwt>
<pdfrwt beam="2">  1       -2 0.82567010E-01 0.14809542E+04</pdfrwt>
<totfact> 0.37747247E+01</totfact>
</mgrwt>
</event>
<event>
 8    2  0.4306980E-052  0.1880113E+04  0.7818608E-02  0.8664819E-01
          2   -1    0    0  501    0  0.00000000000E+00  0.00000000000E+00  0.30695700778E+04  0.30695700778E+04  0.25500000000E-02 0.  1.
         -2   -1    0    0    0  501 -0.00000000000E+00 -0.00000000000E+00 -0.28789247342E+03  0.28789247343E+03  0.25500000000E-02 0. -1.
    -200001    2    1    2    0    0 -0.22031483427E+03 -0.41247505711E+03  0.23508880755E+04  0.24742734905E+04  0.61374283130E+03 0.  0.
   -5000001    2    3    3    0    0  0.80892102088E+02  0.13128544044E+02  0.12020512066E+04  0.12086150866E+04  0.95432873983E+02 0.  0.
     200001    1    1    2    0    0  0.22031483427E+03  0.41247505711E+03  0.43078952887E+03  0.88318906080E+03  0.61300000000E+03 0. -1.
         13    1    4    4    0    0  0.45086425892E+02  0.49100194754E+02  0.66936621886E+03  0.67267730825E+03  0.10566000000E+00 0.  1.
    -200003    1    4    4    0    0  0.35805676196E+02 -0.35971650709E+02  0.53268498774E+03  0.53593777835E+03  0.30000000000E+02 0.  1.
    -200000    1    3    3    0    0 -0.30120693635E+03 -0.42560360115E+03  0.11488368689E+04  0.12656584039E+04  0.10100000000E+03 0.  1.
<mgrwt>
<rscale>  0 0.18801129E+04</rscale>
<asrwt>0</asrwt>
<pdfrwt beam="1">  1        2 0.43851000E+00 0.18801129E+04</pdfrwt>
<pdfrwt beam="2">  1       -2 0.41127497E-01 0.18801129E+04</pdfrwt>
<totfact> 0.11376304E+01</totfact>
</mgrwt>
</event>
<event>
 8    2  0.4306980E-052  0.1918098E+04  0.7818608E-02  0.8645900E-01
          2   -1    0    0  501    0  0.00000000000E+00  0.00000000000E+00  0.12922193775E+04  0.12922193775E+04  0.25500000000E-02 0.  1.
         -2   -1    0    0    0  501 -0.00000000000E+00 -0.00000000000E+00 -0.71177932765E+03  0.71177932765E+03  0.25500000000E-02 0. -1.
    -200001    2    1    2    0    0  0.66897028642E+02 -0.14712288299E+03 -0.46228328318E+03  0.78368673505E+03  0.61183225613E+03 0.  0.
   -5000001    2    3    3    0    0  0.60549391961E+02 -0.34827011145E+03 -0.42204270400E+03  0.55494932180E+03  0.69931440474E+02 0.  0.
     200001    1    1    2    0    0 -0.66897028642E+02  0.14712288299E+03  0.10427233331E+04  0.12203119701E+04  0.61300000000E+03 0.  1.
         13    1    4    4    0    0  0.86797760383E+01 -0.12301542522E+02 -0.39674380904E+02  0.42435057731E+02  0.10566000000E+00 0.  1.
    -200003    1    4    4    0    0  0.51869615923E+02 -0.33596856893E+03 -0.38236832309E+03  0.51251426407E+03  0.30000000000E+02 0.  1.
    -200000    1    3    3    0    0  0.63476366804E+01  0.20114722846E+03 -0.40240579181E+02  0.22873741325E+03  0.10100000000E+03 0.  1.
<mgrwt>
<rscale>  0 0.19180981E+04</rscale>
<asrwt>0</asrwt>
<pdfrwt beam="1">  1        2 0.18460277E+00 0.19180981E+04</pdfrwt>
<pdfrwt beam="2">  1       -2 0.10168276E+00 0.19180981E+04</pdfrwt>
<totfact> 0.14130423E+01</totfact>
</mgrwt>
</event>
<event>
 8    2  0.4306980E-052  0.1897582E+04  0.7818608E-02  0.8656061E-01
          2   -1    0    0  501    0  0.00000000000E+00  0.00000000000E+00  0.32763422396E+04  0.32763422396E+04  0.25500000000E-02 0.  1.
         -2   -1    0    0    0  501 -0.00000000000E+00 -0.00000000000E+00 -0.27475883024E+03  0.27475883026E+03  0.25500000000E-02 0. -1.
    -200001    2    1    2    0    0  0.71091713739E+03 -0.11232909942E+03  0.16481536416E+04  0.19001734097E+04  0.61337391354E+03 0.  0.
   -5000001    2    3    3    0    0  0.49870261766E+03 -0.24172388303E+03  0.14846591339E+04  0.15859927826E+04  0.63447822053E+02 0.  0.
     200001    1    1    2    0    0 -0.71091713739E+03  0.11232909942E+03  0.13534297677E+04  0.16509276601E+04  0.61300000000E+03 0. -1.
         13    1    4    4    0    0  0.31972540621E+03 -0.13361993964E+03  0.93373184702E+03  0.99595873255E+03  0.10566000000E+00 0.  1.
    -200003    1    4    4    0    0  0.17897721146E+03 -0.10810394339E+03  0.55092728684E+03  0.59003405002E+03  0.30000000000E+02 0.  1.
    -200000    1    3    3    0    0  0.21221451973E+03  0.12939478361E+03  0.16349450776E+03  0.31418062715E+03  0.10100000000E+03 0. -1.
<mgrwt>
<rscale>  0 0.18975816E+04</rscale>
<asrwt>0</asrwt>
<pdfrwt beam="1">  1        2 0.46804887E+00 0.18975816E+04</pdfrwt>
<pdfrwt beam="2">  1       -2 0.39251263E-01 0.18975816E+04</pdfrwt>
<totfact> 0.94690086E+00</totfact>
</mgrwt>
</event>
<event>
 8    2  0.4306980E-052  0.1280988E+04  0.7818608E-02  0.9044779E-01
          2   -1    0    0  501    0  0.00000000000E+00  0.00000000000E+00  0.71207486861E+03  0.71207486862E+03  0.25500000000E-02 0.  1.
         -2   -1    0    0    0  501 -0.00000000000E+00 -0.00000000000E+00 -0.57610849886E+03  0.57610849886E+03  0.25500000000E-02 0. -1.
    -200001    2    1    2    0    0 -0.41387221022E+01  0.17532241427E+03  0.12973115133E+03  0.65056047273E+03  0.61289777213E+03 0.  0.
   -5000001    2    3    3    0    0 -0.12919586830E+03 -0.54822210955E+02  0.28630634392E+03  0.32912209719E+03  0.81565832838E+02 0.  0.
     200001    1    1    2    0    0  0.41387221022E+01 -0.17532241427E+03  0.62352184247E+01  0.63762289475E+03  0.61300000000E+03 0.  1.
         13    1    4    4    0    0 -0.56626260204E+02 -0.15436548082E+02  0.18957384267E+03  0.19845169021E+03  0.10566000000E+00 0.  1.
    -200003    1    4    4    0    0 -0.72569608098E+02 -0.39385662872E+02  0.96732501256E+02  0.13067040697E+03  0.30000000000E+02 0.  1.
    -200000    1    3    3    0    0  0.12505714620E+03  0.23014462522E+03 -0.15657519259E+03  0.32143837554E+03  0.10100000000E+03 0.  1.
<mgrwt>
<rscale>  0 0.12809877E+04</rscale>
<asrwt>0</asrwt>
<pdfrwt beam="1">  1        2 0.10172498E+00 0.12809877E+04</pdfrwt>
<pdfrwt beam="2">  1       -2 0.82301214E-01 0.12809877E+04</pdfrwt>
<totfact> 0.56157216E+01</totfact>
</mgrwt>
</event>
<event>
 8    2  0.4306980E-052  0.1462428E+04  0.7818608E-02  0.8909829E-01
          2   -1    0    0  501    0  0.00000000000E+00  0.00000000000E+00  0.93866858772E+03  0.93866858772E+03  0.25500000000E-02 0. -1.
         -2   -1    0    0    0  501 -0.00000000000E+00 -0.00000000000E+00 -0.56960899687E+03  0.56960899687E+03  0.25500000000E-02 0.  1.
    -200001    2    1    2    0    0 -0.71436461427E+02  0.12000718102E+03 -0.20062510824E+03  0.65985873291E+03  0.61290963593E+03 0.  0.
   -5000001    2    3    3    0    0  0.10539914982E+03  0.30790375947E+03 -0.17895914956E+03  0.38192641855E+03  0.89037666744E+02 0.  0.
     200001    1    1    2    0    0  0.71436461427E+02 -0.12000718102E+03  0.56968469909E+03  0.84841885169E+03  0.61300000000E+03 0. -1.
         13    1    4    4    0    0  0.75290781392E+02  0.10159078592E+03 -0.75085538829E+02  0.14706202383E+03  0.10566000000E+00 0.  1.
    -200003    1    4    4    0    0  0.30108368427E+02  0.20631297355E+03 -0.10387361073E+03  0.23486439472E+03  0.30000000000E+02 0.  1.
    -200000    1    3    3    0    0 -0.17683561125E+03 -0.18789657845E+03 -0.21665958687E+02  0.27793231436E+03  0.10100000000E+03 0. -1.
<mgrwt>
<rscale>  0 0.14624282E+04</rscale>
<asrwt>0</asrwt>
<pdfrwt beam="1">  1        2 0.13409551E+00 0.14624282E+04</pdfrwt>
<pdfrwt beam="2">  1       -2 0.81372714E-01 0.14624282E+04</pdfrwt>
<totfact> 0.39642425E+01</totfact>
</mgrwt>
</event>
<event>
 8    2  0.4306980E-052  0.1285043E+04  0.7818608E-02  0.9041511E-01
          2   -1    0    0  501    0  0.00000000000E+00  0.00000000000E+00  0.14242068733E+04  0.14242068733E+04  0.25500000000E-02 0.  1.
         -2   -1    0    0    0  501 -0.00000000000E+00 -0.00000000000E+00 -0.28986952367E+03  0.28986952368E+03  0.25500000000E-02 0. -1.
    -200001    2    1    2    0    0  0.93300631411E+02  0.15023533267E+03  0.66974404005E+03  0.92484157368E+03  0.61277989052E+03 0.  0.
   -5000001    2    3    3    0    0  0.16883840360E+03  0.31121567979E+03  0.22474929765E+03  0.43510496289E+03  0.11594169253E+03 0.  0.
     200001    1    1    2    0    0 -0.93300631411E+02 -0.15023533267E+03  0.46459330960E+03  0.78923482331E+03  0.61300000000E+03 0. -1.
         13    1    4    4    0    0  0.37685592573E+02  0.90077161009E+01  0.78500920385E+01  0.39534515882E+02  0.10566000000E+00 0.  1.
    -200003    1    4    4    0    0  0.13115281103E+03  0.30220796368E+03  0.21689920561E+03  0.39557044701E+03  0.30000000000E+02 0.  1.
    -200000    1    3    3    0    0 -0.75537772193E+02 -0.16098034711E+03  0.44499474240E+03  0.48973661079E+03  0.10100000000E+03 0.  1.
<mgrwt>
<rscale>  0 0.12850435E+04</rscale>
<asrwt>0</asrwt>
<pdfrwt beam="1">  1        2 0.20345813E+00 0.12850435E+04</pdfrwt>
<pdfrwt beam="2">  1       -2 0.41409931E-01 0.12850435E+04</pdfrwt>
<totfact> 0.87009510E+01</totfact>
</mgrwt>
</event>
<event>
 8    2  0.4306980E-052  0.1774988E+04  0.7818608E-02  0.8719715E-01
         -2   -1    0    0    0  501 -0.00000000000E+00  0.00000000000E+00  0.24749981958E+03  0.24749981959E+03  0.25500000000E-02 0. -1.
          2   -1    0    0  501    0  0.00000000000E+00 -0.00000000000E+00 -0.31824102282E+04  0.31824102282E+04  0.25500000000E-02 0.  1.
    -200001    2    1    2    0    0  0.30405563514E+03  0.52996559831E+03 -0.11346721520E+04  0.14324265947E+04  0.62534126052E+03 0.  0.
   -5000001    2    3    3    0    0  0.58197320574E+02 -0.51769877622E+02 -0.56481241691E+03  0.57580322797E+03  0.80431602525E+02 0.  0.
     200001    1    1    2    0    0 -0.30405563514E+03 -0.52996559831E+03 -0.18002382567E+04  0.19974834531E+04  0.61300000000E+03 0. -1.
         13    1    4    4    0    0 -0.14532776846E+02  0.45258566709E+01 -0.78173851371E+02  0.79641993845E+02  0.10566000000E+00 0.  1.
    -200003    1    4    4    0    0  0.72730097420E+02 -0.56295734293E+02 -0.48663856554E+03  0.49616123412E+03  0.30000000000E+02 0.  1.
    -200000    1    3    3    0    0  0.24585831457E+03  0.58173547593E+03 -0.56985973504E+03  0.85662336673E+03  0.10100000000E+03 0. -1.
<mgrwt>
<rscale>  0 0.17749884E+04</rscale>
<asrwt>0</asrwt>
<pdfrwt beam="1">  1        2 0.45463001E+00 0.17749884E+04</pdfrwt>
<pdfrwt beam="2">  1       -2 0.35357119E-01 0.17749884E+04</pdfrwt>
<totfact> 0.13277615E+01</totfact>
</mgrwt>
</event>
<event>
 8    2  0.4306980E-052  0.1351500E+04  0.7818608E-02  0.8989693E-01
          2   -1    0    0  501    0  0.00000000000E+00  0.00000000000E+00  0.11873859818E+04  0.11873859818E+04  0.25500000000E-02 0.  1.
         -2   -1    0    0    0  501 -0.00000000000E+00 -0.00000000000E+00 -0.38457425848E+03  0.38457425849E+03  0.25500000000E-02 0. -1.
    -200001    2    1    2    0    0 -0.32315006525E+02  0.23569659677E+03  0.58295873806E+03  0.87863385213E+03  0.61282902220E+03 0.  0.
   -5000001    2    3    3    0    0  0.10044773316E+03  0.18694477420E+02  0.58837870109E+03  0.60487074131E+03  0.96124332079E+02 0.  0.
     200001    1    1    2    0    0  0.32315006525E+02 -0.23569659677E+03  0.21985298524E+03  0.69332638814E+03  0.61300000000E+03 0.  1.
         13    1    4    4    0    0  0.53021190696E+02 -0.14061392752E+02  0.11922569369E+03  0.13123927243E+03  0.10566000000E+00 0.  1.
    -200003    1    4    4    0    0  0.47426542460E+02  0.32755870171E+02  0.46915300740E+03  0.47363146888E+03  0.30000000000E+02 0.  1.
    -200000    1    3    3    0    0 -0.13276273968E+03  0.21700211935E+03 -0.54199630234E+01  0.27376311082E+03  0.10100000000E+03 0. -1.
<mgrwt>
<rscale>  0 0.13515000E+04</rscale>
<asrwt>0</asrwt>
<pdfrwt beam="1">  1        2 0.16962657E+00 0.13515000E+04</pdfrwt>
<pdfrwt beam="2">  1       -2 0.54939180E-01 0.13515000E+04</pdfrwt>
<totfact> 0.66187110E+01</totfact>
</mgrwt>
</event>
<event>
 8    2  0.4306980E-052  0.1664136E+04  0.7818608E-02  0.8782087E-01
          2   -1    0    0  501    0  0.00000000000E+00  0.00000000000E+00  0.34091801208E+03  0.34091801208E+03  0.25500000000E-02 0.  1.
         -2   -1    0    0    0  501 -0.00000000000E+00 -0.00000000000E+00 -0.20308027070E+04  0.20308027070E+04  0.25500000000E-02 0. -1.
    -200001    2    1    2    0    0  0.32536055466E+03 -0.32699612594E+03 -0.38984164244E+03  0.86219533168E+03  0.61531969486E+03 0.  0.
   -5000001    2    3    3    0    0  0.21866093928E+03  0.71767188645E+02  0.55060358458E+02  0.24694271739E+03  0.70611095922E+02 0.  0.
     200001    1    1    2    0    0 -0.32536055466E+03  0.32699612594E+03 -0.13000430525E+04  0.15095253874E+04  0.61300000000E+03 0. -1.
         13    1    4    4    0    0  0.28993411784E+02  0.36901189430E+01 -0.13208109307E+02  0.32073356859E+02  0.10566000000E+00 0.  1.
    -200003    1    4    4    0    0  0.18966752750E+03  0.68077069702E+02  0.68268467765E+02  0.21486936053E+03  0.30000000000E+02 0.  1.
    -200000    1    3    3    0    0  0.10669961538E+03 -0.39876331459E+03 -0.44490200090E+03  0.61525261429E+03  0.10100000000E+03 0. -1.
<mgrwt>
<rscale>  0 0.16641361E+04</rscale>
<asrwt>0</asrwt>
<pdfrwt beam="1">  1        2 0.48702574E-01 0.16641361E+04</pdfrwt>
<pdfrwt beam="2">  1       -2 0.29011467E+00 0.16641361E+04</pdfrwt>
<totfact> 0.36206709E+00</totfact>
</mgrwt>
</event>
<event>
 8    2  0.4306980E-052  0.2495686E+04  0.7818608E-02  0.8404524E-01
         -2   -1    0    0    0  501 -0.00000000000E+00  0.00000000000E+00  0.32237076024E+03  0.32237076025E+03  0.25500000000E-02 0. -1.
          2   -1    0    0  501    0  0.00000000000E+00 -0.00000000000E+00 -0.48301896123E+04  0.48301896123E+04  0.25500000000E-02 0.  1.
    -200001    2    1    2    0    0  0.95650889144E+03  0.31125407982E+03 -0.14036575022E+04  0.18324135313E+04  0.61294094707E+03 0.  0.
   -5000001    2    3    3    0    0  0.47849863484E+03 -0.63310999261E+02 -0.94771404246E+03  0.10663337428E+04  0.77048806451E+02 0.  0.
     200001    1    1    2    0    0 -0.95650889144E+03 -0.31125407982E+03 -0.31041613498E+04  0.33201468412E+04  0.61300000000E+03 0.  1.
         13    1    4    4    0    0  0.15059561875E+03 -0.40374285213E+01 -0.23730319968E+03  0.28108390377E+03  0.10566000000E+00 0.  1.
    -200003    1    4    4    0    0  0.32790301609E+03 -0.59273570740E+02 -0.71041084279E+03  0.78524983903E+03  0.30000000000E+02 0.  1.
    -200000    1    3    3    0    0  0.47801025660E+03  0.37456507908E+03 -0.45594345975E+03  0.76607978851E+03  0.10100000000E+03 0. -1.
<mgrwt>
<rscale>  0 0.24956858E+04</rscale>
<asrwt>0</asrwt>
<pdfrwt beam="1">  1        2 0.69002704E+00 0.24956858E+04</pdfrwt>
<pdfrwt beam="2">  1       -2 0.46052969E-01 0.24956858E+04</pdfrwt>
<totfact> 0.51256477E-01</totfact>
</mgrwt>
</event>
<event>
 8    2  0.4306980E-052  0.1457359E+04  0.7818608E-02  0.8913314E-01
          2   -1    0    0  501    0  0.00000000000E+00  0.00000000000E+00  0.22378604785E+04  0.22378604785E+04  0.25500000000E-02 0.  1.
         -2   -1    0    0    0  501 -0.00000000000E+00 -0.00000000000E+00 -0.23726862348E+03  0.23726862349E+03  0.25500000000E-02 0. -1.
    -200001    2    1    2    0    0 -0.28510675779E+03 -0.26763149526E+03  0.10730123526E+04  0.12965345093E+04  0.61378639966E+03 0.  0.
   -5000001    2    3    3    0    0 -0.13351467010E+03 -0.35296775620E+02  0.95689373177E+03  0.97928993947E+03  0.15585615851E+03 0.  0.
     200001    1    1    2    0    0  0.28510675779E+03  0.26763149526E+03  0.92757950238E+03  0.11785945927E+04  0.61300000000E+03 0.  1.
         13    1    4    4    0    0 -0.75814319010E+02  0.56342944878E+02  0.49423063923E+03  0.50317618617E+03  0.10566000000E+00 0.  1.
    -200003    1    4    4    0    0 -0.57700351093E+02 -0.91639720498E+02  0.46266309254E+03  0.47611375331E+03  0.30000000000E+02 0.  1.
    -200000    1    3    3    0    0 -0.15159208769E+03 -0.23233471964E+03  0.11611862087E+03  0.31724456987E+03  0.10100000000E+03 0. -1.
<mgrwt>
<rscale>  0 0.14573594E+04</rscale>
<asrwt>0</asrwt>
<pdfrwt beam="1">  1        2 0.31969435E+00 0.14573594E+04</pdfrwt>
<pdfrwt beam="2">  1       -2 0.33895518E-01 0.14573594E+04</pdfrwt>
<totfact> 0.47811320E+01</totfact>
</mgrwt>
</event>
<event>
 8    2  0.4306980E-052  0.2035257E+04  0.7818608E-02  0.8590312E-01
         -2   -1    0    0    0  501 -0.00000000000E+00  0.00000000000E+00  0.42561580708E+03  0.42561580709E+03  0.25500000000E-02 0. -1.
          2   -1    0    0  501    0  0.00000000000E+00 -0.00000000000E+00 -0.24331035299E+04  0.24331035299E+04  0.25500000000E-02 0.  1.
    -200001    2    1    2    0    0 -0.27394625366E+03  0.49048529812E+03 -0.17970881238E+03  0.85069365913E+03  0.61299434488E+03 0.  0.
   -5000001    2    3    3    0    0 -0.42934983024E+03  0.18453908440E+03 -0.11959502932E+03  0.48797059091E+03  0.73596033530E+02 0.  0.
     200001    1    1    2    0    0  0.27394625366E+03 -0.49048529812E+03 -0.18277789105E+04  0.20080256779E+04  0.61300000000E+03 0.  1.
         13    1    4    4    0    0 -0.21831886245E+03  0.12361892340E+03 -0.74817876533E+02  0.26180620646E+03  0.10566000000E+00 0.  1.
    -200003    1    4    4    0    0 -0.21103096779E+03  0.60920160996E+02 -0.44777152788E+02  0.22616438445E+03  0.30000000000E+02 0.  1.
    -200000    1    3    3    0    0  0.15540357658E+03  0.30594621372E+03 -0.60113783063E+02  0.36272306822E+03  0.10100000000E+03 0. -1.
<mgrwt>
<rscale>  0 0.20352566E+04</rscale>
<asrwt>0</asrwt>
<pdfrwt beam="1">  1        2 0.34758621E+00 0.20352566E+04</pdfrwt>
<pdfrwt beam="2">  1       -2 0.60802260E-01 0.20352566E+04</pdfrwt>
<totfact> 0.11194525E+01</totfact>
</mgrwt>
</event>
<event>
 8    2  0.4306980E-052  0.1411641E+04  0.7818608E-02  0.8945435E-01
          2   -1    0    0  501    0  0.00000000000E+00  0.00000000000E+00  0.62630776886E+03  0.62630776886E+03  0.25500000000E-02 0.  1.
         -2   -1    0    0    0  501 -0.00000000000E+00 -0.00000000000E+00 -0.79542774598E+03  0.79542774598E+03  0.25500000000E-02 0. -1.
    -200001    2    1    2    0    0 -0.48642246663E+02 -0.33972120498E+03 -0.14348815915E+03  0.71874009853E+03  0.61499748954E+03 0.  0.
   -5000001    2    3    3    0    0 -0.15734674785E+03 -0.14290334167E+03  0.19571713510E+03  0.29943690090E+03  0.78599596247E+02 0.  0.
     200001    1    1    2    0    0  0.48642246663E+02  0.33972120498E+03 -0.25631817974E+02  0.70299541632E+03  0.61300000000E+03 0.  1.
         13    1    4    4    0    0 -0.67875853640E+02 -0.90092529935E+02  0.66510081326E+02  0.13094807192E+03  0.10566000000E+00 0.  1.
    -200003    1    4    4    0    0 -0.89470894211E+02 -0.52810811737E+02  0.12920705377E+03  0.16848882898E+03  0.30000000000E+02 0.  1.
    -200000    1    3    3    0    0  0.10870450119E+03 -0.19681786331E+03 -0.33920529424E+03  0.41930319763E+03  0.10100000000E+03 0. -1.
<mgrwt>
<rscale>  0 0.14116410E+04</rscale>
<asrwt>0</asrwt>
<pdfrwt beam="1">  1        2 0.89472539E-01 0.14116410E+04</pdfrwt>
<pdfrwt beam="2">  1       -2 0.11363253E+00 0.14116410E+04</pdfrwt>
<totfact> 0.30486414E+01</totfact>
</mgrwt>
</event>
<event>
 8    2  0.4306980E-052  0.1821218E+04  0.7818608E-02  0.8695097E-01
         -2   -1    0    0    0  501 -0.00000000000E+00  0.00000000000E+00  0.56034555445E+03  0.56034555446E+03  0.25500000000E-02 0. -1.
          2   -1    0    0  501    0  0.00000000000E+00 -0.00000000000E+00 -0.14798163791E+04  0.14798163791E+04  0.25500000000E-02 0.  1.
    -200001    2    1    2    0    0 -0.28237209783E+03  0.60643315900E+03 -0.36155196593E+03  0.97501516860E+03  0.61027827830E+03 0.  0.
   -5000001    2    3    3    0    0  0.23150065739E+02  0.49592911436E+03 -0.89154314496E+02  0.53917527045E+03  0.19047274991E+03 0.  0.
     200001    1    1    2    0    0  0.28237209783E+03 -0.60643315900E+03 -0.55791885869E+03  0.10651467649E+04  0.61300000000E+03 0.  1.
         13    1    4    4    0    0  0.53010365135E+02  0.16351916654E+03  0.45851511645E+02  0.17790724808E+03  0.10566000000E+00 0.  1.
    -200003    1    4    4    0    0 -0.29860299396E+02  0.33240994782E+03 -0.13500582614E+03  0.36126802236E+03  0.30000000000E+02 0.  1.
    -200000    1    3    3    0    0 -0.30552216357E+03  0.11050404464E+03 -0.27239765143E+03  0.43583989815E+03  0.10100000000E+03 0.  1.
<mgrwt>
<rscale>  0 0.18212178E+04</rscale>
<asrwt>0</asrwt>
<pdfrwt beam="1">  1        2 0.21140234E+00 0.18212178E+04</pdfrwt>
<pdfrwt beam="2">  1       -2 0.80049365E-01 0.18212178E+04</pdfrwt>
<totfact> 0.19558830E+01</totfact>
</mgrwt>
</event>
<event>
 8    2  0.4306980E-052  0.1930649E+04  0.7818608E-02  0.8639749E-01
          2   -1    0    0  501    0  0.00000000000E+00  0.00000000000E+00  0.81582412337E+03  0.81582412337E+03  0.25500000000E-02 0.  1.
         -2   -1    0    0    0  501 -0.00000000000E+00 -0.00000000000E+00 -0.11422208292E+04  0.11422208292E+04  0.25500000000E-02 0. -1.
    -200001    2    1    2    0    0  0.46416591983E+03 -0.42533703191E+03  0.24228254073E+03  0.91137084987E+03  0.61280861989E+03 0.  0.
   -5000001    2    3    3    0    0  0.41025410006E+03  0.10059586857E+02  0.17817573761E+03  0.45663204336E+03  0.91414482723E+02 0.  0.
     200001    1    1    2    0    0 -0.46416591983E+03  0.42533703191E+03 -0.56867924661E+03  0.10466741027E+04  0.61300000000E+03 0. -1.
         13    1    4    4    0    0  0.36639274173E+03  0.14988343943E+01  0.15040126936E+03  0.39606368262E+03  0.10566000000E+00 0.  1.
    -200003    1    4    4    0    0  0.43861358321E+02  0.85607524631E+01  0.27774468253E+02  0.60568360744E+02  0.30000000000E+02 0. -1.
    -200000    1    3    3    0    0  0.53911819775E+02 -0.43539661876E+03  0.64106803119E+02  0.45473880651E+03  0.10100000000E+03 0. -1.
<mgrwt>
<rscale>  0 0.19306489E+04</rscale>
<asrwt>0</asrwt>
<pdfrwt beam="1">  1        2 0.11654630E+00 0.19306489E+04</pdfrwt>
<pdfrwt beam="2">  1       -2 0.16317440E+00 0.19306489E+04</pdfrwt>
<totfact> 0.82899615E+00</totfact>
</mgrwt>
</event>
<event>
 8    2  0.4306980E-052  0.1444096E+04  0.7818608E-02  0.8922504E-01
         -2   -1    0    0    0  501 -0.00000000000E+00  0.00000000000E+00  0.25225733949E+03  0.25225733950E+03  0.25500000000E-02 0. -1.
          2   -1    0    0  501    0  0.00000000000E+00 -0.00000000000E+00 -0.20667508379E+04  0.20667508379E+04  0.25500000000E-02 0.  1.
    -200001    2    1    2    0    0  0.33891834120E+03  0.16325698362E+03 -0.97238115335E+03  0.12115603518E+04  0.61711821719E+03 0.  0.
   -5000001    2    3    3    0    0 -0.37302299144E+02 -0.12682819688E+03 -0.17124492020E+03  0.27469769046E+03  0.16928421487E+03 0.  0.
     200001    1    1    2    0    0 -0.33891834120E+03 -0.16325698362E+03 -0.84211234505E+03  0.11074478256E+04  0.61300000000E+03 0.  1.
         13    1    4    4    0    0 -0.13059458474E+02 -0.57297526895E+01 -0.14401663238E+03  0.14472104576E+03  0.10566000000E+00 0.  1.
    -200003    1    4    4    0    0 -0.24242840670E+02 -0.12109844419E+03 -0.27228287827E+02  0.12997664470E+03  0.30000000000E+02 0.  1.
    -200000    1    3    3    0    0  0.37622064034E+03  0.29008518050E+03 -0.80113623315E+03  0.93686266135E+03  0.10100000000E+03 0. -1.
<mgrwt>
<rscale>  0 0.14440957E+04</rscale>
<asrwt>0</asrwt>
<pdfrwt beam="1">  1        2 0.29525011E+00 0.14440957E+04</pdfrwt>
<pdfrwt beam="2">  1       -2 0.36036764E-01 0.14440957E+04</pdfrwt>
<totfact> 0.52151784E+01</totfact>
</mgrwt>
</event>
<event>
 8    2  0.4306980E-052  0.1507548E+04  0.7818608E-02  0.8879449E-01
          2   -1    0    0  501    0  0.00000000000E+00  0.00000000000E+00  0.10782306656E+04  0.10782306657E+04  0.25500000000E-02 0.  1.
         -2   -1    0    0    0  501 -0.00000000000E+00 -0.00000000000E+00 -0.52695147769E+03  0.52695147770E+03  0.25500000000E-02 0. -1.
    -200001    2    1    2    0    0  0.91638568755E+02  0.39821954405E+03  0.44101635475E+03  0.86026380894E+03  0.61529014559E+03 0.  0.
   -5000001    2    3    3    0    0  0.30985954867E+03  0.99513735495E+02  0.30320636044E+03  0.45278601731E+03  0.84647250452E+02 0.  0.
     200001    1    1    2    0    0 -0.91638568755E+02 -0.39821954405E+03  0.11026283321E+03  0.74491833441E+03  0.61300000000E+03 0. -1.
         13    1    4    4    0    0  0.67198813622E+02 -0.63426015009E+00  0.33012933790E+02  0.74872877596E+02  0.10566000000E+00 0.  1.
    -200003    1    4    4    0    0  0.24266073505E+03  0.10014799565E+03  0.27019342665E+03  0.37791313971E+03  0.30000000000E+02 0.  1.
    -200000    1    3    3    0    0 -0.21822097991E+03  0.29870580856E+03  0.13780999432E+03  0.40747779163E+03  0.10100000000E+03 0.  1.
<mgrwt>
<rscale>  0 0.15075480E+04</rscale>
<asrwt>0</asrwt>
<pdfrwt beam="1">  1        2 0.15403295E+00 0.15075480E+04</pdfrwt>
<pdfrwt beam="2">  1       -2 0.75278782E-01 0.15075480E+04</pdfrwt>
<totfact> 0.38571962E+01</totfact>
</mgrwt>
</event>
<event>
 8    2  0.4306980E-052  0.1344140E+04  0.7818608E-02  0.8995276E-01
          2   -1    0    0  501    0  0.00000000000E+00  0.00000000000E+00  0.14371881243E+04  0.14371881243E+04  0.25500000000E-02 0.  1.
         -2   -1    0    0    0  501 -0.00000000000E+00 -0.00000000000E+00 -0.31427897736E+03  0.31427897737E+03  0.25500000000E-02 0. -1.
    -200001    2    1    2    0    0 -0.48652699367E+02 -0.17472908670E+03  0.83111664821E+03  0.10487515111E+04  0.61337387480E+03 0.  0.
   -5000001    2    3    3    0    0 -0.16969707693E+03 -0.28039614402E+03  0.29632055874E+03  0.48127893413E+03  0.19079948482E+03 0.  0.
     200001    1    1    2    0    0  0.48652699367E+02  0.17472908670E+03  0.29179249877E+03  0.70271559057E+03  0.61300000000E+03 0. -1.
         13    1    4    4    0    0 -0.73695823160E+02 -0.21875332157E+03  0.98533626363E+02  0.25098401690E+03  0.10566000000E+00 0.  1.
    -200003    1    4    4    0    0 -0.96001253769E+02 -0.61642822445E+02  0.19778693237E+03  0.23029491723E+03  0.30000000000E+02 0.  1.
    -200000    1    3    3    0    0  0.12104437756E+03  0.10566705732E+03  0.53479608947E+03  0.56747257701E+03  0.10100000000E+03 0.  1.
<mgrwt>
<rscale>  0 0.13441399E+04</rscale>
<asrwt>0</asrwt>
<pdfrwt beam="1">  1        2 0.20531259E+00 0.13441399E+04</pdfrwt>
<pdfrwt beam="2">  1       -2 0.44896997E-01 0.13441399E+04</pdfrwt>
<totfact> 0.72646410E+01</totfact>
</mgrwt>
</event>
<event>
 8    2  0.4306980E-052  0.1380754E+04  0.7818608E-02  0.8967869E-01
         -2   -1    0    0    0  501 -0.00000000000E+00  0.00000000000E+00  0.77376270939E+03  0.77376270940E+03  0.25500000000E-02 0. -1.
          2   -1    0    0  501    0  0.00000000000E+00 -0.00000000000E+00 -0.61597716255E+03  0.61597716255E+03  0.25500000000E-02 0.  1.
    -200001    2    1    2    0    0  0.26356439323E+03  0.11394032652E+03 -0.60587446914E+02  0.67847033669E+03  0.61172099167E+03 0.  0.
   -5000001    2    3    3    0    0 -0.97603942659E+02  0.53961141771E+02 -0.11290736458E+02  0.29549352915E+03  0.27340557894E+03 0.  0.
     200001    1    1    2    0    0 -0.26356439323E+03 -0.11394032652E+03  0.21837299376E+03  0.71126953526E+03  0.61300000000E+03 0.  1.
         13    1    4    4    0    0  0.62623081349E+02 -0.67197653047E+02  0.28225564713E+01  0.91897512925E+02  0.10566000000E+00 0.  1.
    -200003    1    4    4    0    0 -0.16022702401E+03  0.12115879482E+03 -0.14113292930E+02  0.20359601622E+03  0.30000000000E+02 0.  1.
    -200000    1    3    3    0    0  0.36116833589E+03  0.59979184753E+02 -0.49296710455E+02  0.38297680754E+03  0.10100000000E+03 0.  1.
<mgrwt>
<rscale>  0 0.13807536E+04</rscale>
<asrwt>0</asrwt>
<pdfrwt beam="1">  1        2 0.87996738E-01 0.13807536E+04</pdfrwt>
<pdfrwt beam="2">  1       -2 0.11053753E+00 0.13807536E+04</pdfrwt>
<totfact> 0.33333452E+01</totfact>
</mgrwt>
</event>
<event>
 8    2  0.4306980E-052  0.1383058E+04  0.7818608E-02  0.8966174E-01
          2   -1    0    0  501    0  0.00000000000E+00  0.00000000000E+00  0.17367596212E+04  0.17367596212E+04  0.25500000000E-02 0.  1.
         -2   -1    0    0    0  501 -0.00000000000E+00 -0.00000000000E+00 -0.27534742980E+03  0.27534742981E+03  0.25500000000E-02 0. -1.
    -200001    2    1    2    0    0 -0.28579158895E+03  0.12787276171E+03  0.63176971621E+03  0.93409781537E+03  0.61268056837E+03 0.  0.
   -5000001    2    3    3    0    0 -0.42966345039E+03  0.33875144944E+02  0.27735575455E+03  0.52747154877E+03  0.12466681246E+03 0.  0.
     200001    1    1    2    0    0  0.28579158895E+03 -0.12787276171E+03  0.82964247520E+03  0.10780092357E+04  0.61300000000E+03 0.  1.
         13    1    4    4    0    0 -0.15867887769E+03  0.25931688173E+01  0.17061898735E+03  0.23301622424E+03  0.10566000000E+00 0.  1.
    -200003    1    4    4    0    0 -0.27098457270E+03  0.31281976126E+02  0.10673676721E+03  0.29445532453E+03  0.30000000000E+02 0.  1.
    -200000    1    3    3    0    0  0.14387186144E+03  0.93997616767E+02  0.35441396165E+03  0.40662626660E+03  0.10100000000E+03 0. -1.
<mgrwt>
<rscale>  0 0.13830579E+04</rscale>
<asrwt>0</asrwt>
<pdfrwt beam="1">  1        2 0.24810851E+00 0.13830579E+04</pdfrwt>
<pdfrwt beam="2">  1       -2 0.39335348E-01 0.13830579E+04</pdfrwt>
<totfact> 0.65402750E+01</totfact>
</mgrwt>
</event>
<event>
 8    2  0.4306980E-052  0.1401400E+04  0.7818608E-02  0.8952806E-01
          2   -1    0    0  501    0  0.00000000000E+00  0.00000000000E+00  0.40573296944E+04  0.40573296944E+04  0.25500000000E-02 0.  1.
         -2   -1    0    0    0  501 -0.00000000000E+00 -0.00000000000E+00 -0.12101074624E+03  0.12101074627E+03  0.25500000000E-02 0. -1.
    -200001    2    1    2    0    0  0.27164117991E+03 -0.60661232231E+02  0.25475493607E+04  0.26349938552E+04  0.61295689591E+03 0.  0.
   -5000001    2    3    3    0    0  0.26843682661E+03 -0.22001709041E+03  0.21910476628E+04  0.22316341919E+04  0.24297212966E+03 0.  0.
     200001    1    1    2    0    0 -0.27164117991E+03  0.60661232231E+02  0.13887695875E+04  0.15433465855E+04  0.61300000000E+03 0. -1.
         13    1    4    4    0    0  0.46251240401E+02 -0.12094375240E+03  0.32968418855E+03  0.35420085238E+03  0.10566000000E+00 0.  1.
    -200003    1    4    4    0    0  0.22218558620E+03 -0.99073338009E+02  0.18613634743E+04  0.18774333395E+04  0.30000000000E+02 0.  1.
    -200000    1    3    3    0    0  0.32043533084E+01  0.15935585818E+03  0.35650169788E+03  0.40335966334E+03  0.10100000000E+03 0.  1.
<mgrwt>
<rscale>  0 0.14014000E+04</rscale>
<asrwt>0</asrwt>
<pdfrwt beam="1">  1        2 0.57961849E+00 0.14014000E+04</pdfrwt>
<pdfrwt beam="2">  1       -2 0.17287251E-01 0.14014000E+04</pdfrwt>
<totfact> 0.14277827E+01</totfact>
</mgrwt>
</event>
<event>
 8    2  0.4306980E-052  0.3954388E+04  0.7818608E-02  0.8013812E-01
         -2   -1    0    0    0  501 -0.00000000000E+00  0.00000000000E+00  0.14566927316E+04  0.14566927316E+04  0.25500000000E-02 0. -1.
          2   -1    0    0  501    0  0.00000000000E+00 -0.00000000000E+00 -0.26836786119E+04  0.26836786119E+04  0.25500000000E-02 0.  1.
    -200001    2    1    2    0    0 -0.11076822061E+04 -0.11254956050E+04 -0.16810582919E+04  0.23866179454E+04  0.61342318980E+03 0.  0.
   -5000001    2    3    3    0    0 -0.71337173687E+03 -0.30786906034E+03 -0.77650731577E+03  0.11011579572E+04  0.76828653755E+02 0.  0.
     200001    1    1    2    0    0  0.11076822061E+04  0.11254956050E+04  0.45407241149E+03  0.17537533982E+04  0.61300000000E+03 0.  1.
         13    1    4    4    0    0 -0.27737611306E+03 -0.89881250675E+02 -0.31472926810E+03  0.42903457983E+03  0.10566000000E+00 0.  1.
    -200003    1    4    4    0    0 -0.43599562380E+03 -0.21798780967E+03 -0.46177804767E+03  0.67212337740E+03  0.30000000000E+02 0.  1.
    -200000    1    3    3    0    0 -0.39431046924E+03 -0.81762654470E+03 -0.90455097609E+03  0.12854599881E+04  0.10100000000E+03 0. -1.
<mgrwt>
<rscale>  0 0.39543875E+04</rscale>
<asrwt>0</asrwt>
<pdfrwt beam="1">  1        2 0.38338265E+00 0.39543875E+04</pdfrwt>
<pdfrwt beam="2">  1       -2 0.20809896E+00 0.39543875E+04</pdfrwt>
<totfact> 0.33180270E-01</totfact>
</mgrwt>
</event>
<event>
 8    2  0.4306980E-052  0.1425601E+04  0.7818608E-02  0.8935493E-01
         -2   -1    0    0    0  501 -0.00000000000E+00  0.00000000000E+00  0.22867182072E+03  0.22867182073E+03  0.25500000000E-02 0. -1.
          2   -1    0    0  501    0  0.00000000000E+00 -0.00000000000E+00 -0.22218926465E+04  0.22218926465E+04  0.25500000000E-02 0.  1.
    -200001    2    1    2    0    0  0.13226155069E+03  0.13587636660E+03 -0.44917274858E+03  0.77849719301E+03  0.60691532908E+03 0.  0.
   -5000001    2    3    3    0    0  0.11474075888E+03  0.35733869931E+03 -0.31185476516E+03  0.49847974441E+03  0.10184435803E+03 0.  0.
     200001    1    1    2    0    0 -0.13226155069E+03 -0.13587636660E+03 -0.15440480772E+04  0.16720672742E+04  0.61300000000E+03 0.  1.
         13    1    4    4    0    0  0.72656467722E+01  0.17317136320E+03 -0.13068261137E+03  0.21706926714E+03  0.10566000000E+00 0.  1.
    -200003    1    4    4    0    0  0.10747511211E+03  0.18416733610E+03 -0.18117215379E+03  0.28141047727E+03  0.30000000000E+02 0.  1.
    -200000    1    3    3    0    0  0.17520791807E+02 -0.22146233270E+03 -0.13731798342E+03  0.28001744860E+03  0.10100000000E+03 0.  1.
<mgrwt>
<rscale>  0 0.14256006E+04</rscale>
<asrwt>0</asrwt>
<pdfrwt beam="1">  1        2 0.31741322E+00 0.14256006E+04</pdfrwt>
<pdfrwt beam="2">  1       -2 0.32667404E-01 0.14256006E+04</pdfrwt>
<totfact> 0.52387355E+01</totfact>
</mgrwt>
</event>
<event>
 8    2  0.4306980E-052  0.1360588E+04  0.7818608E-02  0.8982852E-01
         -2   -1    0    0    0  501 -0.00000000000E+00  0.00000000000E+00  0.43141408525E+03  0.43141408526E+03  0.25500000000E-02 0. -1.
          2   -1    0    0  501    0  0.00000000000E+00 -0.00000000000E+00 -0.10727511435E+04  0.10727511435E+04  0.25500000000E-02 0.  1.
    -200001    2    1    2    0    0 -0.17918111561E+03  0.23110078094E+03 -0.26479566668E+03  0.72759207527E+03  0.61135917410E+03 0.  0.
   -5000001    2    3    3    0    0  0.17431734295E+03  0.48694600525E+01  0.48152088484E+02  0.19441380470E+03  0.71188876508E+02 0.  0.
     200001    1    1    2    0    0  0.17918111561E+03 -0.23110078094E+03 -0.37654139155E+03  0.77657315347E+03  0.61300000000E+03 0. -1.
         13    1    4    4    0    0  0.14152335914E+03 -0.89200311753E+01  0.35154815384E+02  0.14609688685E+03  0.10566000000E+00 0.  1.
    -200003    1    4    4    0    0  0.32793983804E+02  0.13789491228E+02  0.12997273100E+02  0.48316917845E+02  0.30000000000E+02 0. -1.
    -200000    1    3    3    0    0 -0.35349845855E+03  0.22623132089E+03 -0.31294775516E+03  0.53317827057E+03  0.10100000000E+03 0.  1.
<mgrwt>
<rscale>  0 0.13605880E+04</rscale>
<asrwt>0</asrwt>
<pdfrwt beam="1">  1        2 0.15325016E+00 0.13605880E+04</pdfrwt>
<pdfrwt beam="2">  1       -2 0.61630584E-01 0.13605880E+04</pdfrwt>
<totfact> 0.60635964E+01</totfact>
</mgrwt>
</event>
<event>
 8    2  0.4306980E-052  0.1962534E+04  0.7818608E-02  0.8624340E-01
         -2   -1    0    0    0  501 -0.00000000000E+00  0.00000000000E+00  0.63419003809E+03  0.63419003809E+03  0.25500000000E-02 0. -1.
          2   -1    0    0  501    0  0.00000000000E+00 -0.00000000000E+00 -0.15182907123E+04  0.15182907123E+04  0.25500000000E-02 0.  1.
    -200001    2    1    2    0    0  0.11563687749E+03 -0.74109536376E+03 -0.61288309752E+03  0.11465373128E+04  0.61345569756E+03 0.  0.
   -5000001    2    3    3    0    0  0.27786423512E+01 -0.64464031957E+03 -0.68902775895E+03  0.95149996705E+03  0.12257272213E+03 0.  0.
     200001    1    1    2    0    0 -0.11563687749E+03  0.74109536376E+03 -0.27121757666E+03  0.10059434375E+04  0.61300000000E+03 0. -1.
         13    1    4    4    0    0 -0.40309469623E+02 -0.11814897150E+03 -0.16405129214E+03  0.20614769080E+03  0.10566000000E+00 0.  1.
    -200003    1    4    4    0    0  0.43088111974E+02 -0.52649134808E+03 -0.52497646681E+03  0.74535227624E+03  0.30000000000E+02 0.  1.
    -200000    1    3    3    0    0  0.11285823513E+03 -0.96455044188E+02  0.76144661434E+02  0.19503734579E+03  0.10100000000E+03 0. -1.
<mgrwt>
<rscale>  0 0.19625339E+04</rscale>
<asrwt>0</asrwt>
<pdfrwt beam="1">  1        2 0.21689867E+00 0.19625339E+04</pdfrwt>
<pdfrwt beam="2">  1       -2 0.90598577E-01 0.19625339E+04</pdfrwt>
<totfact> 0.13917507E+01</totfact>
</mgrwt>
</event>
<event>
 8    2  0.4306980E-052  0.1655829E+04  0.7818608E-02  0.8786965E-01
         -2   -1    0    0    0  501 -0.00000000000E+00  0.00000000000E+00  0.15236029278E+04  0.15236029279E+04  0.25500000000E-02 0. -1.
          2   -1    0    0  501    0  0.00000000000E+00 -0.00000000000E+00 -0.44988279337E+03  0.44988279337E+03  0.25500000000E-02 0.  1.
    -200001    2    1    2    0    0  0.56221352310E+02  0.28681713094E+03  0.11012362914E+04  0.12938159147E+04  0.61303616906E+03 0.  0.
   -5000001    2    3    3    0    0  0.79479236869E+02  0.39550941746E+03  0.41184386712E+03  0.58825382884E+03  0.11697242358E+03 0.  0.
     200001    1    1    2    0    0 -0.56221352310E+02 -0.28681713094E+03 -0.27516156880E+02  0.67966980656E+03  0.61300000000E+03 0.  1.
         13    1    4    4    0    0  0.48177411714E+02  0.33071830185E+03  0.28431228220E+03  0.43878142982E+03  0.10566000000E+00 0.  1.
    -200003    1    4    4    0    0  0.31301825155E+02  0.64791115604E+02  0.12753158492E+03  0.14947239903E+03  0.30000000000E+02 0.  1.
    -200000    1    3    3    0    0 -0.23257884559E+02 -0.10869228651E+03  0.68939242425E+03  0.70556208582E+03  0.10100000000E+03 0. -1.
<mgrwt>
<rscale>  0 0.16558294E+04</rscale>
<asrwt>0</asrwt>
<pdfrwt beam="1">  1        2 0.64268970E-01 0.16558294E+04</pdfrwt>
<pdfrwt beam="2">  1       -2 0.21765756E+00 0.16558294E+04</pdfrwt>
<totfact> 0.74099283E+00</totfact>
</mgrwt>
</event>
<event>
 8    2  0.4306980E-052  0.1293758E+04  0.7818608E-02  0.9034530E-01
         -2   -1    0    0    0  501 -0.00000000000E+00  0.00000000000E+00  0.19964061273E+03  0.19964061274E+03  0.25500000000E-02 0. -1.
          2   -1    0    0  501    0  0.00000000000E+00 -0.00000000000E+00 -0.20960274158E+04  0.20960274158E+04  0.25500000000E-02 0.  1.
    -200001    2    1    2    0    0 -0.17726074116E+03 -0.29563987659E+01 -0.76143627073E+03  0.99362662308E+03  0.61325244481E+03 0.  0.
   -5000001    2    3    3    0    0  0.13134772327E+03  0.98467792439E+02 -0.58096408610E+03  0.60853278997E+03  0.76451007609E+02 0.  0.
     200001    1    1    2    0    0  0.17726074116E+03  0.29563987659E+01 -0.11349505323E+04  0.13020414054E+04  0.61300000000E+03 0.  1.
         13    1    4    4    0    0 -0.83016234499E+01  0.22406006896E+01 -0.35418826944E+02  0.36447794302E+02  0.10566000000E+00 0.  1.
    -200003    1    4    4    0    0  0.13964934672E+03  0.96227191750E+02 -0.54554525916E+03  0.57208499566E+03  0.30000000000E+02 0.  1.
    -200000    1    3    3    0    0 -0.30860846444E+03 -0.10142419121E+03 -0.18047218462E+03  0.38509383312E+03  0.10100000000E+03 0.  1.
<mgrwt>
<rscale>  0 0.12937576E+04</rscale>
<asrwt>0</asrwt>
<pdfrwt beam="1">  1        2 0.29943247E+00 0.12937576E+04</pdfrwt>
<pdfrwt beam="2">  1       -2 0.28520089E-01 0.12937576E+04</pdfrwt>
<totfact> 0.79165640E+01</totfact>
</mgrwt>
</event>
<event>
 8    2  0.4306980E-052  0.1283923E+04  0.7818608E-02  0.9042412E-01
         -2   -1    0    0    0  501 -0.00000000000E+00  0.00000000000E+00  0.12903459816E+03  0.12903459818E+03  0.25500000000E-02 0. -1.
          2   -1    0    0  501    0  0.00000000000E+00 -0.00000000000E+00 -0.31938294665E+04  0.31938294665E+04  0.25500000000E-02 0.  1.
    -200001    2    1    2    0    0  0.37190401866E+02  0.17352083303E+03 -0.13455613762E+04  0.14890087252E+04  0.61246955945E+03 0.  0.
   -5000001    2    3    3    0    0 -0.23568922514E+03  0.23118778274E+02 -0.54441266805E+03  0.62348904236E+03  0.19044564592E+03 0.  0.
     200001    1    1    2    0    0 -0.37190401866E+02 -0.17352083303E+03 -0.17192334922E+04  0.18338553395E+04  0.61300000000E+03 0.  1.
         13    1    4    4    0    0 -0.22733723514E+02  0.46208054551E+02 -0.26596056252E+03  0.27090042169E+03  0.10566000000E+00 0.  1.
    -200003    1    4    4    0    0 -0.21295550162E+03 -0.23089276278E+02 -0.27845210553E+03  0.35258862067E+03  0.30000000000E+02 0.  1.
    -200000    1    3    3    0    0  0.27287962700E+03  0.15040205476E+03 -0.80114870814E+03  0.86551968289E+03  0.10100000000E+03 0.  1.
<mgrwt>
<rscale>  0 0.12839229E+04</rscale>
<asrwt>0</asrwt>
<pdfrwt beam="1">  1        2 0.45626130E+00 0.12839229E+04</pdfrwt>
<pdfrwt beam="2">  1       -2 0.18433516E-01 0.12839229E+04</pdfrwt>
<totfact> 0.44799913E+01</totfact>
</mgrwt>
</event>
<event>
 8    2  0.4306980E-052  0.1424588E+04  0.7818608E-02  0.8936210E-01
          2   -1    0    0  501    0  0.00000000000E+00  0.00000000000E+00  0.16785568544E+04  0.16785568544E+04  0.25500000000E-02 0.  1.
         -2   -1    0    0    0  501 -0.00000000000E+00 -0.00000000000E+00 -0.30226118227E+03  0.30226118228E+03  0.25500000000E-02 0. -1.
    -200001    2    1    2    0    0  0.23197520644E+03 -0.32159356091E+02  0.10720674889E+04  0.12575127705E+04  0.61413593496E+03 0.  0.
   -5000001    2    3    3    0    0  0.13329556507E+03 -0.18296528948E+03  0.92057153614E+02  0.25596329172E+03  0.76149079789E+02 0.  0.
     200001    1    1    2    0    0 -0.23197520644E+03  0.32159356091E+02  0.30422818317E+03  0.72330526614E+03  0.61300000000E+03 0. -1.
         13    1    4    4    0    0  0.36585633541E+02 -0.10425056933E+03  0.46284053143E+02  0.11978695474E+03  0.10566000000E+00 0.  1.
    -200003    1    4    4    0    0  0.96709931533E+02 -0.78714720154E+02  0.45773100471E+02  0.13617633698E+03  0.30000000000E+02 0.  1.
    -200000    1    3    3    0    0  0.98679641370E+02  0.15080593339E+03  0.98001033529E+03  0.10015494788E+04  0.10100000000E+03 0.  1.
<mgrwt>
<rscale>  0 0.14245878E+04</rscale>
<asrwt>0</asrwt>
<pdfrwt beam="1">  1        2 0.23979384E+00 0.14245878E+04</pdfrwt>
<pdfrwt beam="2">  1       -2 0.43180167E-01 0.14245878E+04</pdfrwt>
<totfact> 0.58195973E+01</totfact>
</mgrwt>
</event>
<event>
 8    2  0.4306980E-052  0.1428055E+04  0.7818608E-02  0.8933758E-01
          2   -1    0    0  501    0  0.00000000000E+00  0.00000000000E+00  0.55188969664E+03  0.55188969665E+03  0.25500000000E-02 0.  1.
         -2   -1    0    0    0  501 -0.00000000000E+00 -0.00000000000E+00 -0.92379899158E+03  0.92379899158E+03  0.25500000000E-02 0. -1.
    -200001    2    1    2    0    0  0.31969473735E+03 -0.12995580913E+03 -0.59029068782E+02  0.70578202289E+03  0.61282183011E+03 0.  0.
   -5000001    2    3    3    0    0 -0.25794924405E+02  0.86822869298E+02  0.16560795606E+03  0.22931702446E+03  0.13021794745E+03 0.  0.
     200001    1    1    2    0    0 -0.31969473735E+03  0.12995580913E+03 -0.31288022616E+03  0.76990666534E+03  0.61300000000E+03 0. -1.
         13    1    4    4    0    0 -0.66547032578E+02  0.16165635401E+02  0.50520808010E+02  0.85101107624E+02  0.10566000000E+00 0.  1.
    -200003    1    4    4    0    0  0.40752108172E+02  0.70657233897E+02  0.11508714805E+03  0.14421591683E+03  0.30000000000E+02 0.  1.
    -200000    1    3    3    0    0  0.34548966176E+03 -0.21677867843E+03 -0.22463702484E+03  0.47646499843E+03  0.10100000000E+03 0.  1.
<mgrwt>
<rscale>  0 0.14280548E+04</rscale>
<asrwt>0</asrwt>
<pdfrwt beam="1">  1        2 0.78841385E-01 0.14280548E+04</pdfrwt>
<pdfrwt beam="2">  1       -2 0.13197128E+00 0.14280548E+04</pdfrwt>
<totfact> 0.24346834E+01</totfact>
</mgrwt>
</event>
<event>
 8    2  0.4306980E-052  0.1297830E+04  0.7818608E-02  0.9031288E-01
          2   -1    0    0  501    0  0.00000000000E+00  0.00000000000E+00  0.23945667839E+04  0.23945667839E+04  0.25500000000E-02 0.  1.
         -2   -1    0    0    0  501 -0.00000000000E+00 -0.00000000000E+00 -0.17585246945E+03  0.17585246947E+03  0.25500000000E-02 0. -1.
    -200001    2    1    2    0    0 -0.50622281966E+01 -0.15593147958E+03  0.13916483609E+04  0.15291952890E+04  0.61433933534E+03 0.  0.
   -5000001    2    3    3    0    0 -0.56511582553E+02  0.22500498095E+03  0.47533860288E+03  0.53040392154E+03  0.39506103017E+02 0.  0.
     200001    1    1    2    0    0  0.50622281966E+01  0.15593147958E+03  0.82706595348E+03  0.10412239643E+04  0.61300000000E+03 0. -1.
         13    1    4    4    0    0 -0.36754048763E+01  0.11514905210E+02  0.39338112201E+02  0.41153370197E+02  0.10566000000E+00 0.  1.
    -200003    1    4    4    0    0 -0.52836177677E+02  0.21349007574E+03  0.43600049068E+03  0.48925055134E+03  0.30000000000E+02 0.  1.
    -200000    1    3    3    0    0  0.51449354356E+02 -0.38093646053E+03  0.91630975805E+03  0.99879136746E+03  0.10100000000E+03 0. -1.
<mgrwt>
<rscale>  0 0.12978297E+04</rscale>
<asrwt>0</asrwt>
<pdfrwt beam="1">  1        2 0.34208096E+00 0.12978297E+04</pdfrwt>
<pdfrwt beam="2">  1       -2 0.25121782E-01 0.12978297E+04</pdfrwt>
<totfact> 0.70023093E+01</totfact>
</mgrwt>
</event>
<event>
 8    2  0.4306980E-052  0.1453222E+04  0.7818608E-02  0.8916170E-01
          2   -1    0    0  501    0  0.00000000000E+00  0.00000000000E+00  0.12314087229E+04  0.12314087229E+04  0.25500000000E-02 0.  1.
         -2   -1    0    0    0  501 -0.00000000000E+00 -0.00000000000E+00 -0.42874732031E+03  0.42874732032E+03  0.25500000000E-02 0. -1.
    -200001    2    1    2    0    0  0.30130009155E+03  0.39661417453E+02  0.12747387537E+03  0.69890583120E+03  0.61633189012E+03 0.  0.
   -5000001    2    3    3    0    0  0.21584294357E+03 -0.26537712965E+03  0.25016575850E+02  0.35098351576E+03  0.74501020387E+02 0.  0.
     200001    1    1    2    0    0 -0.30130009155E+03 -0.39661417453E+02  0.67518752722E+03  0.96125021202E+03  0.61300000000E+03 0.  1.
         13    1    4    4    0    0  0.12386839024E+03 -0.17426923674E+03 -0.83446944021E+01  0.21396913344E+03  0.10566000000E+00 0.  1.
    -200003    1    4    4    0    0  0.91974553337E+02 -0.91107892902E+02  0.33361270253E+02  0.13701438232E+03  0.30000000000E+02 0. -1.
    -200000    1    3    3    0    0  0.85457147981E+02  0.30503854710E+03  0.10245729952E+03  0.34792231544E+03  0.10100000000E+03 0.  1.
<mgrwt>
<rscale>  0 0.14532215E+04</rscale>
<asrwt>0</asrwt>
<pdfrwt beam="1">  1        2 0.17591553E+00 0.14532215E+04</pdfrwt>
<pdfrwt beam="2">  1       -2 0.61249617E-01 0.14532215E+04</pdfrwt>
<totfact> 0.49369561E+01</totfact>
</mgrwt>
</event>
<event>
 8    2  0.4306980E-052  0.1467083E+04  0.7818608E-02  0.8906642E-01
         -2   -1    0    0    0  501 -0.00000000000E+00  0.00000000000E+00  0.10870920732E+04  0.10870920732E+04  0.25500000000E-02 0. -1.
          2   -1    0    0  501    0  0.00000000000E+00 -0.00000000000E+00 -0.49497472559E+03  0.49497472560E+03  0.25500000000E-02 0.  1.
    -200001    2    1    2    0    0 -0.29146587673E+03 -0.15454901390E+03  0.45898081979E+02  0.69721526257E+03  0.61250692522E+03 0.  0.
   -5000001    2    3    3    0    0  0.24719979661E+02  0.42647574906E+02 -0.21460258400E+03  0.23146684616E+03  0.71363427424E+02 0.  0.
     200001    1    1    2    0    0  0.29146587673E+03  0.15454901390E+03  0.54621926558E+03  0.88485153618E+03  0.61300000000E+03 0. -1.
         13    1    4    4    0    0  0.15542597097E+02 -0.14622834351E+02 -0.57580749124E+02  0.61408089391E+02  0.10566000000E+00 0.  1.
    -200003    1    4    4    0    0  0.91773825635E+01  0.57270409257E+02 -0.15702183488E+03  0.17005875677E+03  0.30000000000E+02 0.  1.
    -200000    1    3    3    0    0 -0.31618585639E+03 -0.19719658880E+03  0.26050066598E+03  0.46574841641E+03  0.10100000000E+03 0. -1.
<mgrwt>
<rscale>  0 0.14670830E+04</rscale>
<asrwt>0</asrwt>
<pdfrwt beam="1">  1        2 0.70710676E-01 0.14670830E+04</pdfrwt>
<pdfrwt beam="2">  1       -2 0.15529887E+00 0.14670830E+04</pdfrwt>
<totfact> 0.17986191E+01</totfact>
</mgrwt>
</event>
<event>
 8    2  0.4306980E-052  0.1329218E+04  0.7818608E-02  0.9006711E-01
         -2   -1    0    0    0  501 -0.00000000000E+00  0.00000000000E+00  0.21368177329E+03  0.21368177330E+03  0.25500000000E-02 0. -1.
          2   -1    0    0  501    0  0.00000000000E+00 -0.00000000000E+00 -0.20671155382E+04  0.20671155382E+04  0.25500000000E-02 0.  1.
    -200001    2    1    2    0    0 -0.15132508820E+03 -0.28612857119E+02 -0.57324640246E+03  0.85308352335E+03  0.61271696726E+03 0.  0.
   -5000001    2    3    3    0    0 -0.12603138513E+03  0.24648747034E+03 -0.45247284701E+03  0.53510991866E+03  0.70505068584E+02 0.  0.
     200001    1    1    2    0    0  0.15132508820E+03  0.28612857119E+02 -0.12801873625E+04  0.14277137882E+04  0.61300000000E+03 0.  1.
         13    1    4    4    0    0 -0.81065559769E+02  0.10527906374E+03 -0.18356668278E+03  0.22660989483E+03  0.10566000000E+00 0.  1.
    -200003    1    4    4    0    0 -0.44965825361E+02  0.14120840660E+03 -0.26890616423E+03  0.30850002383E+03  0.30000000000E+02 0.  1.
    -200000    1    3    3    0    0 -0.25293703066E+02 -0.27510032746E+03 -0.12077355545E+03  0.31797360469E+03  0.10100000000E+03 0. -1.
<mgrwt>
<rscale>  0 0.13292177E+04</rscale>
<asrwt>0</asrwt>
<pdfrwt beam="1">  1        2 0.29530221E+00 0.13292177E+04</pdfrwt>
<pdfrwt beam="2">  1       -2 0.30525969E-01 0.13292177E+04</pdfrwt>
<totfact> 0.72006125E+01</totfact>
</mgrwt>
</event>
<event>
 8    2  0.4306980E-052  0.1242744E+04  0.7818608E-02  0.9076244E-01
         -2   -1    0    0    0  501 -0.00000000000E+00  0.00000000000E+00  0.28766715101E+03  0.28766715103E+03  0.25500000000E-02 0. -1.
          2   -1    0    0  501    0  0.00000000000E+00 -0.00000000000E+00 -0.13421868787E+04  0.13421868787E+04  0.25500000000E-02 0.  1.
    -200001    2    1    2    0    0 -0.69420851619E+02 -0.73974899626E+02 -0.52198628191E+03  0.81153110367E+03  0.61304283155E+03 0.  0.
   -5000001    2    3    3    0    0  0.15039250647E+03 -0.18843410916E+03 -0.47355131467E+03  0.53956461843E+03  0.93561799581E+02 0.  0.
     200001    1    1    2    0    0  0.69420851619E+02  0.73974899626E+02 -0.53253344575E+03  0.81832292602E+03  0.61300000000E+03 0. -1.
         13    1    4    4    0    0  0.96560508909E+02 -0.95286960261E+02 -0.17935947210E+03  0.22488523311E+03  0.10566000000E+00 0.  1.
    -200003    1    4    4    0    0  0.53831997564E+02 -0.93147148897E+02 -0.29419184257E+03  0.31467938532E+03  0.30000000000E+02 0. -1.
    -200000    1    3    3    0    0 -0.21981335809E+03  0.11445920953E+03 -0.48434967237E+02  0.27196648524E+03  0.10100000000E+03 0. -1.
<mgrwt>
<rscale>  0 0.12427439E+04</rscale>
<asrwt>0</asrwt>
<pdfrwt beam="1">  1        2 0.19174098E+00 0.12427439E+04</pdfrwt>
<pdfrwt beam="2">  1       -2 0.41095308E-01 0.12427439E+04</pdfrwt>
<totfact> 0.98149912E+01</totfact>
</mgrwt>
</event>
<event>
 8    2  0.4306980E-052  0.1797863E+04  0.7818608E-02  0.8707437E-01
          2   -1    0    0  501    0  0.00000000000E+00  0.00000000000E+00  0.15052008426E+04  0.15052008426E+04  0.25500000000E-02 0.  1.
         -2   -1    0    0    0  501 -0.00000000000E+00 -0.00000000000E+00 -0.53685698723E+03  0.53685698724E+03  0.25500000000E-02 0. -1.
    -200001    2    1    2    0    0 -0.43507866083E+03 -0.33347897761E+03  0.89613911231E+03  0.12165372701E+04  0.61351116649E+03 0.  0.
   -5000001    2    3    3    0    0  0.18098414696E+02 -0.32339280716E+02  0.55351299110E+03  0.56565460962E+03  0.11052205381E+03 0.  0.
     200001    1    1    2    0    0  0.43507866083E+03  0.33347897761E+03  0.72204743092E+02  0.82552055973E+03  0.61300000000E+03 0. -1.
         13    1    4    4    0    0  0.51953449226E+00 -0.45319416463E+02  0.91068743249E+02  0.10172338269E+03  0.10566000000E+00 0.  1.
    -200003    1    4    4    0    0  0.17578880204E+02  0.12980135747E+02  0.46244424785E+03  0.46393122693E+03  0.30000000000E+02 0.  1.
    -200000    1    3    3    0    0 -0.45317707552E+03 -0.30113969689E+03  0.34262612121E+03  0.65088266052E+03  0.10100000000E+03 0.  1.
<mgrwt>
<rscale>  0 0.17978627E+04</rscale>
<asrwt>0</asrwt>
<pdfrwt beam="1">  1        2 0.21502869E+00 0.17978627E+04</pdfrwt>
<pdfrwt beam="2">  1       -2 0.76693855E-01 0.17978627E+04</pdfrwt>
<totfact> 0.20903034E+01</totfact>
</mgrwt>
</event>
<event>
 8    2  0.4306980E-052  0.1497665E+04  0.7818608E-02  0.8886007E-01
          2   -1    0    0  501    0  0.00000000000E+00  0.00000000000E+00  0.27360775558E+04  0.27360775558E+04  0.25500000000E-02 0.  1.
         -2   -1    0    0    0  501 -0.00000000000E+00 -0.00000000000E+00 -0.20494677113E+03  0.20494677114E+03  0.25500000000E-02 0. -1.
    -200001    2    1    2    0    0 -0.33332191029E+03 -0.26997247125E+03  0.11918919290E+04  0.14069714127E+04  0.61235084278E+03 0.  0.
   -5000001    2    3    3    0    0 -0.20684335546E+02 -0.30266873328E+02  0.43372330954E+01  0.15170722435E+03  0.14714735802E+03 0.  0.
     200001    1    1    2    0    0  0.33332191029E+03  0.26997247125E+03  0.13392388557E+04  0.15340529142E+04  0.61300000000E+03 0.  1.
         13    1    4    4    0    0 -0.46941508002E+02  0.36144603633E+01  0.59370818329E+02  0.75772519625E+02  0.10566000000E+00 0.  1.
    -200003    1    4    4    0    0  0.26257172455E+02 -0.33881333691E+02 -0.55033585234E+02  0.75934704725E+02  0.30000000000E+02 0.  1.
    -200000    1    3    3    0    0 -0.31263757474E+03 -0.23970559792E+03  0.11875546959E+04  0.12552641883E+04  0.10100000000E+03 0.  1.
<mgrwt>
<rscale>  0 0.14976652E+04</rscale>
<asrwt>0</asrwt>
<pdfrwt beam="1">  1        2 0.39086821E+00 0.14976652E+04</pdfrwt>
<pdfrwt beam="2">  1       -2 0.29278111E-01 0.14976652E+04</pdfrwt>
<totfact> 0.34334288E+01</totfact>
</mgrwt>
</event>
<event>
 8    2  0.4306980E-052  0.1270961E+04  0.7818608E-02  0.9052916E-01
         -2   -1    0    0    0  501 -0.00000000000E+00  0.00000000000E+00  0.15556507195E+03  0.15556507197E+03  0.25500000000E-02 0. -1.
          2   -1    0    0  501    0  0.00000000000E+00 -0.00000000000E+00 -0.25959250855E+04  0.25959250855E+04  0.25500000000E-02 0.  1.
    -200001    2    1    2    0    0 -0.65885972797E+02  0.11413129842E+03 -0.99160482089E+03  0.11728744592E+04  0.61236219794E+03 0.  0.
   -5000001    2    3    3    0    0 -0.29793711467E+03  0.15331596643E+03 -0.40557721334E+03  0.53333358677E+03  0.87632921575E+02 0.  0.
     200001    1    1    2    0    0  0.65885972797E+02 -0.11413129842E+03 -0.14487551926E+04  0.15786156983E+04  0.61300000000E+03 0. -1.
         13    1    4    4    0    0 -0.21394523409E+03  0.96753349085E+02 -0.23158023624E+03  0.32979264808E+03  0.10566000000E+00 0.  1.
    -200003    1    4    4    0    0 -0.83991880576E+02  0.56562617345E+02 -0.17399697710E+03  0.20354093869E+03  0.30000000000E+02 0. -1.
    -200000    1    3    3    0    0  0.23205114187E+03 -0.39184668011E+02 -0.58602760756E+03  0.63954087240E+03  0.10100000000E+03 0. -1.
<mgrwt>
<rscale>  0 0.12709607E+04</rscale>
<asrwt>0</asrwt>
<pdfrwt beam="1">  1        2 0.37084641E+00 0.12709607E+04</pdfrwt>
<pdfrwt beam="2">  1       -2 0.22223583E-01 0.12709607E+04</pdfrwt>
<totfact> 0.68611732E+01</totfact>
</mgrwt>
</event>
<event>
 8    2  0.4306980E-052  0.1776641E+04  0.7818608E-02  0.8718821E-01
         -2   -1    0    0    0  501 -0.00000000000E+00  0.00000000000E+00  0.22072367757E+03  0.22072367759E+03  0.25500000000E-02 0. -1.
          2   -1    0    0  501    0  0.00000000000E+00 -0.00000000000E+00 -0.35751171649E+04  0.35751171649E+04  0.25500000000E-02 0.  1.
    -200001    2    1    2    0    0  0.52402483462E+03  0.10407075726E+03 -0.91755061706E+03  0.12269101458E+04  0.61479803292E+03 0.  0.
   -5000001    2    3    3    0    0  0.47226177436E+03 -0.10963896522E+03 -0.34478215207E+03  0.60512563785E+03  0.11068161083E+03 0.  0.
     200001    1    1    2    0    0 -0.52402483462E+03 -0.10407075726E+03 -0.24368428702E+04  0.25689306966E+04  0.61300000000E+03 0.  1.
         13    1    4    4    0    0  0.21152585759E+03 -0.91227422247E+01 -0.10824523303E+03  0.23778867612E+03  0.10566000000E+00 0.  1.
    -200003    1    4    4    0    0  0.26073591678E+03 -0.10051622299E+03 -0.23653691904E+03  0.36733696173E+03  0.30000000000E+02 0.  1.
    -200000    1    3    3    0    0  0.51763060252E+02  0.21370972248E+03 -0.57276846499E+03  0.62178450798E+03  0.10100000000E+03 0.  1.
<mgrwt>
<rscale>  0 0.17766407E+04</rscale>
<asrwt>0</asrwt>
<pdfrwt beam="1">  1        2 0.51073099E+00 0.17766407E+04</pdfrwt>
<pdfrwt beam="2">  1       -2 0.31531956E-01 0.17766407E+04</pdfrwt>
<totfact> 0.96283474E+00</totfact>
</mgrwt>
</event>
<event>
 8    2  0.4306980E-052  0.1396318E+04  0.7818608E-02  0.8956488E-01
          2   -1    0    0  501    0  0.00000000000E+00  0.00000000000E+00  0.25364386534E+04  0.25364386534E+04  0.25500000000E-02 0.  1.
         -2   -1    0    0    0  501 -0.00000000000E+00 -0.00000000000E+00 -0.19216947583E+03  0.19216947585E+03  0.25500000000E-02 0. -1.
    -200001    2    1    2    0    0  0.22386907883E+03  0.88430974325E+02  0.16248220914E+04  0.17532566483E+04  0.61312693980E+03 0.  0.
   -5000001    2    3    3    0    0  0.18706881899E+02  0.29975654392E+03  0.78140556999E+03  0.85420022511E+03  0.16988062492E+03 0.  0.
     200001    1    1    2    0    0 -0.22386907883E+03 -0.88430974325E+02  0.71944708618E+03  0.97535148100E+03  0.61300000000E+03 0. -1.
         13    1    4    4    0    0 -0.20430181055E+01  0.17423222699E+03  0.63248798828E+03  0.65605038627E+03  0.10566000000E+00 0.  1.
    -200003    1    4    4    0    0  0.20749900004E+02  0.12552431693E+03  0.14891758171E+03  0.19814983884E+03  0.30000000000E+02 0.  1.
    -200000    1    3    3    0    0  0.20516219693E+03 -0.21132556960E+03  0.84341652143E+03  0.89905642317E+03  0.10100000000E+03 0.  1.
<mgrwt>
<rscale>  0 0.13963181E+04</rscale>
<asrwt>0</asrwt>
<pdfrwt beam="1">  1        2 0.36234837E+00 0.13963181E+04</pdfrwt>
<pdfrwt beam="2">  1       -2 0.27452783E-01 0.13963181E+04</pdfrwt>
<totfact> 0.49802999E+01</totfact>
</mgrwt>
</event>
<event>
 8    2  0.4306980E-052  0.1285184E+04  0.7818608E-02  0.9041398E-01
         -2   -1    0    0    0  501 -0.00000000000E+00  0.00000000000E+00  0.34756444488E+03  0.34756444489E+03  0.25500000000E-02 0. -1.
          2   -1    0    0  501    0  0.00000000000E+00 -0.00000000000E+00 -0.11880515985E+04  0.11880515985E+04  0.25500000000E-02 0.  1.
    -200001    2    1    2    0    0 -0.51330027034E+02 -0.57797583942E+02 -0.62898334325E+03  0.88256306378E+03  0.61426556397E+03 0.  0.
   -5000001    2    3    3    0    0 -0.26034387329E+03  0.14372673602E+03 -0.27342039281E+03  0.41253662708E+03  0.83614893868E+02 0.  0.
     200001    1    1    2    0    0  0.51330027034E+02  0.57797583942E+02 -0.21150381037E+03  0.65305297962E+03  0.61300000000E+03 0. -1.
         13    1    4    4    0    0 -0.23404377712E+02 -0.57633050271E+01 -0.39767499073E+02  0.46502104549E+02  0.10566000000E+00 0.  1.
    -200003    1    4    4    0    0 -0.23693949558E+03  0.14949004105E+03 -0.23365289373E+03  0.36603452253E+03  0.30000000000E+02 0.  1.
    -200000    1    3    3    0    0  0.20901384625E+03 -0.20152431996E+03 -0.35556295045E+03  0.47002643670E+03  0.10100000000E+03 0. -1.
<mgrwt>
<rscale>  0 0.12851840E+04</rscale>
<asrwt>0</asrwt>
<pdfrwt beam="1">  1        2 0.16972166E+00 0.12851840E+04</pdfrwt>
<pdfrwt beam="2">  1       -2 0.49652064E-01 0.12851840E+04</pdfrwt>
<totfact> 0.81792101E+01</totfact>
</mgrwt>
</event>
<event>
 8    2  0.4306980E-052  0.1526640E+04  0.7818608E-02  0.8866928E-01
          2   -1    0    0  501    0  0.00000000000E+00  0.00000000000E+00  0.92559989010E+03  0.92559989011E+03  0.25500000000E-02 0.  1.
         -2   -1    0    0    0  501 -0.00000000000E+00 -0.00000000000E+00 -0.62949183532E+03  0.62949183533E+03  0.25500000000E-02 0. -1.
    -200001    2    1    2    0    0  0.17039927393E+03  0.33426787594E+03  0.41256915489E+03  0.82700992146E+03  0.61070547499E+03 0.  0.
   -5000001    2    3    3    0    0  0.14162894596E+03  0.23979644538E+03  0.55476775728E+03  0.62657532992E+03  0.85254243261E+02 0.  0.
     200001    1    1    2    0    0 -0.17039927393E+03 -0.33426787594E+03 -0.11646110011E+03  0.72808180398E+03  0.61300000000E+03 0. -1.
         13    1    4    4    0    0  0.44349322192E+02  0.14686495447E+03  0.29293310635E+03  0.33067505680E+03  0.10566000000E+00 0.  1.
    -200003    1    4    4    0    0  0.97279623769E+02  0.92931490912E+02  0.26183465094E+03  0.29590027312E+03  0.30000000000E+02 0. -1.
    -200000    1    3    3    0    0  0.28770327968E+02  0.94471430555E+02 -0.14219860239E+03  0.20043459154E+03  0.10100000000E+03 0. -1.
<mgrwt>
<rscale>  0 0.15266402E+04</rscale>
<asrwt>0</asrwt>
<pdfrwt beam="1">  1        2 0.13222855E+00 0.15266402E+04</pdfrwt>
<pdfrwt beam="2">  1       -2 0.89927406E-01 0.15266402E+04</pdfrwt>
<totfact> 0.32023553E+01</totfact>
</mgrwt>
</event>
<event>
 8    2  0.4306980E-052  0.2554985E+04  0.7818608E-02  0.8383654E-01
          2   -1    0    0  501    0  0.00000000000E+00  0.00000000000E+00  0.15341671473E+04  0.15341671473E+04  0.25500000000E-02 0.  1.
         -2   -1    0    0    0  501 -0.00000000000E+00 -0.00000000000E+00 -0.10637611861E+04  0.10637611861E+04  0.25500000000E-02 0. -1.
    -200001    2    1    2    0    0  0.65468081893E+03 -0.89070211933E+03  0.42345307792E+03  0.13330446180E+04  0.61297488062E+03 0.  0.
   -5000001    2    3    3    0    0  0.27544345217E+03 -0.27689668886E+03  0.44748132301E+03  0.60410261522E+03  0.11027041143E+03 0.  0.
     200001    1    1    2    0    0 -0.65468081893E+03  0.89070211933E+03  0.46952883265E+02  0.12648837153E+04  0.61300000000E+03 0. -1.
         13    1    4    4    0    0  0.85043312325E+02 -0.15706206446E+03  0.18634261411E+03  0.25811710145E+03  0.10566000000E+00 0.  1.
    -200003    1    4    4    0    0  0.19040013984E+03 -0.11983462440E+03  0.26113870889E+03  0.34598551377E+03  0.30000000000E+02 0.  1.
    -200000    1    3    3    0    0  0.37923736677E+03 -0.61380543047E+03 -0.24028245083E+02  0.72894200276E+03  0.10100000000E+03 0. -1.
<mgrwt>
<rscale>  0 0.25549853E+04</rscale>
<asrwt>0</asrwt>
<pdfrwt beam="1">  1        2 0.21916674E+00 0.25549853E+04</pdfrwt>
<pdfrwt beam="2">  1       -2 0.15196588E+00 0.25549853E+04</pdfrwt>
<totfact> 0.36255603E+00</totfact>
</mgrwt>
</event>
<event>
 8    2  0.4306980E-052  0.1793527E+04  0.7818608E-02  0.8709749E-01
         -2   -1    0    0    0  501 -0.00000000000E+00  0.00000000000E+00  0.35813769900E+03  0.35813769901E+03  0.25500000000E-02 0.  1.
          2   -1    0    0  501    0  0.00000000000E+00 -0.00000000000E+00 -0.22454629623E+04  0.22454629623E+04  0.25500000000E-02 0. -1.
    -200001    2    1    2    0    0  0.34921172050E+03 -0.50434284211E+03 -0.12742757772E+04  0.15415699647E+04  0.61347263314E+03 0.  0.
   -5000001    2    3    3    0    0  0.54736747153E+02 -0.40732946452E+03 -0.10858446200E+04  0.11649608752E+04  0.95717801911E+02 0.  0.
     200001    1    1    2    0    0 -0.34921172050E+03  0.50434284211E+03 -0.61304948608E+03  0.10620306966E+04  0.61300000000E+03 0.  1.
         13    1    4    4    0    0  0.32378969446E+02 -0.93415768174E+02 -0.17753443467E+03  0.20320775100E+03  0.10566000000E+00 0.  1.
    -200003    1    4    4    0    0  0.22357777707E+02 -0.31391369635E+03 -0.90831018537E+03  0.96175312415E+03  0.30000000000E+02 0.  1.
    -200000    1    3    3    0    0  0.29447497335E+03 -0.97013377590E+02 -0.18843115719E+03  0.37660908959E+03  0.10100000000E+03 0. -1.
<mgrwt>
<rscale>  0 0.17935272E+04</rscale>
<asrwt>0</asrwt>
<pdfrwt beam="1">  1        2 0.32078042E+00 0.17935272E+04</pdfrwt>
<pdfrwt beam="2">  1       -2 0.51162530E-01 0.17935272E+04</pdfrwt>
<totfact> 0.20485605E+01</totfact>
</mgrwt>
</event>
<event>
 8    2  0.4306980E-052  0.1496327E+04  0.7818608E-02  0.8886899E-01
         -2   -1    0    0    0  501 -0.00000000000E+00  0.00000000000E+00  0.36638915700E+03  0.36638915701E+03  0.25500000000E-02 0. -1.
          2   -1    0    0  501    0  0.00000000000E+00 -0.00000000000E+00 -0.15277439616E+04  0.15277439616E+04  0.25500000000E-02 0.  1.
    -200001    2    1    2    0    0 -0.41654935580E+03 -0.12444981800E+02 -0.70992964009E+03  0.10262495305E+04  0.61279667228E+03 0.  0.
   -5000001    2    3    3    0    0 -0.26611385801E+02 -0.11099250001E+03 -0.55479376359E+03  0.58349522619E+03  0.14015369408E+03 0.  0.
     200001    1    1    2    0    0  0.41654935580E+03  0.12444981800E+02 -0.45142516452E+03  0.86788358814E+03  0.61300000000E+03 0. -1.
         13    1    4    4    0    0  0.47482623885E+02 -0.52416240215E+02 -0.33512513160E+03  0.34250682739E+03  0.10566000000E+00 0.  1.
    -200003    1    4    4    0    0 -0.74094009687E+02 -0.58576259794E+02 -0.21966863198E+03  0.24098839881E+03  0.30000000000E+02 0.  1.
    -200000    1    3    3    0    0 -0.38993797000E+03  0.98547518209E+02 -0.15513587651E+03  0.44275430430E+03  0.10100000000E+03 0. -1.
<mgrwt>
<rscale>  0 0.14963273E+04</rscale>
<asrwt>0</asrwt>
<pdfrwt beam="1">  1        2 0.21824913E+00 0.14963273E+04</pdfrwt>
<pdfrwt beam="2">  1       -2 0.52341309E-01 0.14963273E+04</pdfrwt>
<totfact> 0.47106055E+01</totfact>
</mgrwt>
</event>
<event>
 8    2  0.4306980E-052  0.1498521E+04  0.7818608E-02  0.8885437E-01
         -2   -1    0    0    0  501 -0.00000000000E+00  0.00000000000E+00  0.51894716986E+03  0.51894716987E+03  0.25500000000E-02 0. -1.
          2   -1    0    0  501    0  0.00000000000E+00 -0.00000000000E+00 -0.10817885439E+04  0.10817885439E+04  0.25500000000E-02 0.  1.
    -200001    2    1    2    0    0  0.17648157227E+02  0.20297418486E+03 -0.68693898246E+03  0.94295216760E+03  0.61299563423E+03 0.  0.
   -5000001    2    3    3    0    0  0.21574909764E+03  0.27256365667E+03 -0.58210578867E+03  0.68745720542E+03  0.11362939762E+03 0.  0.
     200001    1    1    2    0    0 -0.17648157227E+02 -0.20297418486E+03  0.12409760844E+03  0.65778354616E+03  0.61300000000E+03 0.  1.
         13    1    4    4    0    0  0.53144803924E+02  0.16880756469E+02 -0.13947651851E+03  0.15020998803E+03  0.10566000000E+00 0.  1.
    -200003    1    4    4    0    0  0.16260429372E+03  0.25568290020E+03 -0.44262927016E+03  0.53724721739E+03  0.30000000000E+02 0.  1.
    -200000    1    3    3    0    0 -0.19810094042E+03 -0.69589471806E+02 -0.10483319379E+03  0.25549496218E+03  0.10100000000E+03 0. -1.
<mgrwt>
<rscale>  0 0.14985207E+04</rscale>
<asrwt>0</asrwt>
<pdfrwt beam="1">  1        2 0.15454122E+00 0.14985207E+04</pdfrwt>
<pdfrwt beam="2">  1       -2 0.74135310E-01 0.14985207E+04</pdfrwt>
<totfact> 0.39733705E+01</totfact>
</mgrwt>
</event>
<event>
 8    2  0.4306980E-052  0.1448618E+04  0.7818608E-02  0.8919359E-01
         -2   -1    0    0    0  501 -0.00000000000E+00  0.00000000000E+00  0.21073509766E+03  0.21073509768E+03  0.25500000000E-02 0. -1.
          2   -1    0    0  501    0  0.00000000000E+00 -0.00000000000E+00 -0.24894920601E+04  0.24894920601E+04  0.25500000000E-02 0.  1.
    -200001    2    1    2    0    0 -0.12218840908E+03  0.13235530379E+03 -0.17755977324E+04  0.18869706518E+04  0.61275035670E+03 0.  0.
   -5000001    2    3    3    0    0 -0.13246739115E+03  0.11598224437E+03 -0.69002047816E+03  0.79653371666E+03  0.35684479929E+03 0.  0.
     200001    1    1    2    0    0  0.12218840908E+03 -0.13235530379E+03 -0.50315923002E+03  0.81325650597E+03  0.61300000000E+03 0. -1.
         13    1    4    4    0    0 -0.89918482747E+02  0.98474579583E+02 -0.33201925588E+02  0.13742254324E+03  0.10566000000E+00 0.  1.
    -200003    1    4    4    0    0 -0.42548908403E+02  0.17507664789E+02 -0.65681855257E+03  0.65911117342E+03  0.30000000000E+02 0.  1.
    -200000    1    3    3    0    0  0.10278982067E+02  0.16373059414E+02 -0.10855772542E+04  0.10904369351E+04  0.10100000000E+03 0.  1.
<mgrwt>
<rscale>  0 0.14486178E+04</rscale>
<asrwt>0</asrwt>
<pdfrwt beam="1">  1        2 0.35564171E+00 0.14486178E+04</pdfrwt>
<pdfrwt beam="2">  1       -2 0.30105015E-01 0.14486178E+04</pdfrwt>
<totfact> 0.44250068E+01</totfact>
</mgrwt>
</event>
<event>
 8    2  0.4306980E-052  0.1456567E+04  0.7818608E-02  0.8913860E-01
          2   -1    0    0  501    0  0.00000000000E+00  0.00000000000E+00  0.24716091774E+04  0.24716091774E+04  0.25500000000E-02 0.  1.
         -2   -1    0    0    0  501 -0.00000000000E+00 -0.00000000000E+00 -0.21459587729E+03  0.21459587730E+03  0.25500000000E-02 0. -1.
    -200001    2    1    2    0    0  0.29130514558E+03 -0.12004045733E+03  0.69319442084E+03  0.97723844111E+03  0.61254229769E+03 0.  0.
   -5000001    2    3    3    0    0 -0.84937389055E+02 -0.23755032757E+03  0.21328841742E+03  0.34805024463E+03  0.10955594731E+03 0.  0.
     200001    1    1    2    0    0 -0.29130514558E+03  0.12004045733E+03  0.15638188793E+04  0.17089666136E+04  0.61300000000E+03 0.  1.
         13    1    4    4    0    0 -0.12040287232E+02 -0.10327152420E+03  0.31382886147E+02  0.10860420311E+03  0.10566000000E+00 0.  1.
    -200003    1    4    4    0    0 -0.72897101823E+02 -0.13427880337E+03  0.18190553127E+03  0.23944604152E+03  0.30000000000E+02 0.  1.
    -200000    1    3    3    0    0  0.37624253463E+03  0.11750987024E+03  0.47990600342E+03  0.62918819648E+03  0.10100000000E+03 0.  1.
<mgrwt>
<rscale>  0 0.14565674E+04</rscale>
<asrwt>0</asrwt>
<pdfrwt beam="1">  1        2 0.35308700E+00 0.14565674E+04</pdfrwt>
<pdfrwt beam="2">  1       -2 0.30656557E-01 0.14565674E+04</pdfrwt>
<totfact> 0.43680216E+01</totfact>
</mgrwt>
</event>
<event>
 8    2  0.4306980E-052  0.1458855E+04  0.7818608E-02  0.8912284E-01
          2   -1    0    0  501    0  0.00000000000E+00  0.00000000000E+00  0.18480935776E+04  0.18480935776E+04  0.25500000000E-02 0.  1.
         -2   -1    0    0    0  501 -0.00000000000E+00 -0.00000000000E+00 -0.28789928910E+03  0.28789928911E+03  0.25500000000E-02 0. -1.
    -200001    2    1    2    0    0 -0.90171572953E+02 -0.31912402848E+03  0.46390161379E+03  0.83691716193E+03  0.61258025641E+03 0.  0.
   -5000001    2    3    3    0    0  0.11553293104E+01 -0.44815918027E+03  0.16838187228E+03  0.48688346199E+03  0.88628804598E+02 0.  0.
     200001    1    1    2    0    0  0.90171572953E+02  0.31912402848E+03  0.10962926748E+04  0.12990757048E+04  0.61300000000E+03 0. -1.
         13    1    4    4    0    0 -0.26951684805E+01 -0.16488670745E+03  0.10352656516E+03  0.19471171275E+03  0.10566000000E+00 0.  1.
    -200003    1    4    4    0    0  0.38504977909E+01 -0.28327247282E+03  0.64855307120E+02  0.29217174923E+03  0.30000000000E+02 0.  1.
    -200000    1    3    3    0    0 -0.91326902263E+02  0.12903515179E+03  0.29551974151E+03  0.35003369995E+03  0.10100000000E+03 0. -1.
<mgrwt>
<rscale>  0 0.14588555E+04</rscale>
<asrwt>0</asrwt>
<pdfrwt beam="1">  1        2 0.26401336E+00 0.14588555E+04</pdfrwt>
<pdfrwt beam="2">  1       -2 0.41128471E-01 0.14588555E+04</pdfrwt>
<totfact> 0.52207517E+01</totfact>
</mgrwt>
</event>
<event>
 8    2  0.4306980E-052  0.1998774E+04  0.7818608E-02  0.8607194E-01
         -2   -1    0    0    0  501 -0.00000000000E+00  0.00000000000E+00  0.85325283705E+03  0.85325283705E+03  0.25500000000E-02 0. -1.
          2   -1    0    0  501    0  0.00000000000E+00 -0.00000000000E+00 -0.11705494957E+04  0.11705494957E+04  0.25500000000E-02 0.  1.
    -200001    2    1    2    0    0  0.51366973896E+03  0.56154677951E+03 -0.36922201542E+03  0.10452030128E+04  0.61394873979E+03 0.  0.
   -5000001    2    3    3    0    0 -0.18485686806E+01 -0.89279108579E+02  0.20213277613E+01  0.13013138615E+03  0.94635698662E+02 0.  0.
     200001    1    1    2    0    0 -0.51366973896E+03 -0.56154677951E+03  0.51925356742E+02  0.97859931993E+03  0.61300000000E+03 0. -1.
         13    1    4    4    0    0  0.19919847951E+02 -0.90416108987E+02 -0.34396144254E+01  0.92648341691E+02  0.10566000000E+00 0.  1.
    -200003    1    4    4    0    0 -0.21768416631E+02  0.11370004072E+01  0.54609421867E+01  0.37483044462E+02  0.30000000000E+02 0.  1.
    -200000    1    3    3    0    0  0.51551830764E+03  0.65082588809E+03 -0.37124334318E+03  0.91507162669E+03  0.10100000000E+03 0.  1.
<mgrwt>
<rscale>  0 0.19987743E+04</rscale>
<asrwt>0</asrwt>
<pdfrwt beam="1">  1        2 0.16722136E+00 0.19987743E+04</pdfrwt>
<pdfrwt beam="2">  1       -2 0.12189326E+00 0.19987743E+04</pdfrwt>
<totfact> 0.10586346E+01</totfact>
</mgrwt>
</event>
<event>
 8    2  0.4306980E-052  0.1673579E+04  0.7818608E-02  0.8776578E-01
          2   -1    0    0  501    0  0.00000000000E+00  0.00000000000E+00  0.26299031732E+04  0.26299031732E+04  0.25500000000E-02 0.  1.
         -2   -1    0    0    0  501 -0.00000000000E+00 -0.00000000000E+00 -0.26625194904E+03  0.26625194905E+03  0.25500000000E-02 0. -1.
    -200001    2    1    2    0    0  0.14770937897E+03  0.54818502976E+03  0.10958888090E+04  0.13778285998E+04  0.61246590210E+03 0.  0.
   -5000001    2    3    3    0    0  0.96513432225E+02  0.31327505594E+03  0.98290196558E+03  0.10936266513E+04  0.34995267557E+03 0.  0.
     200001    1    1    2    0    0 -0.14770937897E+03 -0.54818502976E+03  0.12677624151E+04  0.15183265224E+04  0.61300000000E+03 0. -1.
         13    1    4    4    0    0  0.29887795481E+02 -0.76892150614E+02  0.17551189995E+03  0.19393329093E+03  0.10566000000E+00 0.  1.
    -200003    1    4    4    0    0  0.66625636744E+02  0.39016720655E+03  0.80739006564E+03  0.89969336033E+03  0.30000000000E+02 0.  1.
    -200000    1    3    3    0    0  0.51195946748E+02  0.23490997382E+03  0.11298684342E+03  0.28420194854E+03  0.10100000000E+03 0. -1.
<mgrwt>
<rscale>  0 0.16735792E+04</rscale>
<asrwt>0</asrwt>
<pdfrwt beam="1">  1        2 0.37570043E+00 0.16735792E+04</pdfrwt>
<pdfrwt beam="2">  1       -2 0.38035995E-01 0.16735792E+04</pdfrwt>
<totfact> 0.23475307E+01</totfact>
</mgrwt>
</event>
<event>
 8    2  0.4306980E-052  0.1372612E+04  0.7818608E-02  0.8973885E-01
          2   -1    0    0  501    0  0.00000000000E+00  0.00000000000E+00  0.32127556093E+04  0.32127556093E+04  0.25500000000E-02 0.  1.
         -2   -1    0    0    0  501 -0.00000000000E+00 -0.00000000000E+00 -0.14660818149E+03  0.14660818151E+03  0.25500000000E-02 0. -1.
    -200001    2    1    2    0    0  0.70306722253E+02 -0.27158212617E+03  0.12172956115E+04  0.13914405390E+04  0.61286073563E+03 0.  0.
   -5000001    2    3    3    0    0  0.26896137574E+02 -0.20884567897E+03  0.11837769365E+03  0.28525704116E+03  0.15171809825E+03 0.  0.
     200001    1    1    2    0    0 -0.70306722253E+02  0.27158212617E+03  0.18488518164E+04  0.19679232519E+04  0.61300000000E+03 0.  1.
         13    1    4    4    0    0 -0.15641765675E+02 -0.12264548697E+03 -0.77275601102E+01  0.12388021092E+03  0.10566000000E+00 0.  1.
    -200003    1    4    4    0    0  0.42537903249E+02 -0.86200191999E+02  0.12610525376E+03  0.16137683024E+03  0.30000000000E+02 0.  1.
    -200000    1    3    3    0    0  0.43410584679E+02 -0.62736447203E+02  0.10989179178E+04  0.11061834978E+04  0.10100000000E+03 0.  1.
<mgrwt>
<rscale>  0 0.13726125E+04</rscale>
<asrwt>0</asrwt>
<pdfrwt beam="1">  1        2 0.45896510E+00 0.13726125E+04</pdfrwt>
<pdfrwt beam="2">  1       -2 0.20944025E-01 0.13726125E+04</pdfrwt>
<totfact> 0.34636799E+01</totfact>
</mgrwt>
</event>
<event>
 8    2  0.4306980E-052  0.1869181E+04  0.7818608E-02  0.8670351E-01
          2   -1    0    0  501    0  0.00000000000E+00  0.00000000000E+00  0.54910579813E+03  0.54910579814E+03  0.25500000000E-02 0.  1.
         -2   -1    0    0    0  501 -0.00000000000E+00 -0.00000000000E+00 -0.15906950380E+04  0.15906950380E+04  0.25500000000E-02 0. -1.
    -200001    2    1    2    0    0  0.56888602894E+03  0.14793879723E+03 -0.96740855379E+03  0.12872816423E+04  0.61294168981E+03 0.  0.
   -5000001    2    3    3    0    0 -0.44274514869E+01  0.21417434444E+03 -0.35161089232E+03  0.43729149274E+03  0.14732066343E+03 0.  0.
     200001    1    1    2    0    0 -0.56888602894E+03 -0.14793879723E+03 -0.74180686093E+02  0.85251919382E+03  0.61300000000E+03 0.  1.
         13    1    4    4    0    0 -0.47039642745E+02  0.10873987084E+03 -0.26790760308E+03  0.29293614057E+03  0.10566000000E+00 0.  1.
    -200003    1    4    4    0    0  0.42612191259E+02  0.10543447361E+03 -0.83703289242E+02  0.14435535216E+03  0.30000000000E+02 0.  1.
    -200000    1    3    3    0    0  0.57331348042E+03 -0.66235547213E+02 -0.61579766147E+03  0.84999014960E+03  0.10100000000E+03 0.  1.
<mgrwt>
<rscale>  0 0.18691815E+04</rscale>
<asrwt>0</asrwt>
<pdfrwt beam="1">  1        2 0.78443686E-01 0.18691815E+04</pdfrwt>
<pdfrwt beam="2">  1       -2 0.22724215E+00 0.18691815E+04</pdfrwt>
<totfact> 0.50443813E+00</totfact>
</mgrwt>
</event>
<event>
 8    2  0.4306980E-052  0.1484174E+04  0.7818608E-02  0.8895046E-01
         -2   -1    0    0    0  501 -0.00000000000E+00  0.00000000000E+00  0.18532662115E+04  0.18532662115E+04  0.25500000000E-02 0. -1.
          2   -1    0    0  501    0  0.00000000000E+00 -0.00000000000E+00 -0.29714721969E+03  0.29714721970E+03  0.25500000000E-02 0.  1.
    -200001    2    1    2    0    0  0.12982237563E+03 -0.39564824440E+03  0.80614450068E+03  0.10960785129E+04  0.61492094455E+03 0.  0.
   -5000001    2    3    3    0    0  0.40880435906E+02 -0.27002371008E+02 -0.36552892759E+02  0.16648164036E+03  0.15485375206E+03 0.  0.
     200001    1    1    2    0    0 -0.12982237563E+03  0.39564824440E+03  0.74997449112E+03  0.10543349183E+04  0.61300000000E+03 0. -1.
         13    1    4    4    0    0  0.80219460527E+00 -0.28586283537E+01 -0.89600139593E+02  0.89649380652E+02  0.10566000000E+00 0.  1.
    -200003    1    4    4    0    0  0.40078241300E+02 -0.24143742654E+02  0.53047246834E+02  0.76832259707E+02  0.30000000000E+02 0.  1.
    -200000    1    3    3    0    0  0.88941939727E+02 -0.36864587339E+03  0.84269739344E+03  0.92959687259E+03  0.10100000000E+03 0. -1.
<mgrwt>
<rscale>  0 0.14841737E+04</rscale>
<asrwt>0</asrwt>
<pdfrwt beam="1">  1        2 0.42449602E-01 0.14841737E+04</pdfrwt>
<pdfrwt beam="2">  1       -2 0.26475232E+00 0.14841737E+04</pdfrwt>
<totfact> 0.61060180E+00</totfact>
</mgrwt>
</event>
<event>
 8    2  0.4306980E-052  0.1369740E+04  0.7818608E-02  0.8976018E-01
         -2   -1    0    0    0  501 -0.00000000000E+00  0.00000000000E+00  0.40442602289E+03  0.40442602290E+03  0.25500000000E-02 0. -1.
          2   -1    0    0  501    0  0.00000000000E+00 -0.00000000000E+00 -0.11597848571E+04  0.11597848571E+04  0.25500000000E-02 0.  1.
    -200001    2    1    2    0    0 -0.21631091012E+03  0.91311329411E+02 -0.15594547629E+03  0.67528256885E+03  0.61364434936E+03 0.  0.
   -5000001    2    3    3    0    0  0.82322469514E+02 -0.62299709125E+02 -0.27457990369E+03  0.30507536477E+03  0.83777156386E+02 0.  0.
     200001    1    1    2    0    0  0.21631091012E+03 -0.91311329411E+02 -0.59941335793E+03  0.88892831116E+03  0.61300000000E+03 0.  1.
         13    1    4    4    0    0  0.32842443113E+02 -0.67126735113E+02 -0.14708691968E+03  0.16498241646E+03  0.10566000000E+00 0.  1.
    -200003    1    4    4    0    0  0.49480026401E+02  0.48270259878E+01 -0.12749298401E+03  0.14009294831E+03  0.30000000000E+02 0.  1.
    -200000    1    3    3    0    0 -0.29863337964E+03  0.15361103854E+03  0.11863442740E+03  0.37020720409E+03  0.10100000000E+03 0. -1.
<mgrwt>
<rscale>  0 0.13697404E+04</rscale>
<asrwt>0</asrwt>
<pdfrwt beam="1">  1        2 0.16568355E+00 0.13697404E+04</pdfrwt>
<pdfrwt beam="2">  1       -2 0.57775147E-01 0.13697404E+04</pdfrwt>
<totfact> 0.61728875E+01</totfact>
</mgrwt>
</event>
<event>
 8    2  0.4306980E-052  0.1530785E+04  0.7818608E-02  0.8864236E-01
          2   -1    0    0  501    0  0.00000000000E+00  0.00000000000E+00  0.41619956760E+03  0.41619956761E+03  0.25500000000E-02 0.  1.
         -2   -1    0    0    0  501 -0.00000000000E+00 -0.00000000000E+00 -0.14075591819E+04  0.14075591819E+04  0.25500000000E-02 0. -1.
    -200001    2    1    2    0    0  0.12130203346E+03  0.17649492025E+03 -0.97850439143E+03  0.11742982835E+04  0.61289556555E+03 0.  0.
   -5000001    2    3    3    0    0 -0.19192150567E+03  0.13721744837E+03 -0.57250317758E+03  0.65018981099E+03  0.19830383128E+03 0.  0.
     200001    1    1    2    0    0 -0.12130203346E+03 -0.17649492025E+03 -0.12855222858E+02  0.64946046604E+03  0.61300000000E+03 0.  1.
         13    1    4    4    0    0  0.36799091637E+02  0.17884780176E+02 -0.37599185340E+02  0.55567512177E+02  0.10566000000E+00 0.  1.
    -200003    1    4    4    0    0 -0.22872059731E+03  0.11933266820E+03 -0.53490399224E+03  0.59462229881E+03  0.30000000000E+02 0.  1.
    -200000    1    3    3    0    0  0.31322353913E+03  0.39277471879E+02 -0.40600121385E+03  0.52410847247E+03  0.10100000000E+03 0.  1.
<mgrwt>
<rscale>  0 0.15307848E+04</rscale>
<asrwt>0</asrwt>
<pdfrwt beam="1">  1        2 0.59457082E-01 0.15307848E+04</pdfrwt>
<pdfrwt beam="2">  1       -2 0.20107988E+00 0.15307848E+04</pdfrwt>
<totfact> 0.10443409E+01</totfact>
</mgrwt>
</event>
<event>
 8    2  0.4306980E-052  0.1986133E+04  0.7818608E-02  0.8613131E-01
         -2   -1    0    0    0  501 -0.00000000000E+00  0.00000000000E+00  0.31428382602E+03  0.31428382603E+03  0.25500000000E-02 0. -1.
          2   -1    0    0  501    0  0.00000000000E+00 -0.00000000000E+00 -0.31378684350E+04  0.31378684350E+04  0.25500000000E-02 0.  1.
    -200001    2    1    2    0    0  0.16963183748E+03  0.73032331468E+03 -0.10289511560E+04  0.14128814760E+04  0.61265526965E+03 0.  0.
   -5000001    2    3    3    0    0 -0.18769525916E+03  0.11512642276E+03 -0.15828093108E+03  0.28398045710E+03  0.84311584867E+02 0.  0.
     200001    1    1    2    0    0 -0.16963183748E+03 -0.73032331468E+03 -0.17946334530E+04  0.20392707850E+04  0.61300000000E+03 0.  1.
         13    1    4    4    0    0 -0.11933519171E+03  0.36901797158E+02 -0.10623141306E+03  0.16397486057E+03  0.10566000000E+00 0.  1.
    -200003    1    4    4    0    0 -0.68360067448E+02  0.78224625607E+02 -0.52049518022E+02  0.12000559653E+03  0.30000000000E+02 0.  1.
    -200000    1    3    3    0    0  0.35732709664E+03  0.61519689192E+03 -0.87067022492E+03  0.11289010189E+04  0.10100000000E+03 0.  1.
<mgrwt>
<rscale>  0 0.19861332E+04</rscale>
<asrwt>0</asrwt>
<pdfrwt beam="1">  1        2 0.44826690E+00 0.19861332E+04</pdfrwt>
<pdfrwt beam="2">  1       -2 0.44897691E-01 0.19861332E+04</pdfrwt>
<totfact> 0.86646013E+00</totfact>
</mgrwt>
</event>
<event>
 8    2  0.4306980E-052  0.1462991E+04  0.7818608E-02  0.8909443E-01
          2   -1    0    0  501    0  0.00000000000E+00  0.00000000000E+00  0.12337448893E+04  0.12337448893E+04  0.25500000000E-02 0.  1.
         -2   -1    0    0    0  501 -0.00000000000E+00 -0.00000000000E+00 -0.43370876192E+03  0.43370876193E+03  0.25500000000E-02 0. -1.
    -200001    2    1    2    0    0  0.84782379021E+02 -0.75825476381E+02  0.83149412936E+03  0.10431971650E+04  0.61962914978E+03 0.  0.
   -5000001    2    3    3    0    0 -0.13114159722E+02  0.24669696214E+03  0.22152453577E+03  0.33901795433E+03  0.69488711979E+02 0.  0.
     200001    1    1    2    0    0 -0.84782379021E+02  0.75825476381E+02 -0.31458002011E+02  0.62425648619E+03  0.61300000000E+03 0. -1.
         13    1    4    4    0    0 -0.21173655086E+02  0.82005326116E+02  0.10497143427E+03  0.13487850221E+03  0.10566000000E+00 0.  1.
    -200003    1    4    4    0    0  0.80594953639E+01  0.16469163603E+03  0.11655310151E+03  0.20413945212E+03  0.30000000000E+02 0. -1.
    -200000    1    3    3    0    0  0.97896538742E+02 -0.32252243852E+03  0.60996959359E+03  0.70417921068E+03  0.10100000000E+03 0.  1.
<mgrwt>
<rscale>  0 0.14629914E+04</rscale>
<asrwt>0</asrwt>
<pdfrwt beam="1">  1        2 0.17624927E+00 0.14629914E+04</pdfrwt>
<pdfrwt beam="2">  1       -2 0.61958395E-01 0.14629914E+04</pdfrwt>
<totfact> 0.47997042E+01</totfact>
</mgrwt>
</event>
<event>
 8    2  0.4306980E-052  0.1419573E+04  0.7818608E-02  0.8939772E-01
          2   -1    0    0  501    0  0.00000000000E+00  0.00000000000E+00  0.12097321594E+04  0.12097321594E+04  0.25500000000E-02 0.  1.
         -2   -1    0    0    0  501 -0.00000000000E+00 -0.00000000000E+00 -0.41645300434E+03  0.41645300435E+03  0.25500000000E-02 0. -1.
    -200001    2    1    2    0    0 -0.15586778987E+03 -0.31554278976E+03  0.32120060997E+03  0.77619153271E+03  0.61273276680E+03 0.  0.
   -5000001    2    3    3    0    0 -0.36074371304E+03 -0.82352299524E+02  0.20915180817E+03  0.43107143388E+03  0.71834354683E+02 0.  0.
     200001    1    1    2    0    0  0.15586778987E+03  0.31554278976E+03  0.47207854511E+03  0.84999363106E+03  0.61300000000E+03 0.  1.
         13    1    4    4    0    0 -0.52651302240E+02  0.10516214226E+02  0.27113356327E+02  0.60148945498E+02  0.10566000000E+00 0.  1.
    -200003    1    4    4    0    0 -0.30809241080E+03 -0.92868513750E+02  0.18203845184E+03  0.37092248838E+03  0.30000000000E+02 0. -1.
    -200000    1    3    3    0    0  0.20487592317E+03 -0.23319049023E+03  0.11204880180E+03  0.34512009883E+03  0.10100000000E+03 0. -1.
<mgrwt>
<rscale>  0 0.14195726E+04</rscale>
<asrwt>0</asrwt>
<pdfrwt beam="1">  1        2 0.17281888E+00 0.14195726E+04</pdfrwt>
<pdfrwt beam="2">  1       -2 0.59493286E-01 0.14195726E+04</pdfrwt>
<totfact> 0.54142390E+01</totfact>
</mgrwt>
</event>
<event>
 8    2  0.4306980E-052  0.1633797E+04  0.7818608E-02  0.8800050E-01
         -2   -1    0    0    0  501 -0.00000000000E+00  0.00000000000E+00  0.37746525626E+03  0.37746525626E+03  0.25500000000E-02 0. -1.
          2   -1    0    0  501    0  0.00000000000E+00 -0.00000000000E+00 -0.17679068416E+04  0.17679068416E+04  0.25500000000E-02 0.  1.
    -200001    2    1    2    0    0  0.33969022332E+03  0.41913733442E+03 -0.73020348676E+03  0.10952535809E+04  0.61263179923E+03 0.  0.
   -5000001    2    3    3    0    0  0.41013631515E+03  0.50675450000E+03 -0.64632452239E+03  0.92240653803E+03  0.89925040387E+02 0.  0.
     200001    1    1    2    0    0 -0.33969022332E+03 -0.41913733442E+03 -0.66023809863E+03  0.10501185170E+04  0.61300000000E+03 0. -1.
         13    1    4    4    0    0  0.32512978434E+03  0.43296330795E+03 -0.52407440883E+03  0.75353871821E+03  0.10566000000E+00 0.  1.
    -200003    1    4    4    0    0  0.85006530810E+02  0.73791192055E+02 -0.12225011356E+03  0.16886781982E+03  0.30000000000E+02 0. -1.
    -200000    1    3    3    0    0 -0.70446091823E+02 -0.87617165580E+02 -0.83878964373E+02  0.17284704285E+03  0.10100000000E+03 0. -1.
<mgrwt>
<rscale>  0 0.16337973E+04</rscale>
<asrwt>0</asrwt>
<pdfrwt beam="1">  1        2 0.25255812E+00 0.16337973E+04</pdfrwt>
<pdfrwt beam="2">  1       -2 0.53923609E-01 0.16337973E+04</pdfrwt>
<totfact> 0.32827463E+01</totfact>
</mgrwt>
</event>
<event>
 8    2  0.4306980E-052  0.1450314E+04  0.7818608E-02  0.8918183E-01
         -2   -1    0    0    0  501 -0.00000000000E+00  0.00000000000E+00  0.38722796619E+03  0.38722796620E+03  0.25500000000E-02 0. -1.
          2   -1    0    0  501    0  0.00000000000E+00 -0.00000000000E+00 -0.13579933402E+04  0.13579933403E+04  0.25500000000E-02 0.  1.
    -200001    2    1    2    0    0 -0.97317625159E+02  0.81793182335E+02 -0.45238455613E+02  0.62784495015E+03  0.61317364483E+03 0.  0.
   -5000001    2    3    3    0    0  0.76667983778E+01  0.27764712457E+03 -0.16621872423E+03  0.35541565424E+03  0.14678187019E+03 0.  0.
     200001    1    1    2    0    0  0.97317625159E+02 -0.81793182335E+02 -0.92552691845E+03  0.11173763563E+04  0.61300000000E+03 0.  1.
         13    1    4    4    0    0 -0.89044925387E+01  0.27532954342E+03 -0.16486296216E+03  0.32103808953E+03  0.10566000000E+00 0.  1.
    -200003    1    4    4    0    0  0.16571290916E+02  0.23175811443E+01 -0.13557620703E+01  0.34377564716E+02  0.30000000000E+02 0.  1.
    -200000    1    3    3    0    0 -0.10498442354E+03 -0.19585394223E+03  0.12098026862E+03  0.27242929591E+03  0.10100000000E+03 0. -1.
<mgrwt>
<rscale>  0 0.14503144E+04</rscale>
<asrwt>0</asrwt>
<pdfrwt beam="1">  1        2 0.19399905E+00 0.14503144E+04</pdfrwt>
<pdfrwt beam="2">  1       -2 0.55318282E-01 0.14503144E+04</pdfrwt>
<totfact> 0.52018163E+01</totfact>
</mgrwt>
</event>
<event>
 8    2  0.4306980E-052  0.2601923E+04  0.7818608E-02  0.8367548E-01
          2   -1    0    0  501    0  0.00000000000E+00  0.00000000000E+00  0.45953882761E+04  0.45953882761E+04  0.25500000000E-02 0.  1.
         -2   -1    0    0    0  501 -0.00000000000E+00 -0.00000000000E+00 -0.36830426485E+03  0.36830426486E+03  0.25500000000E-02 0. -1.
    -200001    2    1    2    0    0 -0.44789738773E+03  0.10297053381E+04  0.25655761129E+04  0.28667226677E+04  0.61238297564E+03 0.  0.
   -5000001    2    3    3    0    0 -0.70504362244E+02  0.17750311092E+01  0.62313162701E+03  0.63460309367E+03  0.97231919104E+02 0.  0.
     200001    1    1    2    0    0  0.44789738773E+03 -0.10297053381E+04  0.16615078983E+04  0.20969698733E+04  0.61300000000E+03 0. -1.
         13    1    4    4    0    0 -0.22099777344E+02  0.27494000232E+02  0.74552268932E+02  0.82476494679E+02  0.10566000000E+00 0.  1.
    -200003    1    4    4    0    0 -0.48404584899E+02 -0.25718969123E+02  0.54857935808E+03  0.55212659900E+03  0.30000000000E+02 0.  1.
    -200000    1    3    3    0    0 -0.37739302548E+03  0.10279303070E+04  0.19424444859E+04  0.22321195740E+04  0.10100000000E+03 0.  1.
<mgrwt>
<rscale>  0 0.26019232E+04</rscale>
<asrwt>0</asrwt>
<pdfrwt beam="1">  1        2 0.65648397E+00 0.26019232E+04</pdfrwt>
<pdfrwt beam="2">  1       -2 0.52614901E-01 0.26019232E+04</pdfrwt>
<totfact> 0.61657698E-01</totfact>
</mgrwt>
</event>
<event>
 8    2  0.4306980E-052  0.1702980E+04  0.7818608E-02  0.8759667E-01
          2   -1    0    0  501    0  0.00000000000E+00  0.00000000000E+00  0.74647223749E+03  0.74647223749E+03  0.25500000000E-02 0.  1.
         -2   -1    0    0    0  501 -0.00000000000E+00 -0.00000000000E+00 -0.97128223186E+03  0.97128223187E+03  0.25500000000E-02 0. -1.
    -200001    2    1    2    0    0  0.86866726792E+02 -0.28419823944E+03 -0.62654298741E+03  0.92688604464E+03  0.61501801369E+03 0.  0.
   -5000001    2    3    3    0    0 -0.15705524935E+03 -0.22592514032E+03 -0.56135927622E+03  0.64877886975E+03  0.17343951237E+03 0.  0.
     200001    1    1    2    0    0 -0.86866726792E+02  0.28419823944E+03  0.40173299303E+03  0.79086842472E+03  0.61300000000E+03 0.  1.
         13    1    4    4    0    0 -0.13780818825E+03 -0.23774798247E+03 -0.53916849565E+03  0.60515938213E+03  0.10566000000E+00 0.  1.
    -200003    1    4    4    0    0 -0.19247061101E+02  0.11822842148E+02 -0.22190780576E+02  0.43619487618E+02  0.30000000000E+02 0.  1.
    -200000    1    3    3    0    0  0.24392197614E+03 -0.58273099120E+02 -0.65183711183E+02  0.27810717490E+03  0.10100000000E+03 0.  1.
<mgrwt>
<rscale>  0 0.17029800E+04</rscale>
<asrwt>0</asrwt>
<pdfrwt beam="1">  1        2 0.10663889E+00 0.17029800E+04</pdfrwt>
<pdfrwt beam="2">  1       -2 0.13875460E+00 0.17029800E+04</pdfrwt>
<totfact> 0.14558644E+01</totfact>
</mgrwt>
</event>
<event>
 8    2  0.4306980E-052  0.1307015E+04  0.7818608E-02  0.9024021E-01
          2   -1    0    0  501    0  0.00000000000E+00  0.00000000000E+00  0.13891210547E+04  0.13891210547E+04  0.25500000000E-02 0.  1.
         -2   -1    0    0    0  501 -0.00000000000E+00 -0.00000000000E+00 -0.30744040923E+03  0.30744040924E+03  0.25500000000E-02 0. -1.
    -200001    2    1    2    0    0 -0.10054320771E+03  0.49086044450E+02  0.28293218688E+03  0.68350348117E+03  0.61205229353E+03 0.  0.
   -5000001    2    3    3    0    0  0.93078944054E+02  0.81834985421E+01  0.40508760170E+03  0.42995762479E+03  0.10971296455E+03 0.  0.
     200001    1    1    2    0    0  0.10054320771E+03 -0.49086044450E+02  0.79874845862E+03  0.10130579828E+04  0.61300000000E+03 0.  1.
         13    1    4    4    0    0  0.69115044402E+02  0.27197721752E+02  0.36068681483E+03  0.36825479629E+03  0.10566000000E+00 0.  1.
    -200003    1    4    4    0    0  0.23963899652E+02 -0.19014223210E+02  0.44400786871E+02  0.61702828505E+02  0.30000000000E+02 0.  1.
    -200000    1    3    3    0    0 -0.19362215176E+03  0.40902545908E+02 -0.12215541482E+03  0.25354585637E+03  0.10100000000E+03 0. -1.
<mgrwt>
<rscale>  0 0.13070148E+04</rscale>
<asrwt>0</asrwt>
<pdfrwt beam="1">  1        2 0.19844587E+00 0.13070148E+04</pdfrwt>
<pdfrwt beam="2">  1       -2 0.43920058E-01 0.13070148E+04</pdfrwt>
<totfact> 0.80786740E+01</totfact>
</mgrwt>
</event>
<event>
 8    2  0.4306980E-052  0.1570101E+04  0.7818608E-02  0.8839130E-01
         -2   -1    0    0    0  501 -0.00000000000E+00  0.00000000000E+00  0.61034004647E+03  0.61034004648E+03  0.25500000000E-02 0.  1.
          2   -1    0    0  501    0  0.00000000000E+00 -0.00000000000E+00 -0.10097717267E+04  0.10097717267E+04  0.25500000000E-02 0. -1.
    -200001    2    1    2    0    0  0.20679423174E+03 -0.20309965771E+03  0.20885868389E+03  0.70917846479E+03  0.61261637249E+03 0.  0.
   -5000001    2    3    3    0    0 -0.43311930546E+00 -0.36916903003E+03  0.19840758596E+03  0.42486800615E+03  0.69722967219E+02 0.  0.
     200001    1    1    2    0    0 -0.20679423174E+03  0.20309965771E+03 -0.60829036410E+03  0.91093330837E+03  0.61300000000E+03 0. -1.
         13    1    4    4    0    0 -0.45430079573E+01 -0.28596079902E+03  0.16532477540E+03  0.33034301873E+03  0.10566000000E+00 0.  1.
    -200003    1    4    4    0    0  0.41098886518E+01 -0.83208231009E+02  0.33082810560E+02  0.94524987421E+02  0.30000000000E+02 0. -1.
    -200000    1    3    3    0    0  0.20722735105E+03  0.16606937232E+03  0.10451097933E+02  0.28431045864E+03  0.10100000000E+03 0. -1.
<mgrwt>
<rscale>  0 0.15701008E+04</rscale>
<asrwt>0</asrwt>
<pdfrwt beam="1">  1        2 0.14425310E+00 0.15701008E+04</pdfrwt>
<pdfrwt beam="2">  1       -2 0.87191436E-01 0.15701008E+04</pdfrwt>
<totfact> 0.30334060E+01</totfact>
</mgrwt>
</event>
<event>
 8    2  0.4306980E-052  0.1490803E+04  0.7818608E-02  0.8890592E-01
          2   -1    0    0  501    0  0.00000000000E+00  0.00000000000E+00  0.29967780392E+04  0.29967780392E+04  0.25500000000E-02 0.  1.
         -2   -1    0    0    0  501 -0.00000000000E+00 -0.00000000000E+00 -0.18540688919E+03  0.18540688921E+03  0.25500000000E-02 0. -1.
    -200001    2    1    2    0    0  0.10063358674E+03 -0.21179799391E+03  0.64844920336E+03  0.92187834383E+03  0.61187237434E+03 0.  0.
   -5000001    2    3    3    0    0 -0.21624038946E+03  0.20443543728E+02  0.30876555474E+03  0.39279306740E+03  0.10850060595E+03 0.  0.
     200001    1    1    2    0    0 -0.10063358674E+03  0.21179799391E+03  0.21629219466E+04  0.22603065846E+04  0.61300000000E+03 0. -1.
         13    1    4    4    0    0 -0.14053365224E+03  0.58792629925E+02  0.18240579856E+03  0.23765135652E+03  0.10566000000E+00 0.  1.
    -200003    1    4    4    0    0 -0.75706737218E+02 -0.38349086196E+02  0.12635975618E+03  0.15514171088E+03  0.30000000000E+02 0.  1.
    -200000    1    3    3    0    0  0.31687397620E+03 -0.23224153764E+03  0.33968364862E+03  0.52908527644E+03  0.10100000000E+03 0. -1.
<mgrwt>
<rscale>  0 0.14908029E+04</rscale>
<asrwt>0</asrwt>
<pdfrwt beam="1">  1        2 0.42811115E+00 0.14908029E+04</pdfrwt>
<pdfrwt beam="2">  1       -2 0.26486698E-01 0.14908029E+04</pdfrwt>
<totfact> 0.29759513E+01</totfact>
</mgrwt>
</event>
<event>
 8    2  0.4306980E-052  0.1359936E+04  0.7818608E-02  0.8983340E-01
         -2   -1    0    0    0  501 -0.00000000000E+00  0.00000000000E+00  0.96289297600E+03  0.96289297601E+03  0.25500000000E-02 0. -1.
          2   -1    0    0  501    0  0.00000000000E+00 -0.00000000000E+00 -0.48017456481E+03  0.48017456482E+03  0.25500000000E-02 0.  1.
    -200001    2    1    2    0    0 -0.11404186377E+03 -0.27186559868E+03  0.24230124645E+03  0.72162047864E+03  0.61246205656E+03 0.  0.
   -5000001    2    3    3    0    0 -0.10325559107E+03  0.88518145910E+02  0.29317707877E+03  0.34375524160E+03  0.11712253144E+03 0.  0.
     200001    1    1    2    0    0  0.11404186377E+03  0.27186559868E+03  0.24041716474E+03  0.72144706219E+03  0.61300000000E+03 0. -1.
         13    1    4    4    0    0 -0.18878532600E+02  0.37001088691E+02  0.10579518229E+02  0.42865101510E+02  0.10566000000E+00 0.  1.
    -200003    1    4    4    0    0 -0.84377058468E+02  0.51517057220E+02  0.28259756055E+03  0.30089014009E+03  0.30000000000E+02 0.  1.
    -200000    1    3    3    0    0 -0.10786272700E+02 -0.36038374459E+03 -0.50875832325E+02  0.37786523703E+03  0.10100000000E+03 0.  1.
<mgrwt>
<rscale>  0 0.13599363E+04</rscale>
<asrwt>0</asrwt>
<pdfrwt beam="1">  1        2 0.68596367E-01 0.13599363E+04</pdfrwt>
<pdfrwt beam="2">  1       -2 0.13755614E+00 0.13599363E+04</pdfrwt>
<totfact> 0.25832290E+01</totfact>
</mgrwt>
</event>
<event>
 8    2  0.4306980E-052  0.1338798E+04  0.7818608E-02  0.8999352E-01
         -2   -1    0    0    0  501 -0.00000000000E+00  0.00000000000E+00  0.10741388914E+04  0.10741388914E+04  0.25500000000E-02 0. -1.
          2   -1    0    0  501    0  0.00000000000E+00 -0.00000000000E+00 -0.41716646731E+03  0.41716646732E+03  0.25500000000E-02 0.  1.
    -200001    2    1    2    0    0 -0.22738903548E+03  0.72424193171E+01  0.16466488656E+03  0.67283487201E+03  0.61141967096E+03 0.  0.
   -5000001    2    3    3    0    0 -0.36008476314E+03 -0.15268265307E+03  0.32491942211E+02  0.40664908701E+03  0.10646466299E+03 0.  0.
     200001    1    1    2    0    0  0.22738903548E+03 -0.72424193171E+01  0.49230753752E+03  0.81847048670E+03  0.61300000000E+03 0. -1.
         13    1    4    4    0    0 -0.30094824695E+03 -0.12655130915E+03  0.56731270087E+02  0.33136615602E+03  0.10566000000E+00 0.  1.
    -200003    1    4    4    0    0 -0.59136516194E+02 -0.26131343925E+02 -0.24239327876E+02  0.75282930992E+02  0.30000000000E+02 0.  1.
    -200000    1    3    3    0    0  0.13269572766E+03  0.15992507239E+03  0.13217294434E+03  0.26618578500E+03  0.10100000000E+03 0. -1.
<mgrwt>
<rscale>  0 0.13387976E+04</rscale>
<asrwt>0</asrwt>
<pdfrwt beam="1">  1        2 0.59595209E-01 0.13387976E+04</pdfrwt>
<pdfrwt beam="2">  1       -2 0.15344841E+00 0.13387976E+04</pdfrwt>
<totfact> 0.22753364E+01</totfact>
</mgrwt>
</event>
<event>
 8    2  0.4306980E-052  0.2440289E+04  0.7818608E-02  0.8424572E-01
         -2   -1    0    0    0  501 -0.00000000000E+00  0.00000000000E+00  0.93582729118E+03  0.93582729118E+03  0.25500000000E-02 0. -1.
          2   -1    0    0  501    0  0.00000000000E+00 -0.00000000000E+00 -0.15908418245E+04  0.15908418245E+04  0.25500000000E-02 0.  1.
    -200001    2    1    2    0    0 -0.34100767983E+03  0.96235295813E+03 -0.60346924057E+03  0.13346811246E+04  0.61220023384E+03 0.  0.
   -5000001    2    3    3    0    0  0.16750087209E+02  0.61263615438E+03 -0.54320964461E+03  0.82075050515E+03  0.54323573381E+02 0.  0.
     200001    1    1    2    0    0  0.34100767983E+03 -0.96235295813E+03 -0.51545292764E+02  0.11919879911E+04  0.61300000000E+03 0. -1.
         13    1    4    4    0    0 -0.11708929149E+02  0.63031165764E+02 -0.56649253020E+02  0.85552182387E+02  0.10566000000E+00 0.  1.
    -200003    1    4    4    0    0  0.28459016357E+02  0.54960498861E+03 -0.48656039159E+03  0.73519832276E+03  0.30000000000E+02 0.  1.
    -200000    1    3    3    0    0 -0.35775776704E+03  0.34971680375E+03 -0.60259595954E+02  0.51393061945E+03  0.10100000000E+03 0.  1.
<mgrwt>
<rscale>  0 0.24402895E+04</rscale>
<asrwt>0</asrwt>
<pdfrwt beam="1">  1        2 0.22726312E+00 0.24402895E+04</pdfrwt>
<pdfrwt beam="2">  1       -2 0.13368961E+00 0.24402895E+04</pdfrwt>
<totfact> 0.47719271E+00</totfact>
</mgrwt>
</event>
<event>
 8    2  0.4306980E-052  0.1345235E+04  0.7818608E-02  0.8994443E-01
         -2   -1    0    0    0  501 -0.00000000000E+00  0.00000000000E+00  0.75687195702E+03  0.75687195702E+03  0.25500000000E-02 0. -1.
          2   -1    0    0  501    0  0.00000000000E+00 -0.00000000000E+00 -0.59774183784E+03  0.59774183785E+03  0.25500000000E-02 0.  1.
    -200001    2    1    2    0    0  0.61346206797E+00  0.25179150997E+03 -0.43534472074E+02  0.66161936677E+03  0.61028320917E+03 0.  0.
   -5000001    2    3    3    0    0 -0.30983204912E+02 -0.14253764759E+03 -0.16844030987E+03  0.23465765633E+03  0.73587619356E+02 0.  0.
     200001    1    1    2    0    0 -0.61346206797E+00 -0.25179150997E+03  0.20266459125E+03  0.69299442810E+03  0.61300000000E+03 0.  1.
         13    1    4    4    0    0  0.18312418911E+02 -0.48571214637E+02 -0.41113195422E+02  0.66217924911E+02  0.10566000000E+00 0.  1.
    -200003    1    4    4    0    0 -0.49295623823E+02 -0.93966432949E+02 -0.12732711444E+03  0.16843973142E+03  0.30000000000E+02 0.  1.
    -200000    1    3    3    0    0  0.31596666980E+02  0.39432915756E+03  0.12490583779E+03  0.42696171044E+03  0.10100000000E+03 0. -1.
<mgrwt>
<rscale>  0 0.13452346E+04</rscale>
<asrwt>0</asrwt>
<pdfrwt beam="1">  1        2 0.85391691E-01 0.13452346E+04</pdfrwt>
<pdfrwt beam="2">  1       -2 0.10812457E+00 0.13452346E+04</pdfrwt>
<totfact> 0.36535267E+01</totfact>
</mgrwt>
</event>
<event>
 8    2  0.4306980E-052  0.1326020E+04  0.7818608E-02  0.9009182E-01
         -2   -1    0    0    0  501 -0.00000000000E+00  0.00000000000E+00  0.31360246463E+03  0.31360246464E+03  0.25500000000E-02 0. -1.
          2   -1    0    0  501    0  0.00000000000E+00 -0.00000000000E+00 -0.14017184696E+04  0.14017184696E+04  0.25500000000E-02 0.  1.
    -200001    2    1    2    0    0 -0.19138158304E+01 -0.22650540584E+02 -0.21887057240E+03  0.65142557673E+03  0.61313476893E+03 0.  0.
   -5000001    2    3    3    0    0  0.28401475911E+03  0.40382098072E+01 -0.36615228575E+02  0.29662218086E+03  0.77222747214E+02 0.  0.
     200001    1    1    2    0    0  0.19138158304E+01  0.22650540584E+02 -0.86924543256E+03  0.10638953575E+04  0.61300000000E+03 0.  1.
         13    1    4    4    0    0  0.15987051569E+03 -0.27937278789E+02 -0.12514482882E+02  0.16277498819E+03  0.10566000000E+00 0.  1.
    -200003    1    4    4    0    0  0.12414424342E+03  0.31975488596E+02 -0.24100745694E+02  0.13384719268E+03  0.30000000000E+02 0.  1.
    -200000    1    3    3    0    0 -0.28592857494E+03 -0.26688750391E+02 -0.18225534382E+03  0.35480339586E+03  0.10100000000E+03 0.  1.
<mgrwt>
<rscale>  0 0.13260202E+04</rscale>
<asrwt>0</asrwt>
<pdfrwt beam="1">  1        2 0.20024549E+00 0.13260202E+04</pdfrwt>
<pdfrwt beam="2">  1       -2 0.44800353E-01 0.13260202E+04</pdfrwt>
<totfact> 0.76343220E+01</totfact>
</mgrwt>
</event>
<event>
 8    2  0.4306980E-052  0.1486889E+04  0.7818608E-02  0.8893219E-01
          2   -1    0    0  501    0  0.00000000000E+00  0.00000000000E+00  0.13980090496E+04  0.13980090496E+04  0.25500000000E-02 0.  1.
         -2   -1    0    0    0  501 -0.00000000000E+00 -0.00000000000E+00 -0.39535475602E+03  0.39535475603E+03  0.25500000000E-02 0. -1.
    -200001    2    1    2    0    0  0.35299540000E+03  0.43782017433E+02  0.23205749912E+03  0.74641058935E+03  0.61380409539E+03 0.  0.
   -5000001    2    3    3    0    0  0.47320682346E+03 -0.46042823969E+02  0.28381853739E+03  0.55826305802E+03  0.71133960785E+02 0.  0.
     200001    1    1    2    0    0 -0.35299540000E+03 -0.43782017433E+02  0.77059679447E+03  0.10469532163E+04  0.61300000000E+03 0.  1.
         13    1    4    4    0    0  0.12841299075E+03 -0.39884328068E+02  0.84984254693E+02  0.15906913758E+03  0.10566000000E+00 0.  1.
    -200003    1    4    4    0    0  0.34479383270E+03 -0.61584959017E+01  0.19883428270E+03  0.39919392044E+03  0.30000000000E+02 0.  1.
    -200000    1    3    3    0    0 -0.12021142346E+03  0.89824841403E+02 -0.51761038266E+02  0.18814753133E+03  0.10100000000E+03 0. -1.
<mgrwt>
<rscale>  0 0.14868887E+04</rscale>
<asrwt>0</asrwt>
<pdfrwt beam="1">  1        2 0.19971558E+00 0.14868887E+04</pdfrwt>
<pdfrwt beam="2">  1       -2 0.56479250E-01 0.14868887E+04</pdfrwt>
<totfact> 0.47250722E+01</totfact>
</mgrwt>
</event>
<event>
 8    2  0.4306980E-052  0.1518998E+04  0.7818608E-02  0.8871917E-01
          2   -1    0    0  501    0  0.00000000000E+00  0.00000000000E+00  0.55157531477E+03  0.55157531478E+03  0.25500000000E-02 0.  1.
         -2   -1    0    0    0  501 -0.00000000000E+00 -0.00000000000E+00 -0.10458026946E+04  0.10458026946E+04  0.25500000000E-02 0. -1.
    -200001    2    1    2    0    0  0.14319388718E+03 -0.40984949780E+03 -0.36607397914E+03  0.83535872208E+03  0.61264421663E+03 0.  0.
   -5000001    2    3    3    0    0  0.15279311172E+03  0.23234914955E+01 -0.36840110472E+03  0.41087652725E+03  0.98737090696E+02 0.  0.
     200001    1    1    2    0    0 -0.14319388718E+03  0.40984949780E+03 -0.12815340072E+03  0.76201928735E+03  0.61300000000E+03 0. -1.
         13    1    4    4    0    0 -0.11226536408E+02 -0.26644337465E+00 -0.52218193470E+02  0.53412142861E+02  0.10566000000E+00 0.  1.
    -200003    1    4    4    0    0  0.16401964813E+03  0.25899348701E+01 -0.31618291125E+03  0.35746438439E+03  0.30000000000E+02 0.  1.
    -200000    1    3    3    0    0 -0.95992245419E+01 -0.41217298929E+03  0.23271255786E+01  0.42448219483E+03  0.10100000000E+03 0.  1.
<mgrwt>
<rscale>  0 0.15189983E+04</rscale>
<asrwt>0</asrwt>
<pdfrwt beam="1">  1        2 0.78796473E-01 0.15189983E+04</pdfrwt>
<pdfrwt beam="2">  1       -2 0.14940039E+00 0.15189983E+04</pdfrwt>
<totfact> 0.17530961E+01</totfact>
</mgrwt>
</event>
<event>
 8    2  0.4306980E-052  0.1305406E+04  0.7818608E-02  0.9025289E-01
          2   -1    0    0  501    0  0.00000000000E+00  0.00000000000E+00  0.18362675754E+04  0.18362675754E+04  0.25500000000E-02 0. -1.
         -2   -1    0    0    0  501 -0.00000000000E+00 -0.00000000000E+00 -0.23200399921E+03  0.23200399923E+03  0.25500000000E-02 0.  1.
    -200001    2    1    2    0    0  0.11509172291E+03  0.15312708607E+03  0.98720728535E+03  0.11776417552E+04  0.61283592436E+03 0.  0.
   -5000001    2    3    3    0    0  0.25590430137E+03 -0.95863364708E+02  0.71949934161E+03  0.77305187648E+03  0.72478307107E+02 0.  0.
     200001    1    1    2    0    0 -0.11509172291E+03 -0.15312708607E+03  0.61705629081E+03  0.89062981940E+03  0.61300000000E+03 0.  1.
         13    1    4    4    0    0  0.51709583818E+02 -0.47709660276E+02  0.19836572998E+03  0.21047343475E+03  0.10566000000E+00 0.  1.
    -200003    1    4    4    0    0  0.20419471755E+03 -0.48153704431E+02  0.52113361163E+03  0.56257844172E+03  0.30000000000E+02 0.  1.
    -200000    1    3    3    0    0 -0.14081257845E+03  0.24899045077E+03  0.26770794374E+03  0.40458987872E+03  0.10100000000E+03 0.  1.
<mgrwt>
<rscale>  0 0.13054063E+04</rscale>
<asrwt>0</asrwt>
<pdfrwt beam="1">  1        2 0.26232396E+00 0.13054063E+04</pdfrwt>
<pdfrwt beam="2">  1       -2 0.33143426E-01 0.13054063E+04</pdfrwt>
<totfact> 0.81190553E+01</totfact>
</mgrwt>
</event>
<event>
 8    2  0.4306980E-052  0.1338751E+04  0.7818608E-02  0.8999388E-01
          2   -1    0    0  501    0  0.00000000000E+00  0.00000000000E+00  0.28453116540E+04  0.28453116540E+04  0.25500000000E-02 0. -1.
         -2   -1    0    0    0  501 -0.00000000000E+00 -0.00000000000E+00 -0.15747426387E+03  0.15747426389E+03  0.25500000000E-02 0.  1.
    -200001    2    1    2    0    0 -0.14767949413E+03 -0.36306093880E+02  0.18412142234E+04  0.19465344554E+04  0.61302463602E+03 0.  0.
   -5000001    2    3    3    0    0 -0.10384479575E+03 -0.16548870928E+03  0.17327031449E+04  0.17450765614E+04  0.69726339707E+02 0.  0.
     200001    1    1    2    0    0  0.14767949413E+03  0.36306093880E+02  0.84662316671E+03  0.10562514624E+04  0.61300000000E+03 0. -1.
         13    1    4    4    0    0 -0.55502630155E+02 -0.10423584897E+03  0.80523336668E+03  0.81384669327E+03  0.10566000000E+00 0.  1.
    -200003    1    4    4    0    0 -0.48342165592E+02 -0.61252860315E+02  0.92746977818E+03  0.93122986813E+03  0.30000000000E+02 0.  1.
    -200000    1    3    3    0    0 -0.43834698378E+02  0.12918261541E+03  0.10851107852E+03  0.20145789403E+03  0.10100000000E+03 0.  1.
<mgrwt>
<rscale>  0 0.13387507E+04</rscale>
<asrwt>0</asrwt>
<pdfrwt beam="1">  1        2 0.40647310E+00 0.13387507E+04</pdfrwt>
<pdfrwt beam="2">  1       -2 0.22496323E-01 0.13387507E+04</pdfrwt>
<totfact> 0.49074694E+01</totfact>
</mgrwt>
</event>
<event>
 8    2  0.4306980E-052  0.1595957E+04  0.7818608E-02  0.8823036E-01
         -2   -1    0    0    0  501 -0.00000000000E+00  0.00000000000E+00  0.15729290544E+04  0.15729290544E+04  0.25500000000E-02 0. -1.
          2   -1    0    0  501    0  0.00000000000E+00 -0.00000000000E+00 -0.40483045598E+03  0.40483045599E+03  0.25500000000E-02 0.  1.
    -200001    2    1    2    0    0  0.97440175150E+02  0.46978158018E+03  0.36691730790E+03  0.86068754266E+03  0.61316018661E+03 0.  0.
   -5000001    2    3    3    0    0 -0.14816457309E+03 -0.52361521159E+02  0.15447389244E+03  0.23755969430E+03  0.88757846366E+02 0.  0.
     200001    1    1    2    0    0 -0.97440175150E+02 -0.46978158018E+03  0.80118129052E+03  0.11170719677E+04  0.61300000000E+03 0. -1.
         13    1    4    4    0    0  0.13531942280E+01 -0.92711519515E+01  0.42504240016E+02  0.43524785772E+02  0.10566000000E+00 0.  1.
    -200003    1    4    4    0    0 -0.14951776732E+03 -0.43090369208E+02  0.11196965243E+03  0.19403490852E+03  0.30000000000E+02 0.  1.
    -200000    1    3    3    0    0  0.24560474824E+03  0.52214310134E+03  0.21244341546E+03  0.62312784837E+03  0.10100000000E+03 0.  1.
<mgrwt>
<rscale>  0 0.15959569E+04</rscale>
<asrwt>0</asrwt>
<pdfrwt beam="1">  1        2 0.57832922E-01 0.15959569E+04</pdfrwt>
<pdfrwt beam="2">  1       -2 0.22470415E+00 0.15959569E+04</pdfrwt>
<totfact> 0.75669831E+00</totfact>
</mgrwt>
</event>
<event>
 8    2  0.4306980E-052  0.1490253E+04  0.7818608E-02  0.8890961E-01
          2   -1    0    0  501    0  0.00000000000E+00  0.00000000000E+00  0.23291493880E+04  0.23291493880E+04  0.25500000000E-02 0.  1.
         -2   -1    0    0    0  501 -0.00000000000E+00 -0.00000000000E+00 -0.23837601526E+03  0.23837601527E+03  0.25500000000E-02 0. -1.
    -200001    2    1    2    0    0  0.34109056298E+03 -0.29483178149E+02  0.14738437719E+04  0.16328686950E+04  0.61386698979E+03 0.  0.
   -5000001    2    3    3    0    0  0.20281474647E+03 -0.77672580008E+02  0.14311709311E+04  0.14499359444E+04  0.83049129444E+02 0.  0.
     200001    1    1    2    0    0 -0.34109056298E+03  0.29483178149E+02  0.61692960085E+03  0.93465670829E+03  0.61300000000E+03 0. -1.
         13    1    4    4    0    0  0.17256396103E+03 -0.46583269292E+02  0.11590389526E+04  0.11727402212E+04  0.10566000000E+00 0.  1.
    -200003    1    4    4    0    0  0.30250785435E+02 -0.31089310716E+02  0.27213197842E+03  0.27719572316E+03  0.30000000000E+02 0. -1.
    -200000    1    3    3    0    0  0.13827581652E+03  0.48189401859E+02  0.42672840819E+02  0.18293275056E+03  0.10100000000E+03 0. -1.
<mgrwt>
<rscale>  0 0.14902528E+04</rscale>
<asrwt>0</asrwt>
<pdfrwt beam="1">  1        2 0.33273562E+00 0.14902528E+04</pdfrwt>
<pdfrwt beam="2">  1       -2 0.34053718E-01 0.14902528E+04</pdfrwt>
<totfact> 0.42392955E+01</totfact>
</mgrwt>
</event>
<event>
 8    2  0.4306980E-052  0.1814977E+04  0.7818608E-02  0.8698375E-01
          2   -1    0    0  501    0  0.00000000000E+00  0.00000000000E+00  0.30286222080E+04  0.30286222080E+04  0.25500000000E-02 0.  1.
         -2   -1    0    0    0  501 -0.00000000000E+00 -0.00000000000E+00 -0.27191756329E+03  0.27191756330E+03  0.25500000000E-02 0. -1.
    -200001    2    1    2    0    0 -0.15597203090E+03 -0.27054348953E+03  0.30056627498E+03  0.74987206551E+03  0.61192072593E+03 0.  0.
   -5000001    2    3    3    0    0 -0.53907048185E+02 -0.35723488524E+03 -0.38761560343E+02  0.37135253020E+03  0.76664920592E+02 0.  0.
     200001    1    1    2    0    0  0.15597203090E+03  0.27054348953E+03  0.24561383697E+04  0.25506677058E+04  0.61300000000E+03 0.  1.
         13    1    4    4    0    0 -0.39312879788E+01 -0.40394408680E+02 -0.27449596817E+02  0.48996477498E+02  0.10566000000E+00 0.  1.
    -200003    1    4    4    0    0 -0.49975760206E+02 -0.31684047656E+03 -0.11311963526E+02  0.32235605270E+03  0.30000000000E+02 0.  1.
    -200000    1    3    3    0    0 -0.10206498271E+03  0.86691395705E+02  0.33932783532E+03  0.37851953531E+03  0.10100000000E+03 0. -1.
<mgrwt>
<rscale>  0 0.18149772E+04</rscale>
<asrwt>0</asrwt>
<pdfrwt beam="1">  1        2 0.43266031E+00 0.18149772E+04</pdfrwt>
<pdfrwt beam="2">  1       -2 0.38845366E-01 0.18149772E+04</pdfrwt>
<totfact> 0.13489324E+01</totfact>
</mgrwt>
</event>
<event>
 8    2  0.4306980E-052  0.1324275E+04  0.7818608E-02  0.9010533E-01
         -2   -1    0    0    0  501 -0.00000000000E+00  0.00000000000E+00  0.18845031194E+03  0.18845031195E+03  0.25500000000E-02 0. -1.
          2   -1    0    0  501    0  0.00000000000E+00 -0.00000000000E+00 -0.23264815197E+04  0.23264815197E+04  0.25500000000E-02 0.  1.
    -200001    2    1    2    0    0  0.15873676060E+03  0.53198805148E+02 -0.14206402674E+04  0.15565758261E+04  0.61374429618E+03 0.  0.
   -5000001    2    3    3    0    0 -0.14145509103E+02 -0.10415465277E+03 -0.20628829968E+02  0.13359254624E+03  0.79831902555E+02 0.  0.
     200001    1    1    2    0    0 -0.15873676060E+03 -0.53198805148E+02 -0.71739094040E+03  0.95835600556E+03  0.61300000000E+03 0. -1.
         13    1    4    4    0    0 -0.14925160669E+01  0.91803750294E+01 -0.12242984051E+02  0.15375588197E+02  0.10566000000E+00 0.  1.
    -200003    1    4    4    0    0 -0.12652993036E+02 -0.11333502779E+03 -0.83858459164E+01  0.11821695805E+03  0.30000000000E+02 0.  1.
    -200000    1    3    3    0    0  0.17288226970E+03  0.15735345791E+03 -0.14000114374E+04  0.14229832799E+04  0.10100000000E+03 0.  1.
<mgrwt>
<rscale>  0 0.13242751E+04</rscale>
<asrwt>0</asrwt>
<pdfrwt beam="1">  1        2 0.33235449E+00 0.13242751E+04</pdfrwt>
<pdfrwt beam="2">  1       -2 0.26921474E-01 0.13242751E+04</pdfrwt>
<totfact> 0.66820036E+01</totfact>
</mgrwt>
</event>
<event>
 8    2  0.4306980E-052  0.1251573E+04  0.7818608E-02  0.9068875E-01
          2   -1    0    0  501    0  0.00000000000E+00  0.00000000000E+00  0.63671561568E+03  0.63671561569E+03  0.25500000000E-02 0.  1.
         -2   -1    0    0    0  501 -0.00000000000E+00 -0.00000000000E+00 -0.61504518530E+03  0.61504518530E+03  0.25500000000E-02 0. -1.
    -200001    2    1    2    0    0 -0.61890537503E+01 -0.12680353799E+03 -0.36110702960E+01  0.62524216926E+03  0.61220690028E+03 0.  0.
   -5000001    2    3    3    0    0  0.25278156617E+03 -0.18177647302E+03  0.38470186621E+02  0.33878163489E+03  0.12787429196E+03 0.  0.
     200001    1    1    2    0    0  0.61890537503E+01  0.12680353799E+03  0.25281500683E+02  0.62651863173E+03  0.61300000000E+03 0.  1.
         13    1    4    4    0    0  0.25060136137E+03 -0.15262017569E+03  0.43368200519E+02  0.29660541521E+03  0.10566000000E+00 0.  1.
    -200003    1    4    4    0    0  0.21802047927E+01 -0.29156297325E+02 -0.48980138982E+01  0.42176219683E+02  0.30000000000E+02 0.  1.
    -200000    1    3    3    0    0 -0.25897061992E+03  0.54972935025E+02 -0.42081256917E+02  0.28646053437E+03  0.10100000000E+03 0. -1.
<mgrwt>
<rscale>  0 0.12515732E+04</rscale>
<asrwt>0</asrwt>
<pdfrwt beam="1">  1        2 0.90959374E-01 0.12515732E+04</pdfrwt>
<pdfrwt beam="2">  1       -2 0.87863598E-01 0.12515732E+04</pdfrwt>
<totfact> 0.55590964E+01</totfact>
</mgrwt>
</event>
<event>
 8    2  0.4306980E-052  0.1438906E+04  0.7818608E-02  0.8926128E-01
          2   -1    0    0  501    0  0.00000000000E+00  0.00000000000E+00  0.96810786168E+03  0.96810786169E+03  0.25500000000E-02 0.  1.
         -2   -1    0    0    0  501 -0.00000000000E+00 -0.00000000000E+00 -0.53466430938E+03  0.53466430938E+03  0.25500000000E-02 0. -1.
    -200001    2    1    2    0    0 -0.85312801204E+02 -0.34664405283E+03  0.33548146842E+03  0.78666746972E+03  0.61551402815E+03 0.  0.
   -5000001    2    3    3    0    0  0.99777980492E+02 -0.24431387006E+03  0.44622489963E+03  0.52744715545E+03  0.97154146853E+02 0.  0.
     200001    1    1    2    0    0  0.85312801204E+02  0.34664405283E+03  0.97962083884E+02  0.71610470135E+03  0.61300000000E+03 0. -1.
         13    1    4    4    0    0  0.38359900968E+02 -0.49916575119E+02  0.18064105783E+03  0.19129649608E+03  0.10566000000E+00 0.  1.
    -200003    1    4    4    0    0  0.61418079524E+02 -0.19439729494E+03  0.26558384180E+03  0.33615065938E+03  0.30000000000E+02 0.  1.
    -200000    1    3    3    0    0 -0.18509078170E+03 -0.10233018277E+03 -0.11074343121E+03  0.25922031427E+03  0.10100000000E+03 0. -1.
<mgrwt>
<rscale>  0 0.14389061E+04</rscale>
<asrwt>0</asrwt>
<pdfrwt beam="1">  1        2 0.13830112E+00 0.14389061E+04</pdfrwt>
<pdfrwt beam="2">  1       -2 0.76380615E-01 0.14389061E+04</pdfrwt>
<totfact> 0.43838160E+01</totfact>
</mgrwt>
</event>
<event>
 8    2  0.4306980E-052  0.2133531E+04  0.7818608E-02  0.8546615E-01
         -2   -1    0    0    0  501 -0.00000000000E+00  0.00000000000E+00  0.25875400909E+04  0.25875400909E+04  0.25500000000E-02 0. -1.
          2   -1    0    0  501    0  0.00000000000E+00 -0.00000000000E+00 -0.43979540587E+03  0.43979540587E+03  0.25500000000E-02 0.  1.
    -200001    2    1    2    0    0 -0.19732711606E+02 -0.38599290688E+03 -0.37063497099E+02  0.72548065844E+03  0.61283650257E+03 0.  0.
   -5000001    2    3    3    0    0 -0.41991163573E+02 -0.18502912550E+03  0.27239317604E+03  0.34227534446E+03  0.83398644873E+02 0.  0.
     200001    1    1    2    0    0  0.19732711606E+02  0.38599290688E+03  0.21848081821E+04  0.23018548383E+04  0.61300000000E+03 0. -1.
         13    1    4    4    0    0  0.17467020815E+02 -0.11491729774E+02  0.21073533477E+02  0.29686051381E+02  0.10566000000E+00 0.  1.
    -200003    1    4    4    0    0 -0.59458184388E+02 -0.17353739573E+03  0.25131964257E+03  0.31258929308E+03  0.30000000000E+02 0.  1.
    -200000    1    3    3    0    0  0.22258451967E+02 -0.20096378138E+03 -0.30945667314E+03  0.38320531398E+03  0.10100000000E+03 0. -1.
<mgrwt>
<rscale>  0 0.21335306E+04</rscale>
<asrwt>0</asrwt>
<pdfrwt beam="1">  1        2 0.62827917E-01 0.21335306E+04</pdfrwt>
<pdfrwt beam="2">  1       -2 0.36964857E+00 0.21335306E+04</pdfrwt>
<totfact> 0.83809367E-01</totfact>
</mgrwt>
</event>
<event>
 8    2  0.4306980E-052  0.1287227E+04  0.7818608E-02  0.9039756E-01
          2   -1    0    0  501    0  0.00000000000E+00  0.00000000000E+00  0.11262572009E+04  0.11262572009E+04  0.25500000000E-02 0.  1.
         -2   -1    0    0    0  501 -0.00000000000E+00 -0.00000000000E+00 -0.36780063333E+03  0.36780063334E+03  0.25500000000E-02 0. -1.
    -200001    2    1    2    0    0 -0.16014607660E+02 -0.12624981058E+03  0.19239436632E+03  0.65002531236E+03  0.60771854686E+03 0.  0.
   -5000001    2    3    3    0    0  0.85539155120E+02  0.20856692574E+03  0.14534402720E+03  0.28283306289E+03  0.89735977462E+02 0.  0.
     200001    1    1    2    0    0  0.16014607660E+02  0.12624981058E+03  0.56606220128E+03  0.84403252192E+03  0.61300000000E+03 0.  1.
         13    1    4    4    0    0 -0.10808016692E+02  0.36355308973E+01 -0.11569576620E+01  0.11462112579E+02  0.10566000000E+00 0.  1.
    -200003    1    4    4    0    0  0.96347171811E+02  0.20493139485E+03  0.14650098486E+03  0.27137095031E+03  0.30000000000E+02 0.  1.
    -200000    1    3    3    0    0 -0.10155376278E+03 -0.33481673633E+03  0.47050339121E+02  0.36719224947E+03  0.10100000000E+03 0.  1.
<mgrwt>
<rscale>  0 0.12872266E+04</rscale>
<asrwt>0</asrwt>
<pdfrwt beam="1">  1        2 0.16089389E+00 0.12872266E+04</pdfrwt>
<pdfrwt beam="2">  1       -2 0.52542947E-01 0.12872266E+04</pdfrwt>
<totfact> 0.79091477E+01</totfact>
</mgrwt>
</event>
<event>
 8    2  0.4306980E-052  0.1600927E+04  0.7818608E-02  0.8819978E-01
         -2   -1    0    0    0  501 -0.00000000000E+00  0.00000000000E+00  0.25529661691E+03  0.25529661692E+03  0.25500000000E-02 0. -1.
          2   -1    0    0  501    0  0.00000000000E+00 -0.00000000000E+00 -0.25097948130E+04  0.25097948130E+04  0.25500000000E-02 0.  1.
    -200001    2    1    2    0    0  0.20756060769E+03 -0.42101094531E+03 -0.14863323070E+04  0.16759727702E+04  0.61592968551E+03 0.  0.
   -5000001    2    3    3    0    0  0.18214528619E+03 -0.35438124396E+03 -0.39388983482E+03  0.57655610177E+03  0.13603222104E+03 0.  0.
     200001    1    1    2    0    0 -0.20756060769E+03  0.42101094531E+03 -0.76816588910E+03  0.10891186598E+04  0.61300000000E+03 0.  1.
         13    1    4    4    0    0  0.25345415030E+01 -0.44667824271E+02 -0.18361381409E+01  0.44777460770E+02  0.10566000000E+00 0.  1.
    -200003    1    4    4    0    0  0.17961074469E+03 -0.30971341969E+03 -0.39205369668E+03  0.53177864100E+03  0.30000000000E+02 0.  1.
    -200000    1    3    3    0    0  0.25415321502E+02 -0.66629701347E+02 -0.10924424722E+04  0.10994166684E+04  0.10100000000E+03 0.  1.
<mgrwt>
<rscale>  0 0.16009274E+04</rscale>
<asrwt>0</asrwt>
<pdfrwt beam="1">  1        2 0.35854210E+00 0.16009274E+04</pdfrwt>
<pdfrwt beam="2">  1       -2 0.36470947E-01 0.16009274E+04</pdfrwt>
<totfact> 0.29651544E+01</totfact>
</mgrwt>
</event>
<event>
 8    2  0.4306980E-052  0.1670919E+04  0.7818608E-02  0.8778126E-01
          2   -1    0    0  501    0  0.00000000000E+00  0.00000000000E+00  0.13568378671E+04  0.13568378671E+04  0.25500000000E-02 0.  1.
         -2   -1    0    0    0  501 -0.00000000000E+00 -0.00000000000E+00 -0.51442580075E+03  0.51442580076E+03  0.25500000000E-02 0. -1.
    -200001    2    1    2    0    0  0.26915352144E+03  0.21860191620E+03 -0.81415123235E+02  0.70960274828E+03  0.61374035406E+03 0.  0.
   -5000001    2    3    3    0    0  0.36433371084E+03 -0.25813386267E+02 -0.43499971294E+02  0.42598916031E+03  0.21487003848E+03 0.  0.
     200001    1    1    2    0    0 -0.26915352144E+03 -0.21860191620E+03  0.92382718960E+03  0.11616609196E+04  0.61300000000E+03 0.  1.
         13    1    4    4    0    0  0.28272491955E+03 -0.79262497713E+02 -0.98932659228E+02  0.30984448664E+03  0.10566000000E+00 0.  1.
    -200003    1    4    4    0    0  0.81608791290E+02  0.53449111446E+02  0.55432687934E+02  0.11614467367E+03  0.30000000000E+02 0.  1.
    -200000    1    3    3    0    0 -0.95180189397E+02  0.24441530246E+03 -0.37915151941E+02  0.28361358797E+03  0.10100000000E+03 0. -1.
<mgrwt>
<rscale>  0 0.16709188E+04</rscale>
<asrwt>0</asrwt>
<pdfrwt beam="1">  1        2 0.19383398E+00 0.16709188E+04</pdfrwt>
<pdfrwt beam="2">  1       -2 0.73489402E-01 0.16709188E+04</pdfrwt>
<totfact> 0.27895760E+01</totfact>
</mgrwt>
</event>
<event>
 8    2  0.4306980E-052  0.1339738E+04  0.7818608E-02  0.8998633E-01
         -2   -1    0    0    0  501 -0.00000000000E+00  0.00000000000E+00  0.24409014783E+03  0.24409014784E+03  0.25500000000E-02 0.  1.
          2   -1    0    0  501    0  0.00000000000E+00 -0.00000000000E+00 -0.18383567056E+04  0.18383567056E+04  0.25500000000E-02 0. -1.
    -200001    2    1    2    0    0 -0.14858215964E+03 -0.95143526250E+01 -0.44635540206E+03  0.77262388736E+03  0.61281917831E+03 0.  0.
   -5000001    2    3    3    0    0  0.20674895864E+03  0.98787387616E+02 -0.15489050695E+03  0.28977582054E+03  0.86457372006E+02 0.  0.
     200001    1    1    2    0    0  0.14858215964E+03  0.95143526250E+01 -0.11479111557E+04  0.13098229661E+04  0.61300000000E+03 0. -1.
         13    1    4    4    0    0  0.67675104849E+02 -0.78563418912E+00 -0.22198623252E+02  0.71227291649E+02  0.10566000000E+00 0.  1.
    -200003    1    4    4    0    0  0.13907385379E+03  0.99573021805E+02 -0.13269188370E+03  0.21854852889E+03  0.30000000000E+02 0.  1.
    -200000    1    3    3    0    0 -0.35533111828E+03 -0.10830174024E+03 -0.29146489511E+03  0.48284806682E+03  0.10100000000E+03 0. -1.
<mgrwt>
<rscale>  0 0.13397384E+04</rscale>
<asrwt>0</asrwt>
<pdfrwt beam="1">  1        2 0.26262238E+00 0.13397384E+04</pdfrwt>
<pdfrwt beam="2">  1       -2 0.34870022E-01 0.13397384E+04</pdfrwt>
<totfact> 0.73354061E+01</totfact>
</mgrwt>
</event>
<event>
 8    2  0.4306980E-052  0.1845057E+04  0.7818608E-02  0.8682699E-01
         -2   -1    0    0    0  501 -0.00000000000E+00  0.00000000000E+00  0.54401835120E+03  0.54401835121E+03  0.25500000000E-02 0. -1.
          2   -1    0    0  501    0  0.00000000000E+00 -0.00000000000E+00 -0.15643932145E+04  0.15643932145E+04  0.25500000000E-02 0.  1.
    -200001    2    1    2    0    0 -0.40256678364E+03  0.49671307630E+03 -0.21440855537E+03  0.91085798239E+03  0.61229677445E+03 0.  0.
   -5000001    2    3    3    0    0  0.31068837359E+01  0.12635319805E+03 -0.30019654817E+03  0.34579325731E+03  0.11610437494E+03 0.  0.
     200001    1    1    2    0    0  0.40256678364E+03 -0.49671307630E+03 -0.80596630797E+03  0.11975535834E+04  0.61300000000E+03 0. -1.
         13    1    4    4    0    0 -0.31332413502E+02 -0.38730305699E+01 -0.37225196743E+02  0.48810315900E+02  0.10566000000E+00 0.  1.
    -200003    1    4    4    0    0  0.34439297237E+02  0.13022622862E+03 -0.26297135143E+03  0.29698294141E+03  0.30000000000E+02 0.  1.
    -200000    1    3    3    0    0 -0.40567366738E+03  0.37035987825E+03  0.85787992803E+02  0.56506472508E+03  0.10100000000E+03 0. -1.
<mgrwt>
<rscale>  0 0.18450568E+04</rscale>
<asrwt>0</asrwt>
<pdfrwt beam="1">  1        2 0.22348474E+00 0.18450568E+04</pdfrwt>
<pdfrwt beam="2">  1       -2 0.77716908E-01 0.18450568E+04</pdfrwt>
<totfact> 0.18810322E+01</totfact>
</mgrwt>
</event>
<event>
 8    2  0.4306980E-052  0.2038884E+04  0.7818608E-02  0.8588654E-01
          2   -1    0    0  501    0  0.00000000000E+00  0.00000000000E+00  0.50799023199E+04  0.50799023199E+04  0.25500000000E-02 0.  1.
         -2   -1    0    0    0  501 -0.00000000000E+00 -0.00000000000E+00 -0.20458299421E+03  0.20458299422E+03  0.25500000000E-02 0. -1.
    -200001    2    1    2    0    0 -0.54055487674E+02  0.42260267730E+03  0.42369677177E+04  0.43022547943E+04  0.61317685532E+03 0.  0.
   -5000001    2    3    3    0    0  0.12808617226E+03 -0.39711603544E+02  0.18518245042E+04  0.18638087261E+04  0.16292910822E+03 0.  0.
     200001    1    1    2    0    0  0.54055487674E+02 -0.42260267730E+03  0.63835160802E+03  0.98223051983E+03  0.61300000000E+03 0. -1.
         13    1    4    4    0    0  0.13609597702E+03 -0.79215129149E+02  0.12476114193E+04  0.12575100065E+04  0.10566000000E+00 0.  1.
    -200003    1    4    4    0    0 -0.80098047604E+01  0.39503525605E+02  0.60421308487E+03  0.60629871964E+03  0.30000000000E+02 0.  1.
    -200000    1    3    3    0    0 -0.18214165994E+03  0.46231428085E+03  0.23851432135E+04  0.24384460682E+04  0.10100000000E+03 0.  1.
<mgrwt>
<rscale>  0 0.20388836E+04</rscale>
<asrwt>0</asrwt>
<pdfrwt beam="1">  1        2 0.72570028E+00 0.20388836E+04</pdfrwt>
<pdfrwt beam="2">  1       -2 0.29226144E-01 0.20388836E+04</pdfrwt>
<totfact> 0.74915911E-01</totfact>
</mgrwt>
</event>
<event>
 8    2  0.4306980E-052  0.1369416E+04  0.7818608E-02  0.8976259E-01
         -2   -1    0    0    0  501 -0.00000000000E+00  0.00000000000E+00  0.79702104145E+03  0.79702104145E+03  0.25500000000E-02 0. -1.
          2   -1    0    0  501    0  0.00000000000E+00 -0.00000000000E+00 -0.58822189247E+03  0.58822189247E+03  0.25500000000E-02 0.  1.
    -200001    2    1    2    0    0 -0.11217444935E+03  0.92312250539E+02  0.37650447049E+03  0.73332366473E+03  0.61229349356E+03 0.  0.
   -5000001    2    3    3    0    0 -0.14679905477E+03 -0.12743651486E+03  0.43330132029E+03  0.48249450904E+03  0.85210851975E+02 0.  0.
     200001    1    1    2    0    0  0.11217444935E+03 -0.92312250539E+02 -0.16770532151E+03  0.65191926920E+03  0.61300000000E+03 0.  1.
         13    1    4    4    0    0 -0.48534103711E+02 -0.83671351702E+02  0.15605657318E+03  0.18360315769E+03  0.10566000000E+00 0.  1.
    -200003    1    4    4    0    0 -0.98264951062E+02 -0.43765163154E+02  0.27724474711E+03  0.29889135135E+03  0.30000000000E+02 0.  1.
    -200000    1    3    3    0    0  0.34624605423E+02  0.21974876540E+03 -0.56796849793E+02  0.25082915568E+03  0.10100000000E+03 0.  1.
<mgrwt>
<rscale>  0 0.13694163E+04</rscale>
<asrwt>0</asrwt>
<pdfrwt beam="1">  1        2 0.84031699E-01 0.13694163E+04</pdfrwt>
<pdfrwt beam="2">  1       -2 0.11386015E+00 0.13694163E+04</pdfrwt>
<totfact> 0.32789378E+01</totfact>
</mgrwt>
</event>
<event>
 8    2  0.4306980E-052  0.1450933E+04  0.7818608E-02  0.8917754E-01
          2   -1    0    0  501    0  0.00000000000E+00  0.00000000000E+00  0.20056557037E+03  0.20056557038E+03  0.25500000000E-02 0.  1.
         -2   -1    0    0    0  501 -0.00000000000E+00 -0.00000000000E+00 -0.26240891400E+04  0.26240891400E+04  0.25500000000E-02 0. -1.
    -200001    2    1    2    0    0 -0.19419532644E+03 -0.23641451945E+03 -0.16769835776E+04  0.18113953115E+04  0.61259726167E+03 0.  0.
   -5000001    2    3    3    0    0 -0.27102937152E+03 -0.29793301115E+03 -0.15944458747E+04  0.16479894741E+04  0.10672703386E+03 0.  0.
     200001    1    1    2    0    0  0.19419532644E+03  0.23641451945E+03 -0.74653999203E+03  0.10132593989E+04  0.61300000000E+03 0.  1.
         13    1    4    4    0    0 -0.14287720685E+03 -0.22391678823E+03 -0.10043955592E+04  0.10389239986E+04  0.10566000000E+00 0.  1.
    -200003    1    4    4    0    0 -0.12815216467E+03 -0.74016222925E+02 -0.59005031550E+03  0.60906547545E+03  0.30000000000E+02 0.  1.
    -200000    1    3    3    0    0  0.76834045075E+02  0.61518491705E+02 -0.82537702862E+02  0.16340583740E+03  0.10100000000E+03 0.  1.
<mgrwt>
<rscale>  0 0.14509334E+04</rscale>
<asrwt>0</asrwt>
<pdfrwt beam="1">  1        2 0.28652226E-01 0.14509334E+04</pdfrwt>
<pdfrwt beam="2">  1       -2 0.37486986E+00 0.14509334E+04</pdfrwt>
<totfact> 0.19885060E+00</totfact>
</mgrwt>
</event>
<event>
 8    2  0.4306980E-052  0.2220052E+04  0.7818608E-02  0.8510128E-01
          2   -1    0    0  501    0  0.00000000000E+00  0.00000000000E+00  0.18020121935E+04  0.18020121935E+04  0.25500000000E-02 0.  1.
         -2   -1    0    0    0  501 -0.00000000000E+00 -0.00000000000E+00 -0.68376799553E+03  0.68376799554E+03  0.25500000000E-02 0. -1.
    -200001    2    1    2    0    0  0.22692767768E+03  0.61682318888E+03 -0.17002710111E+03  0.91499091060E+03  0.61345915442E+03 0.  0.
   -5000001    2    3    3    0    0  0.41144386862E+02  0.98870034155E+02  0.20321119751E+03  0.24245932830E+03  0.77611795878E+02 0.  0.
     200001    1    1    2    0    0 -0.22692767768E+03 -0.61682318888E+03  0.12882712991E+04  0.15707892785E+04  0.61300000000E+03 0.  1.
         13    1    4    4    0    0  0.14967180279E+02  0.13905429626E+02  0.10367449822E+03  0.10566830274E+03  0.10566000000E+00 0.  1.
    -200003    1    4    4    0    0  0.26177206583E+02  0.84964604529E+02  0.99536699299E+02  0.13679102556E+03  0.30000000000E+02 0.  1.
    -200000    1    3    3    0    0  0.18578329082E+03  0.51795315472E+03 -0.37323829863E+03  0.67253158231E+03  0.10100000000E+03 0. -1.
<mgrwt>
<rscale>  0 0.22200525E+04</rscale>
<asrwt>0</asrwt>
<pdfrwt beam="1">  1        2 0.25743031E+00 0.22200525E+04</pdfrwt>
<pdfrwt beam="2">  1       -2 0.97681144E-01 0.22200525E+04</pdfrwt>
<totfact> 0.81289748E+00</totfact>
</mgrwt>
</event>
<event>
 8    2  0.4306980E-052  0.1459687E+04  0.7818608E-02  0.8911712E-01
         -2   -1    0    0    0  501 -0.00000000000E+00  0.00000000000E+00  0.10615055473E+04  0.10615055473E+04  0.25500000000E-02 0. -1.
          2   -1    0    0  501    0  0.00000000000E+00 -0.00000000000E+00 -0.50180749023E+03  0.50180749023E+03  0.25500000000E-02 0.  1.
    -200001    2    1    2    0    0 -0.19935184646E+03 -0.34056389999E+03  0.31958640844E+03  0.79575357241E+03  0.61266903536E+03 0.  0.
   -5000001    2    3    3    0    0 -0.22683866265E+03  0.28742634523E+02  0.29189028110E+03  0.41090176072E+03  0.17708303942E+03 0.  0.
     200001    1    1    2    0    0  0.19935184646E+03  0.34056389999E+03  0.24011164861E+03  0.76755946510E+03  0.61300000000E+03 0. -1.
         13    1    4    4    0    0 -0.58783444322E+02 -0.70422093874E+02  0.96187093190E+02  0.13291626196E+03  0.10566000000E+00 0.  1.
    -200003    1    4    4    0    0 -0.16805521833E+03  0.99164728396E+02  0.19570318791E+03  0.27798549876E+03  0.30000000000E+02 0.  1.
    -200000    1    3    3    0    0  0.27486816189E+02 -0.36930653451E+03  0.27696127344E+02  0.38485181170E+03  0.10100000000E+03 0.  1.
<mgrwt>
<rscale>  0 0.14596869E+04</rscale>
<asrwt>0</asrwt>
<pdfrwt beam="1">  1        2 0.71686784E-01 0.14596869E+04</pdfrwt>
<pdfrwt beam="2">  1       -2 0.15164365E+00 0.14596869E+04</pdfrwt>
<totfact> 0.18880172E+01</totfact>
</mgrwt>
</event>
<event>
 8    2  0.4306980E-052  0.1393861E+04  0.7818608E-02  0.8958274E-01
          2   -1    0    0  501    0  0.00000000000E+00  0.00000000000E+00  0.95595829149E+03  0.95595829149E+03  0.25500000000E-02 0.  1.
         -2   -1    0    0    0  501 -0.00000000000E+00 -0.00000000000E+00 -0.50808940143E+03  0.50808940144E+03  0.25500000000E-02 0. -1.
    -200001    2    1    2    0    0 -0.26006329025E+03  0.15737127562E+03  0.36331517704E+03  0.77461534403E+03  0.61288855432E+03 0.  0.
   -5000001    2    3    3    0    0 -0.25533396775E+03  0.25713219529E+03 -0.15589241783E+02  0.36996220097E+03  0.72915051552E+02 0.  0.
     200001    1    1    2    0    0  0.26006329025E+03 -0.15737127562E+03  0.84553713014E+02  0.68943234890E+03  0.61300000000E+03 0. -1.
         13    1    4    4    0    0 -0.90294800378E+02  0.13014985992E+03  0.56549997541E+01  0.15850592165E+03  0.10566000000E+00 0.  1.
    -200003    1    4    4    0    0 -0.16503916737E+03  0.12698233537E+03 -0.21244241537E+02  0.21145627931E+03  0.30000000000E+02 0.  1.
    -200000    1    3    3    0    0 -0.47293225008E+01 -0.99760919674E+02  0.37890441882E+03  0.40465314306E+03  0.10100000000E+03 0.  1.
<mgrwt>
<rscale>  0 0.13938612E+04</rscale>
<asrwt>0</asrwt>
<pdfrwt beam="1">  1        2 0.13656547E+00 0.13938612E+04</pdfrwt>
<pdfrwt beam="2">  1       -2 0.72584202E-01 0.13938612E+04</pdfrwt>
<totfact> 0.50109763E+01</totfact>
</mgrwt>
</event>
<event>
 8    2  0.4306980E-052  0.1357492E+04  0.7818608E-02  0.8985176E-01
          2   -1    0    0  501    0  0.00000000000E+00  0.00000000000E+00  0.75106728512E+03  0.75106728513E+03  0.25500000000E-02 0.  1.
         -2   -1    0    0    0  501 -0.00000000000E+00 -0.00000000000E+00 -0.61338853722E+03  0.61338853723E+03  0.25500000000E-02 0. -1.
    -200001    2    1    2    0    0 -0.11260073879E+03  0.16080346996E+03  0.28566342671E+03  0.70399753640E+03  0.61275790943E+03 0.  0.
   -5000001    2    3    3    0    0 -0.14314140616E+03  0.29470838087E+03 -0.34924168412E+02  0.34089883952E+03  0.87463302764E+02 0.  0.
     200001    1    1    2    0    0  0.11260073879E+03 -0.16080346996E+03 -0.14798467881E+03  0.66045828595E+03  0.61300000000E+03 0. -1.
         13    1    4    4    0    0 -0.55103403307E+02  0.17518922549E+03  0.69146025361E+01  0.18378104548E+03  0.10566000000E+00 0.  1.
    -200003    1    4    4    0    0 -0.88038002853E+02  0.11951915538E+03 -0.41838770948E+02  0.15711779404E+03  0.30000000000E+02 0.  1.
    -200000    1    3    3    0    0  0.30540667373E+02 -0.13390491092E+03  0.32058759512E+03  0.36309869688E+03  0.10100000000E+03 0.  1.
<mgrwt>
<rscale>  0 0.13574919E+04</rscale>
<asrwt>0</asrwt>
<pdfrwt beam="1">  1        2 0.10729533E+00 0.13574919E+04</pdfrwt>
<pdfrwt beam="2">  1       -2 0.87626934E-01 0.13574919E+04</pdfrwt>
<totfact> 0.45295222E+01</totfact>
</mgrwt>
</event>
<event>
 8    2  0.4306980E-052  0.1762249E+04  0.7818608E-02  0.8726637E-01
         -2   -1    0    0    0  501 -0.00000000000E+00  0.00000000000E+00  0.17300701508E+03  0.17300701510E+03  0.25500000000E-02 0. -1.
          2   -1    0    0  501    0  0.00000000000E+00 -0.00000000000E+00 -0.44875637123E+04  0.44875637123E+04  0.25500000000E-02 0.  1.
    -200001    2    1    2    0    0 -0.41083933057E+02 -0.72103134703E+02 -0.49553976877E+03  0.79177943665E+03  0.61193811965E+03 0.  0.
   -5000001    2    3    3    0    0 -0.15793315665E+03  0.18876627568E+00 -0.57687600396E+03  0.60284441302E+03  0.75448954670E+02 0.  0.
     200001    1    1    2    0    0  0.41083933057E+02  0.72103134703E+02 -0.38190169284E+04  0.38687912907E+04  0.61300000000E+03 0.  1.
         13    1    4    4    0    0 -0.48589778730E+02 -0.29983050367E+02 -0.16602982395E+03  0.17557295780E+03  0.10566000000E+00 0.  1.
    -200003    1    4    4    0    0 -0.10934337792E+03  0.30171816643E+02 -0.41084618000E+03  0.42727145521E+03  0.30000000000E+02 0.  1.
    -200000    1    3    3    0    0  0.11684922360E+03 -0.72291900979E+02  0.81336235182E+02  0.18893502363E+03  0.10100000000E+03 0. -1.
<mgrwt>
<rscale>  0 0.17622486E+04</rscale>
<asrwt>0</asrwt>
<pdfrwt beam="1">  1        2 0.64108046E+00 0.17622486E+04</pdfrwt>
<pdfrwt beam="2">  1       -2 0.24715291E-01 0.17622486E+04</pdfrwt>
<totfact> 0.35134189E+00</totfact>
</mgrwt>
</event>
<event>
 8    2  0.4306980E-052  0.1394344E+04  0.7818608E-02  0.8957923E-01
          2   -1    0    0  501    0  0.00000000000E+00  0.00000000000E+00  0.10656202391E+04  0.10656202391E+04  0.25500000000E-02 0.  1.
         -2   -1    0    0    0  501 -0.00000000000E+00 -0.00000000000E+00 -0.45611805206E+03  0.45611805207E+03  0.25500000000E-02 0. -1.
    -200001    2    1    2    0    0  0.19547387869E+03  0.24568136202E+03  0.18648191254E+03  0.71347810932E+03  0.61294872533E+03 0.  0.
   -5000001    2    3    3    0    0  0.20580776098E+03  0.52075112234E+02 -0.17634909966E+03  0.28987745718E+03  0.88663878981E+02 0.  0.
     200001    1    1    2    0    0 -0.19547387869E+03 -0.24568136202E+03  0.42302027445E+03  0.80826018181E+03  0.61300000000E+03 0.  1.
         13    1    4    4    0    0  0.32474941427E+02  0.53762419969E+00  0.40029221123E+01  0.32725302290E+02  0.10566000000E+00 0.  1.
    -200003    1    4    4    0    0  0.17333281956E+03  0.51537488035E+02 -0.18035202177E+03  0.25715215489E+03  0.30000000000E+02 0.  1.
    -200000    1    3    3    0    0 -0.10333882291E+02  0.19360624978E+03  0.36283101220E+03  0.42360065214E+03  0.10100000000E+03 0.  1.
<mgrwt>
<rscale>  0 0.13943438E+04</rscale>
<asrwt>0</asrwt>
<pdfrwt beam="1">  1        2 0.15223146E+00 0.13943438E+04</pdfrwt>
<pdfrwt beam="2">  1       -2 0.65159723E-01 0.13943438E+04</pdfrwt>
<totfact> 0.54235547E+01</totfact>
</mgrwt>
</event>
<event>
 8    2  0.4306980E-052  0.1704660E+04  0.7818608E-02  0.8758711E-01
         -2   -1    0    0    0  501 -0.00000000000E+00  0.00000000000E+00  0.75506583053E+03  0.75506583054E+03  0.25500000000E-02 0. -1.
          2   -1    0    0  501    0  0.00000000000E+00 -0.00000000000E+00 -0.96212299941E+03  0.96212299941E+03  0.25500000000E-02 0.  1.
    -200001    2    1    2    0    0 -0.28300975362E+03 -0.42467719358E+03 -0.40599243648E+03  0.89512467182E+03  0.61316643762E+03 0.  0.
   -5000001    2    3    3    0    0 -0.31684014726E+03 -0.13686731719E+03 -0.46460955895E+03  0.58268909842E+03  0.67410694356E+02 0.  0.
     200001    1    1    2    0    0  0.28300975362E+03  0.42467719358E+03  0.19893526761E+03  0.82206415813E+03  0.61300000000E+03 0.  1.
         13    1    4    4    0    0 -0.18674242805E+03 -0.53553405575E+02 -0.25392561917E+03  0.31971695751E+03  0.10566000000E+00 0.  1.
    -200003    1    4    4    0    0 -0.13009771921E+03 -0.83313911618E+02 -0.21068393978E+03  0.26297214091E+03  0.30000000000E+02 0.  1.
    -200000    1    3    3    0    0  0.33830393640E+02 -0.28780987638E+03  0.58617122471E+02  0.31243557340E+03  0.10100000000E+03 0. -1.
<mgrwt>
<rscale>  0 0.17046597E+04</rscale>
<asrwt>0</asrwt>
<pdfrwt beam="1">  1        2 0.13744614E+00 0.17046597E+04</pdfrwt>
<pdfrwt beam="2">  1       -2 0.10786655E+00 0.17046597E+04</pdfrwt>
<totfact> 0.19491994E+01</totfact>
</mgrwt>
</event>
<event>
 8    2  0.4306980E-052  0.1905489E+04  0.7818608E-02  0.8652129E-01
          2   -1    0    0  501    0  0.00000000000E+00  0.00000000000E+00  0.14145069611E+04  0.14145069611E+04  0.25500000000E-02 0.  1.
         -2   -1    0    0    0  501 -0.00000000000E+00 -0.00000000000E+00 -0.64172297100E+03  0.64172297101E+03  0.25500000000E-02 0. -1.
    -200001    2    1    2    0    0  0.10682985603E+03  0.27285145259E+03 -0.33409471455E+03  0.75745743467E+03  0.61340195119E+03 0.  0.
   -5000001    2    3    3    0    0  0.28503136752E+03  0.21312612181E+03 -0.85574663773E+01  0.36822948888E+03  0.94096237866E+02 0.  0.
     200001    1    1    2    0    0 -0.10682985603E+03 -0.27285145259E+03  0.11068787046E+04  0.12987724974E+04  0.61300000000E+03 0.  1.
         13    1    4    4    0    0  0.20190873406E+03  0.17613183579E+03 -0.31322007693E+02  0.26976033771E+03  0.10566000000E+00 0.  1.
    -200003    1    4    4    0    0  0.83122633456E+02  0.36994286016E+02  0.22764541315E+02  0.98469151169E+02  0.30000000000E+02 0. -1.
    -200000    1    3    3    0    0 -0.17820151149E+03  0.59725330783E+02 -0.32553724817E+03  0.38922794579E+03  0.10100000000E+03 0. -1.
<mgrwt>
<rscale>  0 0.19054885E+04</rscale>
<asrwt>0</asrwt>
<pdfrwt beam="1">  1        2 0.20207242E+00 0.19054885E+04</pdfrwt>
<pdfrwt beam="2">  1       -2 0.91674710E-01 0.19054885E+04</pdfrwt>
<totfact> 0.15460890E+01</totfact>
</mgrwt>
</event>
<event>
 8    2  0.4306980E-052  0.1404076E+04  0.7818608E-02  0.8950874E-01
         -2   -1    0    0    0  501 -0.00000000000E+00  0.00000000000E+00  0.16435664051E+03  0.16435664053E+03  0.25500000000E-02 0. -1.
          2   -1    0    0  501    0  0.00000000000E+00 -0.00000000000E+00 -0.29987053116E+04  0.29987053117E+04  0.25500000000E-02 0.  1.
    -200001    2    1    2    0    0  0.31514375331E+03 -0.51244753574E+02 -0.16978844986E+04  0.18329260848E+04  0.61226191456E+03 0.  0.
   -5000001    2    3    3    0    0  0.44586954936E+03  0.52218944747E+02 -0.12772534364E+04  0.13693255444E+04  0.20530375683E+03 0.  0.
     200001    1    1    2    0    0 -0.31514375331E+03  0.51244753574E+02 -0.11364641726E+04  0.13301358673E+04  0.61300000000E+03 0. -1.
         13    1    4    4    0    0  0.28346774982E+03  0.37485569849E+02 -0.10485806591E+04  0.10868673070E+04  0.10566000000E+00 0.  1.
    -200003    1    4    4    0    0  0.16240179955E+03  0.14733374899E+02 -0.22867277730E+03  0.28245823746E+03  0.30000000000E+02 0.  1.
    -200000    1    3    3    0    0 -0.13072579605E+03 -0.10346369832E+03 -0.42063106214E+03  0.46360054040E+03  0.10100000000E+03 0.  1.
<mgrwt>
<rscale>  0 0.14040757E+04</rscale>
<asrwt>0</asrwt>
<pdfrwt beam="1">  1        2 0.42838644E+00 0.14040757E+04</pdfrwt>
<pdfrwt beam="2">  1       -2 0.23479522E-01 0.14040757E+04</pdfrwt>
<totfact> 0.37218251E+01</totfact>
</mgrwt>
</event>
<event>
 8    2  0.4306980E-052  0.1444627E+04  0.7818608E-02  0.8922134E-01
          2   -1    0    0  501    0  0.00000000000E+00  0.00000000000E+00  0.15408519329E+04  0.15408519329E+04  0.25500000000E-02 0.  1.
         -2   -1    0    0    0  501 -0.00000000000E+00 -0.00000000000E+00 -0.33860267935E+03  0.33860267936E+03  0.25500000000E-02 0. -1.
    -200001    2    1    2    0    0  0.44982416676E+02 -0.24441914091E+03  0.22857896446E+03  0.70235352650E+03  0.61586362041E+03 0.  0.
   -5000001    2    3    3    0    0  0.15262324527E+03  0.14592268958E+03  0.97992988898E+02  0.26508131194E+03  0.12679980180E+03 0.  0.
     200001    1    1    2    0    0 -0.44982416676E+02  0.24441914091E+03  0.97367028913E+03  0.11771010858E+04  0.61300000000E+03 0.  1.
         13    1    4    4    0    0  0.83267441536E+02  0.80537376384E+02 -0.12013284041E+02  0.11646487012E+03  0.10566000000E+00 0.  1.
    -200003    1    4    4    0    0  0.69355803735E+02  0.65385313195E+02  0.11000627294E+03  0.14861644182E+03  0.30000000000E+02 0.  1.
    -200000    1    3    3    0    0 -0.10764082860E+03 -0.39034183049E+03  0.13058597557E+03  0.43727221456E+03  0.10100000000E+03 0. -1.
<mgrwt>
<rscale>  0 0.14446267E+04</rscale>
<asrwt>0</asrwt>
<pdfrwt beam="1">  1        2 0.22012170E+00 0.14446267E+04</pdfrwt>
<pdfrwt beam="2">  1       -2 0.48371812E-01 0.14446267E+04</pdfrwt>
<totfact> 0.54664014E+01</totfact>
</mgrwt>
</event>
<event>
 8    2  0.4306980E-052  0.1271459E+04  0.7818608E-02  0.9052510E-01
          2   -1    0    0  501    0  0.00000000000E+00  0.00000000000E+00  0.40904003439E+04  0.40904003439E+04  0.25500000000E-02 0.  1.
         -2   -1    0    0    0  501 -0.00000000000E+00 -0.00000000000E+00 -0.98804952864E+02  0.98804952897E+02  0.25500000000E-02 0. -1.
    -200001    2    1    2    0    0  0.46869160487E+02 -0.15848860926E+03  0.21029252720E+04  0.21966794686E+04  0.61301764306E+03 0.  0.
   -5000001    2    3    3    0    0 -0.45231617787E+02 -0.35032841779E+03  0.16156070156E+04  0.16554169181E+04  0.73778347092E+02 0.  0.
     200001    1    1    2    0    0 -0.46869160487E+02  0.15848860926E+03  0.18886701190E+04  0.19925258282E+04  0.61300000000E+03 0.  1.
         13    1    4    4    0    0 -0.26308140488E+02 -0.27596733416E+03  0.11844195260E+04  0.12164290824E+04  0.10566000000E+00 0.  1.
    -200003    1    4    4    0    0 -0.18923477299E+02 -0.74361083630E+02  0.43118748959E+03  0.43898783574E+03  0.30000000000E+02 0.  1.
    -200000    1    3    3    0    0  0.92100778273E+02  0.19183980853E+03  0.48731825637E+03  0.54126255043E+03  0.10100000000E+03 0. -1.
<mgrwt>
<rscale>  0 0.12714587E+04</rscale>
<asrwt>0</asrwt>
<pdfrwt beam="1">  1        2 0.58434293E+00 0.12714587E+04</pdfrwt>
<pdfrwt beam="2">  1       -2 0.14114993E-01 0.12714587E+04</pdfrwt>
<totfact> 0.19425749E+01</totfact>
</mgrwt>
</event>
<event>
 8    2  0.4306980E-052  0.1518653E+04  0.7818608E-02  0.8872142E-01
          2   -1    0    0  501    0  0.00000000000E+00  0.00000000000E+00  0.13594380844E+04  0.13594380844E+04  0.25500000000E-02 0.  1.
         -2   -1    0    0    0  501 -0.00000000000E+00 -0.00000000000E+00 -0.42412898298E+03  0.42412898299E+03  0.25500000000E-02 0. -1.
    -200001    2    1    2    0    0 -0.10229800663E+03 -0.30944699072E+03  0.10346961149E+03  0.70007813840E+03  0.61088551885E+03 0.  0.
   -5000001    2    3    3    0    0  0.87897976276E+02 -0.12326805703E+03 -0.21293808815E+03  0.27445866087E+03  0.84046766898E+02 0.  0.
     200001    1    1    2    0    0  0.10229800663E+03  0.30944699072E+03  0.83183948996E+03  0.10834889290E+04  0.61300000000E+03 0.  1.
         13    1    4    4    0    0  0.56328239868E+02 -0.11377230300E+03 -0.14009377516E+03  0.18905894462E+03  0.10566000000E+00 0.  1.
    -200003    1    4    4    0    0  0.31569736408E+02 -0.94957540223E+01 -0.72844312986E+02  0.85399716251E+02  0.30000000000E+02 0.  1.
    -200000    1    3    3    0    0 -0.19019598291E+03 -0.18617893370E+03  0.31640769964E+03  0.42561947753E+03  0.10100000000E+03 0. -1.
<mgrwt>
<rscale>  0 0.15186535E+04</rscale>
<asrwt>0</asrwt>
<pdfrwt beam="1">  1        2 0.19420544E+00 0.15186535E+04</pdfrwt>
<pdfrwt beam="2">  1       -2 0.60589855E-01 0.15186535E+04</pdfrwt>
<totfact> 0.42681207E+01</totfact>
</mgrwt>
</event>
<event>
 8    2  0.4306980E-052  0.1229469E+04  0.7818608E-02  0.9087446E-01
         -2   -1    0    0    0  501 -0.00000000000E+00  0.00000000000E+00  0.27493760075E+04  0.27493760075E+04  0.25500000000E-02 0.  1.
          2   -1    0    0  501    0  0.00000000000E+00 -0.00000000000E+00 -0.13744884932E+03  0.13744884934E+03  0.25500000000E-02 0. -1.
    -200001    2    1    2    0    0  0.48634119564E+02 -0.33031412800E+01  0.12965285686E+04  0.14347853815E+04  0.61257372911E+03 0.  0.
   -5000001    2    3    3    0    0 -0.95180962311E+02  0.21045166672E+03  0.23261121727E+03  0.33546967341E+03  0.71292382264E+02 0.  0.
     200001    1    1    2    0    0 -0.48634119564E+02  0.33031412800E+01  0.13153985896E+04  0.14520394753E+04  0.61300000000E+03 0.  1.
         13    1    4    4    0    0 -0.41394623661E+02  0.57278903177E+02  0.10608929517E+03  0.12747288861E+03  0.10566000000E+00 0.  1.
    -200003    1    4    4    0    0 -0.53786338650E+02  0.15317276354E+03  0.12652192210E+03  0.20799678480E+03  0.30000000000E+02 0.  1.
    -200000    1    3    3    0    0  0.14381508187E+03 -0.21375480800E+03  0.10639173513E+04  0.10993157081E+04  0.10100000000E+03 0. -1.
<mgrwt>
<rscale>  0 0.12294691E+04</rscale>
<asrwt>0</asrwt>
<pdfrwt beam="1">  1        2 0.19635552E-01 0.12294691E+04</pdfrwt>
<pdfrwt beam="2">  1       -2 0.39276796E+00 0.12294691E+04</pdfrwt>
<totfact> 0.24156077E+00</totfact>
</mgrwt>
</event>
<event>
 8    2  0.4306980E-052  0.1390984E+04  0.7818608E-02  0.8960371E-01
         -2   -1    0    0    0  501 -0.00000000000E+00  0.00000000000E+00  0.37200579202E+03  0.37200579203E+03  0.25500000000E-02 0. -1.
          2   -1    0    0  501    0  0.00000000000E+00 -0.00000000000E+00 -0.13002721853E+04  0.13002721853E+04  0.25500000000E-02 0.  1.
    -200001    2    1    2    0    0  0.18772840870E+03  0.20737162499E+02 -0.78735748817E+03  0.10155464455E+04  0.61296882743E+03 0.  0.
   -5000001    2    3    3    0    0 -0.61506753116E+02 -0.63015445678E+02  0.51224624866E+02  0.13092583438E+03  0.82241016797E+02 0.  0.
     200001    1    1    2    0    0 -0.18772840870E+03 -0.20737162499E+02 -0.14090890506E+03  0.65673153180E+03  0.61300000000E+03 0. -1.
         13    1    4    4    0    0 -0.52328292265E+01 -0.54096732007E+02  0.12437018278E+02  0.55754188212E+02  0.10566000000E+00 0.  1.
    -200003    1    4    4    0    0 -0.56273923890E+02 -0.89187136714E+01  0.38787606588E+02  0.75171646173E+02  0.30000000000E+02 0.  1.
    -200000    1    3    3    0    0  0.24923516182E+03  0.83752608177E+02 -0.83858211304E+03  0.88462061110E+03  0.10100000000E+03 0.  1.
<mgrwt>
<rscale>  0 0.13909835E+04</rscale>
<asrwt>0</asrwt>
<pdfrwt beam="1">  1        2 0.18575317E+00 0.13909835E+04</pdfrwt>
<pdfrwt beam="2">  1       -2 0.53143685E-01 0.13909835E+04</pdfrwt>
<totfact> 0.61074029E+01</totfact>
</mgrwt>
</event>
<event>
 8    2  0.4306980E-052  0.1729829E+04  0.7818608E-02  0.8744532E-01
          2   -1    0    0  501    0  0.00000000000E+00  0.00000000000E+00  0.17849962037E+04  0.17849962037E+04  0.25500000000E-02 0.  1.
         -2   -1    0    0    0  501 -0.00000000000E+00 -0.00000000000E+00 -0.41909180048E+03  0.41909180049E+03  0.25500000000E-02 0. -1.
    -200001    2    1    2    0    0 -0.44508217482E+03  0.36475029088E+03  0.39484105190E+03  0.91961381244E+03  0.59887326767E+03 0.  0.
   -5000001    2    3    3    0    0 -0.69802771521E+02  0.20707548261E+03  0.43405668369E+02  0.37243577514E+03  0.29844877642E+03 0.  0.
     200001    1    1    2    0    0  0.44508217482E+03 -0.36475029088E+03  0.97106335136E+03  0.12844741918E+04  0.61300000000E+03 0.  1.
         13    1    4    4    0    0  0.77930858307E+02 -0.30288387742E+02 -0.15780563672E+02  0.85086088535E+02  0.10566000000E+00 0.  1.
    -200003    1    4    4    0    0 -0.14773362983E+03  0.23736387035E+03  0.59186232041E+02  0.28734968661E+03  0.30000000000E+02 0.  1.
    -200000    1    3    3    0    0 -0.37527940330E+03  0.15767480827E+03  0.35143538353E+03  0.54717803730E+03  0.10100000000E+03 0. -1.
<mgrwt>
<rscale>  0 0.17298292E+04</rscale>
<asrwt>0</asrwt>
<pdfrwt beam="1">  1        2 0.25499946E+00 0.17298292E+04</pdfrwt>
<pdfrwt beam="2">  1       -2 0.59870257E-01 0.17298292E+04</pdfrwt>
<totfact> 0.25655176E+01</totfact>
</mgrwt>
</event>
<event>
 8    2  0.4306980E-052  0.1998396E+04  0.7818608E-02  0.8607371E-01
          2   -1    0    0  501    0  0.00000000000E+00  0.00000000000E+00  0.66618685028E+03  0.66618685028E+03  0.25500000000E-02 0. -1.
         -2   -1    0    0    0  501 -0.00000000000E+00 -0.00000000000E+00 -0.14986733311E+04  0.14986733311E+04  0.25500000000E-02 0.  1.
    -200001    2    1    2    0    0 -0.29152675078E+03 -0.72875601278E+03 -0.50983668968E+03  0.11179862347E+04  0.61146267117E+03 0.  0.
   -5000001    2    3    3    0    0 -0.49953011776E+02 -0.62700400283E+03 -0.54266828228E+03  0.83516074719E+03  0.85879485907E+02 0.  0.
     200001    1    1    2    0    0  0.29152675078E+03  0.72875601278E+03 -0.32264979117E+03  0.10468739467E+04  0.61300000000E+03 0. -1.
         13    1    4    4    0    0 -0.11969503089E+02 -0.34241090236E+03 -0.25046520545E+03  0.42440702794E+03  0.10566000000E+00 0.  1.
    -200003    1    4    4    0    0 -0.37983508686E+02 -0.28459310047E+03 -0.29220307683E+03  0.41075371925E+03  0.30000000000E+02 0. -1.
    -200000    1    3    3    0    0 -0.24157373901E+03 -0.10175200995E+03  0.32831592608E+02  0.28282548750E+03  0.10100000000E+03 0. -1.
<mgrwt>
<rscale>  0 0.19983958E+04</rscale>
<asrwt>0</asrwt>
<pdfrwt beam="1">  1        2 0.95169551E-01 0.19983958E+04</pdfrwt>
<pdfrwt beam="2">  1       -2 0.21409619E+00 0.19983958E+04</pdfrwt>
<totfact> 0.48044461E+00</totfact>
</mgrwt>
</event>
<event>
 8    2  0.4306980E-052  0.1379293E+04  0.7818608E-02  0.8968945E-01
          2   -1    0    0  501    0  0.00000000000E+00  0.00000000000E+00  0.11742838711E+04  0.11742838711E+04  0.25500000000E-02 0.  1.
         -2   -1    0    0    0  501 -0.00000000000E+00 -0.00000000000E+00 -0.40502338904E+03  0.40502338905E+03  0.25500000000E-02 0. -1.
    -200001    2    1    2    0    0 -0.15345945819E+03  0.26244934510E+03  0.29261723565E+03  0.74540843632E+03  0.61447491917E+03 0.  0.
   -5000001    2    3    3    0    0  0.65041714823E+02 -0.36393185143E+02  0.34198205652E+03  0.35851374002E+03  0.77624005376E+02 0.  0.
     200001    1    1    2    0    0  0.15345945819E+03 -0.26244934510E+03  0.47664324641E+03  0.83389882384E+03  0.61300000000E+03 0.  1.
         13    1    4    4    0    0  0.22473409801E+02 -0.44152126168E+02  0.22243339793E+03  0.22788394431E+03  0.10566000000E+00 0.  1.
    -200003    1    4    4    0    0  0.42568305021E+02  0.77589410246E+01  0.11954865858E+03  0.13062979571E+03  0.30000000000E+02 0.  1.
    -200000    1    3    3    0    0 -0.21850117301E+03  0.29884253024E+03 -0.49364820869E+02  0.38689469630E+03  0.10100000000E+03 0.  1.
<mgrwt>
<rscale>  0 0.13792932E+04</rscale>
<asrwt>0</asrwt>
<pdfrwt beam="1">  1        2 0.16775484E+00 0.13792932E+04</pdfrwt>
<pdfrwt beam="2">  1       -2 0.57860483E-01 0.13792932E+04</pdfrwt>
<totfact> 0.60323445E+01</totfact>
</mgrwt>
</event>
<event>
 8    2  0.4306980E-052  0.2232227E+04  0.7818608E-02  0.8505133E-01
          2   -1    0    0  501    0  0.00000000000E+00  0.00000000000E+00  0.18390346820E+04  0.18390346820E+04  0.25500000000E-02 0.  1.
         -2   -1    0    0    0  501 -0.00000000000E+00 -0.00000000000E+00 -0.67737113437E+03  0.67737113437E+03  0.25500000000E-02 0. -1.
    -200001    2    1    2    0    0  0.52418495966E+03  0.65632386110E+03  0.12313415685E+03  0.10467653236E+04  0.61239263506E+03 0.  0.
   -5000001    2    3    3    0    0  0.36764944562E+03  0.57086967687E+02  0.16669987762E+03  0.41772860477E+03  0.91012643608E+02 0.  0.
     200001    1    1    2    0    0 -0.52418495966E+03 -0.65632386110E+03  0.10385293908E+04  0.14696404928E+04  0.61300000000E+03 0.  1.
         13    1    4    4    0    0  0.87868980818E+02 -0.10622201643E+02  0.69136201477E+02  0.11231034893E+03  0.10566000000E+00 0.  1.
    -200003    1    4    4    0    0  0.27978046480E+03  0.67709169330E+02  0.97563676143E+02  0.30541825584E+03  0.30000000000E+02 0.  1.
    -200000    1    3    3    0    0  0.15653551404E+03  0.59923689341E+03 -0.43565720774E+02  0.62903671881E+03  0.10100000000E+03 0.  1.
<mgrwt>
<rscale>  0 0.22322267E+04</rscale>
<asrwt>0</asrwt>
<pdfrwt beam="1">  1        2 0.26271924E+00 0.22322267E+04</pdfrwt>
<pdfrwt beam="2">  1       -2 0.96767305E-01 0.22322267E+04</pdfrwt>
<totfact> 0.79442672E+00</totfact>
</mgrwt>
</event>
<event>
 8    2  0.4306980E-052  0.1874872E+04  0.7818608E-02  0.8667466E-01
         -2   -1    0    0    0  501 -0.00000000000E+00  0.00000000000E+00  0.87084986440E+03  0.87084986441E+03  0.25500000000E-02 0. -1.
          2   -1    0    0  501    0  0.00000000000E+00 -0.00000000000E+00 -0.10091138408E+04  0.10091138408E+04  0.25500000000E-02 0.  1.
    -200001    2    1    2    0    0 -0.64126268965E+03 -0.30168602390E+03 -0.97623159291E+02  0.94206553904E+03  0.61296403195E+03 0.  0.
   -5000001    2    3    3    0    0 -0.67381977851E+03 -0.11805300192E+03  0.38994681068E+02  0.68978298891E+03  0.79437909521E+02 0.  0.
     200001    1    1    2    0    0  0.64126268965E+03  0.30168602390E+03 -0.40640817147E+02  0.93789816621E+03  0.61300000000E+03 0. -1.
         13    1    4    4    0    0 -0.88112025141E+02  0.87851831787E+01  0.88814182577E+01  0.88993253521E+02  0.10566000000E+00 0.  1.
    -200003    1    4    4    0    0 -0.58570775337E+03 -0.12683818510E+03  0.30113262810E+02  0.60078973539E+03  0.30000000000E+02 0.  1.
    -200000    1    3    3    0    0  0.32557088856E+02 -0.18363302198E+03 -0.13661784036E+03  0.25228255013E+03  0.10100000000E+03 0.  1.
<mgrwt>
<rscale>  0 0.18748724E+04</rscale>
<asrwt>0</asrwt>
<pdfrwt beam="1">  1        2 0.14415912E+00 0.18748724E+04</pdfrwt>
<pdfrwt beam="2">  1       -2 0.12440712E+00 0.18748724E+04</pdfrwt>
<totfact> 0.12668370E+01</totfact>
</mgrwt>
</event>
<event>
 8    2  0.4306980E-052  0.1461220E+04  0.7818608E-02  0.8910659E-01
         -2   -1    0    0    0  501 -0.00000000000E+00  0.00000000000E+00  0.10144878354E+04  0.10144878355E+04  0.25500000000E-02 0. -1.
          2   -1    0    0  501    0  0.00000000000E+00 -0.00000000000E+00 -0.52616769501E+03  0.52616769501E+03  0.25500000000E-02 0.  1.
    -200001    2    1    2    0    0  0.32012502662E+03  0.22443006224E+03  0.31303209762E+03  0.79276263475E+03  0.61451982507E+03 0.  0.
   -5000001    2    3    3    0    0 -0.28664825708E+02 -0.63476711759E+02  0.30276952410E+03  0.32924241726E+03  0.10899641935E+03 0.  0.
     200001    1    1    2    0    0 -0.32012502662E+03 -0.22443006224E+03  0.17528804282E+03  0.74789289572E+03  0.61300000000E+03 0.  1.
         13    1    4    4    0    0  0.33802427460E+01  0.27310159652E+02  0.49494426536E+02  0.56630206457E+02  0.10566000000E+00 0.  1.
    -200003    1    4    4    0    0 -0.32045068454E+02 -0.90786871411E+02  0.25327509757E+03  0.27261221081E+03  0.30000000000E+02 0.  1.
    -200000    1    3    3    0    0  0.34878985233E+03  0.28790677400E+03  0.10262573519E+02  0.46352021749E+03  0.10100000000E+03 0.  1.
<mgrwt>
<rscale>  0 0.14612197E+04</rscale>
<asrwt>0</asrwt>
<pdfrwt beam="1">  1        2 0.75166814E-01 0.14612197E+04</pdfrwt>
<pdfrwt beam="2">  1       -2 0.14492683E+00 0.14612197E+04</pdfrwt>
<totfact> 0.20150294E+01</totfact>
</mgrwt>
</event>
<event>
 8    2  0.4306980E-052  0.1473588E+04  0.7818608E-02  0.8902209E-01
         -2   -1    0    0    0  501 -0.00000000000E+00  0.00000000000E+00  0.27329735292E+03  0.27329735294E+03  0.25500000000E-02 0. -1.
          2   -1    0    0  501    0  0.00000000000E+00 -0.00000000000E+00 -0.19863538044E+04  0.19863538044E+04  0.25500000000E-02 0.  1.
    -200001    2    1    2    0    0 -0.33517271180E+03 -0.22442342734E+03 -0.95895374108E+03  0.12074408555E+04  0.61287398422E+03 0.  0.
   -5000001    2    3    3    0    0 -0.35725176287E+03 -0.19197151847E+03 -0.10073944563E+04  0.10887474952E+04  0.77753661203E+02 0.  0.
     200001    1    1    2    0    0  0.33517271180E+03  0.22442342734E+03 -0.75410271043E+03  0.10522103019E+04  0.61300000000E+03 0. -1.
         13    1    4    4    0    0 -0.14222652114E+03 -0.11384224794E+03 -0.45148464928E+03  0.48685402374E+03  0.10566000000E+00 0.  1.
    -200003    1    4    4    0    0 -0.21502524174E+03 -0.78129270535E+02 -0.55590980700E+03  0.60189347149E+03  0.30000000000E+02 0.  1.
    -200000    1    3    3    0    0  0.22079051072E+02 -0.32451908868E+02  0.48440715202E+02  0.11869336028E+03  0.10100000000E+03 0. -1.
<mgrwt>
<rscale>  0 0.14735878E+04</rscale>
<asrwt>0</asrwt>
<pdfrwt beam="1">  1        2 0.28376482E+00 0.14735878E+04</pdfrwt>
<pdfrwt beam="2">  1       -2 0.39042480E-01 0.14735878E+04</pdfrwt>
<totfact> 0.49015267E+01</totfact>
</mgrwt>
</event>
<event>
 8    2  0.4306980E-052  0.1884659E+04  0.7818608E-02  0.8662530E-01
         -2   -1    0    0    0  501 -0.00000000000E+00  0.00000000000E+00  0.32351528083E+03  0.32351528084E+03  0.25500000000E-02 0. -1.
          2   -1    0    0  501    0  0.00000000000E+00 -0.00000000000E+00 -0.27448010531E+04  0.27448010531E+04  0.25500000000E-02 0.  1.
    -200001    2    1    2    0    0 -0.66792525136E+03  0.81294377898E+02 -0.82707365728E+03  0.12325564954E+04  0.61839450392E+03 0.  0.
   -5000001    2    3    3    0    0 -0.27944180408E+03 -0.24086726104E+03 -0.48540727103E+03  0.61478272620E+03  0.78948225767E+02 0.  0.
     200001    1    1    2    0    0  0.66792525136E+03 -0.81294377898E+02 -0.15942121150E+04  0.18357598385E+04  0.61300000000E+03 0. -1.
         13    1    4    4    0    0 -0.18878742931E+03 -0.17531454358E+03 -0.37342254365E+03  0.45367421122E+03  0.10566000000E+00 0.  1.
    -200003    1    4    4    0    0 -0.90654374770E+02 -0.65552717457E+02 -0.11198472738E+03  0.16110851498E+03  0.30000000000E+02 0. -1.
    -200000    1    3    3    0    0 -0.38848344728E+03  0.32216163893E+03 -0.34166638624E+03  0.61777376919E+03  0.10100000000E+03 0.  1.
<mgrwt>
<rscale>  0 0.18846592E+04</rscale>
<asrwt>0</asrwt>
<pdfrwt beam="1">  1        2 0.39211442E+00 0.18846592E+04</pdfrwt>
<pdfrwt beam="2">  1       -2 0.46216470E-01 0.18846592E+04</pdfrwt>
<totfact> 0.13626023E+01</totfact>
</mgrwt>
</event>
<event>
 8    2  0.4306980E-052  0.1589429E+04  0.7818608E-02  0.8827068E-01
          2   -1    0    0  501    0  0.00000000000E+00  0.00000000000E+00  0.19689328291E+04  0.19689328291E+04  0.25500000000E-02 0.  1.
         -2   -1    0    0    0  501 -0.00000000000E+00 -0.00000000000E+00 -0.32076838788E+03  0.32076838789E+03  0.25500000000E-02 0. -1.
    -200001    2    1    2    0    0  0.15196304609E+03 -0.21961428060E+03  0.20604447509E+03  0.70010938374E+03  0.61349459970E+03 0.  0.
   -5000001    2    3    3    0    0  0.25328655701E+03 -0.36150336534E+03  0.21538101191E+03  0.49839885562E+03  0.84697555282E+02 0.  0.
     200001    1    1    2    0    0 -0.15196304609E+03  0.21961428060E+03  0.14421199661E+04  0.15895918332E+04  0.61300000000E+03 0.  1.
         13    1    4    4    0    0  0.11053948405E+03 -0.99585481623E+02  0.86252384145E+02  0.17197595942E+03  0.10566000000E+00 0.  1.
    -200003    1    4    4    0    0  0.14274707296E+03 -0.26191788372E+03  0.12912862776E+03  0.32642289619E+03  0.30000000000E+02 0.  1.
    -200000    1    3    3    0    0 -0.10132351093E+03  0.14188908474E+03 -0.93365368174E+01  0.20171052812E+03  0.10100000000E+03 0. -1.
<mgrwt>
<rscale>  0 0.15894293E+04</rscale>
<asrwt>0</asrwt>
<pdfrwt beam="1">  1        2 0.28127611E+00 0.15894293E+04</pdfrwt>
<pdfrwt beam="2">  1       -2 0.45824057E-01 0.15894293E+04</pdfrwt>
<totfact> 0.36140882E+01</totfact>
</mgrwt>
</event>
<event>
 8    2  0.4306980E-052  0.1912197E+04  0.7818608E-02  0.8648809E-01
          2   -1    0    0  501    0  0.00000000000E+00  0.00000000000E+00  0.11432121756E+04  0.11432121756E+04  0.25500000000E-02 0.  1.
         -2   -1    0    0    0  501 -0.00000000000E+00 -0.00000000000E+00 -0.79961017844E+03  0.79961017845E+03  0.25500000000E-02 0. -1.
    -200001    2    1    2    0    0 -0.56452707809E+03 -0.34046367612E+03  0.49883272662E+03  0.10293280103E+04  0.61325013419E+03 0.  0.
   -5000001    2    3    3    0    0 -0.29155773568E+03  0.66004245095E+02  0.36066001967E+03  0.51065554161E+03  0.20330016917E+03 0.  0.
     200001    1    1    2    0    0  0.56452707809E+03  0.34046367612E+03 -0.15523072944E+03  0.91349434373E+03  0.61300000000E+03 0.  1.
         13    1    4    4    0    0 -0.11879878520E+03 -0.45404875991E+02  0.23679518923E+03  0.26878751261E+03  0.10566000000E+00 0.  1.
    -200003    1    4    4    0    0 -0.17275895048E+03  0.11140912109E+03  0.12386483044E+03  0.24186802900E+03  0.30000000000E+02 0.  1.
    -200000    1    3    3    0    0 -0.27296934241E+03 -0.40646792122E+03  0.13817270695E+03  0.51867246873E+03  0.10100000000E+03 0. -1.
<mgrwt>
<rscale>  0 0.19121967E+04</rscale>
<asrwt>0</asrwt>
<pdfrwt beam="1">  1        2 0.16331603E+00 0.19121967E+04</pdfrwt>
<pdfrwt beam="2">  1       -2 0.11423003E+00 0.19121967E+04</pdfrwt>
<totfact> 0.12973079E+01</totfact>
</mgrwt>
</event>
<event>
 8    2  0.4306980E-052  0.1482791E+04  0.7818608E-02  0.8895978E-01
         -2   -1    0    0    0  501 -0.00000000000E+00  0.00000000000E+00  0.48846126320E+03  0.48846126321E+03  0.25500000000E-02 0. -1.
          2   -1    0    0  501    0  0.00000000000E+00 -0.00000000000E+00 -0.11253036636E+04  0.11253036636E+04  0.25500000000E-02 0.  1.
    -200001    2    1    2    0    0 -0.34658034555E+02 -0.39446609172E+03 -0.18088317944E+03  0.75325781584E+03  0.61471451556E+03 0.  0.
   -5000001    2    3    3    0    0 -0.14542252704E+03 -0.49866567254E+03 -0.21888870554E+03  0.56678598029E+03  0.59320466173E+02 0.  0.
     200001    1    1    2    0    0  0.34658034555E+02  0.39446609172E+03 -0.45595922101E+03  0.86050711101E+03  0.61300000000E+03 0.  1.
         13    1    4    4    0    0 -0.39934740838E+02 -0.17112826019E+03 -0.95489260181E+02  0.19999468727E+03  0.10566000000E+00 0.  1.
    -200003    1    4    4    0    0 -0.10548778620E+03 -0.32753741235E+03 -0.12339944536E+03  0.36679129303E+03  0.30000000000E+02 0.  1.
    -200000    1    3    3    0    0  0.11076449248E+03  0.10419958081E+03  0.38005526110E+02  0.18647183554E+03  0.10100000000E+03 0.  1.
<mgrwt>
<rscale>  0 0.14827909E+04</rscale>
<asrwt>0</asrwt>
<pdfrwt beam="1">  1        2 0.16075767E+00 0.14827909E+04</pdfrwt>
<pdfrwt beam="2">  1       -2 0.69780181E-01 0.14827909E+04</pdfrwt>
<totfact> 0.42824665E+01</totfact>
</mgrwt>
</event>
<event>
 8    2  0.4306980E-052  0.3309691E+04  0.7818608E-02  0.8160434E-01
         -2   -1    0    0    0  501 -0.00000000000E+00  0.00000000000E+00  0.12016599971E+04  0.12016599971E+04  0.25500000000E-02 0. -1.
          2   -1    0    0  501    0  0.00000000000E+00 -0.00000000000E+00 -0.22789421049E+04  0.22789421049E+04  0.25500000000E-02 0.  1.
    -200001    2    1    2    0    0 -0.32704508062E+03  0.14885569289E+04 -0.74785123245E+03  0.18051756139E+04  0.61369154764E+03 0.  0.
   -5000001    2    3    3    0    0 -0.25357894137E+03  0.91489513541E+03 -0.75600940408E+03  0.12180191758E+04  0.10336878329E+03 0.  0.
     200001    1    1    2    0    0  0.32704508062E+03 -0.14885569289E+04 -0.32943087539E+03  0.16754264881E+04  0.61300000000E+03 0.  1.
         13    1    4    4    0    0 -0.46136674869E+02  0.33867439802E+03 -0.26544661599E+03  0.43277113784E+03  0.10566000000E+00 0.  1.
    -200003    1    4    4    0    0 -0.20744226650E+03  0.57622073739E+03 -0.49056278809E+03  0.78524803801E+03  0.30000000000E+02 0.  1.
    -200000    1    3    3    0    0 -0.73466139249E+02  0.57366179353E+03  0.81581716310E+01  0.58715643805E+03  0.10100000000E+03 0.  1.
<mgrwt>
<rscale>  0 0.33096910E+04</rscale>
<asrwt>0</asrwt>
<pdfrwt beam="1">  1        2 0.32556316E+00 0.33096910E+04</pdfrwt>
<pdfrwt beam="2">  1       -2 0.17166572E+00 0.33096910E+04</pdfrwt>
<totfact> 0.10052659E+00</totfact>
</mgrwt>
</event>
<event>
 8    2  0.4306980E-052  0.1696425E+04  0.7818608E-02  0.8763406E-01
          2   -1    0    0  501    0  0.00000000000E+00  0.00000000000E+00  0.33998335990E+04  0.33998335990E+04  0.25500000000E-02 0.  1.
         -2   -1    0    0    0  501 -0.00000000000E+00 -0.00000000000E+00 -0.21161759565E+03  0.21161759567E+03  0.25500000000E-02 0. -1.
    -200001    2    1    2    0    0 -0.13466560173E+01 -0.50846794070E+03  0.97292594426E+03  0.12573440378E+04  0.61301523319E+03 0.  0.
   -5000001    2    3    3    0    0  0.79211614876E+02 -0.61712918827E+03  0.75597894357E+03  0.98245514596E+03  0.81185194256E+02 0.  0.
     200001    1    1    2    0    0  0.13466560173E+01  0.50846794070E+03  0.22152900591E+04  0.23541071569E+04  0.61300000000E+03 0.  1.
         13    1    4    4    0    0  0.17680068952E+01 -0.27128692862E+03  0.30778797586E+03  0.41028425846E+03  0.10566000000E+00 0.  1.
    -200003    1    4    4    0    0  0.77443607981E+02 -0.34584225965E+03  0.44819096770E+03  0.57217088750E+03  0.30000000000E+02 0.  1.
    -200000    1    3    3    0    0 -0.80558270894E+02  0.10866124757E+03  0.21694700069E+03  0.27488889181E+03  0.10100000000E+03 0.  1.
<mgrwt>
<rscale>  0 0.16964252E+04</rscale>
<asrwt>0</asrwt>
<pdfrwt beam="1">  1        2 0.48569047E+00 0.16964252E+04</pdfrwt>
<pdfrwt beam="2">  1       -2 0.30231088E-01 0.16964252E+04</pdfrwt>
<totfact> 0.13413413E+01</totfact>
</mgrwt>
</event>
<event>
 8    2  0.4306980E-052  0.1363948E+04  0.7818608E-02  0.8980336E-01
         -2   -1    0    0    0  501 -0.00000000000E+00  0.00000000000E+00  0.20124947273E+03  0.20124947275E+03  0.25500000000E-02 0. -1.
          2   -1    0    0  501    0  0.00000000000E+00 -0.00000000000E+00 -0.23110051708E+04  0.23110051708E+04  0.25500000000E-02 0.  1.
    -200001    2    1    2    0    0 -0.29677718777E+03 -0.35364805275E+02 -0.10626277186E+04  0.12626253489E+04  0.61295818351E+03 0.  0.
   -5000001    2    3    3    0    0 -0.32363894296E+03 -0.24838432848E+03 -0.47892143347E+03  0.63253575332E+03  0.65565232902E+02 0.  0.
     200001    1    1    2    0    0  0.29677718777E+03  0.35364805275E+02 -0.10471279795E+04  0.12496292946E+04  0.61300000000E+03 0. -1.
         13    1    4    4    0    0 -0.14855613890E+03 -0.14382899511E+03 -0.25201670804E+03  0.32598794232E+03  0.10566000000E+00 0.  1.
    -200003    1    4    4    0    0 -0.17508280406E+03 -0.10455533336E+03 -0.22690472542E+03  0.30654781100E+03  0.30000000000E+02 0.  1.
    -200000    1    3    3    0    0  0.26861755196E+02  0.21301952320E+03 -0.58370628509E+03  0.63008959554E+03  0.10100000000E+03 0.  1.
<mgrwt>
<rscale>  0 0.13639481E+04</rscale>
<asrwt>0</asrwt>
<pdfrwt beam="1">  1        2 0.33014358E+00 0.13639481E+04</pdfrwt>
<pdfrwt beam="2">  1       -2 0.28749926E-01 0.13639481E+04</pdfrwt>
<totfact> 0.60119067E+01</totfact>
</mgrwt>
</event>
<event>
 8    2  0.4306980E-052  0.1365326E+04  0.7818608E-02  0.8979307E-01
         -2   -1    0    0    0  501 -0.00000000000E+00  0.00000000000E+00  0.14898729649E+04  0.14898729649E+04  0.25500000000E-02 0. -1.
          2   -1    0    0  501    0  0.00000000000E+00 -0.00000000000E+00 -0.31279776057E+03  0.31279776058E+03  0.25500000000E-02 0.  1.
    -200001    2    1    2    0    0 -0.24461329539E+03  0.40317786771E+02  0.36328986481E+03  0.75411134851E+03  0.61257098517E+03 0.  0.
   -5000001    2    3    3    0    0  0.91570877183E+01  0.17443323143E+03  0.40177977186E+03  0.44740492082E+03  0.90737939245E+02 0.  0.
     200001    1    1    2    0    0  0.24461329539E+03 -0.40317786771E+02  0.81378533948E+03  0.10485593769E+04  0.61300000000E+03 0.  1.
         13    1    4    4    0    0  0.87132186032E+01  0.13581475575E+03  0.21602199596E+03  0.25531760996E+03  0.10566000000E+00 0.  1.
    -200003    1    4    4    0    0  0.44386911515E+00  0.38618475679E+02  0.18575777591E+03  0.19208731086E+03  0.30000000000E+02 0.  1.
    -200000    1    3    3    0    0 -0.25377038311E+03 -0.13411544466E+03 -0.38489907057E+02  0.30670642768E+03  0.10100000000E+03 0.  1.
<mgrwt>
<rscale>  0 0.13653262E+04</rscale>
<asrwt>0</asrwt>
<pdfrwt beam="1">  1        2 0.44685395E-01 0.13653262E+04</pdfrwt>
<pdfrwt beam="2">  1       -2 0.21283899E+00 0.13653262E+04</pdfrwt>
<totfact> 0.12208669E+01</totfact>
</mgrwt>
</event>
<event>
 8    2  0.4306980E-052  0.1410551E+04  0.7818608E-02  0.8946216E-01
          2   -1    0    0  501    0  0.00000000000E+00  0.00000000000E+00  0.82707121260E+03  0.82707121261E+03  0.25500000000E-02 0.  1.
         -2   -1    0    0    0  501 -0.00000000000E+00 -0.00000000000E+00 -0.60141583348E+03  0.60141583348E+03  0.25500000000E-02 0. -1.
    -200001    2    1    2    0    0  0.79569824453E+02 -0.30955000089E+03 -0.24412763832E+02  0.69333016750E+03  0.61478303336E+03 0.  0.
   -5000001    2    3    3    0    0  0.57559479464E+02  0.17397823273E+03 -0.18168365531E+02  0.19883648654E+03  0.74995598083E+02 0.  0.
     200001    1    1    2    0    0 -0.79569824453E+02  0.30955000089E+03  0.25006814296E+03  0.73515687859E+03  0.61300000000E+03 0. -1.
         13    1    4    4    0    0  0.27413997913E+02  0.14168388259E+03 -0.84546478941E+01  0.14455913012E+03  0.10566000000E+00 0.  1.
    -200003    1    4    4    0    0  0.30145481552E+02  0.32294350148E+02 -0.97137176372E+01  0.54277356418E+02  0.30000000000E+02 0. -1.
    -200000    1    3    3    0    0  0.22010344989E+02 -0.48352823363E+03 -0.62443983004E+01  0.49449368096E+03  0.10100000000E+03 0.  1.
<mgrwt>
<rscale>  0 0.14105513E+04</rscale>
<asrwt>0</asrwt>
<pdfrwt beam="1">  1        2 0.11815303E+00 0.14105513E+04</pdfrwt>
<pdfrwt beam="2">  1       -2 0.85916548E-01 0.14105513E+04</pdfrwt>
<totfact> 0.41701071E+01</totfact>
</mgrwt>
</event>
<event>
 8    2  0.4306980E-052  0.1562084E+04  0.7818608E-02  0.8844186E-01
         -2   -1    0    0    0  501 -0.00000000000E+00  0.00000000000E+00  0.34294806233E+03  0.34294806234E+03  0.25500000000E-02 0. -1.
          2   -1    0    0  501    0  0.00000000000E+00 -0.00000000000E+00 -0.17787720264E+04  0.17787720264E+04  0.25500000000E-02 0.  1.
    -200001    2    1    2    0    0 -0.44664851463E+03  0.14786445164E+03 -0.56350446055E+03  0.95635786698E+03  0.61296353969E+03 0.  0.
   -5000001    2    3    3    0    0 -0.24108546530E+03  0.27994934113E+03 -0.56699916708E+03  0.69194191010E+03  0.14422800111E+03 0.  0.
     200001    1    1    2    0    0  0.44664851463E+03 -0.14786445164E+03 -0.87231950347E+03  0.11653622217E+04  0.61300000000E+03 0. -1.
         13    1    4    4    0    0 -0.10754497516E+03  0.93825995447E+02 -0.33685284504E+03  0.36584025131E+03  0.10566000000E+00 0.  1.
    -200003    1    4    4    0    0 -0.13354049014E+03  0.18612334568E+03 -0.23014632204E+03  0.32610165879E+03  0.30000000000E+02 0.  1.
    -200000    1    3    3    0    0 -0.20556304932E+03 -0.13208488949E+03  0.34947065243E+01  0.26441595688E+03  0.10100000000E+03 0. -1.
<mgrwt>
<rscale>  0 0.15620838E+04</rscale>
<asrwt>0</asrwt>
<pdfrwt beam="1">  1        2 0.25411028E+00 0.15620838E+04</pdfrwt>
<pdfrwt beam="2">  1       -2 0.48992581E-01 0.15620838E+04</pdfrwt>
<totfact> 0.39660555E+01</totfact>
</mgrwt>
</event>
<event>
 8    2  0.4306980E-052  0.1345025E+04  0.7818608E-02  0.8994603E-01
          2   -1    0    0  501    0  0.00000000000E+00  0.00000000000E+00  0.11647201946E+04  0.11647201946E+04  0.25500000000E-02 0.  1.
         -2   -1    0    0    0  501 -0.00000000000E+00 -0.00000000000E+00 -0.38831051436E+03  0.38831051437E+03  0.25500000000E-02 0. -1.
    -200001    2    1    2    0    0  0.25881694104E+03 -0.96363615517E+02  0.41493878905E+03  0.78968127356E+03  0.61249502837E+03 0.  0.
   -5000001    2    3    3    0    0  0.52960321659E+02 -0.21461065177E+03  0.46438665355E+03  0.52699248311E+03  0.11490685676E+03 0.  0.
     200001    1    1    2    0    0 -0.25881694104E+03  0.96363615517E+02  0.36147089117E+03  0.76334943540E+03  0.61300000000E+03 0. -1.
         13    1    4    4    0    0  0.19130817959E+02 -0.19115785477E+03  0.40823892905E+03  0.45118327539E+03  0.10566000000E+00 0.  1.
    -200003    1    4    4    0    0  0.33829503700E+02 -0.23452797002E+02  0.56147724499E+02  0.75809207713E+02  0.30000000000E+02 0.  1.
    -200000    1    3    3    0    0  0.20585661938E+03  0.11824703626E+03 -0.49447864495E+02  0.26268879045E+03  0.10100000000E+03 0. -1.
<mgrwt>
<rscale>  0 0.13450251E+04</rscale>
<asrwt>0</asrwt>
<pdfrwt beam="1">  1        2 0.16638860E+00 0.13450251E+04</pdfrwt>
<pdfrwt beam="2">  1       -2 0.55472930E-01 0.13450251E+04</pdfrwt>
<totfact> 0.66877220E+01</totfact>
</mgrwt>
</event>
<event>
 8    2  0.4306980E-052  0.1372920E+04  0.7818608E-02  0.8973657E-01
          2   -1    0    0  501    0  0.00000000000E+00  0.00000000000E+00  0.53351856928E+03  0.53351856928E+03  0.25500000000E-02 0.  1.
         -2   -1    0    0    0  501 -0.00000000000E+00 -0.00000000000E+00 -0.88324492098E+03  0.88324492098E+03  0.25500000000E-02 0. -1.
    -200001    2    1    2    0    0  0.13692254722E+03  0.14541650038E+03  0.76261180152E+02  0.64402283531E+03  0.60749971382E+03 0.  0.
   -5000001    2    3    3    0    0  0.13582403992E+03  0.67718447594E+02  0.29360181188E+03  0.39207811058E+03  0.21092478018E+03 0.  0.
     200001    1    1    2    0    0 -0.13692254722E+03 -0.14541650038E+03 -0.42598753185E+03  0.77274065495E+03  0.61300000000E+03 0. -1.
         13    1    4    4    0    0  0.56690616986E+02  0.12170346586E+03  0.24759915180E+03  0.28165743518E+03  0.10566000000E+00 0.  1.
    -200003    1    4    4    0    0  0.79133422930E+02 -0.53985018262E+02  0.46002660079E+02  0.11042067540E+03  0.30000000000E+02 0.  1.
    -200000    1    3    3    0    0  0.10985073047E+01  0.77698052789E+02 -0.21734063172E+03  0.25194472474E+03  0.10100000000E+03 0. -1.
<mgrwt>
<rscale>  0 0.13729203E+04</rscale>
<asrwt>0</asrwt>
<pdfrwt beam="1">  1        2 0.76216939E-01 0.13729203E+04</pdfrwt>
<pdfrwt beam="2">  1       -2 0.12617785E+00 0.13729203E+04</pdfrwt>
<totfact> 0.28483709E+01</totfact>
</mgrwt>
</event>
<event>
 8    2  0.4306980E-052  0.1587177E+04  0.7818608E-02  0.8828464E-01
          2   -1    0    0  501    0  0.00000000000E+00  0.00000000000E+00  0.19127377230E+04  0.19127377230E+04  0.25500000000E-02 0.  1.
         -2   -1    0    0    0  501 -0.00000000000E+00 -0.00000000000E+00 -0.32925739046E+03  0.32925739047E+03  0.25500000000E-02 0. -1.
    -200001    2    1    2    0    0  0.19396706570E+03  0.64162277158E+02  0.14082807900E+03  0.66125017990E+03  0.61292677556E+03 0.  0.
   -5000001    2    3    3    0    0 -0.11895122220E+03  0.17225506567E+03 -0.96348069797E+02  0.24166058114E+03  0.72771457377E+02 0.  0.
     200001    1    1    2    0    0 -0.19396706570E+03 -0.64162277158E+02  0.14426522535E+04  0.15807449336E+04  0.61300000000E+03 0.  1.
         13    1    4    4    0    0 -0.85260269373E+02  0.92788676666E+02 -0.78772498762E+02  0.14860743513E+03  0.10566000000E+00 0.  1.
    -200003    1    4    4    0    0 -0.33690952825E+02  0.79466389009E+02 -0.17575571035E+02  0.93053146006E+02  0.30000000000E+02 0.  1.
    -200000    1    3    3    0    0  0.31291828789E+03 -0.10809278852E+03  0.23717614880E+03  0.41958959876E+03  0.10100000000E+03 0. -1.
<mgrwt>
<rscale>  0 0.15871774E+04</rscale>
<asrwt>0</asrwt>
<pdfrwt beam="1">  1        2 0.27324824E+00 0.15871774E+04</pdfrwt>
<pdfrwt beam="2">  1       -2 0.47036771E-01 0.15871774E+04</pdfrwt>
<totfact> 0.36659982E+01</totfact>
</mgrwt>
</event>
<event>
 8    2  0.4306980E-052  0.1243264E+04  0.7818608E-02  0.9075809E-01
          2   -1    0    0  501    0  0.00000000000E+00  0.00000000000E+00  0.12626966517E+04  0.12626966517E+04  0.25500000000E-02 0. -1.
         -2   -1    0    0    0  501 -0.00000000000E+00 -0.00000000000E+00 -0.30603239689E+03  0.30603239690E+03  0.25500000000E-02 0.  1.
    -200001    2    1    2    0    0 -0.67744372694E+02 -0.73261651223E+01  0.57472374559E+03  0.84327021082E+03  0.61331418702E+03 0.  0.
   -5000001    2    3    3    0    0 -0.22095963161E+03  0.20796715387E+03  0.20077808510E+03  0.37437524843E+03  0.88156062096E+02 0.  0.
     200001    1    1    2    0    0  0.67744372694E+02  0.73261651223E+01  0.38194050923E+03  0.72545883778E+03  0.61300000000E+03 0.  1.
         13    1    4    4    0    0 -0.18213269710E+02 -0.58293537914E+01  0.66108541440E+01  0.20234107732E+02  0.10566000000E+00 0.  1.
    -200003    1    4    4    0    0 -0.20274636190E+03  0.21379650767E+03  0.19416723096E+03  0.35414114069E+03  0.30000000000E+02 0.  1.
    -200000    1    3    3    0    0  0.15321525892E+03 -0.21529331900E+03  0.37394566048E+03  0.46889496240E+03  0.10100000000E+03 0. -1.
<mgrwt>
<rscale>  0 0.12432636E+04</rscale>
<asrwt>0</asrwt>
<pdfrwt beam="1">  1        2 0.18038524E+00 0.12432636E+04</pdfrwt>
<pdfrwt beam="2">  1       -2 0.43718914E-01 0.12432636E+04</pdfrwt>
<totfact> 0.96118097E+01</totfact>
</mgrwt>
</event>
<event>
 8    2  0.4306980E-052  0.1806141E+04  0.7818608E-02  0.8703040E-01
         -2   -1    0    0    0  501 -0.00000000000E+00  0.00000000000E+00  0.30293072160E+03  0.30293072161E+03  0.25500000000E-02 0. -1.
          2   -1    0    0  501    0  0.00000000000E+00 -0.00000000000E+00 -0.26921556759E+04  0.26921556759E+04  0.25500000000E-02 0.  1.
    -200001    2    1    2    0    0 -0.33255824210E+03  0.14068898015E+03 -0.21166285801E+04  0.22332031015E+04  0.61375171914E+03 0.  0.
   -5000001    2    3    3    0    0 -0.85652796210E+02 -0.68107608458E+02 -0.93982395464E+02  0.18238450810E+03  0.11160811042E+03 0.  0.
     200001    1    1    2    0    0  0.33255824210E+03 -0.14068898015E+03 -0.27259637414E+03  0.76188329599E+03  0.61300000000E+03 0. -1.
         13    1    4    4    0    0 -0.85137246472E+02 -0.17918155453E+02 -0.22181955406E+02  0.89785641064E+02  0.10566000000E+00 0.  1.
    -200003    1    4    4    0    0 -0.51554973788E+00 -0.50189453004E+02 -0.71800440058E+02  0.92598867039E+02  0.30000000000E+02 0.  1.
    -200000    1    3    3    0    0 -0.24690544589E+03  0.20879658860E+03 -0.20226461847E+04  0.20508185934E+04  0.10100000000E+03 0.  1.
<mgrwt>
<rscale>  0 0.18061414E+04</rscale>
<asrwt>0</asrwt>
<pdfrwt beam="1">  1        2 0.38459365E+00 0.18061414E+04</pdfrwt>
<pdfrwt beam="2">  1       -2 0.43275819E-01 0.18061414E+04</pdfrwt>
<totfact> 0.16694597E+01</totfact>
</mgrwt>
</event>
<event>
 8    2  0.4306980E-052  0.1898182E+04  0.7818608E-02  0.8655762E-01
         -2   -1    0    0    0  501 -0.00000000000E+00  0.00000000000E+00  0.28756396952E+03  0.28756396953E+03  0.25500000000E-02 0. -1.
          2   -1    0    0  501    0  0.00000000000E+00 -0.00000000000E+00 -0.31324282896E+04  0.31324282896E+04  0.25500000000E-02 0.  1.
    -200001    2    1    2    0    0  0.49175411486E+03  0.11971325816E+03 -0.48793001862E+03  0.93261177456E+03  0.61280963220E+03 0.  0.
   -5000001    2    3    3    0    0 -0.63216730684E+02 -0.77604970142E+02 -0.56376928527E+01  0.16467036396E+03  0.13063559529E+03 0.  0.
     200001    1    1    2    0    0 -0.49175411486E+03 -0.11971325816E+03 -0.23569343015E+04  0.24873804846E+04  0.61300000000E+03 0.  1.
         13    1    4    4    0    0 -0.34050279376E+02  0.31311006964E+02 -0.12102368749E+02  0.47815051773E+02  0.10566000000E+00 0.  1.
    -200003    1    4    4    0    0 -0.29166451308E+02 -0.10891597711E+03  0.64646758962E+01  0.11685531218E+03  0.30000000000E+02 0.  1.
    -200000    1    3    3    0    0  0.55497084554E+03  0.19731822831E+03 -0.48229232577E+03  0.76794141060E+03  0.10100000000E+03 0. -1.
<mgrwt>
<rscale>  0 0.18981818E+04</rscale>
<asrwt>0</asrwt>
<pdfrwt beam="1">  1        2 0.44748974E+00 0.18981818E+04</pdfrwt>
<pdfrwt beam="2">  1       -2 0.41080569E-01 0.18981818E+04</pdfrwt>
<totfact> 0.10486434E+01</totfact>
</mgrwt>
</event>
<event>
 8    2  0.4306980E-052  0.1252025E+04  0.7818608E-02  0.9068500E-01
         -2   -1    0    0    0  501 -0.00000000000E+00  0.00000000000E+00  0.35541056230E+03  0.35541056230E+03  0.25500000000E-02 0. -1.
          2   -1    0    0  501    0  0.00000000000E+00 -0.00000000000E+00 -0.11026446033E+04  0.11026446033E+04  0.25500000000E-02 0.  1.
    -200001    2    1    2    0    0  0.12297723494E+02 -0.51530731433E+02 -0.50718902986E+03  0.79760285264E+03  0.61328863372E+03 0.  0.
   -5000001    2    3    3    0    0 -0.33203207307E+02  0.23840758525E+03 -0.25586443044E+03  0.39822882187E+03  0.18756054521E+03 0.  0.
     200001    1    1    2    0    0 -0.12297723494E+02  0.51530731433E+02 -0.24004501109E+03  0.66045231292E+03  0.61300000000E+03 0. -1.
         13    1    4    4    0    0 -0.73960130335E+02  0.23266266542E+03 -0.24555214022E+03  0.34626273477E+03  0.10566000000E+00 0.  1.
    -200003    1    4    4    0    0  0.40756923028E+02  0.57449198266E+01 -0.10312290227E+02  0.51966087098E+02  0.30000000000E+02 0.  1.
    -200000    1    3    3    0    0  0.45500930802E+02 -0.28993831668E+03 -0.25132459942E+03  0.39937403078E+03  0.10100000000E+03 0. -1.
<mgrwt>
<rscale>  0 0.12520248E+04</rscale>
<asrwt>0</asrwt>
<pdfrwt beam="1">  1        2 0.15752066E+00 0.12520248E+04</pdfrwt>
<pdfrwt beam="2">  1       -2 0.50772938E-01 0.12520248E+04</pdfrwt>
<totfact> 0.87814822E+01</totfact>
</mgrwt>
</event>
<event>
 8    2  0.4306980E-052  0.1996643E+04  0.7818608E-02  0.8608192E-01
         -2   -1    0    0    0  501 -0.00000000000E+00  0.00000000000E+00  0.60897254233E+03  0.60897254234E+03  0.25500000000E-02 0. -1.
          2   -1    0    0  501    0  0.00000000000E+00 -0.00000000000E+00 -0.16366017276E+04  0.16366017276E+04  0.25500000000E-02 0.  1.
    -200001    2    1    2    0    0 -0.41394613670E+03 -0.20869024843E+03  0.20303082888E+03  0.79464488010E+03  0.61264667152E+03 0.  0.
   -5000001    2    3    3    0    0 -0.19370888241E+03  0.20977650024E+02  0.36594365714E+03  0.42317027617E+03  0.84824109220E+02 0.  0.
     200001    1    1    2    0    0  0.41394613670E+03  0.20869024843E+03 -0.12306600142E+04  0.14509293899E+04  0.61300000000E+03 0.  1.
         13    1    4    4    0    0 -0.17335305771E+03  0.20665291810E+02  0.32122877587E+03  0.36560398591E+03  0.10566000000E+00 0.  1.
    -200003    1    4    4    0    0 -0.20355824697E+02  0.31235821462E+00  0.44714881278E+02  0.57566290261E+02  0.30000000000E+02 0. -1.
    -200000    1    3    3    0    0 -0.22023725429E+03 -0.22966789845E+03 -0.16291282826E+03  0.37147460393E+03  0.10100000000E+03 0.  1.
<mgrwt>
<rscale>  0 0.19966427E+04</rscale>
<asrwt>0</asrwt>
<pdfrwt beam="1">  1        2 0.23380024E+00 0.19966427E+04</pdfrwt>
<pdfrwt beam="2">  1       -2 0.86996078E-01 0.19966427E+04</pdfrwt>
<totfact> 0.13198627E+01</totfact>
</mgrwt>
</event>
<event>
 8    2  0.4306980E-052  0.1579800E+04  0.7818608E-02  0.8833054E-01
          2   -1    0    0  501    0  0.00000000000E+00  0.00000000000E+00  0.37222619232E+04  0.37222619232E+04  0.25500000000E-02 0.  1.
         -2   -1    0    0    0  501 -0.00000000000E+00 -0.00000000000E+00 -0.16762448613E+03  0.16762448615E+03  0.25500000000E-02 0. -1.
    -200001    2    1    2    0    0  0.10223479208E+03 -0.40599633126E+03  0.24454778070E+04  0.25552369952E+04  0.61121961962E+03 0.  0.
   -5000001    2    3    3    0    0  0.12938053800E+03 -0.20165651668E+03  0.22185209008E+04  0.22324335122E+04  0.67228900408E+02 0.  0.
     200001    1    1    2    0    0 -0.10223479208E+03  0.40599633126E+03  0.11091596300E+04  0.13346494141E+04  0.61300000000E+03 0. -1.
         13    1    4    4    0    0 -0.50887218053E+01 -0.82202553571E+00  0.57952350152E+02  0.58181241545E+02  0.10566000000E+00 0.  1.
    -200003    1    4    4    0    0  0.13446925980E+03 -0.20083449115E+03  0.21605685506E+04  0.21742522707E+04  0.30000000000E+02 0.  1.
    -200000    1    3    3    0    0 -0.27145745913E+02 -0.20433981457E+03  0.22695690629E+03  0.32280348303E+03  0.10100000000E+03 0. -1.
<mgrwt>
<rscale>  0 0.15798003E+04</rscale>
<asrwt>0</asrwt>
<pdfrwt beam="1">  1        2 0.53175166E+00 0.15798003E+04</pdfrwt>
<pdfrwt beam="2">  1       -2 0.23946357E-01 0.15798003E+04</pdfrwt>
<totfact> 0.13158442E+01</totfact>
</mgrwt>
</event>
<event>
 8    2  0.4306980E-052  0.1625480E+04  0.7818608E-02  0.8805046E-01
          2   -1    0    0  501    0  0.00000000000E+00  0.00000000000E+00  0.36576252722E+04  0.36576252722E+04  0.25500000000E-02 0.  1.
         -2   -1    0    0    0  501 -0.00000000000E+00 -0.00000000000E+00 -0.18059434756E+03  0.18059434758E+03  0.25500000000E-02 0. -1.
    -200001    2    1    2    0    0 -0.40883231551E+03 -0.25857754688E+03  0.22715980331E+04  0.24019593140E+04  0.61257220981E+03 0.  0.
   -5000001    2    3    3    0    0 -0.40438547418E+03 -0.15489506424E+03  0.21945775650E+04  0.22379380224E+04  0.68379898518E+02 0.  0.
     200001    1    1    2    0    0  0.40883231551E+03  0.25857754688E+03  0.12054328916E+04  0.14362603058E+04  0.61300000000E+03 0. -1.
         13    1    4    4    0    0 -0.59107475349E+01 -0.22449123306E+01  0.97008093297E+01  0.11579871911E+02  0.10566000000E+00 0.  1.
    -200003    1    4    4    0    0 -0.39847472665E+03 -0.15265015191E+03  0.21848767557E+04  0.22263581505E+04  0.30000000000E+02 0.  1.
    -200000    1    3    3    0    0 -0.44468413224E+01 -0.10368248264E+03  0.77020468094E+02  0.16402129163E+03  0.10100000000E+03 0. -1.
<mgrwt>
<rscale>  0 0.16254802E+04</rscale>
<asrwt>0</asrwt>
<pdfrwt beam="1">  1        2 0.52251794E+00 0.16254802E+04</pdfrwt>
<pdfrwt beam="2">  1       -2 0.25799190E-01 0.16254802E+04</pdfrwt>
<totfact> 0.12576506E+01</totfact>
</mgrwt>
</event>
<event>
 8    2  0.4306980E-052  0.1563769E+04  0.7818608E-02  0.8843120E-01
          2   -1    0    0  501    0  0.00000000000E+00  0.00000000000E+00  0.14638810304E+04  0.14638810304E+04  0.25500000000E-02 0.  1.
         -2   -1    0    0    0  501 -0.00000000000E+00 -0.00000000000E+00 -0.41761825844E+03  0.41761825844E+03  0.25500000000E-02 0. -1.
    -200001    2    1    2    0    0  0.46829491199E+03  0.81911556866E+02  0.64381454947E+03  0.10075752649E+04  0.61212834655E+03 0.  0.
   -5000001    2    3    3    0    0  0.51043058296E+03 -0.16346885357E+02  0.22295783091E+03  0.56175970464E+03  0.71113787135E+02 0.  0.
     200001    1    1    2    0    0 -0.46829491199E+03 -0.81911556866E+02  0.40244822245E+03  0.87392402387E+03  0.61300000000E+03 0. -1.
         13    1    4    4    0    0  0.29774692042E+03 -0.30635268167E+02  0.14718371148E+03  0.33354880357E+03  0.10566000000E+00 0.  1.
    -200003    1    4    4    0    0  0.21268366254E+03  0.14288382810E+02  0.75774119431E+02  0.22821090107E+03  0.30000000000E+02 0.  1.
    -200000    1    3    3    0    0 -0.42135670968E+02  0.98258442223E+02  0.42085671856E+03  0.44581556029E+03  0.10100000000E+03 0.  1.
<mgrwt>
<rscale>  0 0.15637691E+04</rscale>
<asrwt>0</asrwt>
<pdfrwt beam="1">  1        2 0.20912586E+00 0.15637691E+04</pdfrwt>
<pdfrwt beam="2">  1       -2 0.59659751E-01 0.15637691E+04</pdfrwt>
<totfact> 0.38591438E+01</totfact>
</mgrwt>
</event>
<event>
 8    2  0.4306980E-052  0.1464336E+04  0.7818608E-02  0.8908522E-01
         -2   -1    0    0    0  501 -0.00000000000E+00  0.00000000000E+00  0.25613826186E+03  0.25613826187E+03  0.25500000000E-02 0. -1.
          2   -1    0    0  501    0  0.00000000000E+00 -0.00000000000E+00 -0.20928931082E+04  0.20928931082E+04  0.25500000000E-02 0.  1.
    -200001    2    1    2    0    0  0.93923461530E+00  0.34778727664E+03 -0.59891990191E+03  0.92461527159E+03  0.61257773352E+03 0.  0.
   -5000001    2    3    3    0    0  0.19274119366E+03  0.33176916804E+02 -0.17441094427E+03  0.35349661043E+03  0.23725682406E+03 0.  0.
     200001    1    1    2    0    0 -0.93923461530E+00 -0.34778727664E+03 -0.12378349444E+04  0.14244160985E+04  0.61300000000E+03 0.  1.
         13    1    4    4    0    0  0.27009282471E+02  0.75979448391E+02 -0.15993798908E+03  0.17911602227E+03  0.10566000000E+00 0.  1.
    -200003    1    4    4    0    0  0.16573191119E+03 -0.42802531587E+02 -0.14472955192E+02  0.17438058817E+03  0.30000000000E+02 0.  1.
    -200000    1    3    3    0    0 -0.19180195905E+03  0.31461035983E+03 -0.42450895763E+03  0.57111866116E+03  0.10100000000E+03 0.  1.
<mgrwt>
<rscale>  0 0.14643360E+04</rscale>
<asrwt>0</asrwt>
<pdfrwt beam="1">  1        2 0.29898472E+00 0.14643360E+04</pdfrwt>
<pdfrwt beam="2">  1       -2 0.36591181E-01 0.14643360E+04</pdfrwt>
<totfact> 0.49023343E+01</totfact>
</mgrwt>
</event>
<event>
 8    2  0.4306980E-052  0.1388614E+04  0.7818608E-02  0.8962102E-01
          2   -1    0    0  501    0  0.00000000000E+00  0.00000000000E+00  0.10324448093E+04  0.10324448093E+04  0.25500000000E-02 0.  1.
         -2   -1    0    0    0  501 -0.00000000000E+00 -0.00000000000E+00 -0.46691325818E+03  0.46691325819E+03  0.25500000000E-02 0. -1.
    -200001    2    1    2    0    0  0.26513159845E+03  0.10314981162E+03  0.45421329617E+03  0.81445267112E+03  0.61326078217E+03 0.  0.
   -5000001    2    3    3    0    0  0.15758129888E+03  0.17413284814E+03 -0.43181519391E+02  0.29080368472E+03  0.16597597679E+03 0.  0.
     200001    1    1    2    0    0 -0.26513159845E+03 -0.10314981162E+03  0.11131825498E+03  0.68490539641E+03  0.61300000000E+03 0. -1.
         13    1    4    4    0    0  0.15164885623E+03  0.19386846448E+03 -0.55619476342E+02  0.25234082989E+03  0.10566000000E+00 0.  1.
    -200003    1    4    4    0    0  0.59324426426E+01 -0.19735616346E+02  0.12437956951E+02  0.38462854826E+02  0.30000000000E+02 0.  1.
    -200000    1    3    3    0    0  0.10755029957E+03 -0.70983036516E+02  0.49739481556E+03  0.52364898640E+03  0.10100000000E+03 0.  1.
<mgrwt>
<rscale>  0 0.13886139E+04</rscale>
<asrwt>0</asrwt>
<pdfrwt beam="1">  1        2 0.14749212E+00 0.13886139E+04</pdfrwt>
<pdfrwt beam="2">  1       -2 0.66701894E-01 0.13886139E+04</pdfrwt>
<totfact> 0.54028829E+01</totfact>
</mgrwt>
</event>
<event>
 8    2  0.4306980E-052  0.1595450E+04  0.7818608E-02  0.8823348E-01
          2   -1    0    0  501    0  0.00000000000E+00  0.00000000000E+00  0.80543888103E+03  0.80543888103E+03  0.25500000000E-02 0.  1.
         -2   -1    0    0    0  501 -0.00000000000E+00 -0.00000000000E+00 -0.79008524784E+03  0.79008524784E+03  0.25500000000E-02 0. -1.
    -200001    2    1    2    0    0 -0.47261464564E+03  0.21511488299E+03  0.94503261942E+01  0.79212954015E+03  0.59811444018E+03 0.  0.
   -5000001    2    3    3    0    0 -0.42805486508E+03  0.90401316197E+02  0.24147503146E+03  0.50651526943E+03  0.82729449723E+02 0.  0.
     200001    1    1    2    0    0  0.47261464564E+03 -0.21511488299E+03  0.59033069983E+01  0.80339458872E+03  0.61300000000E+03 0. -1.
         13    1    4    4    0    0 -0.18049892691E+03  0.11764501896E+02  0.12738730643E+03  0.22123698408E+03  0.10566000000E+00 0.  1.
    -200003    1    4    4    0    0 -0.24755593818E+03  0.78636814300E+02  0.11408772503E+03  0.28527828535E+03  0.30000000000E+02 0.  1.
    -200000    1    3    3    0    0 -0.44559780560E+02  0.12471356679E+03 -0.23202470527E+03  0.28561427072E+03  0.10100000000E+03 0. -1.
<mgrwt>
<rscale>  0 0.15954503E+04</rscale>
<asrwt>0</asrwt>
<pdfrwt beam="1">  1        2 0.11506270E+00 0.15954503E+04</pdfrwt>
<pdfrwt beam="2">  1       -2 0.11286932E+00 0.15954503E+04</pdfrwt>
<totfact> 0.22360510E+01</totfact>
</mgrwt>
</event>
<event>
 8    2  0.4306980E-052  0.1442077E+04  0.7818608E-02  0.8923912E-01
          2   -1    0    0  501    0  0.00000000000E+00  0.00000000000E+00  0.17321388382E+04  0.17321388382E+04  0.25500000000E-02 0.  1.
         -2   -1    0    0    0  501 -0.00000000000E+00 -0.00000000000E+00 -0.30014693341E+03  0.30014693342E+03  0.25500000000E-02 0. -1.
    -200001    2    1    2    0    0  0.57006601950E+02 -0.37352621554E+03  0.65995525908E+03  0.97654850852E+03  0.61264545958E+03 0.  0.
   -5000001    2    3    3    0    0  0.14631974752E+03 -0.16757978110E+03 -0.30348458389E+02  0.24366994138E+03  0.94665515656E+02 0.  0.
     200001    1    1    2    0    0 -0.57006601950E+02  0.37352621554E+03  0.77203664566E+03  0.10557372631E+04  0.61300000000E+03 0.  1.
         13    1    4    4    0    0  0.92648922156E+02 -0.41829737614E+02 -0.16882045427E+02  0.10304641841E+03  0.10566000000E+00 0.  1.
    -200003    1    4    4    0    0  0.53670825364E+02 -0.12575004349E+03 -0.13466412962E+02  0.14062352296E+03  0.30000000000E+02 0.  1.
    -200000    1    3    3    0    0 -0.89313145571E+02 -0.20594643444E+03  0.69030371747E+03  0.73287856715E+03  0.10100000000E+03 0.  1.
<mgrwt>
<rscale>  0 0.14420765E+04</rscale>
<asrwt>0</asrwt>
<pdfrwt beam="1">  1        2 0.24744840E+00 0.14420765E+04</pdfrwt>
<pdfrwt beam="2">  1       -2 0.42878134E-01 0.14420765E+04</pdfrwt>
<totfact> 0.55274236E+01</totfact>
</mgrwt>
</event>
<event>
 8    2  0.4306980E-052  0.1315415E+04  0.7818608E-02  0.9017430E-01
          2   -1    0    0  501    0  0.00000000000E+00  0.00000000000E+00  0.20581156781E+04  0.20581156781E+04  0.25500000000E-02 0.  1.
         -2   -1    0    0    0  501 -0.00000000000E+00 -0.00000000000E+00 -0.21018204181E+03  0.21018204182E+03  0.25500000000E-02 0. -1.
    -200001    2    1    2    0    0  0.79397191442E+02 -0.17999582990E+03  0.69702975176E+03  0.94956682841E+03  0.61410444875E+03 0.  0.
   -5000001    2    3    3    0    0  0.11663348116E+03 -0.54022662822E+02 -0.65985247297E+02  0.16876680991E+03  0.87214484121E+02 0.  0.
     200001    1    1    2    0    0 -0.79397191442E+02  0.17999582990E+03  0.11509038845E+04  0.13187308915E+04  0.61300000000E+03 0.  1.
         13    1    4    4    0    0  0.79067732639E+02 -0.44252591996E+01 -0.99329421789E+01  0.79812052774E+02  0.10566000000E+00 0.  1.
    -200003    1    4    4    0    0  0.37565748521E+02 -0.49597403623E+02 -0.56052305118E+02  0.88954757136E+02  0.30000000000E+02 0.  1.
    -200000    1    3    3    0    0 -0.37236289718E+02 -0.12597316708E+03  0.76301499906E+03  0.78080001850E+03  0.10100000000E+03 0.  1.
<mgrwt>
<rscale>  0 0.13154147E+04</rscale>
<asrwt>0</asrwt>
<pdfrwt beam="1">  1        2 0.29401652E+00 0.13154147E+04</pdfrwt>
<pdfrwt beam="2">  1       -2 0.30026006E-01 0.13154147E+04</pdfrwt>
<totfact> 0.75130833E+01</totfact>
</mgrwt>
</event>
<event>
 8    2  0.4306980E-052  0.1805786E+04  0.7818608E-02  0.8703229E-01
         -2   -1    0    0    0  501 -0.00000000000E+00  0.00000000000E+00  0.79833088512E+03  0.79833088512E+03  0.25500000000E-02 0. -1.
          2   -1    0    0  501    0  0.00000000000E+00 -0.00000000000E+00 -0.10211501981E+04  0.10211501981E+04  0.25500000000E-02 0.  1.
    -200001    2    1    2    0    0 -0.29590196290E+03  0.35264816067E+03  0.37011662530E+03  0.85032643934E+03  0.61167805277E+03 0.  0.
   -5000001    2    3    3    0    0 -0.41508083433E+03  0.26234609998E+03  0.42678047319E+03  0.66119723161E+03  0.11799420151E+03 0.  0.
     200001    1    1    2    0    0  0.29590196290E+03 -0.35264816067E+03 -0.59293593831E+03  0.96915464391E+03  0.61300000000E+03 0.  1.
         13    1    4    4    0    0 -0.22603356776E+03  0.20451408609E+03  0.24785049203E+03  0.39287028741E+03  0.10566000000E+00 0.  1.
    -200003    1    4    4    0    0 -0.18904726657E+03  0.57832013892E+02  0.17892998115E+03  0.26832694420E+03  0.30000000000E+02 0.  1.
    -200000    1    3    3    0    0  0.11917887143E+03  0.90302060688E+02 -0.56663847883E+02  0.18912920773E+03  0.10100000000E+03 0. -1.
<mgrwt>
<rscale>  0 0.18057860E+04</rscale>
<asrwt>0</asrwt>
<pdfrwt beam="1">  1        2 0.14587860E+00 0.18057860E+04</pdfrwt>
<pdfrwt beam="2">  1       -2 0.11404727E+00 0.18057860E+04</pdfrwt>
<totfact> 0.15526984E+01</totfact>
</mgrwt>
</event>
<event>
 8    2  0.4306980E-052  0.3250711E+04  0.7818608E-02  0.8175552E-01
          2   -1    0    0  501    0  0.00000000000E+00  0.00000000000E+00  0.10872096324E+04  0.10872096324E+04  0.25500000000E-02 0.  1.
         -2   -1    0    0    0  501 -0.00000000000E+00 -0.00000000000E+00 -0.24298715787E+04  0.24298715787E+04  0.25500000000E-02 0. -1.
    -200001    2    1    2    0    0 -0.10287819592E+04 -0.10948877705E+04 -0.57213161548E+03  0.17207912735E+04  0.61369086024E+03 0.  0.
   -5000001    2    3    3    0    0 -0.24439028579E+03 -0.66070040026E+02 -0.16287090096E+03  0.36011807529E+03  0.19765180444E+03 0.  0.
     200001    1    1    2    0    0  0.10287819592E+04  0.10948877705E+04 -0.77053033080E+03  0.17962899377E+04  0.61300000000E+03 0. -1.
         13    1    4    4    0    0 -0.23197785035E+03 -0.30930555002E+02 -0.19319854521E+03  0.30347341123E+03  0.10566000000E+00 0.  1.
    -200003    1    4    4    0    0 -0.12412435436E+02 -0.35139485024E+02  0.30327644252E+02  0.56644664065E+02  0.30000000000E+02 0.  1.
    -200000    1    3    3    0    0 -0.78439167337E+03 -0.10288177305E+04 -0.40926071452E+03  0.13606731982E+04  0.10100000000E+03 0.  1.
<mgrwt>
<rscale>  0 0.32507106E+04</rscale>
<asrwt>0</asrwt>
<pdfrwt beam="1">  1        2 0.15531566E+00 0.32507106E+04</pdfrwt>
<pdfrwt beam="2">  1       -2 0.34712451E+00 0.32507106E+04</pdfrwt>
<totfact> 0.34049551E-01</totfact>
</mgrwt>
</event>
<event>
 8    2  0.4306980E-052  0.1526848E+04  0.7818608E-02  0.8866793E-01
          2   -1    0    0  501    0  0.00000000000E+00  0.00000000000E+00  0.41632037999E+03  0.41632038000E+03  0.25500000000E-02 0.  1.
         -2   -1    0    0    0  501 -0.00000000000E+00 -0.00000000000E+00 -0.13999223835E+04  0.13999223835E+04  0.25500000000E-02 0. -1.
    -200001    2    1    2    0    0  0.78407819708E+02 -0.32795018029E+03 -0.85646715326E+03  0.11051651467E+04  0.61168203340E+03 0.  0.
   -5000001    2    3    3    0    0  0.24317009192E+03 -0.22146328134E+03 -0.81236599302E+03  0.88014963987E+03  0.80914790791E+02 0.  0.
     200001    1    1    2    0    0 -0.78407819708E+02  0.32795018029E+03 -0.12713485026E+03  0.71107761678E+03  0.61300000000E+03 0.  1.
         13    1    4    4    0    0  0.18053115022E+02 -0.40921020812E+02 -0.16090240599E+03  0.16700311471E+03  0.10566000000E+00 0.  1.
    -200003    1    4    4    0    0  0.22511697689E+03 -0.18054226052E+03 -0.65146358703E+03  0.71314652516E+03  0.30000000000E+02 0.  1.
    -200000    1    3    3    0    0 -0.16476227221E+03 -0.10648689895E+03 -0.44101160239E+02  0.22501550686E+03  0.10100000000E+03 0.  1.
<mgrwt>
<rscale>  0 0.15268480E+04</rscale>
<asrwt>0</asrwt>
<pdfrwt beam="1">  1        2 0.59474341E-01 0.15268480E+04</pdfrwt>
<pdfrwt beam="2">  1       -2 0.19998891E+00 0.15268480E+04</pdfrwt>
<totfact> 0.10616449E+01</totfact>
</mgrwt>
</event>
<event>
 8    2  0.4306980E-052  0.1502698E+04  0.7818608E-02  0.8882661E-01
          2   -1    0    0  501    0  0.00000000000E+00  0.00000000000E+00  0.82426511520E+03  0.82426511520E+03  0.25500000000E-02 0.  1.
         -2   -1    0    0    0  501 -0.00000000000E+00 -0.00000000000E+00 -0.68488291702E+03  0.68488291703E+03  0.25500000000E-02 0. -1.
    -200001    2    1    2    0    0  0.15749959455E+03  0.91480734183E+02 -0.32641033013E+03  0.71800548728E+03  0.61303615646E+03 0.  0.
   -5000001    2    3    3    0    0  0.34348627192E+03 -0.75757579408E+02 -0.12460888927E+03  0.38113085299E+03  0.77532715511E+02 0.  0.
     200001    1    1    2    0    0 -0.15749959455E+03 -0.91480734183E+02  0.46579252831E+03  0.79114254495E+03  0.61300000000E+03 0.  1.
         13    1    4    4    0    0  0.11213951252E+03  0.75922953089E+01 -0.35618140967E+02  0.11790494624E+03  0.10566000000E+00 0.  1.
    -200003    1    4    4    0    0  0.23134675940E+03 -0.83349874717E+02 -0.88990748301E+02  0.26322590675E+03  0.30000000000E+02 0.  1.
    -200000    1    3    3    0    0 -0.18598667738E+03  0.16723831359E+03 -0.20180144086E+03  0.33687463429E+03  0.10100000000E+03 0. -1.
<mgrwt>
<rscale>  0 0.15026977E+04</rscale>
<asrwt>0</asrwt>
<pdfrwt beam="1">  1        2 0.11775216E+00 0.15026977E+04</pdfrwt>
<pdfrwt beam="2">  1       -2 0.97840417E-01 0.15026977E+04</pdfrwt>
<totfact> 0.30784356E+01</totfact>
</mgrwt>
</event>
<event>
 8    2  0.4306980E-052  0.2023975E+04  0.7818608E-02  0.8595493E-01
          2   -1    0    0  501    0  0.00000000000E+00  0.00000000000E+00  0.28498629054E+04  0.28498629054E+04  0.25500000000E-02 0.  1.
         -2   -1    0    0    0  501 -0.00000000000E+00 -0.00000000000E+00 -0.35935725557E+03  0.35935725558E+03  0.25500000000E-02 0. -1.
    -200001    2    1    2    0    0  0.62550572238E+01 -0.57256792014E+03  0.34656366036E+03  0.90701916995E+03  0.61213091333E+03 0.  0.
   -5000001    2    3    3    0    0 -0.10623264152E+03 -0.36039795945E+03  0.47830448794E+03  0.61508386849E+03  0.91547358190E+02 0.  0.
     200001    1    1    2    0    0 -0.62550572238E+01  0.57256792014E+03  0.21439419894E+04  0.23022009910E+04  0.61300000000E+03 0.  1.
         13    1    4    4    0    0 -0.36228210851E+02 -0.11238300307E+03  0.91749888086E+02  0.14953419598E+03  0.10566000000E+00 0.  1.
    -200003    1    4    4    0    0 -0.70004430664E+02 -0.24801495638E+03  0.38655459985E+03  0.46554967250E+03  0.30000000000E+02 0.  1.
    -200000    1    3    3    0    0  0.11248769874E+03 -0.21216996070E+03 -0.13174082758E+03  0.29193530146E+03  0.10100000000E+03 0. -1.
<mgrwt>
<rscale>  0 0.20239752E+04</rscale>
<asrwt>0</asrwt>
<pdfrwt beam="1">  1        2 0.40712327E+00 0.20239752E+04</pdfrwt>
<pdfrwt beam="2">  1       -2 0.51336751E-01 0.20239752E+04</pdfrwt>
<totfact> 0.95403384E+00</totfact>
</mgrwt>
</event>
<event>
 8    2  0.4306980E-052  0.1332337E+04  0.7818608E-02  0.9004307E-01
         -2   -1    0    0    0  501 -0.00000000000E+00  0.00000000000E+00  0.57671767176E+03  0.57671767177E+03  0.25500000000E-02 0.  1.
          2   -1    0    0  501    0  0.00000000000E+00 -0.00000000000E+00 -0.76949357327E+03  0.76949357328E+03  0.25500000000E-02 0. -1.
    -200001    2    1    2    0    0 -0.16680837988E+03 -0.36415009061E+01  0.10642562918E+03  0.64397990703E+03  0.61281759928E+03 0.  0.
   -5000001    2    3    3    0    0 -0.40200704991E+01  0.40172455418E+02  0.33149431724E+03  0.34518798815E+03  0.87385797800E+02 0.  0.
     200001    1    1    2    0    0  0.16680837988E+03  0.36415009061E+01 -0.29920153069E+03  0.70223133802E+03  0.61300000000E+03 0. -1.
         13    1    4    4    0    0  0.13872174371E+02  0.31625655726E+02  0.46433951670E+02  0.57868319084E+02  0.10566000000E+00 0.  1.
    -200003    1    4    4    0    0 -0.17892244870E+02  0.85467996924E+01  0.28506036557E+03  0.28731966907E+03  0.30000000000E+02 0.  1.
    -200000    1    3    3    0    0 -0.16278830938E+03 -0.43813956324E+02 -0.22506868806E+03  0.29879191888E+03  0.10100000000E+03 0. -1.
<mgrwt>
<rscale>  0 0.13323371E+04</rscale>
<asrwt>0</asrwt>
<pdfrwt beam="1">  1        2 0.10992765E+00 0.13323371E+04</pdfrwt>
<pdfrwt beam="2">  1       -2 0.82388239E-01 0.13323371E+04</pdfrwt>
<totfact> 0.50631780E+01</totfact>
</mgrwt>
</event>
<event>
 8    2  0.4306980E-052  0.1922849E+04  0.7818608E-02  0.8643566E-01
          2   -1    0    0  501    0  0.00000000000E+00  0.00000000000E+00  0.11982404797E+04  0.11982404797E+04  0.25500000000E-02 0.  1.
         -2   -1    0    0    0  501 -0.00000000000E+00 -0.00000000000E+00 -0.77141197185E+03  0.77141197186E+03  0.25500000000E-02 0. -1.
    -200001    2    1    2    0    0 -0.26563918757E+03 -0.69129986834E+03  0.19965880979E+03  0.98180896310E+03  0.61288295275E+03 0.  0.
   -5000001    2    3    3    0    0 -0.10283567970E+03  0.12727341268E+02 -0.12923267862E+03  0.18147784089E+03  0.74134737312E+02 0.  0.
     200001    1    1    2    0    0  0.26563918757E+03  0.69129986834E+03  0.22716969804E+03  0.98784348843E+03  0.61300000000E+03 0.  1.
         13    1    4    4    0    0 -0.84585398597E+02 -0.18970801741E+00 -0.63226176200E+02  0.10560438516E+03  0.10566000000E+00 0.  1.
    -200003    1    4    4    0    0 -0.18250281107E+02  0.12917049286E+02 -0.66006502417E+02  0.75873455728E+02  0.30000000000E+02 0.  1.
    -200000    1    3    3    0    0 -0.16280350787E+03 -0.70402720960E+03  0.32889148840E+03  0.80033112221E+03  0.10100000000E+03 0.  1.
<mgrwt>
<rscale>  0 0.19228490E+04</rscale>
<asrwt>0</asrwt>
<pdfrwt beam="1">  1        2 0.17117721E+00 0.19228490E+04</pdfrwt>
<pdfrwt beam="2">  1       -2 0.11020171E+00 0.19228490E+04</pdfrwt>
<totfact> 0.13148777E+01</totfact>
</mgrwt>
</event>
<event>
 8    2  0.4306980E-052  0.1624720E+04  0.7818608E-02  0.8805504E-01
          2   -1    0    0  501    0  0.00000000000E+00  0.00000000000E+00  0.97997897680E+03  0.97997897680E+03  0.25500000000E-02 0.  1.
         -2   -1    0    0    0  501 -0.00000000000E+00 -0.00000000000E+00 -0.67341078159E+03  0.67341078160E+03  0.25500000000E-02 0. -1.
    -200001    2    1    2    0    0 -0.17938888978E+03 -0.43605062089E+03  0.40594848389E+03  0.87366803911E+03  0.61333608505E+03 0.  0.
   -5000001    2    3    3    0    0 -0.33247966633E+03 -0.22413240605E+03  0.42352048419E+03  0.59285512836E+03  0.10644030594E+03 0.  0.
     200001    1    1    2    0    0  0.17938888978E+03  0.43605062089E+03 -0.99380288690E+02  0.77972171929E+03  0.61300000000E+03 0.  1.
         13    1    4    4    0    0 -0.26728427235E+03 -0.13681643854E+03  0.28399665754E+03  0.41329618043E+03  0.10566000000E+00 0.  1.
    -200003    1    4    4    0    0 -0.65195393981E+02 -0.87315967511E+02  0.13952382665E+03  0.17955894793E+03  0.30000000000E+02 0.  1.
    -200000    1    3    3    0    0  0.15309077655E+03 -0.21191821484E+03 -0.17572000298E+02  0.28081291075E+03  0.10100000000E+03 0. -1.
<mgrwt>
<rscale>  0 0.16247196E+04</rscale>
<asrwt>0</asrwt>
<pdfrwt beam="1">  1        2 0.13999700E+00 0.16247196E+04</pdfrwt>
<pdfrwt beam="2">  1       -2 0.96201540E-01 0.16247196E+04</pdfrwt>
<totfact> 0.25100140E+01</totfact>
</mgrwt>
</event>
<event>
 8    2  0.4306980E-052  0.1241200E+04  0.7818608E-02  0.9077539E-01
          2   -1    0    0  501    0  0.00000000000E+00  0.00000000000E+00  0.23950176727E+04  0.23950176727E+04  0.25500000000E-02 0.  1.
         -2   -1    0    0    0  501 -0.00000000000E+00 -0.00000000000E+00 -0.16081073072E+03  0.16081073074E+03  0.25500000000E-02 0. -1.
    -200001    2    1    2    0    0  0.36227033323E+02  0.73161707827E-01  0.12992456891E+04  0.14372427126E+04  0.61344506772E+03 0.  0.
   -5000001    2    3    3    0    0 -0.30845822958E+02  0.27965422387E+03  0.47272264714E+03  0.55633086844E+03  0.82942054090E+02 0.  0.
     200001    1    1    2    0    0 -0.36227033323E+02 -0.73161707827E-01  0.93496125294E+03  0.11185856909E+04  0.61300000000E+03 0. -1.
         13    1    4    4    0    0  0.60783995403E+01  0.14104605176E+03  0.17803862804E+03  0.22721949717E+03  0.10566000000E+00 0.  1.
    -200003    1    4    4    0    0 -0.36924222499E+02  0.13860817211E+03  0.29468401910E+03  0.32911137127E+03  0.30000000000E+02 0.  1.
    -200000    1    3    3    0    0  0.67072856281E+02 -0.27958106216E+03  0.82652304194E+03  0.88091184418E+03  0.10100000000E+03 0. -1.
<mgrwt>
<rscale>  0 0.12412003E+04</rscale>
<asrwt>0</asrwt>
<pdfrwt beam="1">  1        2 0.34214537E+00 0.12412003E+04</pdfrwt>
<pdfrwt beam="2">  1       -2 0.22972962E-01 0.12412003E+04</pdfrwt>
<totfact> 0.82589621E+01</totfact>
</mgrwt>
</event>
<event>
 8    2  0.4306980E-052  0.1452643E+04  0.7818608E-02  0.8916570E-01
         -2   -1    0    0    0  501 -0.00000000000E+00  0.00000000000E+00  0.12703553934E+03  0.12703553937E+03  0.25500000000E-02 0. -1.
          2   -1    0    0  501    0  0.00000000000E+00 -0.00000000000E+00 -0.41527198466E+04  0.41527198466E+04  0.25500000000E-02 0.  1.
    -200001    2    1    2    0    0 -0.13949924506E+03 -0.91403212136E+02 -0.30489769822E+04  0.31146198637E+04  0.61382543973E+03 0.  0.
   -5000001    2    3    3    0    0  0.15917451432E+03 -0.21073391872E+03 -0.18141045168E+04  0.18345586003E+04  0.69890983753E+02 0.  0.
     200001    1    1    2    0    0  0.13949924506E+03  0.91403212136E+02 -0.97670732506E+03  0.11651355223E+04  0.61300000000E+03 0. -1.
         13    1    4    4    0    0  0.94853645244E+02 -0.10356971441E+03 -0.11061992766E+04  0.11150788091E+04  0.10566000000E+00 0.  1.
    -200003    1    4    4    0    0  0.64320869073E+02 -0.10716420431E+03 -0.70790524014E+03  0.71947979117E+03  0.30000000000E+02 0.  1.
    -200000    1    3    3    0    0 -0.29867375937E+03  0.11933070658E+03 -0.12348724655E+04  0.12800612634E+04  0.10100000000E+03 0. -1.
<mgrwt>
<rscale>  0 0.14526431E+04</rscale>
<asrwt>0</asrwt>
<pdfrwt beam="1">  1        2 0.59324560E+00 0.14526431E+04</pdfrwt>
<pdfrwt beam="2">  1       -2 0.18147937E-01 0.14526431E+04</pdfrwt>
<totfact> 0.11190181E+01</totfact>
</mgrwt>
</event>
<event>
 8    2  0.4306980E-052  0.3139132E+04  0.7818608E-02  0.8205080E-01
          2   -1    0    0  501    0  0.00000000000E+00  0.00000000000E+00  0.26846777380E+04  0.26846777381E+04  0.25500000000E-02 0.  1.
         -2   -1    0    0    0  501 -0.00000000000E+00 -0.00000000000E+00 -0.91762847619E+03  0.91762847619E+03  0.25500000000E-02 0. -1.
    -200001    2    1    2    0    0 -0.36801490119E+03 -0.11127973903E+04  0.18530787967E+04  0.22768164632E+04  0.61338338829E+03 0.  0.
   -5000001    2    3    3    0    0 -0.43505281279E+03 -0.64417621620E+03  0.14497772494E+04  0.16467743817E+04  0.76012130132E+02 0.  0.
     200001    1    1    2    0    0  0.36801490119E+03  0.11127973903E+04 -0.86029534793E+02  0.13254897511E+04  0.61300000000E+03 0. -1.
         13    1    4    4    0    0 -0.25120640066E+03 -0.33357335547E+03  0.82304762375E+03  0.92292103743E+03  0.10566000000E+00 0.  1.
    -200003    1    4    4    0    0 -0.18384641213E+03 -0.31060286073E+03  0.62672962569E+03  0.72385334431E+03  0.30000000000E+02 0.  1.
    -200000    1    3    3    0    0  0.67037911593E+02 -0.46862117408E+03  0.40330154722E+03  0.63004208143E+03  0.10100000000E+03 0. -1.
<mgrwt>
<rscale>  0 0.31391316E+04</rscale>
<asrwt>0</asrwt>
<pdfrwt beam="1">  1        2 0.38352539E+00 0.31391316E+04</pdfrwt>
<pdfrwt beam="2">  1       -2 0.13108978E+00 0.31391316E+04</pdfrwt>
<totfact> 0.12744275E+00</totfact>
</mgrwt>
</event>
<event>
 8    2  0.4306980E-052  0.2098841E+04  0.7818608E-02  0.8561754E-01
         -2   -1    0    0    0  501 -0.00000000000E+00  0.00000000000E+00  0.52159520114E+03  0.52159520115E+03  0.25500000000E-02 0. -1.
          2   -1    0    0  501    0  0.00000000000E+00 -0.00000000000E+00 -0.21113750867E+04  0.21113750867E+04  0.25500000000E-02 0.  1.
    -200001    2    1    2    0    0 -0.34019494348E+02 -0.77008947069E+03 -0.34055717005E+03  0.10422089884E+04  0.61320899420E+03 0.  0.
   -5000001    2    3    3    0    0 -0.30348000352E+03 -0.47657024979E+03 -0.15271276912E+03  0.59026981329E+03  0.76667770934E+02 0.  0.
     200001    1    1    2    0    0  0.34019494348E+02  0.77008947069E+03 -0.12492227155E+04  0.15907612994E+04  0.61300000000E+03 0.  1.
         13    1    4    4    0    0 -0.11847045673E+03 -0.20835793911E+03 -0.33469106889E+02  0.24200923989E+03  0.10566000000E+00 0.  1.
    -200003    1    4    4    0    0 -0.18500954679E+03 -0.26821231068E+03 -0.11924366223E+03  0.34826057340E+03  0.30000000000E+02 0.  1.
    -200000    1    3    3    0    0  0.26946050918E+03 -0.29351922090E+03 -0.18784440092E+03  0.45193917511E+03  0.10100000000E+03 0.  1.
<mgrwt>
<rscale>  0 0.20988407E+04</rscale>
<asrwt>0</asrwt>
<pdfrwt beam="1">  1        2 0.30162501E+00 0.20988407E+04</pdfrwt>
<pdfrwt beam="2">  1       -2 0.74513601E-01 0.20988407E+04</pdfrwt>
<totfact> 0.10536913E+01</totfact>
</mgrwt>
</event>
<event>
 8    2  0.4306980E-052  0.1256868E+04  0.7818608E-02  0.9064486E-01
         -2   -1    0    0    0  501 -0.00000000000E+00  0.00000000000E+00  0.78541703981E+03  0.78541703981E+03  0.25500000000E-02 0. -1.
          2   -1    0    0  501    0  0.00000000000E+00 -0.00000000000E+00 -0.50282756444E+03  0.50282756444E+03  0.25500000000E-02 0.  1.
    -200001    2    1    2    0    0 -0.86337992563E+02 -0.10348838227E+03  0.19531025639E+03  0.65456427768E+03  0.61003623100E+03 0.  0.
   -5000001    2    3    3    0    0  0.24803964555E+03 -0.13267210451E+02  0.11675145293E+03  0.28534787729E+03  0.78056547950E+02 0.  0.
     200001    1    1    2    0    0  0.86337992563E+02  0.10348838227E+03  0.87279218982E+02  0.63368032658E+03  0.61300000000E+03 0.  1.
         13    1    4    4    0    0  0.50369199569E+02 -0.13914403960E+02 -0.29147128082E+01  0.52337115105E+02  0.10566000000E+00 0.  1.
    -200003    1    4    4    0    0  0.19767044598E+03  0.64719350871E+00  0.11966616574E+03  0.23301076219E+03  0.30000000000E+02 0.  1.
    -200000    1    3    3    0    0 -0.33437763811E+03 -0.90221171822E+02  0.78558803462E+02  0.36921640039E+03  0.10100000000E+03 0.  1.
<mgrwt>
<rscale>  0 0.12568681E+04</rscale>
<asrwt>0</asrwt>
<pdfrwt beam="1">  1        2 0.71832509E-01 0.12568681E+04</pdfrwt>
<pdfrwt beam="2">  1       -2 0.11220243E+00 0.12568681E+04</pdfrwt>
<totfact> 0.41108844E+01</totfact>
</mgrwt>
</event>
<event>
 8    2  0.4306980E-052  0.2260298E+04  0.7818608E-02  0.8493742E-01
         -2   -1    0    0    0  501 -0.00000000000E+00  0.00000000000E+00  0.80883438347E+03  0.80883438347E+03  0.25500000000E-02 0. -1.
          2   -1    0    0  501    0  0.00000000000E+00 -0.00000000000E+00 -0.15791080564E+04  0.15791080564E+04  0.25500000000E-02 0.  1.
    -200001    2    1    2    0    0  0.92507224146E+03  0.50907239118E+02 -0.60414646743E+03  0.12646804725E+04  0.61324835466E+03 0.  0.
   -5000001    2    3    3    0    0  0.26348537097E+03 -0.23413785823E+03 -0.13616950009E+03  0.39972305349E+03  0.13035071679E+03 0.  0.
     200001    1    1    2    0    0 -0.92507224146E+03 -0.50907239118E+02 -0.16612720548E+03  0.11232619674E+04  0.61300000000E+03 0. -1.
         13    1    4    4    0    0  0.11553917117E+03 -0.13241677428E+03 -0.12817986532E+03  0.21751687572E+03  0.10566000000E+00 0.  1.
    -200003    1    4    4    0    0  0.14794619980E+03 -0.10172108395E+03 -0.79896347681E+01  0.18220617778E+03  0.30000000000E+02 0.  1.
    -200000    1    3    3    0    0  0.66158687049E+03  0.28504509735E+03 -0.46797696734E+03  0.86495741900E+03  0.10100000000E+03 0.  1.
<mgrwt>
<rscale>  0 0.22602981E+04</rscale>
<asrwt>0</asrwt>
<pdfrwt beam="1">  1        2 0.22558686E+00 0.22602981E+04</pdfrwt>
<pdfrwt beam="2">  1       -2 0.11554777E+00 0.22602981E+04</pdfrwt>
<totfact> 0.70732385E+00</totfact>
</mgrwt>
</event>
<event>
 8    2  0.4306980E-052  0.1353321E+04  0.7818608E-02  0.8988318E-01
         -2   -1    0    0    0  501 -0.00000000000E+00  0.00000000000E+00  0.24731759845E+03  0.24731759846E+03  0.25500000000E-02 0. -1.
          2   -1    0    0  501    0  0.00000000000E+00 -0.00000000000E+00 -0.18513409601E+04  0.18513409601E+04  0.25500000000E-02 0.  1.
    -200001    2    1    2    0    0 -0.17151948029E+03 -0.90406002313E+02 -0.11274522175E+04  0.12983578446E+04  0.61399707848E+03 0.  0.
   -5000001    2    3    3    0    0  0.10461322226E+03 -0.23393847956E+03 -0.26463749306E+03  0.37558967748E+03  0.73235678492E+02 0.  0.
     200001    1    1    2    0    0  0.17151948029E+03  0.90406002313E+02 -0.47657114408E+03  0.80030071395E+03  0.61300000000E+03 0.  1.
         13    1    4    4    0    0  0.50431998438E+02 -0.14947526178E+03 -0.19013858400E+03  0.24706058496E+03  0.10566000000E+00 0.  1.
    -200003    1    4    4    0    0  0.54181223820E+02 -0.84463217779E+02 -0.74498909058E+02  0.12852909252E+03  0.30000000000E+02 0.  1.
    -200000    1    3    3    0    0 -0.27613270254E+03  0.14353247725E+03 -0.86281472449E+03  0.92276816711E+03  0.10100000000E+03 0.  1.
<mgrwt>
<rscale>  0 0.13533207E+04</rscale>
<asrwt>0</asrwt>
<pdfrwt beam="1">  1        2 0.26447727E+00 0.13533207E+04</pdfrwt>
<pdfrwt beam="2">  1       -2 0.35331087E-01 0.13533207E+04</pdfrwt>
<totfact> 0.70372509E+01</totfact>
</mgrwt>
</event>
<event>
 8    2  0.4306980E-052  0.2466779E+04  0.7818608E-02  0.8414917E-01
         -2   -1    0    0    0  501 -0.00000000000E+00  0.00000000000E+00  0.13346427861E+04  0.13346427861E+04  0.25500000000E-02 0. -1.
          2   -1    0    0  501    0  0.00000000000E+00 -0.00000000000E+00 -0.11398180182E+04  0.11398180182E+04  0.25500000000E-02 0.  1.
    -200001    2    1    2    0    0 -0.10421535523E+04 -0.23449523672E+03  0.16310591627E+03  0.12424514180E+04  0.61319649661E+03 0.  0.
   -5000001    2    3    3    0    0 -0.10160172429E+04 -0.19775172519E+03  0.34135397314E+02  0.10725467768E+04  0.27891679863E+03 0.  0.
     200001    1    1    2    0    0  0.10421535523E+04  0.23449523672E+03  0.31718851685E+02  0.12320093864E+04  0.61300000000E+03 0.  1.
         13    1    4    4    0    0 -0.95043649851E+03 -0.18265776728E+03 -0.39157812552E+02  0.96862105237E+03  0.10566000000E+00 0.  1.
    -200003    1    4    4    0    0 -0.65580744360E+02 -0.15093957917E+02  0.73293209866E+02  0.10392572448E+03  0.30000000000E+02 0. -1.
    -200000    1    3    3    0    0 -0.26136309421E+02 -0.36743511524E+02  0.12897051895E+03  0.16990464110E+03  0.10100000000E+03 0.  1.
<mgrwt>
<rscale>  0 0.24667792E+04</rscale>
<asrwt>0</asrwt>
<pdfrwt beam="1">  1        2 0.16283115E+00 0.24667792E+04</pdfrwt>
<pdfrwt beam="2">  1       -2 0.19066325E+00 0.24667792E+04</pdfrwt>
<totfact> 0.31935872E+00</totfact>
</mgrwt>
</event>
<event>
 8    2  0.4306980E-052  0.3807567E+04  0.7818608E-02  0.8044533E-01
          2   -1    0    0  501    0  0.00000000000E+00  0.00000000000E+00  0.13036913334E+04  0.13036913334E+04  0.25500000000E-02 0.  1.
         -2   -1    0    0    0  501 -0.00000000000E+00 -0.00000000000E+00 -0.27800996518E+04  0.27800996518E+04  0.25500000000E-02 0. -1.
    -200001    2    1    2    0    0 -0.15557770540E+04  0.82501356500E+03 -0.11505865831E+04  0.21909047162E+04  0.61247397173E+03 0.  0.
   -5000001    2    3    3    0    0 -0.54322534774E+03 -0.68862179393E+01 -0.34995993215E+03  0.65190431304E+03  0.85825875023E+02 0.  0.
     200001    1    1    2    0    0  0.15557770540E+04 -0.82501356500E+03 -0.32582173541E+03  0.18928862690E+04  0.61300000000E+03 0.  1.
         13    1    4    4    0    0 -0.21212336519E+03 -0.26625600525E+02 -0.10311827351E+03  0.23735760818E+03  0.10566000000E+00 0.  1.
    -200003    1    4    4    0    0 -0.33110198255E+03  0.19739382586E+02 -0.24684165864E+03  0.41454670486E+03  0.30000000000E+02 0.  1.
    -200000    1    3    3    0    0 -0.10125517063E+04  0.83189978294E+03 -0.80062665093E+03  0.15390004031E+04  0.10100000000E+03 0. -1.
<mgrwt>
<rscale>  0 0.38075671E+04</rscale>
<asrwt>0</asrwt>
<pdfrwt beam="1">  1        2 0.18624162E+00 0.38075671E+04</pdfrwt>
<pdfrwt beam="2">  1       -2 0.39715709E+00 0.38075671E+04</pdfrwt>
<totfact> 0.11695796E-01</totfact>
</mgrwt>
</event>
<event>
 8    2  0.4306980E-052  0.1614446E+04  0.7818608E-02  0.8811722E-01
         -2   -1    0    0    0  501 -0.00000000000E+00  0.00000000000E+00  0.47705065915E+03  0.47705065916E+03  0.25500000000E-02 0. -1.
          2   -1    0    0  501    0  0.00000000000E+00 -0.00000000000E+00 -0.13659112116E+04  0.13659112116E+04  0.25500000000E-02 0.  1.
    -200001    2    1    2    0    0  0.34434288716E+03  0.39302401923E+03 -0.51342105770E+03  0.95427535809E+03  0.61155569897E+03 0.  0.
   -5000001    2    3    3    0    0  0.43639505604E+02  0.36823975815E+03 -0.50881914816E+03  0.63606322625E+03  0.90413363687E+02 0.  0.
     200001    1    1    2    0    0 -0.34434288716E+03 -0.39302401923E+03 -0.37543949479E+03  0.88868651271E+03  0.61300000000E+03 0. -1.
         13    1    4    4    0    0  0.45445190762E+02  0.25186659507E+03 -0.29304584795E+03  0.38907316438E+03  0.10566000000E+00 0.  1.
    -200003    1    4    4    0    0 -0.18056851583E+01  0.11637316308E+03 -0.21577330020E+03  0.24699006188E+03  0.30000000000E+02 0. -1.
    -200000    1    3    3    0    0  0.30070338156E+03  0.24784261085E+02 -0.46019095473E+01  0.31821213184E+03  0.10100000000E+03 0. -1.
<mgrwt>
<rscale>  0 0.16144458E+04</rscale>
<asrwt>0</asrwt>
<pdfrwt beam="1">  1        2 0.19513017E+00 0.16144458E+04</pdfrwt>
<pdfrwt beam="2">  1       -2 0.68150095E-01 0.16144458E+04</pdfrwt>
<totfact> 0.32668181E+01</totfact>
</mgrwt>
</event>
<event>
 8    2  0.4306980E-052  0.1468916E+04  0.7818608E-02  0.8905391E-01
          2   -1    0    0  501    0  0.00000000000E+00  0.00000000000E+00  0.38908986017E+04  0.38908986017E+04  0.25500000000E-02 0.  1.
         -2   -1    0    0    0  501 -0.00000000000E+00 -0.00000000000E+00 -0.13863853726E+03  0.13863853728E+03  0.25500000000E-02 0. -1.
    -200001    2    1    2    0    0 -0.15267966984E+03  0.13245411376E+03  0.91382996687E+03  0.11186421576E+04  0.61271518226E+03 0.  0.
   -5000001    2    3    3    0    0  0.56094445019E+02  0.19642112373E+03  0.83611928952E+03  0.86582135392E+03  0.93932454357E+02 0.  0.
     200001    1    1    2    0    0  0.15267966984E+03 -0.13245411376E+03  0.28384300976E+04  0.29108949814E+04  0.61300000000E+03 0.  1.
         13    1    4    4    0    0  0.36337317815E+02  0.17609167969E+03  0.60923949161E+03  0.63521763957E+03  0.10566000000E+00 0.  1.
    -200003    1    4    4    0    0  0.19757127204E+02  0.20329444044E+02  0.22687979791E+03  0.23060371434E+03  0.30000000000E+02 0.  1.
    -200000    1    3    3    0    0 -0.20877411486E+03 -0.63967009975E+02  0.77710677354E+02  0.25282080368E+03  0.10100000000E+03 0. -1.
<mgrwt>
<rscale>  0 0.14689159E+04</rscale>
<asrwt>0</asrwt>
<pdfrwt beam="1">  1        2 0.55584266E+00 0.14689159E+04</pdfrwt>
<pdfrwt beam="2">  1       -2 0.19805505E-01 0.14689159E+04</pdfrwt>
<totfact> 0.14494941E+01</totfact>
</mgrwt>
</event>
<event>
 8    2  0.4306980E-052  0.1471582E+04  0.7818608E-02  0.8903574E-01
         -2   -1    0    0    0  501 -0.00000000000E+00  0.00000000000E+00  0.35939705469E+03  0.35939705469E+03  0.25500000000E-02 0. -1.
          2   -1    0    0  501    0  0.00000000000E+00 -0.00000000000E+00 -0.15063786617E+04  0.15063786617E+04  0.25500000000E-02 0.  1.
    -200001    2    1    2    0    0 -0.22089501089E+03  0.29906627965E+03 -0.78653977874E+03  0.10633278632E+04  0.61138046725E+03 0.  0.
   -5000001    2    3    3    0    0 -0.18503945645E+03  0.53530429486E+02 -0.26048425725E+02  0.25702669586E+03  0.16816389202E+03 0.  0.
     200001    1    1    2    0    0  0.22089501089E+03 -0.29906627965E+03 -0.36044182826E+03  0.80244785315E+03  0.61300000000E+03 0.  1.
         13    1    4    4    0    0  0.81782845548E+01  0.78322233565E+01  0.43169091052E+02  0.44629694681E+02  0.10566000000E+00 0.  1.
    -200003    1    4    4    0    0 -0.19321774100E+03  0.45698206129E+02 -0.69217516777E+02  0.21239700118E+03  0.30000000000E+02 0.  1.
    -200000    1    3    3    0    0 -0.35855554440E+02  0.24553585016E+03 -0.76049135302E+03  0.80630116737E+03  0.10100000000E+03 0.  1.
<mgrwt>
<rscale>  0 0.14715815E+04</rscale>
<asrwt>0</asrwt>
<pdfrwt beam="1">  1        2 0.21519695E+00 0.14715815E+04</pdfrwt>
<pdfrwt beam="2">  1       -2 0.51342437E-01 0.14715815E+04</pdfrwt>
<totfact> 0.50396065E+01</totfact>
</mgrwt>
</event>
<event>
 8    2  0.4306980E-052  0.1581225E+04  0.7818608E-02  0.8832166E-01
         -2   -1    0    0    0  501 -0.00000000000E+00  0.00000000000E+00  0.26201879055E+03  0.26201879056E+03  0.25500000000E-02 0. -1.
          2   -1    0    0  501    0  0.00000000000E+00 -0.00000000000E+00 -0.23855841050E+04  0.23855841050E+04  0.25500000000E-02 0.  1.
    -200001    2    1    2    0    0  0.10475451626E+03 -0.39586504047E+01 -0.18791266164E+04  0.19793900128E+04  0.61308955536E+03 0.  0.
   -5000001    2    3    3    0    0 -0.51553353789E+02 -0.57093953188E+02 -0.17348894267E+04  0.17380171114E+04  0.70318482597E+02 0.  0.
     200001    1    1    2    0    0 -0.10475451626E+03  0.39586504047E+01 -0.24443869812E+03  0.66821288279E+03  0.61300000000E+03 0. -1.
         13    1    4    4    0    0 -0.12859138897E+02 -0.41638138397E+02 -0.45075676762E+03  0.45285844007E+03  0.10566000000E+00 0.  1.
    -200003    1    4    4    0    0 -0.38694214892E+02 -0.15455814792E+02 -0.12841326591E+04  0.12851586713E+04  0.30000000000E+02 0.  1.
    -200000    1    3    3    0    0  0.15630787005E+03  0.53135302784E+02 -0.14423718970E+03  0.24137290141E+03  0.10100000000E+03 0. -1.
<mgrwt>
<rscale>  0 0.15812247E+04</rscale>
<asrwt>0</asrwt>
<pdfrwt beam="1">  1        2 0.34079772E+00 0.15812247E+04</pdfrwt>
<pdfrwt beam="2">  1       -2 0.37431257E-01 0.15812247E+04</pdfrwt>
<totfact> 0.32811247E+01</totfact>
</mgrwt>
</event>
<event>
 8    2  0.4306980E-052  0.1764472E+04  0.7818608E-02  0.8725425E-01
          2   -1    0    0  501    0  0.00000000000E+00  0.00000000000E+00  0.19907006236E+04  0.19907006236E+04  0.25500000000E-02 0.  1.
         -2   -1    0    0    0  501 -0.00000000000E+00 -0.00000000000E+00 -0.39098795457E+03  0.39098795458E+03  0.25500000000E-02 0. -1.
    -200001    2    1    2    0    0  0.10330132809E+03  0.61840999820E+03  0.93381773089E+03  0.12806494513E+04  0.61232783080E+03 0.  0.
   -5000001    2    3    3    0    0 -0.55278918348E+02  0.14876458427E+03  0.70192070533E+03  0.72414990967E+03  0.80707835806E+02 0.  0.
     200001    1    1    2    0    0 -0.10330132809E+03 -0.61840999820E+03  0.66589493812E+03  0.11010391269E+04  0.61300000000E+03 0.  1.
         13    1    4    4    0    0 -0.51697714409E+02  0.43377011677E+02  0.30418656963E+03  0.31158257192E+03  0.10566000000E+00 0.  1.
    -200003    1    4    4    0    0 -0.35812039393E+01  0.10538757259E+03  0.39773413570E+03  0.41256733775E+03  0.30000000000E+02 0.  1.
    -200000    1    3    3    0    0  0.15858024644E+03  0.46964541392E+03  0.23189702556E+03  0.55649954164E+03  0.10100000000E+03 0. -1.
<mgrwt>
<rscale>  0 0.17644716E+04</rscale>
<asrwt>0</asrwt>
<pdfrwt beam="1">  1        2 0.28438581E+00 0.17644716E+04</pdfrwt>
<pdfrwt beam="2">  1       -2 0.55855421E-01 0.17644716E+04</pdfrwt>
<totfact> 0.23181034E+01</totfact>
</mgrwt>
</event>
<event>
 8    2  0.4306980E-052  0.1941440E+04  0.7818608E-02  0.8634500E-01
          2   -1    0    0  501    0  0.00000000000E+00  0.00000000000E+00  0.18153585256E+04  0.18153585256E+04  0.25500000000E-02 0.  1.
         -2   -1    0    0    0  501 -0.00000000000E+00 -0.00000000000E+00 -0.51906929935E+03  0.51906929936E+03  0.25500000000E-02 0. -1.
    -200001    2    1    2    0    0 -0.10091981882E+03 -0.58352450372E+02 -0.24603248929E+03  0.67066248920E+03  0.61291628330E+03 0.  0.
   -5000001    2    3    3    0    0  0.19531855335E+02 -0.27869456624E+03 -0.22572201538E+03  0.39923520762E+03  0.17431628769E+03 0.  0.
     200001    1    1    2    0    0  0.10091981882E+03  0.58352450372E+02  0.15423217156E+04  0.16637653358E+04  0.61300000000E+03 0.  1.
         13    1    4    4    0    0 -0.90999025993E+00 -0.24926164530E+03 -0.24422829073E+03  0.34896943284E+03  0.10566000000E+00 0.  1.
    -200003    1    4    4    0    0  0.20441845595E+02 -0.29432920945E+02  0.18506275357E+02  0.50265774780E+02  0.30000000000E+02 0.  1.
    -200000    1    3    3    0    0 -0.12045167416E+03  0.22034211587E+03 -0.20310473916E+02  0.27142728158E+03  0.10100000000E+03 0. -1.
<mgrwt>
<rscale>  0 0.19414395E+04</rscale>
<asrwt>0</asrwt>
<pdfrwt beam="1">  1        2 0.25933693E+00 0.19414395E+04</pdfrwt>
<pdfrwt beam="2">  1       -2 0.74152757E-01 0.19414395E+04</pdfrwt>
<totfact> 0.15328464E+01</totfact>
</mgrwt>
</event>
<event>
 8    2  0.4306980E-052  0.1352013E+04  0.7818608E-02  0.8989305E-01
         -2   -1    0    0    0  501 -0.00000000000E+00  0.00000000000E+00  0.14027706436E+04  0.14027706436E+04  0.25500000000E-02 0. -1.
          2   -1    0    0  501    0  0.00000000000E+00 -0.00000000000E+00 -0.32577312081E+03  0.32577312082E+03  0.25500000000E-02 0.  1.
    -200001    2    1    2    0    0 -0.23729030840E+03  0.15474273577E+03  0.50238495775E+03  0.84186422558E+03  0.61326399194E+03 0.  0.
   -5000001    2    3    3    0    0 -0.27548720762E+03  0.43512025948E+01 -0.18570731154E+02  0.28898770577E+03  0.85187367033E+02 0.  0.
     200001    1    1    2    0    0  0.23729030840E+03 -0.15474273577E+03  0.57461256508E+03  0.88667953888E+03  0.61300000000E+03 0. -1.
         13    1    4    4    0    0 -0.23233794249E+03  0.17792229628E+02 -0.50041941756E+01  0.23307195473E+03  0.10566000000E+00 0.  1.
    -200003    1    4    4    0    0 -0.43149265130E+02 -0.13441027033E+02 -0.13566536979E+02  0.55915751042E+02  0.30000000000E+02 0.  1.
    -200000    1    3    3    0    0  0.38196899224E+02  0.15039153317E+03  0.52095568890E+03  0.55287651981E+03  0.10100000000E+03 0. -1.
<mgrwt>
<rscale>  0 0.13520133E+04</rscale>
<asrwt>0</asrwt>
<pdfrwt beam="1">  1        2 0.46539017E-01 0.13520133E+04</pdfrwt>
<pdfrwt beam="2">  1       -2 0.20039581E+00 0.13520133E+04</pdfrwt>
<totfact> 0.14057261E+01</totfact>
</mgrwt>
</event>
<event>
 8    2  0.4306980E-052  0.1782976E+04  0.7818608E-02  0.8715405E-01
         -2   -1    0    0    0  501 -0.00000000000E+00  0.00000000000E+00  0.49505575631E+03  0.49505575632E+03  0.25500000000E-02 0. -1.
          2   -1    0    0  501    0  0.00000000000E+00 -0.00000000000E+00 -0.16053767759E+04  0.16053767759E+04  0.25500000000E-02 0.  1.
    -200001    2    1    2    0    0 -0.54443358214E+03 -0.12921588235E+03 -0.17256296171E+03  0.84812911662E+03  0.61354735195E+03 0.  0.
   -5000001    2    3    3    0    0 -0.46610805690E+03 -0.54883752477E+02 -0.36844673708E+03  0.60270783212E+03  0.85057544266E+02 0.  0.
     200001    1    1    2    0    0  0.54443358214E+03  0.12921588235E+03 -0.93775805790E+03  0.12523034156E+04  0.61300000000E+03 0.  1.
         13    1    4    4    0    0 -0.33136135868E+03 -0.32143580494E+02 -0.29439721363E+03  0.44441342278E+03  0.10566000000E+00 0.  1.
    -200003    1    4    4    0    0 -0.13474669822E+03 -0.22740171983E+02 -0.74049523455E+02  0.15829440934E+03  0.30000000000E+02 0.  1.
    -200000    1    3    3    0    0 -0.78325525242E+02 -0.74332129871E+02  0.19588377537E+03  0.24542128450E+03  0.10100000000E+03 0. -1.
<mgrwt>
<rscale>  0 0.17829762E+04</rscale>
<asrwt>0</asrwt>
<pdfrwt beam="1">  1        2 0.22933954E+00 0.17829762E+04</pdfrwt>
<pdfrwt beam="2">  1       -2 0.70722252E-01 0.17829762E+04</pdfrwt>
<totfact> 0.22154524E+01</totfact>
</mgrwt>
</event>
<event>
 8    2  0.4306980E-052  0.1247927E+04  0.7818608E-02  0.9071910E-01
         -2   -1    0    0    0  501 -0.00000000000E+00  0.00000000000E+00  0.19113520387E+03  0.19113520389E+03  0.25500000000E-02 0. -1.
          2   -1    0    0  501    0  0.00000000000E+00 -0.00000000000E+00 -0.20369386584E+04  0.20369386584E+04  0.25500000000E-02 0.  1.
    -200001    2    1    2    0    0 -0.70621445457E+02 -0.91894210072E+02 -0.88416241456E+03  0.10817953516E+04  0.61245903776E+03 0.  0.
   -5000001    2    3    3    0    0  0.23014637476E+03  0.21887946429E+02 -0.17913190692E+03  0.30033730565E+03  0.68321453983E+02 0.  0.
     200001    1    1    2    0    0  0.70621445457E+02  0.91894210072E+02 -0.96164103998E+03  0.11462785107E+04  0.61300000000E+03 0.  1.
         13    1    4    4    0    0  0.92528859276E+02 -0.18719663504E+02 -0.66428980263E+02  0.11543325424E+03  0.10566000000E+00 0.  1.
    -200003    1    4    4    0    0  0.13761751548E+03  0.40607609933E+02 -0.11270292666E+03  0.18490405141E+03  0.30000000000E+02 0.  1.
    -200000    1    3    3    0    0 -0.30076782022E+03 -0.11378215650E+03 -0.70503050764E+03  0.78145804592E+03  0.10100000000E+03 0.  1.
<mgrwt>
<rscale>  0 0.12479274E+04</rscale>
<asrwt>0</asrwt>
<pdfrwt beam="1">  1        2 0.29099123E+00 0.12479274E+04</pdfrwt>
<pdfrwt beam="2">  1       -2 0.27305030E-01 0.12479274E+04</pdfrwt>
<totfact> 0.92290658E+01</totfact>
</mgrwt>
</event>
<event>
 8    2  0.4306980E-052  0.1478118E+04  0.7818608E-02  0.8899136E-01
          2   -1    0    0  501    0  0.00000000000E+00  0.00000000000E+00  0.13042348284E+04  0.13042348284E+04  0.25500000000E-02 0.  1.
         -2   -1    0    0    0  501 -0.00000000000E+00 -0.00000000000E+00 -0.41879599288E+03  0.41879599288E+03  0.25500000000E-02 0. -1.
    -200001    2    1    2    0    0 -0.33464988954E+03 -0.11877412865E+03  0.68720989048E+03  0.98739398364E+03  0.61367059825E+03 0.  0.
   -5000001    2    3    3    0    0 -0.70330571920E+02 -0.20451474028E+03 -0.10086486452E+02  0.23000412932E+03  0.77636936821E+02 0.  0.
     200001    1    1    2    0    0  0.33464988954E+03  0.11877412865E+03  0.19822894502E+03  0.73563683761E+03  0.61300000000E+03 0.  1.
         13    1    4    4    0    0  0.19179101843E+01 -0.47641195100E+02 -0.25428256205E+02  0.54036739610E+02  0.10566000000E+00 0.  1.
    -200003    1    4    4    0    0 -0.72248482104E+02 -0.15687354518E+03  0.15341769753E+02  0.17596738971E+03  0.30000000000E+02 0.  1.
    -200000    1    3    3    0    0 -0.26431931762E+03  0.85740611627E+02  0.69729637693E+03  0.75738985432E+03  0.10100000000E+03 0. -1.
<mgrwt>
<rscale>  0 0.14781182E+04</rscale>
<asrwt>0</asrwt>
<pdfrwt beam="1">  1        2 0.18631926E+00 0.14781182E+04</pdfrwt>
<pdfrwt beam="2">  1       -2 0.59827998E-01 0.14781182E+04</pdfrwt>
<totfact> 0.47155100E+01</totfact>
</mgrwt>
</event>
<event>
 8    2  0.4306980E-052  0.1982842E+04  0.7818608E-02  0.8614685E-01
          2   -1    0    0  501    0  0.00000000000E+00  0.00000000000E+00  0.19322883274E+04  0.19322883274E+04  0.25500000000E-02 0.  1.
         -2   -1    0    0    0  501 -0.00000000000E+00 -0.00000000000E+00 -0.50867975409E+03  0.50867975410E+03  0.25500000000E-02 0. -1.
    -200001    2    1    2    0    0 -0.47854310314E+03 -0.43140586844E+03  0.12509055504E+04  0.15350376984E+04  0.61356459699E+03 0.  0.
   -5000001    2    3    3    0    0 -0.24438501717E+03 -0.32692298380E+03  0.24396262732E+03  0.49106368881E+03  0.12256879288E+03 0.  0.
     200001    1    1    2    0    0  0.47854310314E+03  0.43140586844E+03  0.17270302293E+03  0.90593038310E+03  0.61300000000E+03 0. -1.
         13    1    4    4    0    0 -0.12057354551E+03 -0.70062308258E+02  0.81169571644E+02  0.16135432266E+03  0.10566000000E+00 0.  1.
    -200003    1    4    4    0    0 -0.12381147166E+03 -0.25686067554E+03  0.16279305568E+03  0.32970936615E+03  0.30000000000E+02 0.  1.
    -200000    1    3    3    0    0 -0.23415808597E+03 -0.10448288465E+03  0.10069429231E+04  0.10439740096E+04  0.10100000000E+03 0.  1.
<mgrwt>
<rscale>  0 0.19828424E+04</rscale>
<asrwt>0</asrwt>
<pdfrwt beam="1">  1        2 0.27604118E+00 0.19828424E+04</pdfrwt>
<pdfrwt beam="2">  1       -2 0.72668538E-01 0.19828424E+04</pdfrwt>
<totfact> 0.13902287E+01</totfact>
</mgrwt>
</event>
<event>
 8    2  0.4306980E-052  0.1377495E+04  0.7818608E-02  0.8970272E-01
          2   -1    0    0  501    0  0.00000000000E+00  0.00000000000E+00  0.20252054460E+04  0.20252054460E+04  0.25500000000E-02 0.  1.
         -2   -1    0    0    0  501 -0.00000000000E+00 -0.00000000000E+00 -0.23423467498E+03  0.23423467499E+03  0.25500000000E-02 0. -1.
    -200001    2    1    2    0    0 -0.14351398590E+03  0.26399584705E+03  0.74320729227E+03  0.10088932891E+04  0.61255082896E+03 0.  0.
   -5000001    2    3    3    0    0  0.21032181041E+03  0.16661553019E+03  0.36259514423E+03  0.47060962400E+03  0.13417220554E+03 0.  0.
     200001    1    1    2    0    0  0.14351398590E+03 -0.26399584705E+03  0.10477634788E+04  0.12505468319E+04  0.61300000000E+03 0.  1.
         13    1    4    4    0    0  0.50372191990E+02 -0.38198908935E+01  0.13013567869E+03  0.13959675972E+03  0.10566000000E+00 0.  1.
    -200003    1    4    4    0    0  0.15994961843E+03  0.17043542109E+03  0.23245946554E+03  0.33101286428E+03  0.30000000000E+02 0.  1.
    -200000    1    3    3    0    0 -0.35383579631E+03  0.97380316858E+02  0.38061214804E+03  0.53828366509E+03  0.10100000000E+03 0. -1.
<mgrwt>
<rscale>  0 0.13774953E+04</rscale>
<asrwt>0</asrwt>
<pdfrwt beam="1">  1        2 0.28931506E+00 0.13774953E+04</pdfrwt>
<pdfrwt beam="2">  1       -2 0.33462097E-01 0.13774953E+04</pdfrwt>
<totfact> 0.63422064E+01</totfact>
</mgrwt>
</event>
<event>
 8    2  0.4306980E-052  0.1672522E+04  0.7818608E-02  0.8777193E-01
          2   -1    0    0  501    0  0.00000000000E+00  0.00000000000E+00  0.14621842562E+04  0.14621842562E+04  0.25500000000E-02 0.  1.
         -2   -1    0    0    0  501 -0.00000000000E+00 -0.00000000000E+00 -0.47827916083E+03  0.47827916084E+03  0.25500000000E-02 0. -1.
    -200001    2    1    2    0    0  0.49628799814E+03  0.24710590541E+03  0.34348133114E+03  0.89486564382E+03  0.61273321279E+03 0.  0.
   -5000001    2    3    3    0    0  0.58783236768E+03  0.25815062638E+03  0.15896465584E+03  0.66519248274E+03  0.70870578465E+02 0.  0.
     200001    1    1    2    0    0 -0.49628799814E+03 -0.24710590541E+03  0.64042376424E+03  0.10455977732E+04  0.61300000000E+03 0.  1.
         13    1    4    4    0    0  0.16116750892E+03  0.10123519996E+03  0.46394442367E+02  0.19589789966E+03  0.10566000000E+00 0.  1.
    -200003    1    4    4    0    0  0.42666485877E+03  0.15691542641E+03  0.11257021348E+03  0.46929458309E+03  0.30000000000E+02 0.  1.
    -200000    1    3    3    0    0 -0.91544369545E+02 -0.11044720970E+02  0.18451667529E+03  0.22967316108E+03  0.10100000000E+03 0.  1.
<mgrwt>
<rscale>  0 0.16725218E+04</rscale>
<asrwt>0</asrwt>
<pdfrwt beam="1">  1        2 0.20888347E+00 0.16725218E+04</pdfrwt>
<pdfrwt beam="2">  1       -2 0.68325594E-01 0.16725218E+04</pdfrwt>
<totfact> 0.28690003E+01</totfact>
</mgrwt>
</event>
<event>
 8    2  0.4306980E-052  0.2692699E+04  0.7818608E-02  0.8337378E-01
          2   -1    0    0  501    0  0.00000000000E+00  0.00000000000E+00  0.10755581788E+04  0.10755581788E+04  0.25500000000E-02 0.  1.
         -2   -1    0    0    0  501 -0.00000000000E+00 -0.00000000000E+00 -0.16853171261E+04  0.16853171261E+04  0.25500000000E-02 0. -1.
    -200001    2    1    2    0    0  0.49997312591E+03  0.20405188554E+03 -0.14022634895E+04  0.16227001215E+04  0.61253774728E+03 0.  0.
   -5000001    2    3    3    0    0  0.12121328515E+03  0.94477546693E+02 -0.10052111071E+03  0.25880871332E+03  0.18236992369E+03 0.  0.
     200001    1    1    2    0    0 -0.49997312591E+03 -0.20405188554E+03  0.79250454215E+03  0.11381751833E+04  0.61300000000E+03 0.  1.
         13    1    4    4    0    0  0.12401579670E+03  0.91790669679E+02 -0.47662568818E+00  0.15429090449E+03  0.10566000000E+00 0.  1.
    -200003    1    4    4    0    0 -0.28025115504E+01  0.26868770132E+01 -0.10004448503E+03  0.10451780883E+03  0.30000000000E+02 0.  1.
    -200000    1    3    3    0    0  0.37875984076E+03  0.10957433885E+03 -0.13017423788E+04  0.13638914082E+04  0.10100000000E+03 0. -1.
<mgrwt>
<rscale>  0 0.26926987E+04</rscale>
<asrwt>0</asrwt>
<pdfrwt beam="1">  1        2 0.15365117E+00 0.26926987E+04</pdfrwt>
<pdfrwt beam="2">  1       -2 0.24075959E+00 0.26926987E+04</pdfrwt>
<totfact> 0.16346352E+00</totfact>
</mgrwt>
</event>
<event>
 8    2  0.4306980E-052  0.1381615E+04  0.7818608E-02  0.8967235E-01
          2   -1    0    0  501    0  0.00000000000E+00  0.00000000000E+00  0.10247286060E+04  0.10247286060E+04  0.25500000000E-02 0.  1.
         -2   -1    0    0    0  501 -0.00000000000E+00 -0.00000000000E+00 -0.46569911243E+03  0.46569911243E+03  0.25500000000E-02 0. -1.
    -200001    2    1    2    0    0  0.15012569950E+03 -0.11242777292E+03  0.24495519203E+01  0.64147073412E+03  0.61343375572E+03 0.  0.
   -5000001    2    3    3    0    0  0.16214923907E+03  0.19174817904E+03 -0.11621887685E+03  0.29949007495E+03  0.11457634033E+03 0.  0.
     200001    1    1    2    0    0 -0.15012569950E+03  0.11242777292E+03  0.55657994165E+03  0.84895698432E+03  0.61300000000E+03 0.  1.
         13    1    4    4    0    0  0.44179847687E+01  0.48277065808E+02  0.10563353183E+02  0.49616421343E+02  0.10566000000E+00 0.  1.
    -200003    1    4    4    0    0  0.15773125430E+03  0.14347111323E+03 -0.12678223004E+03  0.24987365361E+03  0.30000000000E+02 0.  1.
    -200000    1    3    3    0    0 -0.12023539570E+02 -0.30417595196E+03  0.11866842878E+03  0.34198065916E+03  0.10100000000E+03 0.  1.
<mgrwt>
<rscale>  0 0.13816153E+04</rscale>
<asrwt>0</asrwt>
<pdfrwt beam="1">  1        2 0.14638980E+00 0.13816153E+04</pdfrwt>
<pdfrwt beam="2">  1       -2 0.66528445E-01 0.13816153E+04</pdfrwt>
<totfact> 0.54953185E+01</totfact>
</mgrwt>
</event>
<event>
 8    2  0.4306980E-052  0.1516665E+04  0.7818608E-02  0.8873446E-01
         -2   -1    0    0    0  501 -0.00000000000E+00  0.00000000000E+00  0.33743684113E+03  0.33743684114E+03  0.25500000000E-02 0. -1.
          2   -1    0    0  501    0  0.00000000000E+00 -0.00000000000E+00 -0.17042239321E+04  0.17042239321E+04  0.25500000000E-02 0.  1.
    -200001    2    1    2    0    0 -0.40099461244E+03 -0.18496336432E+03 -0.77009077789E+03  0.10789439844E+04  0.61324725033E+03 0.  0.
   -5000001    2    3    3    0    0  0.40067623484E+02 -0.81514386228E+02 -0.54928944876E+03  0.56494805647E+03  0.95903067650E+02 0.  0.
     200001    1    1    2    0    0  0.40099461244E+03  0.18496336432E+03 -0.59669631305E+03  0.96271678876E+03  0.61300000000E+03 0. -1.
         13    1    4    4    0    0  0.64380155313E+01 -0.86161634790E+02 -0.33945441073E+03  0.35027786610E+03  0.10566000000E+00 0.  1.
    -200003    1    4    4    0    0  0.33629607953E+02  0.46472485618E+01 -0.20983503803E+03  0.21467019037E+03  0.30000000000E+02 0.  1.
    -200000    1    3    3    0    0 -0.44106223592E+03 -0.10344897809E+03 -0.22080132914E+03  0.51399592798E+03  0.10100000000E+03 0. -1.
<mgrwt>
<rscale>  0 0.15166647E+04</rscale>
<asrwt>0</asrwt>
<pdfrwt beam="1">  1        2 0.24346056E+00 0.15166647E+04</pdfrwt>
<pdfrwt beam="2">  1       -2 0.48205264E-01 0.15166647E+04</pdfrwt>
<totfact> 0.44955036E+01</totfact>
</mgrwt>
</event>
<event>
 8    2  0.4306980E-052  0.1281300E+04  0.7818608E-02  0.9044527E-01
          2   -1    0    0  501    0  0.00000000000E+00  0.00000000000E+00  0.10086801863E+04  0.10086801863E+04  0.25500000000E-02 0.  1.
         -2   -1    0    0    0  501 -0.00000000000E+00 -0.00000000000E+00 -0.40690055150E+03  0.40690055151E+03  0.25500000000E-02 0. -1.
    -200001    2    1    2    0    0  0.12486237777E+03 -0.62936811560E+02  0.43709006386E+03  0.76562434666E+03  0.61284684926E+03 0.  0.
   -5000001    2    3    3    0    0  0.12949612170E+03 -0.97469223826E+02 -0.10111488392E+03  0.21691720720E+03  0.10275874609E+03 0.  0.
     200001    1    1    2    0    0 -0.12486237777E+03  0.62936811560E+02  0.16468957096E+03  0.64995639116E+03  0.61300000000E+03 0. -1.
         13    1    4    4    0    0  0.19262307115E+02 -0.47423664613E+02  0.72447056059E+01  0.51696589482E+02  0.10566000000E+00 0.  1.
    -200003    1    4    4    0    0  0.11023381459E+03 -0.50045559213E+02 -0.10835958953E+03  0.16522061772E+03  0.30000000000E+02 0.  1.
    -200000    1    3    3    0    0 -0.46337439330E+01  0.34532412266E+02  0.53820494778E+03  0.54870713946E+03  0.10100000000E+03 0.  1.
<mgrwt>
<rscale>  0 0.12813002E+04</rscale>
<asrwt>0</asrwt>
<pdfrwt beam="1">  1        2 0.14409717E+00 0.12813002E+04</pdfrwt>
<pdfrwt beam="2">  1       -2 0.58128650E-01 0.12813002E+04</pdfrwt>
<totfact> 0.75448315E+01</totfact>
</mgrwt>
</event>
<event>
 8    2  0.4306980E-052  0.1325456E+04  0.7818608E-02  0.9009618E-01
          2   -1    0    0  501    0  0.00000000000E+00  0.00000000000E+00  0.28232068095E+04  0.28232068095E+04  0.25500000000E-02 0.  1.
         -2   -1    0    0    0  501 -0.00000000000E+00 -0.00000000000E+00 -0.15557079023E+03  0.15557079025E+03  0.25500000000E-02 0. -1.
    -200001    2    1    2    0    0 -0.13060062849E+03  0.19382728644E+03  0.15441700491E+04  0.16777893879E+04  0.61309913443E+03 0.  0.
   -5000001    2    3    3    0    0  0.18496501611E+03  0.11110916545E+03  0.41760973705E+03  0.50060499276E+03  0.17219222533E+03 0.  0.
     200001    1    1    2    0    0  0.13060062849E+03 -0.19382728644E+03  0.11234659702E+04  0.13009882118E+04  0.61300000000E+03 0.  1.
         13    1    4    4    0    0 -0.59695182515E+01  0.38804662549E+01 -0.13991478390E+02  0.15699229219E+02  0.10566000000E+00 0.  1.
    -200003    1    4    4    0    0  0.19093453436E+03  0.10722869920E+03  0.43160121544E+03  0.48490576354E+03  0.30000000000E+02 0.  1.
    -200000    1    3    3    0    0 -0.31556564459E+03  0.82718120985E+02  0.11265603120E+04  0.11771843952E+04  0.10100000000E+03 0.  1.
<mgrwt>
<rscale>  0 0.13254562E+04</rscale>
<asrwt>0</asrwt>
<pdfrwt beam="1">  1        2 0.40331528E+00 0.13254562E+04</pdfrwt>
<pdfrwt beam="2">  1       -2 0.22224398E-01 0.13254562E+04</pdfrwt>
<totfact> 0.51616132E+01</totfact>
</mgrwt>
</event>
<event>
 8    2  0.4306980E-052  0.1489947E+04  0.7818608E-02  0.8891166E-01
          2   -1    0    0  501    0  0.00000000000E+00  0.00000000000E+00  0.36317890781E+04  0.36317890781E+04  0.25500000000E-02 0.  1.
         -2   -1    0    0    0  501 -0.00000000000E+00 -0.00000000000E+00 -0.15281316449E+03  0.15281316451E+03  0.25500000000E-02 0. -1.
    -200001    2    1    2    0    0  0.26468863901E+03 -0.24282437343E+03  0.11702807416E+04  0.13690554827E+04  0.61296994108E+03 0.  0.
   -5000001    2    3    3    0    0  0.44673604495E+03 -0.15131597733E+03  0.86635767880E+03  0.98946982353E+03  0.77493775225E+02 0.  0.
     200001    1    1    2    0    0 -0.26468863901E+03  0.24282437343E+03  0.23086951721E+04  0.24155467599E+04  0.61300000000E+03 0.  1.
         13    1    4    4    0    0  0.28567653563E+03 -0.65811842385E+02  0.52587591946E+03  0.60206957691E+03  0.10566000000E+00 0.  1.
    -200003    1    4    4    0    0  0.16105950932E+03 -0.85504134942E+02  0.34048175934E+03  0.38740024661E+03  0.30000000000E+02 0. -1.
    -200000    1    3    3    0    0 -0.18204740594E+03 -0.91508396098E+02  0.30392306275E+03  0.37958565916E+03  0.10100000000E+03 0. -1.
<mgrwt>
<rscale>  0 0.14899466E+04</rscale>
<asrwt>0</asrwt>
<pdfrwt beam="1">  1        2 0.51882705E+00 0.14899466E+04</pdfrwt>
<pdfrwt beam="2">  1       -2 0.21830450E-01 0.14899466E+04</pdfrwt>
<totfact> 0.17867286E+01</totfact>
</mgrwt>
</event>
<event>
 8    2  0.4306980E-052  0.1321300E+04  0.7818608E-02  0.9012842E-01
         -2   -1    0    0    0  501 -0.00000000000E+00  0.00000000000E+00  0.60383712930E+03  0.60383712931E+03  0.25500000000E-02 0. -1.
          2   -1    0    0  501    0  0.00000000000E+00 -0.00000000000E+00 -0.72280840483E+03  0.72280840483E+03  0.25500000000E-02 0.  1.
    -200001    2    1    2    0    0 -0.11557121252E+03 -0.94290110911E+02  0.13770022536E+03  0.64554598962E+03  0.61279763583E+03 0.  0.
   -5000001    2    3    3    0    0 -0.10180117893E+03  0.21548597582E+03  0.18967381228E+03  0.31531411430E+03  0.81542319107E+02 0.  0.
     200001    1    1    2    0    0  0.11557121252E+03  0.94290110911E+02 -0.25667150088E+03  0.68109954452E+03  0.61300000000E+03 0.  1.
         13    1    4    4    0    0 -0.42324893653E+02  0.10722493492E+03  0.13338320341E+03  0.17629428070E+03  0.10566000000E+00 0.  1.
    -200003    1    4    4    0    0 -0.59476285281E+02  0.10826104091E+03  0.56290608872E+02  0.13901983361E+03  0.30000000000E+02 0.  1.
    -200000    1    3    3    0    0 -0.13770033581E+02 -0.30977608674E+03 -0.51973586923E+02  0.33023187532E+03  0.10100000000E+03 0.  1.
<mgrwt>
<rscale>  0 0.13213002E+04</rscale>
<asrwt>0</asrwt>
<pdfrwt beam="1">  1        2 0.10325834E+00 0.13213002E+04</pdfrwt>
<pdfrwt beam="2">  1       -2 0.86262448E-01 0.13213002E+04</pdfrwt>
<totfact> 0.49395897E+01</totfact>
</mgrwt>
</event>
<event>
 8    2  0.4306980E-052  0.1686430E+04  0.7818608E-02  0.8769142E-01
          2   -1    0    0  501    0  0.00000000000E+00  0.00000000000E+00  0.18015262924E+04  0.18015262924E+04  0.25500000000E-02 0.  1.
         -2   -1    0    0    0  501 -0.00000000000E+00 -0.00000000000E+00 -0.39467161013E+03  0.39467161014E+03  0.25500000000E-02 0. -1.
    -200001    2    1    2    0    0  0.92637436923E+02  0.51418652759E+03  0.10288076715E+04  0.13064462393E+04  0.61268839670E+03 0.  0.
   -5000001    2    3    3    0    0  0.25122224930E+03  0.54224351296E+01  0.33371993894E+03  0.42477850121E+03  0.76978932812E+02 0.  0.
     200001    1    1    2    0    0 -0.92637436923E+02 -0.51418652759E+03  0.37804701080E+03  0.88975166324E+03  0.61300000000E+03 0. -1.
         13    1    4    4    0    0  0.19928077982E+03 -0.43167456862E+01  0.22806646477E+03  0.30289567019E+03  0.10566000000E+00 0.  1.
    -200003    1    4    4    0    0  0.51941469478E+02  0.97391808158E+01  0.10565347416E+03  0.12188283102E+03  0.30000000000E+02 0.  1.
    -200000    1    3    3    0    0 -0.15858481237E+03  0.50876409246E+03  0.69508773255E+03  0.88166773811E+03  0.10100000000E+03 0.  1.
<mgrwt>
<rscale>  0 0.16864297E+04</rscale>
<asrwt>0</asrwt>
<pdfrwt beam="1">  1        2 0.25736089E+00 0.16864297E+04</pdfrwt>
<pdfrwt beam="2">  1       -2 0.56381660E-01 0.16864297E+04</pdfrwt>
<totfact> 0.28630915E+01</totfact>
</mgrwt>
</event>
<event>
 8    2  0.4306980E-052  0.1363663E+04  0.7818608E-02  0.8980550E-01
          2   -1    0    0  501    0  0.00000000000E+00  0.00000000000E+00  0.19544356551E+04  0.19544356551E+04  0.25500000000E-02 0.  1.
         -2   -1    0    0    0  501 -0.00000000000E+00 -0.00000000000E+00 -0.23786611450E+03  0.23786611451E+03  0.25500000000E-02 0. -1.
    -200001    2    1    2    0    0 -0.25568761695E+02 -0.91370295583E+02  0.13127683405E+04  0.14521486087E+04  0.61349211348E+03 0.  0.
   -5000001    2    3    3    0    0  0.13699170967E+03 -0.29212299853E+03  0.85363770531E+03  0.91574438164E+03  0.76078024333E+02 0.  0.
     200001    1    1    2    0    0  0.25568761695E+02  0.91370295583E+02  0.40380120011E+03  0.74015316098E+03  0.61300000000E+03 0. -1.
         13    1    4    4    0    0  0.11128529702E+03 -0.24921678314E+03  0.68972648553E+03  0.74176550091E+03  0.10566000000E+00 0.  1.
    -200003    1    4    4    0    0  0.25706412646E+02 -0.42906215391E+02  0.16391121978E+03  0.17397888073E+03  0.30000000000E+02 0.  1.
    -200000    1    3    3    0    0 -0.16256047136E+03  0.20075270295E+03  0.45913063521E+03  0.53640422703E+03  0.10100000000E+03 0.  1.
<mgrwt>
<rscale>  0 0.13636627E+04</rscale>
<asrwt>0</asrwt>
<pdfrwt beam="1">  1        2 0.27920509E+00 0.13636627E+04</pdfrwt>
<pdfrwt beam="2">  1       -2 0.33980874E-01 0.13636627E+04</pdfrwt>
<totfact> 0.67041208E+01</totfact>
</mgrwt>
</event>
<event>
 8    2  0.4306980E-052  0.1603703E+04  0.7818608E-02  0.8818277E-01
         -2   -1    0    0    0  501 -0.00000000000E+00  0.00000000000E+00  0.50076251498E+03  0.50076251498E+03  0.25500000000E-02 0. -1.
          2   -1    0    0  501    0  0.00000000000E+00 -0.00000000000E+00 -0.12839728404E+04  0.12839728404E+04  0.25500000000E-02 0.  1.
    -200001    2    1    2    0    0 -0.50218088114E+03 -0.86609479460E+02 -0.48784993978E+03  0.93462148257E+03  0.61305212880E+03 0.  0.
   -5000001    2    3    3    0    0 -0.29201529872E+03 -0.26065691704E+03 -0.49533947137E+02  0.40851883862E+03  0.10592009489E+03 0.  0.
     200001    1    1    2    0    0  0.50218088114E+03  0.86609479460E+02 -0.29536038562E+03  0.85011387279E+03  0.61300000000E+03 0. -1.
         13    1    4    4    0    0 -0.23141776892E+03 -0.18272952982E+03 -0.70644916179E+02  0.30320781683E+03  0.10566000000E+00 0.  1.
    -200003    1    4    4    0    0 -0.60597529797E+02 -0.77927387221E+02  0.21110969042E+02  0.10531102179E+03  0.30000000000E+02 0.  1.
    -200000    1    3    3    0    0 -0.21016558242E+03  0.17404743759E+03 -0.43831599264E+03  0.52610264395E+03  0.10100000000E+03 0. -1.
<mgrwt>
<rscale>  0 0.16037026E+04</rscale>
<asrwt>0</asrwt>
<pdfrwt beam="1">  1        2 0.18342469E+00 0.16037026E+04</pdfrwt>
<pdfrwt beam="2">  1       -2 0.71537502E-01 0.16037026E+04</pdfrwt>
<totfact> 0.32634211E+01</totfact>
</mgrwt>
</event>
<event>
 8    2  0.4306980E-052  0.2637888E+04  0.7818608E-02  0.8355444E-01
          2   -1    0    0  501    0  0.00000000000E+00  0.00000000000E+00  0.37204171267E+04  0.37204171267E+04  0.25500000000E-02 0.  1.
         -2   -1    0    0    0  501 -0.00000000000E+00 -0.00000000000E+00 -0.46758541120E+03  0.46758541121E+03  0.25500000000E-02 0. -1.
    -200001    2    1    2    0    0  0.13131614596E+03  0.10615787538E+03  0.34609022949E+04  0.35189914837E+04  0.61395679193E+03 0.  0.
   -5000001    2    3    3    0    0 -0.13427160292E+03  0.24408710596E+03  0.14868101638E+04  0.15197911267E+04  0.14681017350E+03 0.  0.
     200001    1    1    2    0    0 -0.13131614596E+03 -0.10615787538E+03 -0.20807057943E+03  0.66901105426E+03  0.61300000000E+03 0. -1.
         13    1    4    4    0    0 -0.70117998589E+02  0.13489496705E+03  0.11261678783E+04  0.11363834243E+04  0.10566000000E+00 0.  1.
    -200003    1    4    4    0    0 -0.64153604326E+02  0.10919213892E+03  0.36064228553E+03  0.38340770240E+03  0.30000000000E+02 0.  1.
    -200000    1    3    3    0    0  0.26558774887E+03 -0.13792923059E+03  0.19740921311E+04  0.19992003569E+04  0.10100000000E+03 0.  1.
<mgrwt>
<rscale>  0 0.26378876E+04</rscale>
<asrwt>0</asrwt>
<pdfrwt beam="1">  1        2 0.53148817E+00 0.26378876E+04</pdfrwt>
<pdfrwt beam="2">  1       -2 0.66797915E-01 0.26378876E+04</pdfrwt>
<totfact> 0.15954712E+00</totfact>
</mgrwt>
</event>
<event>
 8    2  0.4306980E-052  0.1325253E+04  0.7818608E-02  0.9009776E-01
          2   -1    0    0  501    0  0.00000000000E+00  0.00000000000E+00  0.86334343137E+03  0.86334343137E+03  0.25500000000E-02 0. -1.
         -2   -1    0    0    0  501 -0.00000000000E+00 -0.00000000000E+00 -0.50857357620E+03  0.50857357621E+03  0.25500000000E-02 0.  1.
    -200001    2    1    2    0    0  0.24613037744E+03 -0.45099399573E+02  0.16493943932E+03  0.68313641456E+03  0.61388616511E+03 0.  0.
   -5000001    2    3    3    0    0  0.22105087823E+03  0.12337488568E+03 -0.14969338400E+03  0.31137388339E+03  0.10227772416E+03 0.  0.
     200001    1    1    2    0    0 -0.24613037744E+03  0.45099399573E+02  0.18983041584E+03  0.68878059302E+03  0.61300000000E+03 0. -1.
         13    1    4    4    0    0  0.20104462803E+03  0.79548571399E+02 -0.12133072487E+03  0.24792755723E+03  0.10566000000E+00 0.  1.
    -200003    1    4    4    0    0  0.20006250203E+02  0.43826314277E+02 -0.28362659132E+02  0.63446326161E+02  0.30000000000E+02 0.  1.
    -200000    1    3    3    0    0  0.25079499210E+02 -0.16847428525E+03  0.31463282333E+03  0.37176253117E+03  0.10100000000E+03 0.  1.
<mgrwt>
<rscale>  0 0.13252527E+04</rscale>
<asrwt>0</asrwt>
<pdfrwt beam="1">  1        2 0.12333478E+00 0.13252527E+04</pdfrwt>
<pdfrwt beam="2">  1       -2 0.72653368E-01 0.13252527E+04</pdfrwt>
<totfact> 0.57730398E+01</totfact>
</mgrwt>
</event>
<event>
 8    2  0.4306980E-052  0.1398774E+04  0.7818608E-02  0.8954707E-01
         -2   -1    0    0    0  501 -0.00000000000E+00  0.00000000000E+00  0.63214091391E+03  0.63214091392E+03  0.25500000000E-02 0. -1.
          2   -1    0    0  501    0  0.00000000000E+00 -0.00000000000E+00 -0.77378606676E+03  0.77378606677E+03  0.25500000000E-02 0.  1.
    -200001    2    1    2    0    0 -0.45388348557E+02  0.48421203099E+02  0.26111885404E+03  0.66945392596E+03  0.61284646360E+03 0.  0.
   -5000001    2    3    3    0    0  0.83010359758E+02 -0.24929809644E+03  0.11377672149E+03  0.29927327596E+03  0.87057972830E+02 0.  0.
     200001    1    1    2    0    0  0.45388348557E+02 -0.48421203099E+02 -0.40276400689E+03  0.73647305473E+03  0.61300000000E+03 0.  1.
         13    1    4    4    0    0  0.18664234516E+02 -0.39266617808E+02  0.54619044716E+02  0.69810258085E+02  0.10566000000E+00 0.  1.
    -200003    1    4    4    0    0  0.64346125242E+02 -0.21003147863E+03  0.59157676778E+02  0.22946301787E+03  0.30000000000E+02 0.  1.
    -200000    1    3    3    0    0 -0.12839870831E+03  0.29771929953E+03  0.14734213255E+03  0.37018065000E+03  0.10100000000E+03 0. -1.
<mgrwt>
<rscale>  0 0.13987735E+04</rscale>
<asrwt>0</asrwt>
<pdfrwt beam="1">  1        2 0.11054087E+00 0.13987735E+04</pdfrwt>
<pdfrwt beam="2">  1       -2 0.90305846E-01 0.13987735E+04</pdfrwt>
<totfact> 0.40572190E+01</totfact>
</mgrwt>
</event>
<event>
 8    2  0.4306980E-052  0.1885604E+04  0.7818608E-02  0.8662055E-01
          2   -1    0    0  501    0  0.00000000000E+00  0.00000000000E+00  0.71573155957E+03  0.71573155957E+03  0.25500000000E-02 0.  1.
         -2   -1    0    0    0  501 -0.00000000000E+00 -0.00000000000E+00 -0.12419123043E+04  0.12419123043E+04  0.25500000000E-02 0. -1.
    -200001    2    1    2    0    0 -0.15015529459E+03 -0.69825582040E+03 -0.19337943420E+03  0.95932852517E+03  0.61057989683E+03 0.  0.
   -5000001    2    3    3    0    0  0.14059497423E+03 -0.58757939306E+03 -0.16886562083E+03  0.63132407790E+03  0.70978894792E+02 0.  0.
     200001    1    1    2    0    0  0.15015529459E+03  0.69825582040E+03 -0.33280131056E+03  0.99831533873E+03  0.61300000000E+03 0.  1.
         13    1    4    4    0    0  0.44235991666E+02 -0.29998371731E+03 -0.74232873399E+02  0.31218197300E+03  0.10566000000E+00 0.  1.
    -200003    1    4    4    0    0  0.96358982559E+02 -0.28759567575E+03 -0.94632747436E+02  0.31914210490E+03  0.30000000000E+02 0.  1.
    -200000    1    3    3    0    0 -0.29075026882E+03 -0.11067642734E+03 -0.24513813362E+02  0.32800444728E+03  0.10100000000E+03 0.  1.
<mgrwt>
<rscale>  0 0.18856042E+04</rscale>
<asrwt>0</asrwt>
<pdfrwt beam="1">  1        2 0.10224737E+00 0.18856042E+04</pdfrwt>
<pdfrwt beam="2">  1       -2 0.17741604E+00 0.18856042E+04</pdfrwt>
<totfact> 0.77786535E+00</totfact>
</mgrwt>
</event>
<event>
 8    2  0.4306980E-052  0.1324976E+04  0.7818608E-02  0.9009990E-01
         -2   -1    0    0    0  501 -0.00000000000E+00  0.00000000000E+00  0.26310788144E+03  0.26310788146E+03  0.25500000000E-02 0. -1.
          2   -1    0    0  501    0  0.00000000000E+00 -0.00000000000E+00 -0.16681010873E+04  0.16681010873E+04  0.25500000000E-02 0.  1.
    -200001    2    1    2    0    0 -0.15382145341E+03 -0.17927423977E+03 -0.82506297042E+03  0.10549165686E+04  0.61344907614E+03 0.  0.
   -5000001    2    3    3    0    0 -0.29479621126E+03  0.76465723977E+02 -0.57989544678E+03  0.66047401760E+03  0.84825618852E+02 0.  0.
     200001    1    1    2    0    0  0.15382145341E+03  0.17927423977E+03 -0.57993023545E+03  0.87629240015E+03  0.61300000000E+03 0. -1.
         13    1    4    4    0    0 -0.14011198478E+03  0.23577130562E+02 -0.34132296353E+03  0.36971424907E+03  0.10566000000E+00 0.  1.
    -200003    1    4    4    0    0 -0.15468422648E+03  0.52888593414E+02 -0.23857248325E+03  0.29075976854E+03  0.30000000000E+02 0. -1.
    -200000    1    3    3    0    0  0.14097475785E+03 -0.25573996374E+03 -0.24516752364E+03  0.39444255102E+03  0.10100000000E+03 0. -1.
<mgrwt>
<rscale>  0 0.13249763E+04</rscale>
<asrwt>0</asrwt>
<pdfrwt beam="1">  1        2 0.23830015E+00 0.13249763E+04</pdfrwt>
<pdfrwt beam="2">  1       -2 0.37586841E-01 0.13249763E+04</pdfrwt>
<totfact> 0.77879202E+01</totfact>
</mgrwt>
</event>
<event>
 8    2  0.4306980E-052  0.1319111E+04  0.7818608E-02  0.9014546E-01
         -2   -1    0    0    0  501 -0.00000000000E+00  0.00000000000E+00  0.48270653490E+03  0.48270653491E+03  0.25500000000E-02 0. -1.
          2   -1    0    0  501    0  0.00000000000E+00 -0.00000000000E+00 -0.90119592961E+03  0.90119592961E+03  0.25500000000E-02 0.  1.
    -200001    2    1    2    0    0 -0.11649454909E+03 -0.19559770953E+03 -0.29231533497E+03  0.71793074042E+03  0.61493645935E+03 0.  0.
   -5000001    2    3    3    0    0 -0.73378965494E+02 -0.34220259192E+02 -0.44261430564E+03  0.47157243305E+03  0.14112985985E+03 0.  0.
     200001    1    1    2    0    0  0.11649454909E+03  0.19559770953E+03 -0.12617405973E+03  0.66597172409E+03  0.61300000000E+03 0.  1.
         13    1    4    4    0    0 -0.66952250367E+02 -0.32331712142E+02 -0.43304112257E+03  0.43937747830E+03  0.10566000000E+00 0.  1.
    -200003    1    4    4    0    0 -0.64267151263E+01 -0.18885470499E+01 -0.95731830721E+01  0.32194954751E+02  0.30000000000E+02 0. -1.
    -200000    1    3    3    0    0 -0.43115583600E+02 -0.16137745034E+03  0.15029897067E+03  0.24635830737E+03  0.10100000000E+03 0. -1.
<mgrwt>
<rscale>  0 0.13191106E+04</rscale>
<asrwt>0</asrwt>
<pdfrwt beam="1">  1        2 0.12874227E+00 0.13191106E+04</pdfrwt>
<pdfrwt beam="2">  1       -2 0.68958077E-01 0.13191106E+04</pdfrwt>
<totfact> 0.61114028E+01</totfact>
</mgrwt>
</event>
<event>
 8    2  0.4306980E-052  0.1475437E+04  0.7818608E-02  0.8900954E-01
         -2   -1    0    0    0  501 -0.00000000000E+00  0.00000000000E+00  0.50364142880E+03  0.50364142881E+03  0.25500000000E-02 0. -1.
          2   -1    0    0  501    0  0.00000000000E+00 -0.00000000000E+00 -0.10805869683E+04  0.10805869683E+04  0.25500000000E-02 0.  1.
    -200001    2    1    2    0    0 -0.71611586354E+01 -0.11975016106E+03  0.12940549826E+03  0.64131155464E+03  0.61655765657E+03 0.  0.
   -5000001    2    3    3    0    0 -0.17572827858E+03 -0.28209932381E+02 -0.11667352338E+03  0.31336282041E+03  0.23001590810E+03 0.  0.
     200001    1    1    2    0    0  0.71611586354E+01  0.11975016106E+03 -0.70635103773E+03  0.94291684245E+03  0.61300000000E+03 0.  1.
         13    1    4    4    0    0  0.19224685465E+02  0.73514585019E+01 -0.11096087260E+03  0.11285370568E+03  0.10566000000E+00 0.  1.
    -200003    1    4    4    0    0 -0.19495296404E+03 -0.35561390883E+02 -0.57126507844E+01  0.20050911473E+03  0.30000000000E+02 0.  1.
    -200000    1    3    3    0    0  0.16856711994E+03 -0.91540228675E+02  0.24607902164E+03  0.32794873423E+03  0.10100000000E+03 0. -1.
<mgrwt>
<rscale>  0 0.14754367E+04</rscale>
<asrwt>0</asrwt>
<pdfrwt beam="1">  1        2 0.15436957E+00 0.14754367E+04</pdfrwt>
<pdfrwt beam="2">  1       -2 0.71948776E-01 0.14754367E+04</pdfrwt>
<totfact> 0.42585339E+01</totfact>
</mgrwt>
</event>
<event>
 8    2  0.4306980E-052  0.2866513E+04  0.7818608E-02  0.8282911E-01
          2   -1    0    0  501    0  0.00000000000E+00  0.00000000000E+00  0.19766264175E+04  0.19766264175E+04  0.25500000000E-02 0.  1.
         -2   -1    0    0    0  501 -0.00000000000E+00 -0.00000000000E+00 -0.10392573612E+04  0.10392573612E+04  0.25500000000E-02 0. -1.
    -200001    2    1    2    0    0  0.83844308737E+03 -0.19710911948E+03 -0.54972430778E+03  0.11913141064E+04  0.61253054608E+03 0.  0.
   -5000001    2    3    3    0    0  0.26993958362E+03  0.19012252169E+03 -0.73967631733E+02  0.34888310481E+03  0.85054442682E+02 0.  0.
     200001    1    1    2    0    0 -0.83844308737E+03  0.19710911948E+03  0.14870933640E+04  0.18245696723E+04  0.61300000000E+03 0.  1.
         13    1    4    4    0    0  0.63551652710E+02  0.79646536202E+02 -0.11709592300E+01  0.10190076349E+03  0.10566000000E+00 0.  1.
    -200003    1    4    4    0    0  0.20638793091E+03  0.11047598548E+03 -0.72796672503E+02  0.24698234132E+03  0.30000000000E+02 0.  1.
    -200000    1    3    3    0    0  0.56850350375E+03 -0.38723164116E+03 -0.47575667604E+03  0.84243100162E+03  0.10100000000E+03 0. -1.
<mgrwt>
<rscale>  0 0.28665126E+04</rscale>
<asrwt>0</asrwt>
<pdfrwt beam="1">  1        2 0.28237520E+00 0.28665126E+04</pdfrwt>
<pdfrwt beam="2">  1       -2 0.14846534E+00 0.28665126E+04</pdfrwt>
<totfact> 0.22147542E+00</totfact>
</mgrwt>
</event>
<event>
 8    2  0.4306980E-052  0.2100502E+04  0.7818608E-02  0.8561022E-01
          2   -1    0    0  501    0  0.00000000000E+00  0.00000000000E+00  0.14906174417E+04  0.14906174417E+04  0.25500000000E-02 0.  1.
         -2   -1    0    0    0  501 -0.00000000000E+00 -0.00000000000E+00 -0.73998001436E+03  0.73998001436E+03  0.25500000000E-02 0. -1.
    -200001    2    1    2    0    0  0.77227928603E+03  0.41839539043E+02 -0.63327354478E+01  0.98683756364E+03  0.61289675380E+03 0.  0.
   -5000001    2    3    3    0    0  0.31155713530E+03  0.10897849082E+02 -0.29062205061E+03  0.43525465685E+03  0.88310975198E+02 0.  0.
     200001    1    1    2    0    0 -0.77227928603E+03 -0.41839539043E+02  0.75697016281E+03  0.12437598924E+04  0.61300000000E+03 0.  1.
         13    1    4    4    0    0  0.10592824033E+03  0.41841741732E+02 -0.10474479856E+03  0.15473528182E+03  0.10566000000E+00 0.  1.
    -200003    1    4    4    0    0  0.20562889497E+03 -0.30943892650E+02 -0.18587725205E+03  0.28051937503E+03  0.30000000000E+02 0.  1.
    -200000    1    3    3    0    0  0.46072215073E+03  0.30941689962E+02  0.28428931516E+03  0.55158290679E+03  0.10100000000E+03 0. -1.
<mgrwt>
<rscale>  0 0.21005020E+04</rscale>
<asrwt>0</asrwt>
<pdfrwt beam="1">  1        2 0.21294535E+00 0.21005020E+04</pdfrwt>
<pdfrwt beam="2">  1       -2 0.10571143E+00 0.21005020E+04</pdfrwt>
<totfact> 0.99012391E+00</totfact>
</mgrwt>
</event>
<event>
 8    2  0.4306980E-052  0.1482226E+04  0.7818608E-02  0.8896359E-01
         -2   -1    0    0    0  501 -0.00000000000E+00  0.00000000000E+00  0.36744075938E+03  0.36744075939E+03  0.25500000000E-02 0. -1.
          2   -1    0    0  501    0  0.00000000000E+00 -0.00000000000E+00 -0.14947955162E+04  0.14947955162E+04  0.25500000000E-02 0.  1.
    -200001    2    1    2    0    0 -0.10737674139E+02 -0.41516253800E+03 -0.59994033887E+03  0.95316521190E+03  0.61328645865E+03 0.  0.
   -5000001    2    3    3    0    0  0.22229052242E+03 -0.21666721190E+03 -0.95891573746E+02  0.35486036277E+03  0.14273375941E+03 0.  0.
     200001    1    1    2    0    0  0.10737674139E+02  0.41516253800E+03 -0.52741441798E+03  0.90907106373E+03  0.61300000000E+03 0. -1.
         13    1    4    4    0    0  0.14225936816E+03 -0.80150420227E+02 -0.10399971601E+03  0.19359176064E+03  0.10566000000E+00 0.  1.
    -200003    1    4    4    0    0  0.80031154255E+02 -0.13651679167E+03  0.81081422675E+01  0.16126860212E+03  0.30000000000E+02 0.  1.
    -200000    1    3    3    0    0 -0.23302819656E+03 -0.19849532610E+03 -0.50404876512E+03  0.59830484914E+03  0.10100000000E+03 0.  1.
<mgrwt>
<rscale>  0 0.14822264E+04</rscale>
<asrwt>0</asrwt>
<pdfrwt beam="1">  1        2 0.21354221E+00 0.14822264E+04</pdfrwt>
<pdfrwt beam="2">  1       -2 0.52491538E-01 0.14822264E+04</pdfrwt>
<totfact> 0.48806862E+01</totfact>
</mgrwt>
</event>
<event>
 8    2  0.4306980E-052  0.2205135E+04  0.7818608E-02  0.8516294E-01
         -2   -1    0    0    0  501 -0.00000000000E+00  0.00000000000E+00  0.11494484182E+04  0.11494484182E+04  0.25500000000E-02 0. -1.
          2   -1    0    0  501    0  0.00000000000E+00 -0.00000000000E+00 -0.10575986289E+04  0.10575986289E+04  0.25500000000E-02 0.  1.
    -200001    2    1    2    0    0 -0.62291293584E+03  0.66366687781E+03  0.15384678152E+03  0.11079169924E+04  0.61264751651E+03 0.  0.
   -5000001    2    3    3    0    0 -0.56527749813E+03  0.33997487670E+03 -0.98568182183E+02  0.68128756400E+03  0.13898018435E+03 0.  0.
     200001    1    1    2    0    0  0.62291293584E+03 -0.66366687781E+03 -0.61996992215E+02  0.10991300548E+04  0.61300000000E+03 0.  1.
         13    1    4    4    0    0 -0.29662843969E+03  0.11336883494E+03 -0.82932356603E+02  0.32820528775E+03  0.10566000000E+00 0.  1.
    -200003    1    4    4    0    0 -0.26864905844E+03  0.22660604176E+03 -0.15635825580E+02  0.35308227625E+03  0.30000000000E+02 0.  1.
    -200000    1    3    3    0    0 -0.57635437710E+02  0.32369200110E+03  0.25241496370E+03  0.42662942838E+03  0.10100000000E+03 0.  1.
<mgrwt>
<rscale>  0 0.22051350E+04</rscale>
<asrwt>0</asrwt>
<pdfrwt beam="1">  1        2 0.15108552E+00 0.22051350E+04</pdfrwt>
<pdfrwt beam="2">  1       -2 0.16420692E+00 0.22051350E+04</pdfrwt>
<totfact> 0.55766796E+00</totfact>
</mgrwt>
</event>
<event>
 8    2  0.4306980E-052  0.1476670E+04  0.7818608E-02  0.8900117E-01
          2   -1    0    0  501    0  0.00000000000E+00  0.00000000000E+00  0.15935723897E+04  0.15935723897E+04  0.25500000000E-02 0.  1.
         -2   -1    0    0    0  501 -0.00000000000E+00 -0.00000000000E+00 -0.34208566069E+03  0.34208566069E+03  0.25500000000E-02 0. -1.
    -200001    2    1    2    0    0 -0.27666419349E+03 -0.36008435071E+02  0.22917846510E+03  0.71143467624E+03  0.61300639992E+03 0.  0.
   -5000001    2    3    3    0    0  0.75598813117E+02 -0.14705176358E+03 -0.97930244683E+02  0.20782673881E+03  0.79134182400E+02 0.  0.
     200001    1    1    2    0    0  0.27666419349E+03  0.36008435071E+02  0.10223082640E+04  0.12242233742E+04  0.61300000000E+03 0.  1.
         13    1    4    4    0    0  0.10558702407E+02  0.14157941517E+01 -0.25764464751E+02  0.27880270400E+02  0.10566000000E+00 0.  1.
    -200003    1    4    4    0    0  0.65040110710E+02 -0.14846755774E+03 -0.72165779931E+02  0.17994646841E+03  0.30000000000E+02 0.  1.
    -200000    1    3    3    0    0 -0.35226300661E+03  0.11104332851E+03  0.32710870978E+03  0.50360793743E+03  0.10100000000E+03 0.  1.
<mgrwt>
<rscale>  0 0.14766696E+04</rscale>
<asrwt>0</asrwt>
<pdfrwt beam="1">  1        2 0.22765320E+00 0.14766696E+04</pdfrwt>
<pdfrwt beam="2">  1       -2 0.48869380E-01 0.14766696E+04</pdfrwt>
<totfact> 0.50103023E+01</totfact>
</mgrwt>
</event>
<event>
 8    2  0.4306980E-052  0.2324331E+04  0.7818608E-02  0.8468389E-01
         -2   -1    0    0    0  501 -0.00000000000E+00  0.00000000000E+00  0.71934099821E+03  0.71934099822E+03  0.25500000000E-02 0. -1.
          2   -1    0    0  501    0  0.00000000000E+00 -0.00000000000E+00 -0.18775923558E+04  0.18775923558E+04  0.25500000000E-02 0.  1.
    -200001    2    1    2    0    0  0.32001538273E+03 -0.94119834157E+01  0.46439265253E+03  0.83306232297E+03  0.61305290768E+03 0.  0.
   -5000001    2    3    3    0    0  0.25844186292E+03 -0.18889203319E+03  0.29924347671E+03  0.56199104659E+03  0.35187338828E+03 0.  0.
     200001    1    1    2    0    0 -0.32001538273E+03  0.94119834157E+01 -0.16226440101E+04  0.17638710310E+04  0.61300000000E+03 0.  1.
         13    1    4    4    0    0  0.72348031412E+02 -0.10347381106E+03  0.32948330617E+03  0.35284603928E+03  0.10566000000E+00 0.  1.
    -200003    1    4    4    0    0  0.18609383151E+03 -0.85418222124E+02 -0.30239829464E+02  0.20914500731E+03  0.30000000000E+02 0.  1.
    -200000    1    3    3    0    0  0.61573519810E+02  0.17948004977E+03  0.16514917582E+03  0.27107127638E+03  0.10100000000E+03 0. -1.
<mgrwt>
<rscale>  0 0.23243314E+04</rscale>
<asrwt>0</asrwt>
<pdfrwt beam="1">  1        2 0.26822748E+00 0.23243314E+04</pdfrwt>
<pdfrwt beam="2">  1       -2 0.10276300E+00 0.23243314E+04</pdfrwt>
<totfact> 0.65334538E+00</totfact>
</mgrwt>
</event>
<event>
 8    2  0.4306980E-052  0.1319301E+04  0.7818608E-02  0.9014398E-01
          2   -1    0    0  501    0  0.00000000000E+00  0.00000000000E+00  0.22078793580E+04  0.22078793580E+04  0.25500000000E-02 0.  1.
         -2   -1    0    0    0  501 -0.00000000000E+00 -0.00000000000E+00 -0.19708446436E+03  0.19708446438E+03  0.25500000000E-02 0. -1.
    -200001    2    1    2    0    0  0.10677880141E+03  0.21950732087E+03  0.10207648510E+04  0.12152102085E+04  0.61252738186E+03 0.  0.
   -5000001    2    3    3    0    0 -0.13414501552E+03  0.16641390295E+03  0.83414009950E+02  0.24068940536E+03  0.72698146539E+02 0.  0.
     200001    1    1    2    0    0 -0.10677880141E+03 -0.21950732087E+03  0.99003004261E+03  0.11897536138E+04  0.61300000000E+03 0.  1.
         13    1    4    4    0    0 -0.35971767387E+02  0.53301585914E+02  0.56474193901E+02  0.85582549919E+02  0.10566000000E+00 0.  1.
    -200003    1    4    4    0    0 -0.98173248136E+02  0.11311231704E+03  0.26939816049E+02  0.15510685544E+03  0.30000000000E+02 0.  1.
    -200000    1    3    3    0    0  0.24092381693E+03  0.53093417913E+02  0.93735084104E+03  0.97452080316E+03  0.10100000000E+03 0.  1.
<mgrwt>
<rscale>  0 0.13193009E+04</rscale>
<asrwt>0</asrwt>
<pdfrwt beam="1">  1        2 0.31541133E+00 0.13193009E+04</pdfrwt>
<pdfrwt beam="2">  1       -2 0.28154924E-01 0.13193009E+04</pdfrwt>
<totfact> 0.70882757E+01</totfact>
</mgrwt>
</event>
<event>
 8    2  0.4306980E-052  0.1550581E+04  0.7818608E-02  0.8851497E-01
         -2   -1    0    0    0  501 -0.00000000000E+00  0.00000000000E+00  0.20342251377E+03  0.20342251378E+03  0.25500000000E-02 0. -1.
          2   -1    0    0  501    0  0.00000000000E+00 -0.00000000000E+00 -0.29548109153E+04  0.29548109153E+04  0.25500000000E-02 0.  1.
    -200001    2    1    2    0    0  0.26898893394E+03  0.77410970327E+02 -0.59566371423E+03  0.89963531690E+03  0.61333590964E+03 0.  0.
   -5000001    2    3    3    0    0  0.51876489639E+02  0.31621946067E+03 -0.27426852228E+03  0.43309145193E+03  0.98280547093E+02 0.  0.
     200001    1    1    2    0    0 -0.26898893394E+03 -0.77410970327E+02 -0.21557246873E+04  0.22585981121E+04  0.61300000000E+03 0. -1.
         13    1    4    4    0    0  0.12451574747E+02  0.19431561079E+03 -0.21090399949E+03  0.28704373618E+03  0.10566000000E+00 0.  1.
    -200003    1    4    4    0    0  0.39424914892E+02  0.12190384988E+03 -0.63364522790E+02  0.14604771576E+03  0.30000000000E+02 0.  1.
    -200000    1    3    3    0    0  0.21711244430E+03 -0.23880849034E+03 -0.32139519195E+03  0.46654386497E+03  0.10100000000E+03 0.  1.
<mgrwt>
<rscale>  0 0.15505806E+04</rscale>
<asrwt>0</asrwt>
<pdfrwt beam="1">  1        2 0.42211582E+00 0.15505806E+04</pdfrwt>
<pdfrwt beam="2">  1       -2 0.29060361E-01 0.15505806E+04</pdfrwt>
<totfact> 0.26331092E+01</totfact>
</mgrwt>
</event>
<event>
 8    2  0.4306980E-052  0.1627402E+04  0.7818608E-02  0.8803888E-01
         -2   -1    0    0    0  501 -0.00000000000E+00  0.00000000000E+00  0.13446512943E+04  0.13446512943E+04  0.25500000000E-02 0. -1.
          2   -1    0    0  501    0  0.00000000000E+00 -0.00000000000E+00 -0.49240237030E+03  0.49240237031E+03  0.25500000000E-02 0.  1.
    -200001    2    1    2    0    0  0.36014293040E+02 -0.20976458242E+03  0.98033801266E+03  0.11756354732E+04  0.61299097659E+03 0.  0.
   -5000001    2    3    3    0    0 -0.12838826526E+03  0.26228223231E+02  0.81222371586E+03  0.82752023036E+03  0.88943244215E+02 0.  0.
     200001    1    1    2    0    0 -0.36014293040E+02  0.20976458242E+03 -0.12808908865E+03  0.66141819144E+03  0.61300000000E+03 0.  1.
         13    1    4    4    0    0 -0.74103505714E+01  0.30960139321E+02  0.22110106961E+03  0.22338114886E+03  0.10566000000E+00 0.  1.
    -200003    1    4    4    0    0 -0.12097791469E+03 -0.47319160897E+01  0.59112264626E+03  0.60413908149E+03  0.30000000000E+02 0.  1.
    -200000    1    3    3    0    0  0.16440255830E+03 -0.23599280565E+03  0.16811429679E+03  0.34811524282E+03  0.10100000000E+03 0.  1.
<mgrwt>
<rscale>  0 0.16274022E+04</rscale>
<asrwt>0</asrwt>
<pdfrwt beam="1">  1        2 0.70343197E-01 0.16274022E+04</pdfrwt>
<pdfrwt beam="2">  1       -2 0.19209304E+00 0.16274022E+04</pdfrwt>
<totfact> 0.98270983E+00</totfact>
</mgrwt>
</event>
<event>
 8    2  0.4306980E-052  0.1294430E+04  0.7818608E-02  0.9033994E-01
          2   -1    0    0  501    0  0.00000000000E+00  0.00000000000E+00  0.16181640737E+04  0.16181640737E+04  0.25500000000E-02 0.  1.
         -2   -1    0    0    0  501 -0.00000000000E+00 -0.00000000000E+00 -0.25886594129E+03  0.25886594130E+03  0.25500000000E-02 0. -1.
    -200001    2    1    2    0    0  0.17899604055E+03 -0.41677757949E+02  0.56387060015E+03  0.85612327239E+03  0.61743047041E+03 0.  0.
   -5000001    2    3    3    0    0  0.22703803932E+03 -0.94488105919E+02  0.62656408989E+03  0.71745662119E+03  0.24836902200E+03 0.  0.
     200001    1    1    2    0    0 -0.17899604055E+03  0.41677757949E+02  0.79542753231E+03  0.10209067427E+04  0.61300000000E+03 0.  1.
         13    1    4    4    0    0  0.21396475717E+03 -0.23125204163E+02  0.59520373473E+03  0.63291641579E+03  0.10566000000E+00 0.  1.
    -200003    1    4    4    0    0  0.13073282148E+02 -0.71362901756E+02  0.31360355165E+02  0.84540205401E+02  0.30000000000E+02 0.  1.
    -200000    1    3    3    0    0 -0.48041998770E+02  0.52810347970E+02 -0.62693489748E+02  0.13866665120E+03  0.10100000000E+03 0. -1.
<mgrwt>
<rscale>  0 0.12944305E+04</rscale>
<asrwt>0</asrwt>
<pdfrwt beam="1">  1        2 0.23116630E+00 0.12944305E+04</pdfrwt>
<pdfrwt beam="2">  1       -2 0.36980849E-01 0.12944305E+04</pdfrwt>
<totfact> 0.85518768E+01</totfact>
</mgrwt>
</event>
<event>
 8    2  0.4306980E-052  0.1554476E+04  0.7818608E-02  0.8849014E-01
          2   -1    0    0  501    0  0.00000000000E+00  0.00000000000E+00  0.34857947980E+04  0.34857947980E+04  0.25500000000E-02 0.  1.
         -2   -1    0    0    0  501 -0.00000000000E+00 -0.00000000000E+00 -0.17330311697E+03  0.17330311699E+03  0.25500000000E-02 0. -1.
    -200001    2    1    2    0    0  0.34918906671E+03 -0.31378888959E+03  0.14382947662E+04  0.16320854465E+04  0.61205767612E+03 0.  0.
   -5000001    2    3    3    0    0  0.63322239029E+02 -0.13985997831E+03  0.57561372319E+03  0.70128434467E+03  0.36999737061E+03 0.  0.
     200001    1    1    2    0    0 -0.34918906671E+03  0.31378888959E+03  0.18741969149E+04  0.20270124685E+04  0.61300000000E+03 0.  1.
         13    1    4    4    0    0  0.18545777711E+03  0.30318965992E+02  0.24541576026E+03  0.30909987599E+03  0.10566000000E+00 0.  1.
    -200003    1    4    4    0    0 -0.12213553808E+03 -0.17017894430E+03  0.33019796293E+03  0.39218446868E+03  0.30000000000E+02 0.  1.
    -200000    1    3    3    0    0  0.28586682768E+03 -0.17392891128E+03  0.86268104297E+03  0.93080110187E+03  0.10100000000E+03 0.  1.
<mgrwt>
<rscale>  0 0.15544763E+04</rscale>
<asrwt>0</asrwt>
<pdfrwt beam="1">  1        2 0.49797066E+00 0.15544763E+04</pdfrwt>
<pdfrwt beam="2">  1       -2 0.24757590E-01 0.15544763E+04</pdfrwt>
<totfact> 0.17419016E+01</totfact>
</mgrwt>
</event>
<event>
 8    2  0.4306980E-052  0.1456085E+04  0.7818608E-02  0.8914193E-01
          2   -1    0    0  501    0  0.00000000000E+00  0.00000000000E+00  0.45007182101E+03  0.45007182102E+03  0.25500000000E-02 0.  1.
         -2   -1    0    0    0  501 -0.00000000000E+00 -0.00000000000E+00 -0.11776910693E+04  0.11776910693E+04  0.25500000000E-02 0. -1.
    -200001    2    1    2    0    0  0.15881571680E+02  0.11906171545E+03 -0.78133018341E+03  0.10008005462E+04  0.61375643484E+03 0.  0.
   -5000001    2    3    3    0    0 -0.25316301261E+02  0.22034763260E+03 -0.31368545095E+02  0.23620943931E+03  0.74946109275E+02 0.  0.
     200001    1    1    2    0    0 -0.15881571680E+02 -0.11906171545E+03  0.53710935135E+02  0.62696234413E+03  0.61300000000E+03 0.  1.
         13    1    4    4    0    0 -0.39692456337E+02  0.16234681224E+03 -0.25882561920E+02  0.16912095290E+03  0.10566000000E+00 0.  1.
    -200003    1    4    4    0    0  0.14376155075E+02  0.58000820361E+02 -0.54859831748E+01  0.67088486409E+02  0.30000000000E+02 0. -1.
    -200000    1    3    3    0    0  0.41197872942E+02 -0.10128591715E+03 -0.74996163831E+03  0.76459110686E+03  0.10100000000E+03 0. -1.
<mgrwt>
<rscale>  0 0.14560846E+04</rscale>
<asrwt>0</asrwt>
<pdfrwt beam="1">  1        2 0.64295975E-01 0.14560846E+04</pdfrwt>
<pdfrwt beam="2">  1       -2 0.16824158E+00 0.14560846E+04</pdfrwt>
<totfact> 0.16113711E+01</totfact>
</mgrwt>
</event>
<event>
 8    2  0.4306980E-052  0.1518104E+04  0.7818608E-02  0.8872502E-01
          2   -1    0    0  501    0  0.00000000000E+00  0.00000000000E+00  0.29819356486E+04  0.29819356486E+04  0.25500000000E-02 0.  1.
         -2   -1    0    0    0  501 -0.00000000000E+00 -0.00000000000E+00 -0.19321674617E+03  0.19321674619E+03  0.25500000000E-02 0. -1.
    -200001    2    1    2    0    0 -0.41640462058E+03 -0.15724434459E+03  0.14970463937E+04  0.16777194374E+04  0.61276097619E+03 0.  0.
   -5000001    2    3    3    0    0 -0.67718941276E+02  0.19907765700E+03  0.65683806868E+03  0.69552897669E+03  0.90036328363E+02 0.  0.
     200001    1    1    2    0    0  0.41640462058E+03  0.15724434459E+03  0.12916725087E+04  0.14974329574E+04  0.61300000000E+03 0.  1.
         13    1    4    4    0    0 -0.25785461360E+02  0.11210447069E+02  0.14851824705E+03  0.15115635948E+03  0.10566000000E+00 0.  1.
    -200003    1    4    4    0    0 -0.41933479916E+02  0.18786720993E+03  0.50831982164E+03  0.54437261721E+03  0.30000000000E+02 0.  1.
    -200000    1    3    3    0    0 -0.34868567931E+03 -0.35632200158E+03  0.84020832501E+03  0.98219046074E+03  0.10100000000E+03 0.  1.
<mgrwt>
<rscale>  0 0.15181040E+04</rscale>
<asrwt>0</asrwt>
<pdfrwt beam="1">  1        2 0.42599080E+00 0.15181040E+04</pdfrwt>
<pdfrwt beam="2">  1       -2 0.27602393E-01 0.15181040E+04</pdfrwt>
<totfact> 0.28051661E+01</totfact>
</mgrwt>
</event>
<event>
 8    2  0.4306980E-052  0.1500161E+04  0.7818608E-02  0.8884346E-01
         -2   -1    0    0    0  501 -0.00000000000E+00  0.00000000000E+00  0.75917801042E+03  0.75917801042E+03  0.25500000000E-02 0. -1.
          2   -1    0    0  501    0  0.00000000000E+00 -0.00000000000E+00 -0.74109223230E+03  0.74109223230E+03  0.25500000000E-02 0.  1.
    -200001    2    1    2    0    0  0.13233519873E+03  0.36820391509E+03  0.19310496896E+03  0.75228130893E+03  0.61282208741E+03 0.  0.
   -5000001    2    3    3    0    0  0.17841651778E+03 -0.10694408459E+03  0.13519624744E+03  0.26091227288E+03  0.80794169175E+02 0.  0.
     200001    1    1    2    0    0 -0.13233519873E+03 -0.36820391509E+03 -0.17501919084E+03  0.74798893379E+03  0.61300000000E+03 0.  1.
         13    1    4    4    0    0 -0.64151512065E+01  0.54305926033E+00  0.81937392010E+01  0.10421017440E+02  0.10566000000E+00 0.  1.
    -200003    1    4    4    0    0  0.18483166899E+03 -0.10748714385E+03  0.12700250823E+03  0.25049125544E+03  0.30000000000E+02 0.  1.
    -200000    1    3    3    0    0 -0.46081319045E+02  0.47514799968E+03  0.57908721525E+02  0.49136903605E+03  0.10100000000E+03 0. -1.
<mgrwt>
<rscale>  0 0.15001612E+04</rscale>
<asrwt>0</asrwt>
<pdfrwt beam="1">  1        2 0.10587032E+00 0.15001612E+04</pdfrwt>
<pdfrwt beam="2">  1       -2 0.10845400E+00 0.15001612E+04</pdfrwt>
<totfact> 0.27591121E+01</totfact>
</mgrwt>
</event>
<event>
 8    2  0.4306980E-052  0.1249319E+04  0.7818608E-02  0.9070750E-01
          2   -1    0    0  501    0  0.00000000000E+00  0.00000000000E+00  0.52489877228E+03  0.52489877229E+03  0.25500000000E-02 0.  1.
         -2   -1    0    0    0  501 -0.00000000000E+00 -0.00000000000E+00 -0.74338031255E+03  0.74338031256E+03  0.25500000000E-02 0. -1.
    -200001    2    1    2    0    0 -0.71556363472E+02 -0.10981360630E+02 -0.27304442419E+02  0.62209135192E+03  0.61726105833E+03 0.  0.
   -5000001    2    3    3    0    0 -0.28942211503E+03 -0.14379165003E+03  0.48728663341E+02  0.33733515472E+03  0.83542352648E+02 0.  0.
     200001    1    1    2    0    0  0.71556363472E+02  0.10981360630E+02 -0.19117709786E+03  0.64618773292E+03  0.61300000000E+03 0. -1.
         13    1    4    4    0    0 -0.28343225456E+02 -0.42094040393E+02  0.18139415710E+02  0.53891522823E+02  0.10566000000E+00 0.  1.
    -200003    1    4    4    0    0 -0.26107888958E+03 -0.10169760964E+03  0.30589247632E+02  0.28344363189E+03  0.30000000000E+02 0.  1.
    -200000    1    3    3    0    0  0.21786575156E+03  0.13281028940E+03 -0.76033105761E+02  0.28475619721E+03  0.10100000000E+03 0.  1.
<mgrwt>
<rscale>  0 0.12493189E+04</rscale>
<asrwt>0</asrwt>
<pdfrwt beam="1">  1        2 0.74985539E-01 0.12493189E+04</pdfrwt>
<pdfrwt beam="2">  1       -2 0.10619719E+00 0.12493189E+04</pdfrwt>
<totfact> 0.44718216E+01</totfact>
</mgrwt>
</event>
<event>
 8    2  0.4306980E-052  0.1370262E+04  0.7818608E-02  0.8975631E-01
          2   -1    0    0  501    0  0.00000000000E+00  0.00000000000E+00  0.14469862330E+04  0.14469862330E+04  0.25500000000E-02 0.  1.
         -2   -1    0    0    0  501 -0.00000000000E+00 -0.00000000000E+00 -0.32440127846E+03  0.32440127847E+03  0.25500000000E-02 0. -1.
    -200001    2    1    2    0    0 -0.13395189639E+03 -0.27473193943E+03  0.55226383783E+03  0.88006494065E+03  0.61326846006E+03 0.  0.
   -5000001    2    3    3    0    0 -0.29738505810E+03 -0.24326697679E+03  0.25107072975E+03  0.52143040443E+03  0.24746001807E+03 0.  0.
     200001    1    1    2    0    0  0.13395189639E+03  0.27473193943E+03  0.57032111671E+03  0.89132257082E+03  0.61300000000E+03 0. -1.
         13    1    4    4    0    0 -0.25954667416E+03 -0.58542043606E+02  0.14491384312E+03  0.30297141784E+03  0.10566000000E+00 0.  1.
    -200003    1    4    4    0    0 -0.37838383938E+02 -0.18472493319E+03  0.10615688664E+03  0.21845898659E+03  0.30000000000E+02 0.  1.
    -200000    1    3    3    0    0  0.16343316171E+03 -0.31464962637E+02  0.30119310808E+03  0.35863453623E+03  0.10100000000E+03 0. -1.
<mgrwt>
<rscale>  0 0.13702616E+04</rscale>
<asrwt>0</asrwt>
<pdfrwt beam="1">  1        2 0.20671232E+00 0.13702616E+04</pdfrwt>
<pdfrwt beam="2">  1       -2 0.46343039E-01 0.13702616E+04</pdfrwt>
<totfact> 0.67232046E+01</totfact>
</mgrwt>
</event>
<event>
 8    2  0.4306980E-052  0.2263121E+04  0.7818608E-02  0.8492605E-01
         -2   -1    0    0    0  501 -0.00000000000E+00  0.00000000000E+00  0.50220092155E+03  0.50220092156E+03  0.25500000000E-02 0. -1.
          2   -1    0    0  501    0  0.00000000000E+00 -0.00000000000E+00 -0.25496363096E+04  0.25496363096E+04  0.25500000000E-02 0.  1.
    -200001    2    1    2    0    0 -0.18451145842E+03  0.10860568772E+03  0.22602280468E+03  0.68747244801E+03  0.61293750485E+03 0.  0.
   -5000001    2    3    3    0    0 -0.50673251373E+02  0.14497696865E+03 -0.17767336687E+03  0.24883007128E+03  0.82234294775E+02 0.  0.
     200001    1    1    2    0    0  0.18451145842E+03 -0.10860568772E+03 -0.22734581927E+04  0.23643647831E+04  0.61300000000E+03 0.  1.
         13    1    4    4    0    0 -0.78955184986E+01  0.10036482464E+03 -0.76089225513E+02  0.12619436850E+03  0.10566000000E+00 0.  1.
    -200003    1    4    4    0    0 -0.42777732874E+02  0.44612144010E+02 -0.10158414136E+03  0.12263570279E+03  0.30000000000E+02 0.  1.
    -200000    1    3    3    0    0 -0.13383820704E+03 -0.36371280932E+02  0.40369617155E+03  0.43864237673E+03  0.10100000000E+03 0.  1.
<mgrwt>
<rscale>  0 0.22631215E+04</rscale>
<asrwt>0</asrwt>
<pdfrwt beam="1">  1        2 0.36423375E+00 0.22631215E+04</pdfrwt>
<pdfrwt beam="2">  1       -2 0.71742990E-01 0.22631215E+04</pdfrwt>
<totfact> 0.66756986E+00</totfact>
</mgrwt>
</event>
<event>
 8    2  0.4306980E-052  0.1415731E+04  0.7818608E-02  0.8942509E-01
          2   -1    0    0  501    0  0.00000000000E+00  0.00000000000E+00  0.34564734341E+03  0.34564734342E+03  0.25500000000E-02 0.  1.
         -2   -1    0    0    0  501 -0.00000000000E+00 -0.00000000000E+00 -0.14496678680E+04  0.14496678680E+04  0.25500000000E-02 0. -1.
    -200001    2    1    2    0    0  0.77775148360E+02  0.35323089562E+03 -0.49987690788E+03  0.86173096299E+03  0.60156653017E+03 0.  0.
   -5000001    2    3    3    0    0 -0.20211395230E+03  0.30256462434E+03 -0.37885708986E+03  0.53653598137E+03  0.10928294994E+03 0.  0.
     200001    1    1    2    0    0 -0.77775148360E+02 -0.35323089562E+03 -0.60414361671E+03  0.93358424844E+03  0.61300000000E+03 0.  1.
         13    1    4    4    0    0 -0.69703519753E+02  0.18955043689E+03 -0.17979855464E+03  0.27039874298E+03  0.10566000000E+00 0.  1.
    -200003    1    4    4    0    0 -0.13241043255E+03  0.11301418746E+03 -0.19905853522E+03  0.26613723839E+03  0.30000000000E+02 0.  1.
    -200000    1    3    3    0    0  0.27988910066E+03  0.50666271274E+02 -0.12101981802E+03  0.32519498161E+03  0.10100000000E+03 0.  1.
<mgrwt>
<rscale>  0 0.14157314E+04</rscale>
<asrwt>0</asrwt>
<pdfrwt beam="1">  1        2 0.49378193E-01 0.14157314E+04</pdfrwt>
<pdfrwt beam="2">  1       -2 0.20709541E+00 0.14157314E+04</pdfrwt>
<totfact> 0.11848867E+01</totfact>
</mgrwt>
</event>
<event>
 8    2  0.4306980E-052  0.1292038E+04  0.7818608E-02  0.9035903E-01
         -2   -1    0    0    0  501 -0.00000000000E+00  0.00000000000E+00  0.21989053543E+03  0.21989053544E+03  0.25500000000E-02 0. -1.
          2   -1    0    0  501    0  0.00000000000E+00 -0.00000000000E+00 -0.18979458890E+04  0.18979458890E+04  0.25500000000E-02 0.  1.
    -200001    2    1    2    0    0  0.18349550093E+03  0.51590635543E+02 -0.10107317939E+04  0.11918656226E+04  0.60218992905E+03 0.  0.
   -5000001    2    3    3    0    0  0.16534862555E+03  0.29118532761E+03 -0.58343640763E+03  0.69134861723E+03  0.15948606778E+03 0.  0.
     200001    1    1    2    0    0 -0.18349550093E+03 -0.51590635543E+02 -0.66732355968E+03  0.92597080183E+03  0.61300000000E+03 0. -1.
         13    1    4    4    0    0  0.51199890048E+02  0.13928134392E+03 -0.12441576922E+03  0.19364920940E+03  0.10566000000E+00 0.  1.
    -200003    1    4    4    0    0  0.11414873550E+03  0.15190398369E+03 -0.45902063841E+03  0.49769940784E+03  0.30000000000E+02 0.  1.
    -200000    1    3    3    0    0  0.18146875376E+02 -0.23959469207E+03 -0.42729538623E+03  0.50051700535E+03  0.10100000000E+03 0. -1.
<mgrwt>
<rscale>  0 0.12920377E+04</rscale>
<asrwt>0</asrwt>
<pdfrwt beam="1">  1        2 0.27113512E+00 0.12920377E+04</pdfrwt>
<pdfrwt beam="2">  1       -2 0.31412935E-01 0.12920377E+04</pdfrwt>
<totfact> 0.83578474E+01</totfact>
</mgrwt>
</event>
<event>
 8    2  0.4306980E-052  0.1577592E+04  0.7818608E-02  0.8834433E-01
         -2   -1    0    0    0  501 -0.00000000000E+00  0.00000000000E+00  0.50919269947E+03  0.50919269947E+03  0.25500000000E-02 0. -1.
          2   -1    0    0  501    0  0.00000000000E+00 -0.00000000000E+00 -0.12219331333E+04  0.12219331333E+04  0.25500000000E-02 0.  1.
    -200001    2    1    2    0    0  0.48452770708E+03 -0.10879176715E+03 -0.33668714457E+03  0.85717627823E+03  0.61220110349E+03 0.  0.
   -5000001    2    3    3    0    0  0.83661958948E+02  0.11614794617E+03 -0.17552748127E+03  0.35971807926E+03  0.27945935498E+03 0.  0.
     200001    1    1    2    0    0 -0.48452770708E+03  0.10879176715E+03 -0.37605328927E+03  0.87394955455E+03  0.61300000000E+03 0.  1.
         13    1    4    4    0    0 -0.66651221796E+02  0.11775804646E+03 -0.15388029769E+03  0.20491095640E+03  0.10566000000E+00 0.  1.
    -200003    1    4    4    0    0  0.15031318074E+03 -0.16101002958E+01 -0.21647183583E+02  0.15480712285E+03  0.30000000000E+02 0.  1.
    -200000    1    3    3    0    0  0.40086574813E+03 -0.22493971332E+03 -0.16115966330E+03  0.49745819898E+03  0.10100000000E+03 0. -1.
<mgrwt>
<rscale>  0 0.15775924E+04</rscale>
<asrwt>0</asrwt>
<pdfrwt beam="1">  1        2 0.17456187E+00 0.15775924E+04</pdfrwt>
<pdfrwt beam="2">  1       -2 0.72741815E-01 0.15775924E+04</pdfrwt>
<totfact> 0.34153542E+01</totfact>
</mgrwt>
</event>
<event>
 8    2  0.4306980E-052  0.1335565E+04  0.7818608E-02  0.9001828E-01
          2   -1    0    0  501    0  0.00000000000E+00  0.00000000000E+00  0.39355971055E+03  0.39355971056E+03  0.25500000000E-02 0.  1.
         -2   -1    0    0    0  501 -0.00000000000E+00 -0.00000000000E+00 -0.11330766756E+04  0.11330766756E+04  0.25500000000E-02 0. -1.
    -200001    2    1    2    0    0  0.63239739961E+02 -0.25591390734E+03 -0.39891854703E+03  0.77745852008E+03  0.61303715270E+03 0.  0.
   -5000001    2    3    3    0    0  0.13709989978E+03 -0.12438648348E+03  0.10846983147E+03  0.23857193361E+03  0.10431914194E+03 0.  0.
     200001    1    1    2    0    0 -0.63239739961E+02  0.25591390734E+03 -0.34059841802E+03  0.74917786609E+03  0.61300000000E+03 0.  1.
         13    1    4    4    0    0  0.71621045414E+02 -0.69812572746E+02  0.35195894865E+01  0.10007880961E+03  0.10566000000E+00 0.  1.
    -200003    1    4    4    0    0  0.65478854369E+02 -0.54573910737E+02  0.10495024198E+03  0.13849312400E+03  0.30000000000E+02 0.  1.
    -200000    1    3    3    0    0 -0.73860159822E+02 -0.13152742386E+03 -0.50738837850E+03  0.53888658646E+03  0.10100000000E+03 0. -1.
<mgrwt>
<rscale>  0 0.13355648E+04</rscale>
<asrwt>0</asrwt>
<pdfrwt beam="1">  1        2 0.56222816E-01 0.13355648E+04</pdfrwt>
<pdfrwt beam="2">  1       -2 0.16186810E+00 0.13355648E+04</pdfrwt>
<totfact> 0.21022812E+01</totfact>
</mgrwt>
</event>
<event>
 8    2  0.4306980E-052  0.2042420E+04  0.7818608E-02  0.8587041E-01
         -2   -1    0    0    0  501 -0.00000000000E+00  0.00000000000E+00  0.32463069269E+03  0.32463069270E+03  0.25500000000E-02 0. -1.
          2   -1    0    0  501    0  0.00000000000E+00 -0.00000000000E+00 -0.32124804260E+04  0.32124804260E+04  0.25500000000E-02 0.  1.
    -200001    2    1    2    0    0  0.24339071534E+03 -0.77322597274E+03 -0.12676230934E+04  0.16245158113E+04  0.61242621516E+03 0.  0.
   -5000001    2    3    3    0    0  0.20284979633E+03 -0.82686848265E+01 -0.14861491801E+03  0.26466893939E+03  0.82139166070E+02 0.  0.
     200001    1    1    2    0    0 -0.24339071534E+03  0.77322597274E+03 -0.16202266398E+04  0.19125953073E+04  0.61300000000E+03 0.  1.
         13    1    4    4    0    0  0.98229343286E+02 -0.51727572704E+01 -0.11366125263E+03  0.15031517825E+03  0.10566000000E+00 0.  1.
    -200003    1    4    4    0    0  0.10462045305E+03 -0.30959275560E+01 -0.34953665385E+02  0.11435376114E+03  0.30000000000E+02 0.  1.
    -200000    1    3    3    0    0  0.40540919004E+02 -0.76495728791E+03 -0.11190081754E+04  0.13598468719E+04  0.10100000000E+03 0. -1.
<mgrwt>
<rscale>  0 0.20424199E+04</rscale>
<asrwt>0</asrwt>
<pdfrwt beam="1">  1        2 0.45892576E+00 0.20424199E+04</pdfrwt>
<pdfrwt beam="2">  1       -2 0.46375815E-01 0.20424199E+04</pdfrwt>
<totfact> 0.73205681E+00</totfact>
</mgrwt>
</event>
<event>
 8    2  0.4306980E-052  0.1412415E+04  0.7818608E-02  0.8944880E-01
         -2   -1    0    0    0  501 -0.00000000000E+00  0.00000000000E+00  0.40375621296E+03  0.40375621297E+03  0.25500000000E-02 0. -1.
          2   -1    0    0  501    0  0.00000000000E+00 -0.00000000000E+00 -0.12352239990E+04  0.12352239990E+04  0.25500000000E-02 0.  1.
    -200001    2    1    2    0    0  0.70917068321E+02 -0.30257967114E+03 -0.22702421912E+03  0.72371811095E+03  0.61289821348E+03 0.  0.
   -5000001    2    3    3    0    0 -0.10399920382E+02  0.15399024466E+03 -0.17339896241E+03  0.24607262649E+03  0.81629550688E+02 0.  0.
     200001    1    1    2    0    0 -0.70917068321E+02  0.30257967114E+03 -0.60444356690E+03  0.91526210100E+03  0.61300000000E+03 0.  1.
         13    1    4    4    0    0  0.91278267136E+01  0.50565295661E+00 -0.35495113318E+02  0.36653610176E+02  0.10566000000E+00 0.  1.
    -200003    1    4    4    0    0 -0.19527747096E+02  0.15348459171E+03 -0.13790384910E+03  0.20941901631E+03  0.30000000000E+02 0.  1.
    -200000    1    3    3    0    0  0.81316988703E+02 -0.45656991581E+03 -0.53625256707E+02  0.47764548446E+03  0.10100000000E+03 0. -1.
<mgrwt>
<rscale>  0 0.14124155E+04</rscale>
<asrwt>0</asrwt>
<pdfrwt beam="1">  1        2 0.17646057E+00 0.14124155E+04</pdfrwt>
<pdfrwt beam="2">  1       -2 0.57679460E-01 0.14124155E+04</pdfrwt>
<totfact> 0.55922974E+01</totfact>
</mgrwt>
</event>
<event>
 8    2  0.4306980E-052  0.2025661E+04  0.7818608E-02  0.8594717E-01
         -2   -1    0    0    0  501 -0.00000000000E+00  0.00000000000E+00  0.42624538788E+03  0.42624538788E+03  0.25500000000E-02 0. -1.
          2   -1    0    0  501    0  0.00000000000E+00 -0.00000000000E+00 -0.24066539352E+04  0.24066539352E+04  0.25500000000E-02 0.  1.
    -200001    2    1    2    0    0 -0.41581502254E+03 -0.66334139934E+03 -0.72067308109E+03  0.12280235055E+04  0.61298294848E+03 0.  0.
   -5000001    2    3    3    0    0 -0.31710337766E+03 -0.36180140389E+03 -0.74847619382E+03  0.89389124009E+03  0.85849452033E+02 0.  0.
     200001    1    1    2    0    0  0.41581502254E+03  0.66334139934E+03 -0.12597354662E+04  0.16048758176E+04  0.61300000000E+03 0. -1.
         13    1    4    4    0    0 -0.16241399481E+03 -0.21245011069E+03 -0.35447088776E+03  0.44403037810E+03  0.10566000000E+00 0.  1.
    -200003    1    4    4    0    0 -0.15468938285E+03 -0.14935129320E+03 -0.39400530606E+03  0.44986086199E+03  0.30000000000E+02 0. -1.
    -200000    1    3    3    0    0 -0.98711644882E+02 -0.30153999545E+03  0.27803112728E+02  0.33413226538E+03  0.10100000000E+03 0. -1.
<mgrwt>
<rscale>  0 0.20256605E+04</rscale>
<asrwt>0</asrwt>
<pdfrwt beam="1">  1        2 0.34380770E+00 0.20256605E+04</pdfrwt>
<pdfrwt beam="2">  1       -2 0.60892199E-01 0.20256605E+04</pdfrwt>
<totfact> 0.11530419E+01</totfact>
</mgrwt>
</event>
<event>
 8    2  0.4306980E-052  0.2536670E+04  0.7818608E-02  0.8390037E-01
         -2   -1    0    0    0  501 -0.00000000000E+00  0.00000000000E+00  0.75651703186E+03  0.75651703187E+03  0.25500000000E-02 0. -1.
          2   -1    0    0  501    0  0.00000000000E+00 -0.00000000000E+00 -0.21264213699E+04  0.21264213699E+04  0.25500000000E-02 0.  1.
    -200001    2    1    2    0    0 -0.32150532426E+03 -0.65076696147E+03 -0.16399393644E+04  0.18952384336E+04  0.61291458591E+03 0.  0.
   -5000001    2    3    3    0    0 -0.17118651679E+02 -0.24941968502E+03 -0.12990228717E+03  0.30020117466E+03  0.10364802724E+03 0.  0.
     200001    1    1    2    0    0  0.32150532426E+03  0.65076696147E+03  0.27003502636E+03  0.98769996818E+03  0.61300000000E+03 0. -1.
         13    1    4    4    0    0  0.90255571364E+01 -0.21946634469E+03 -0.94626570032E+02  0.23916758989E+03  0.10566000000E+00 0.  1.
    -200003    1    4    4    0    0 -0.26144208815E+02 -0.29953340325E+02 -0.35275717135E+02  0.61033584776E+02  0.30000000000E+02 0.  1.
    -200000    1    3    3    0    0 -0.30438667258E+03 -0.40134727646E+03 -0.15100370773E+04  0.15950372590E+04  0.10100000000E+03 0.  1.
<mgrwt>
<rscale>  0 0.25366702E+04</rscale>
<asrwt>0</asrwt>
<pdfrwt beam="1">  1        2 0.30377448E+00 0.25366702E+04</pdfrwt>
<pdfrwt beam="2">  1       -2 0.10807386E+00 0.25366702E+04</pdfrwt>
<totfact> 0.42350739E+00</totfact>
</mgrwt>
</event>
<event>
 8    2  0.4306980E-052  0.1814005E+04  0.7818608E-02  0.8698887E-01
         -2   -1    0    0    0  501 -0.00000000000E+00  0.00000000000E+00  0.40086588776E+03  0.40086588776E+03  0.25500000000E-02 0. -1.
          2   -1    0    0  501    0  0.00000000000E+00 -0.00000000000E+00 -0.20521903644E+04  0.20521903644E+04  0.25500000000E-02 0.  1.
    -200001    2    1    2    0    0 -0.16541405246E+03 -0.64765247057E+03 -0.84155380165E+03  0.12371972647E+04  0.61288558416E+03 0.  0.
   -5000001    2    3    3    0    0  0.21996654794E+03 -0.20799115682E+03 -0.25497615636E+03  0.40287441833E+03  0.75162178709E+02 0.  0.
     200001    1    1    2    0    0  0.16541405246E+03  0.64765247057E+03 -0.80977067500E+03  0.12158589875E+04  0.61300000000E+03 0. -1.
         13    1    4    4    0    0  0.51330379883E+02 -0.82909860266E+02 -0.10378789687E+03  0.14241064401E+03  0.10566000000E+00 0.  1.
    -200003    1    4    4    0    0  0.16863616806E+03 -0.12508129655E+03 -0.15118825949E+03  0.26046377432E+03  0.30000000000E+02 0.  1.
    -200000    1    3    3    0    0 -0.38538060040E+03 -0.43966131375E+03 -0.58657764529E+03  0.83432284634E+03  0.10100000000E+03 0. -1.
<mgrwt>
<rscale>  0 0.18140045E+04</rscale>
<asrwt>0</asrwt>
<pdfrwt beam="1">  1        2 0.29317005E+00 0.18140045E+04</pdfrwt>
<pdfrwt beam="2">  1       -2 0.57266557E-01 0.18140045E+04</pdfrwt>
<totfact> 0.20376103E+01</totfact>
</mgrwt>
</event>
<event>
 8    2  0.4306980E-052  0.1773312E+04  0.7818608E-02  0.8720622E-01
          2   -1    0    0  501    0  0.00000000000E+00  0.00000000000E+00  0.23215339135E+04  0.23215339135E+04  0.25500000000E-02 0.  1.
         -2   -1    0    0    0  501 -0.00000000000E+00 -0.00000000000E+00 -0.33863752639E+03  0.33863752640E+03  0.25500000000E-02 0. -1.
    -200001    2    1    2    0    0 -0.56562495335E+03  0.17322454145E+03  0.13596446746E+04  0.16046383865E+04  0.61342675251E+03 0.  0.
   -5000001    2    3    3    0    0 -0.36115151022E+03  0.38525671379E+03  0.75638785299E+03  0.92575192777E+03  0.77723218943E+02 0.  0.
     200001    1    1    2    0    0  0.56562495335E+03 -0.17322454145E+03  0.62325171247E+03  0.10555330533E+04  0.61300000000E+03 0. -1.
         13    1    4    4    0    0 -0.28177539064E+03  0.31059131212E+03  0.62177556177E+03  0.74997946259E+03  0.10566000000E+00 0.  1.
    -200003    1    4    4    0    0 -0.79376119583E+02  0.74665401666E+02  0.13461229122E+03  0.17577246517E+03  0.30000000000E+02 0. -1.
    -200000    1    3    3    0    0 -0.20447344313E+03 -0.21203217234E+03  0.60325682164E+03  0.67888645878E+03  0.10100000000E+03 0.  1.
<mgrwt>
<rscale>  0 0.17733116E+04</rscale>
<asrwt>0</asrwt>
<pdfrwt beam="1">  1        2 0.33164769E+00 0.17733116E+04</pdfrwt>
<pdfrwt beam="2">  1       -2 0.48376792E-01 0.17733116E+04</pdfrwt>
<totfact> 0.21000072E+01</totfact>
</mgrwt>
</event>
<event>
 8    2  0.4306980E-052  0.1350272E+04  0.7818608E-02  0.8990622E-01
         -2   -1    0    0    0  501 -0.00000000000E+00  0.00000000000E+00  0.23622233397E+03  0.23622233399E+03  0.25500000000E-02 0. -1.
          2   -1    0    0  501    0  0.00000000000E+00 -0.00000000000E+00 -0.19295745969E+04  0.19295745969E+04  0.25500000000E-02 0.  1.
    -200001    2    1    2    0    0 -0.58074266499E+02 -0.26891508176E+03 -0.91771359843E+03  0.11396038304E+04  0.61709861439E+03 0.  0.
   -5000001    2    3    3    0    0 -0.27389080483E+03 -0.28940068533E+03 -0.40346964696E+03  0.57246691589E+03  0.78496395671E+02 0.  0.
     200001    1    1    2    0    0  0.58074266499E+02  0.26891508176E+03 -0.77563866449E+03  0.10261931005E+04  0.61300000000E+03 0.  1.
         13    1    4    4    0    0 -0.17949701697E+03 -0.21854633304E+03 -0.25866999406E+03  0.38326473328E+03  0.10566000000E+00 0.  1.
    -200003    1    4    4    0    0 -0.94393787862E+02 -0.70854352293E+02 -0.14479965289E+03  0.18920218261E+03  0.30000000000E+02 0.  1.
    -200000    1    3    3    0    0  0.21581653833E+03  0.20485603571E+02 -0.51424395147E+03  0.56713691450E+03  0.10100000000E+03 0.  1.
<mgrwt>
<rscale>  0 0.13502720E+04</rscale>
<asrwt>0</asrwt>
<pdfrwt beam="1">  1        2 0.27565350E+00 0.13502720E+04</pdfrwt>
<pdfrwt beam="2">  1       -2 0.33746049E-01 0.13502720E+04</pdfrwt>
<totfact> 0.70026872E+01</totfact>
</mgrwt>
</event>
<event>
 8    2  0.4306980E-052  0.1650083E+04  0.7818608E-02  0.8790357E-01
         -2   -1    0    0    0  501 -0.00000000000E+00  0.00000000000E+00  0.61620792694E+03  0.61620792694E+03  0.25500000000E-02 0. -1.
          2   -1    0    0  501    0  0.00000000000E+00 -0.00000000000E+00 -0.11046495330E+04  0.11046495330E+04  0.25500000000E-02 0.  1.
    -200001    2    1    2    0    0  0.48802366414E+03 -0.24328010639E+03 -0.32828331511E+03  0.88493163481E+03  0.61480220915E+03 0.  0.
   -5000001    2    3    3    0    0  0.30414298376E+03 -0.35105410415E+03 -0.42204398503E+03  0.63112185872E+03  0.66721335804E+02 0.  0.
     200001    1    1    2    0    0 -0.48802366414E+03  0.24328010639E+03 -0.16015829092E+03  0.83592582511E+03  0.61300000000E+03 0. -1.
         13    1    4    4    0    0  0.17566148497E+03 -0.22591189954E+03 -0.23553440749E+03  0.37063406742E+03  0.10566000000E+00 0.  1.
    -200003    1    4    4    0    0  0.12848149878E+03 -0.12514220460E+03 -0.18650957754E+03  0.26048779130E+03  0.30000000000E+02 0.  1.
    -200000    1    3    3    0    0  0.18388068039E+03  0.10777399776E+03  0.93760669919E+02  0.25380977608E+03  0.10100000000E+03 0. -1.
<mgrwt>
<rscale>  0 0.16500834E+04</rscale>
<asrwt>0</asrwt>
<pdfrwt beam="1">  1        2 0.15780708E+00 0.16500834E+04</pdfrwt>
<pdfrwt beam="2">  1       -2 0.88029704E-01 0.16500834E+04</pdfrwt>
<totfact> 0.25859626E+01</totfact>
</mgrwt>
</event>
<event>
 8    2  0.4306980E-052  0.1368977E+04  0.7818608E-02  0.8976586E-01
         -2   -1    0    0    0  501 -0.00000000000E+00  0.00000000000E+00  0.18472325245E+03  0.18472325247E+03  0.25500000000E-02 0. -1.
          2   -1    0    0  501    0  0.00000000000E+00 -0.00000000000E+00 -0.25363589241E+04  0.25363589241E+04  0.25500000000E-02 0.  1.
    -200001    2    1    2    0    0  0.16793642050E+03  0.17830876054E+03 -0.81399187784E+03  0.10477280323E+04  0.61249865070E+03 0.  0.
   -5000001    2    3    3    0    0  0.89277943946E+02 -0.20488048938E+03 -0.43084031062E+03  0.49092709783E+03  0.73752802808E+02 0.  0.
     200001    1    1    2    0    0 -0.16793642050E+03 -0.17830876054E+03 -0.15376437938E+04  0.16733541442E+04  0.61300000000E+03 0.  1.
         13    1    4    4    0    0  0.11787861881E+02  0.23462353846E+01 -0.24484671011E+02  0.27275791221E+02  0.10566000000E+00 0.  1.
    -200003    1    4    4    0    0  0.77490082065E+02 -0.20722672477E+03 -0.40635563961E+03  0.46365130660E+03  0.30000000000E+02 0.  1.
    -200000    1    3    3    0    0  0.78658476554E+02  0.38318924992E+03 -0.38315156722E+03  0.55680093449E+03  0.10100000000E+03 0. -1.
<mgrwt>
<rscale>  0 0.13689769E+04</rscale>
<asrwt>0</asrwt>
<pdfrwt beam="1">  1        2 0.36233697E+00 0.13689769E+04</pdfrwt>
<pdfrwt beam="2">  1       -2 0.26389038E-01 0.13689769E+04</pdfrwt>
<totfact> 0.53667879E+01</totfact>
</mgrwt>
</event>
<event>
 8    2  0.4306980E-052  0.1720308E+04  0.7818608E-02  0.8749866E-01
          2   -1    0    0  501    0  0.00000000000E+00  0.00000000000E+00  0.12447091255E+04  0.12447091255E+04  0.25500000000E-02 0.  1.
         -2   -1    0    0    0  501 -0.00000000000E+00 -0.00000000000E+00 -0.59440816436E+03  0.59440816436E+03  0.25500000000E-02 0. -1.
    -200001    2    1    2    0    0 -0.55175998524E+03  0.91303808455E+02  0.56791270848E+03  0.10052514188E+04  0.61256028581E+03 0.  0.
   -5000001    2    3    3    0    0 -0.51102377103E+03  0.28841967952E+03  0.47548724879E+03  0.76182263787E+03  0.99771748036E+02 0.  0.
     200001    1    1    2    0    0  0.55175998524E+03 -0.91303808455E+02  0.82388252625E+02  0.83386587106E+03  0.61300000000E+03 0. -1.
         13    1    4    4    0    0 -0.23084480350E+03  0.17381787853E+03  0.20004416802E+03  0.35145363638E+03  0.10566000000E+00 0.  1.
    -200003    1    4    4    0    0 -0.28017896754E+03  0.11460180099E+03  0.27544308077E+03  0.41036900149E+03  0.30000000000E+02 0.  1.
    -200000    1    3    3    0    0 -0.40736214205E+02 -0.19711587107E+03  0.92425459691E+02  0.24342878091E+03  0.10100000000E+03 0.  1.
<mgrwt>
<rscale>  0 0.17203084E+04</rscale>
<asrwt>0</asrwt>
<pdfrwt beam="1">  1        2 0.17781559E+00 0.17203084E+04</pdfrwt>
<pdfrwt beam="2">  1       -2 0.84915452E-01 0.17203084E+04</pdfrwt>
<totfact> 0.23195176E+01</totfact>
</mgrwt>
</event>
<event>
 8    2  0.4306980E-052  0.1416280E+04  0.7818608E-02  0.8942118E-01
         -2   -1    0    0    0  501 -0.00000000000E+00  0.00000000000E+00  0.40884597811E+03  0.40884597812E+03  0.25500000000E-02 0. -1.
          2   -1    0    0  501    0  0.00000000000E+00 -0.00000000000E+00 -0.12265301568E+04  0.12265301568E+04  0.25500000000E-02 0.  1.
    -200001    2    1    2    0    0  0.16457802860E+03 -0.16786278265E+03 -0.10212048123E+03  0.66426118476E+03  0.61282174210E+03 0.  0.
   -5000001    2    3    3    0    0  0.17148946773E+03  0.19008833707E+03  0.20141585565E+02  0.27269281898E+03  0.91725005421E+02 0.  0.
     200001    1    1    2    0    0 -0.16457802860E+03  0.16786278265E+03 -0.71556369744E+03  0.97111495014E+03  0.61300000000E+03 0.  1.
         13    1    4    4    0    0  0.27234675568E+02 -0.21277554231E+01 -0.89830516703E+01  0.28756934430E+02  0.10566000000E+00 0.  1.
    -200003    1    4    4    0    0  0.14425479216E+03  0.19221609250E+03  0.29124637236E+02  0.24393588455E+03  0.30000000000E+02 0.  1.
    -200000    1    3    3    0    0 -0.69114391250E+01 -0.35795111973E+03 -0.12226206680E+03  0.39156836578E+03  0.10100000000E+03 0.  1.
<mgrwt>
<rscale>  0 0.14162795E+04</rscale>
<asrwt>0</asrwt>
<pdfrwt beam="1">  1        2 0.17521859E+00 0.14162795E+04</pdfrwt>
<pdfrwt beam="2">  1       -2 0.58406569E-01 0.14162795E+04</pdfrwt>
<totfact> 0.55076369E+01</totfact>
</mgrwt>
</event>
<event>
 8    2  0.4306980E-052  0.1601125E+04  0.7818608E-02  0.8819857E-01
          2   -1    0    0  501    0  0.00000000000E+00  0.00000000000E+00  0.33088160655E+04  0.33088160655E+04  0.25500000000E-02 0.  1.
         -2   -1    0    0    0  501 -0.00000000000E+00 -0.00000000000E+00 -0.19369487173E+03  0.19369487174E+03  0.25500000000E-02 0. -1.
    -200001    2    1    2    0    0 -0.27684051681E+03 -0.43378822877E+03  0.14589768042E+04  0.16631099102E+04  0.61033462876E+03 0.  0.
   -5000001    2    3    3    0    0  0.16050712777E+03 -0.23226701573E+03  0.40169552588E+03  0.49695020287E+03  0.76744406696E+02 0.  0.
     200001    1    1    2    0    0  0.27684051681E+03  0.43378822877E+03  0.16561443896E+04  0.18394010271E+04  0.61300000000E+03 0. -1.
         13    1    4    4    0    0  0.12573386115E+03 -0.19843417738E+03  0.33550742125E+03  0.40957339693E+03  0.10566000000E+00 0.  1.
    -200003    1    4    4    0    0  0.34773266625E+02 -0.33832838354E+02  0.66188104626E+02  0.87376805943E+02  0.30000000000E+02 0. -1.
    -200000    1    3    3    0    0 -0.43734764458E+03 -0.20152121304E+03  0.10572812783E+04  0.11661597073E+04  0.10100000000E+03 0. -1.
<mgrwt>
<rscale>  0 0.16011255E+04</rscale>
<asrwt>0</asrwt>
<pdfrwt beam="1">  1        2 0.47268803E+00 0.16011255E+04</pdfrwt>
<pdfrwt beam="2">  1       -2 0.27670695E-01 0.16011255E+04</pdfrwt>
<totfact> 0.18047253E+01</totfact>
</mgrwt>
</event>
<event>
 8    2  0.4306980E-052  0.1537832E+04  0.7818608E-02  0.8859678E-01
          2   -1    0    0  501    0  0.00000000000E+00  0.00000000000E+00  0.33280904072E+03  0.33280904073E+03  0.25500000000E-02 0.  1.
         -2   -1    0    0    0  501 -0.00000000000E+00 -0.00000000000E+00 -0.17764886112E+04  0.17764886112E+04  0.25500000000E-02 0. -1.
    -200001    2    1    2    0    0 -0.36627733661E+03  0.17744634108E+03 -0.10281521695E+04  0.12642661068E+04  0.61288303442E+03 0.  0.
   -5000001    2    3    3    0    0 -0.41531348851E+03  0.44220553529E+02 -0.32235949622E+03  0.53728746041E+03  0.10159438577E+03 0.  0.
     200001    1    1    2    0    0  0.36627733661E+03 -0.17744634108E+03 -0.41552740096E+03  0.84503154511E+03  0.61300000000E+03 0.  1.
         13    1    4    4    0    0 -0.37273073613E+03  0.44097299001E+02 -0.30046922661E+03  0.48078533748E+03  0.10566000000E+00 0.  1.
    -200003    1    4    4    0    0 -0.42582752383E+02  0.12325452842E+00 -0.21890269614E+02  0.56502122933E+02  0.30000000000E+02 0. -1.
    -200000    1    3    3    0    0  0.49036151894E+02  0.13322578756E+03 -0.70579267325E+03  0.72697864637E+03  0.10100000000E+03 0. -1.
<mgrwt>
<rscale>  0 0.15378316E+04</rscale>
<asrwt>0</asrwt>
<pdfrwt beam="1">  1        2 0.47544150E-01 0.15378316E+04</pdfrwt>
<pdfrwt beam="2">  1       -2 0.25378408E+00 0.15378316E+04</pdfrwt>
<totfact> 0.62513915E+00</totfact>
</mgrwt>
</event>
<event>
 8    2  0.4306980E-052  0.1442272E+04  0.7818608E-02  0.8923776E-01
          2   -1    0    0  501    0  0.00000000000E+00  0.00000000000E+00  0.75352510237E+03  0.75352510237E+03  0.25500000000E-02 0.  1.
         -2   -1    0    0    0  501 -0.00000000000E+00 -0.00000000000E+00 -0.69013926323E+03  0.69013926323E+03  0.25500000000E-02 0. -1.
    -200001    2    1    2    0    0  0.18785784592E+03  0.33011199524E+03  0.54233043889E+02  0.72247280067E+03  0.61217744566E+03 0.  0.
   -5000001    2    3    3    0    0  0.26288895711E+03  0.25851317305E+03 -0.19248370618E+03  0.43641998430E+03  0.13218457225E+03 0.  0.
     200001    1    1    2    0    0 -0.18785784592E+03 -0.33011199524E+03  0.91527952513E+01  0.72119156494E+03  0.61300000000E+03 0.  1.
         13    1    4    4    0    0  0.17037960072E+03  0.18552802133E+03 -0.64782697613E+02  0.26008972320E+03  0.10566000000E+00 0.  1.
    -200003    1    4    4    0    0  0.92509356395E+02  0.72985151726E+02 -0.12770100857E+03  0.17633026111E+03  0.30000000000E+02 0.  1.
    -200000    1    3    3    0    0 -0.75031111197E+02  0.71598822189E+02  0.24671675007E+03  0.28605281637E+03  0.10100000000E+03 0.  1.
<mgrwt>
<rscale>  0 0.14422722E+04</rscale>
<asrwt>0</asrwt>
<pdfrwt beam="1">  1        2 0.10764644E+00 0.14422722E+04</pdfrwt>
<pdfrwt beam="2">  1       -2 0.98591322E-01 0.14422722E+04</pdfrwt>
<totfact> 0.34083474E+01</totfact>
</mgrwt>
</event>
<event>
 8    2  0.4306980E-052  0.1404873E+04  0.7818608E-02  0.8950299E-01
          2   -1    0    0  501    0  0.00000000000E+00  0.00000000000E+00  0.69705959445E+03  0.69705959445E+03  0.25500000000E-02 0.  1.
         -2   -1    0    0    0  501 -0.00000000000E+00 -0.00000000000E+00 -0.70785490463E+03  0.70785490463E+03  0.25500000000E-02 0. -1.
    -200001    2    1    2    0    0 -0.20846107936E+03 -0.22396400734E+03 -0.15973454068E+03  0.70379554158E+03  0.61334911972E+03 0.  0.
   -5000001    2    3    3    0    0  0.58429821897E+02 -0.23545074863E+03  0.12598353534E+03  0.29981717908E+03  0.12315596038E+03 0.  0.
     200001    1    1    2    0    0  0.20846107936E+03  0.22396400734E+03  0.14893923051E+03  0.70111895751E+03  0.61300000000E+03 0.  1.
         13    1    4    4    0    0 -0.16417942735E+02 -0.11740652663E+02 -0.13354746615E+02  0.24202317860E+02  0.10566000000E+00 0.  1.
    -200003    1    4    4    0    0  0.74847764632E+02 -0.22371009597E+03  0.13933828195E+03  0.27561486122E+03  0.30000000000E+02 0.  1.
    -200000    1    3    3    0    0 -0.26689090126E+03  0.11486741287E+02 -0.28571807602E+03  0.40397836250E+03  0.10100000000E+03 0.  1.
<mgrwt>
<rscale>  0 0.14048730E+04</rscale>
<asrwt>0</asrwt>
<pdfrwt beam="1">  1        2 0.99579942E-01 0.14048730E+04</pdfrwt>
<pdfrwt beam="2">  1       -2 0.10112213E+00 0.14048730E+04</pdfrwt>
<totfact> 0.35474527E+01</totfact>
</mgrwt>
</event>
<event>
 8    2  0.4306980E-052  0.1934402E+04  0.7818608E-02  0.8637919E-01
          2   -1    0    0  501    0  0.00000000000E+00  0.00000000000E+00  0.92685099340E+03  0.92685099341E+03  0.25500000000E-02 0.  1.
         -2   -1    0    0    0  501 -0.00000000000E+00 -0.00000000000E+00 -0.10093078612E+04  0.10093078612E+04  0.25500000000E-02 0. -1.
    -200001    2    1    2    0    0  0.67048277646E+03 -0.13603859210E+03  0.26204315419E+03  0.95508652435E+03  0.61275607076E+03 0.  0.
   -5000001    2    3    3    0    0  0.29541261128E+03 -0.35876270314E+03  0.15616708554E+03  0.49498392671E+03  0.68129589929E+02 0.  0.
     200001    1    1    2    0    0 -0.67048277646E+03  0.13603859210E+03 -0.34450002199E+03  0.98107233027E+03  0.61300000000E+03 0. -1.
         13    1    4    4    0    0  0.12557097267E+03 -0.12262977594E+03  0.79537523935E+02  0.19269758691E+03  0.10566000000E+00 0.  1.
    -200003    1    4    4    0    0  0.16984163861E+03 -0.23613292720E+03  0.76629561610E+02  0.30228633980E+03  0.30000000000E+02 0.  1.
    -200000    1    3    3    0    0  0.37507016518E+03  0.22272411103E+03  0.10587606864E+03  0.46010259764E+03  0.10100000000E+03 0.  1.
<mgrwt>
<rscale>  0 0.19344022E+04</rscale>
<asrwt>0</asrwt>
<pdfrwt beam="1">  1        2 0.13240728E+00 0.19344022E+04</pdfrwt>
<pdfrwt beam="2">  1       -2 0.14418684E+00 0.19344022E+04</pdfrwt>
<totfact> 0.97358959E+00</totfact>
</mgrwt>
</event>
<event>
 8    2  0.4306980E-052  0.1361100E+04  0.7818608E-02  0.8982468E-01
          2   -1    0    0  501    0  0.00000000000E+00  0.00000000000E+00  0.27889582911E+04  0.27889582911E+04  0.25500000000E-02 0.  1.
         -2   -1    0    0    0  501 -0.00000000000E+00 -0.00000000000E+00 -0.16606503204E+03  0.16606503206E+03  0.25500000000E-02 0. -1.
    -200001    2    1    2    0    0  0.27732198338E+03  0.26172803834E+02  0.15444968657E+04  0.16836853353E+04  0.60969930465E+03 0.  0.
   -5000001    2    3    3    0    0  0.38609003257E+03  0.83651372093E+02  0.14288538661E+04  0.14869403794E+04  0.11534841044E+03 0.  0.
     200001    1    1    2    0    0 -0.27732198338E+03 -0.26172803834E+02  0.10783963934E+04  0.12713379879E+04  0.61300000000E+03 0. -1.
         13    1    4    4    0    0  0.32990019364E+03  0.45209893803E+02  0.10767316694E+04  0.11270444407E+04  0.10566000000E+00 0.  1.
    -200003    1    4    4    0    0  0.56189838930E+02  0.38441478291E+02  0.35212219674E+03  0.35989593870E+03  0.30000000000E+02 0.  1.
    -200000    1    3    3    0    0 -0.10876804919E+03 -0.57478568259E+02  0.11564299955E+03  0.19674495591E+03  0.10100000000E+03 0. -1.
<mgrwt>
<rscale>  0 0.13611002E+04</rscale>
<asrwt>0</asrwt>
<pdfrwt beam="1">  1        2 0.39842260E+00 0.13611002E+04</pdfrwt>
<pdfrwt beam="2">  1       -2 0.23723577E-01 0.13611002E+04</pdfrwt>
<totfact> 0.47777165E+01</totfact>
</mgrwt>
</event>
<event>
 8    2  0.4306980E-052  0.2119682E+04  0.7818608E-02  0.8552623E-01
         -2   -1    0    0    0  501 -0.00000000000E+00  0.00000000000E+00  0.11222388871E+04  0.11222388871E+04  0.25500000000E-02 0. -1.
          2   -1    0    0  501    0  0.00000000000E+00 -0.00000000000E+00 -0.10009125337E+04  0.10009125337E+04  0.25500000000E-02 0.  1.
    -200001    2    1    2    0    0  0.84879615964E+02  0.62357141229E+02  0.92023892091E+03  0.11106677159E+04  0.61290304396E+03 0.  0.
   -5000001    2    3    3    0    0  0.56211526771E+02  0.28278628133E+03  0.68083882759E+03  0.76872580587E+03  0.21040446480E+03 0.  0.
     200001    1    1    2    0    0 -0.84879615964E+02 -0.62357141229E+02 -0.79891256753E+03  0.10124837050E+04  0.61300000000E+03 0.  1.
         13    1    4    4    0    0 -0.33677117208E+02  0.20434049090E+03  0.55662857290E+03  0.59390619106E+03  0.10566000000E+00 0.  1.
    -200003    1    4    4    0    0  0.89888643979E+02  0.78445790436E+02  0.12421025469E+03  0.17481961481E+03  0.30000000000E+02 0.  1.
    -200000    1    3    3    0    0  0.28668089192E+02 -0.22042914010E+03  0.23940009332E+03  0.34194191002E+03  0.10100000000E+03 0.  1.
<mgrwt>
<rscale>  0 0.21196820E+04</rscale>
<asrwt>0</asrwt>
<pdfrwt beam="1">  1        2 0.14298750E+00 0.21196820E+04</pdfrwt>
<pdfrwt beam="2">  1       -2 0.16031984E+00 0.21196820E+04</pdfrwt>
<totfact> 0.64919520E+00</totfact>
</mgrwt>
</event>
<event>
 8    2  0.4306980E-052  0.1272554E+04  0.7818608E-02  0.9051618E-01
          2   -1    0    0  501    0  0.00000000000E+00  0.00000000000E+00  0.29287208291E+04  0.29287208291E+04  0.25500000000E-02 0.  1.
         -2   -1    0    0    0  501 -0.00000000000E+00 -0.00000000000E+00 -0.13823376760E+03  0.13823376763E+03  0.25500000000E-02 0. -1.
    -200001    2    1    2    0    0  0.18398805996E+02 -0.12616349151E+03  0.16688500974E+04  0.17823946635E+04  0.61287384222E+03 0.  0.
   -5000001    2    3    3    0    0  0.12060839052E+03 -0.22429232169E+03  0.31370008092E+03  0.41611920319E+03  0.99468693861E+02 0.  0.
     200001    1    1    2    0    0 -0.18398805996E+02  0.12616349151E+03  0.11216369641E+04  0.12845599332E+04  0.61300000000E+03 0. -1.
         13    1    4    4    0    0  0.11395925108E+03 -0.16393385291E+03  0.26889203742E+03  0.33490888013E+03  0.10566000000E+00 0.  1.
    -200003    1    4    4    0    0  0.66491394372E+01 -0.60358468779E+02  0.44808043497E+02  0.81210323054E+02  0.30000000000E+02 0.  1.
    -200000    1    3    3    0    0 -0.10220958453E+03  0.98128830180E+02  0.13551500164E+04  0.13662754604E+04  0.10100000000E+03 0.  1.
<mgrwt>
<rscale>  0 0.12725535E+04</rscale>
<asrwt>0</asrwt>
<pdfrwt beam="1">  1        2 0.41838871E+00 0.12725535E+04</pdfrwt>
<pdfrwt beam="2">  1       -2 0.19747680E-01 0.12725535E+04</pdfrwt>
<totfact> 0.55973166E+01</totfact>
</mgrwt>
</event>
<event>
 8    2  0.4306980E-052  0.1645990E+04  0.7818608E-02  0.8792782E-01
          2   -1    0    0  501    0  0.00000000000E+00  0.00000000000E+00  0.12990878326E+04  0.12990878326E+04  0.25500000000E-02 0.  1.
         -2   -1    0    0    0  501 -0.00000000000E+00 -0.00000000000E+00 -0.52138191058E+03  0.52138191059E+03  0.25500000000E-02 0. -1.
    -200001    2    1    2    0    0 -0.46507270072E+03 -0.15368407610E+03  0.11498534512E+03  0.79339672959E+03  0.61346990858E+03 0.  0.
   -5000001    2    3    3    0    0 -0.10082590260E+03 -0.32052310356E+03  0.15325354471E+03  0.37845523237E+03  0.82709076801E+02 0.  0.
     200001    1    1    2    0    0  0.46507270072E+03  0.15368407610E+03  0.66272057688E+03  0.10270730136E+04  0.61300000000E+03 0.  1.
         13    1    4    4    0    0 -0.16607688762E+02 -0.29585480527E+02 -0.67556208838E+01  0.34594299554E+02  0.10566000000E+00 0.  1.
    -200003    1    4    4    0    0 -0.84218213839E+02 -0.29093762304E+03  0.16000916559E+03  0.34386093281E+03  0.30000000000E+02 0.  1.
    -200000    1    3    3    0    0 -0.36424679812E+03  0.16683902746E+03 -0.38268199584E+02  0.41494149723E+03  0.10100000000E+03 0.  1.
<mgrwt>
<rscale>  0 0.16459902E+04</rscale>
<asrwt>0</asrwt>
<pdfrwt beam="1">  1        2 0.18558398E+00 0.16459902E+04</pdfrwt>
<pdfrwt beam="2">  1       -2 0.74483130E-01 0.16459902E+04</pdfrwt>
<totfact> 0.29193014E+01</totfact>
</mgrwt>
</event>
<event>
 8    2  0.4306980E-052  0.1469759E+04  0.7818608E-02  0.8904816E-01
         -2   -1    0    0    0  501 -0.00000000000E+00  0.00000000000E+00  0.12841423872E+03  0.12841423875E+03  0.25500000000E-02 0. -1.
          2   -1    0    0  501    0  0.00000000000E+00 -0.00000000000E+00 -0.42055113029E+04  0.42055113029E+04  0.25500000000E-02 0.  1.
    -200001    2    1    2    0    0  0.13533008848E+03  0.37588611843E+03 -0.18297553375E+04  0.19704707730E+04  0.61249152267E+03 0.  0.
   -5000001    2    3    3    0    0  0.15509934864E+03  0.47570171358E+03 -0.92377100255E+03  0.10532125804E+04  0.74538219735E+02 0.  0.
     200001    1    1    2    0    0 -0.13533008848E+03 -0.37588611843E+03 -0.22473417267E+04  0.23634547687E+04  0.61300000000E+03 0. -1.
         13    1    4    4    0    0  0.56440209864E+02  0.23215962478E+03 -0.49061947975E+03  0.54570236736E+03  0.10566000000E+00 0.  1.
    -200003    1    4    4    0    0  0.98659138776E+02  0.24354208880E+03 -0.43315152280E+03  0.50751021309E+03  0.30000000000E+02 0.  1.
    -200000    1    3    3    0    0 -0.19769260163E+02 -0.99815595149E+02 -0.90598433490E+03  0.91725819253E+03  0.10100000000E+03 0. -1.
<mgrwt>
<rscale>  0 0.14697585E+04</rscale>
<asrwt>0</asrwt>
<pdfrwt beam="1">  1        2 0.60078725E+00 0.14697585E+04</pdfrwt>
<pdfrwt beam="2">  1       -2 0.18344894E-01 0.14697585E+04</pdfrwt>
<totfact> 0.10048159E+01</totfact>
</mgrwt>
</event>
<event>
 8    2  0.4306980E-052  0.1770191E+04  0.7818608E-02  0.8722314E-01
         -2   -1    0    0    0  501 -0.00000000000E+00  0.00000000000E+00  0.88799422120E+03  0.88799422120E+03  0.25500000000E-02 0. -1.
          2   -1    0    0  501    0  0.00000000000E+00 -0.00000000000E+00 -0.88220660191E+03  0.88220660191E+03  0.25500000000E-02 0.  1.
    -200001    2    1    2    0    0  0.50916677330E+03 -0.21569266182E+03  0.32233001538E+03  0.88603895109E+03  0.61269426033E+03 0.  0.
   -5000001    2    3    3    0    0  0.30229838348E+03 -0.67108239171E+02  0.47486563704E+03  0.57244689565E+03  0.79437061080E+02 0.  0.
     200001    1    1    2    0    0 -0.50916677330E+03  0.21569266182E+03 -0.31654239609E+03  0.88416187201E+03  0.61300000000E+03 0.  1.
         13    1    4    4    0    0  0.21937474714E+03 -0.65654929372E+02  0.37325841891E+03  0.43790148194E+03  0.10566000000E+00 0.  1.
    -200003    1    4    4    0    0  0.82923636334E+02 -0.14533097990E+01  0.10160721813E+03  0.13454541370E+03  0.30000000000E+02 0.  1.
    -200000    1    3    3    0    0  0.20686838983E+03 -0.14858442265E+03 -0.15253562166E+03  0.31359205545E+03  0.10100000000E+03 0.  1.
<mgrwt>
<rscale>  0 0.17701914E+04</rscale>
<asrwt>0</asrwt>
<pdfrwt beam="1">  1        2 0.12602951E+00 0.17701914E+04</pdfrwt>
<pdfrwt beam="2">  1       -2 0.12685632E+00 0.17701914E+04</pdfrwt>
<totfact> 0.14649461E+01</totfact>
</mgrwt>
</event>
<event>
 8    2  0.4306980E-052  0.1334219E+04  0.7818608E-02  0.9002861E-01
         -2   -1    0    0    0  501 -0.00000000000E+00  0.00000000000E+00  0.81593510447E+03  0.81593510447E+03  0.25500000000E-02 0. -1.
          2   -1    0    0  501    0  0.00000000000E+00 -0.00000000000E+00 -0.54542920046E+03  0.54542920047E+03  0.25500000000E-02 0.  1.
    -200001    2    1    2    0    0  0.12846690973E+03 -0.22540649095E+03  0.71662180035E+02  0.66665597793E+03  0.60990400212E+03 0.  0.
   -5000001    2    3    3    0    0  0.20000669332E+03  0.11333023765E+03  0.16693644804E+03  0.29364297806E+03  0.74242849753E+02 0.  0.
     200001    1    1    2    0    0 -0.12846690973E+03  0.22540649095E+03  0.19884372397E+03  0.69470832701E+03  0.61300000000E+03 0. -1.
         13    1    4    4    0    0  0.26329795286E+02  0.14012195179E+02  0.54663065987E+02  0.62270873454E+02  0.10566000000E+00 0.  1.
    -200003    1    4    4    0    0  0.17367689804E+03  0.99318042468E+02  0.11227338205E+03  0.23137210460E+03  0.30000000000E+02 0.  1.
    -200000    1    3    3    0    0 -0.71539783589E+02 -0.33873672859E+03 -0.95274268001E+02  0.37301299988E+03  0.10100000000E+03 0. -1.
<mgrwt>
<rscale>  0 0.13342186E+04</rscale>
<asrwt>0</asrwt>
<pdfrwt beam="1">  1        2 0.77918458E-01 0.13342186E+04</pdfrwt>
<pdfrwt beam="2">  1       -2 0.11656216E+00 0.13342186E+04</pdfrwt>
<totfact> 0.33913730E+01</totfact>
</mgrwt>
</event>
<event>
 8    2  0.4306980E-052  0.1783216E+04  0.7818608E-02  0.8715276E-01
          2   -1    0    0  501    0  0.00000000000E+00  0.00000000000E+00  0.62169585663E+03  0.62169585663E+03  0.25500000000E-02 0.  1.
         -2   -1    0    0    0  501 -0.00000000000E+00 -0.00000000000E+00 -0.12787039360E+04  0.12787039360E+04  0.25500000000E-02 0. -1.
    -200001    2    1    2    0    0 -0.11492463983E+03 -0.62846518471E+03 -0.21892863332E+03  0.91254415428E+03  0.61370263628E+03 0.  0.
   -5000001    2    3    3    0    0 -0.34867092635E+03 -0.35601919478E+03 -0.97637269993E+02  0.52040038127E+03  0.11385270483E+03 0.  0.
     200001    1    1    2    0    0  0.11492463983E+03  0.62846518471E+03 -0.43807944610E+03  0.98785563840E+03  0.61300000000E+03 0. -1.
         13    1    4    4    0    0 -0.28099372746E+03 -0.24816726791E+03 -0.38577240754E+02  0.37687223618E+03  0.10566000000E+00 0.  1.
    -200003    1    4    4    0    0 -0.67677198892E+02 -0.10785192687E+03 -0.59060029239E+02  0.14352814509E+03  0.30000000000E+02 0. -1.
    -200000    1    3    3    0    0  0.23374628652E+03 -0.27244598993E+03 -0.12129136332E+03  0.39214377301E+03  0.10100000000E+03 0.  1.
<mgrwt>
<rscale>  0 0.17832161E+04</rscale>
<asrwt>0</asrwt>
<pdfrwt beam="1">  1        2 0.88813694E-01 0.17832161E+04</pdfrwt>
<pdfrwt beam="2">  1       -2 0.18267199E+00 0.17832161E+04</pdfrwt>
<totfact> 0.85631118E+00</totfact>
</mgrwt>
</event>
<event>
 8    2  0.4306980E-052  0.2473476E+04  0.7818608E-02  0.8412496E-01
         -2   -1    0    0    0  501 -0.00000000000E+00  0.00000000000E+00  0.65635913101E+03  0.65635913101E+03  0.25500000000E-02 0. -1.
          2   -1    0    0  501    0  0.00000000000E+00 -0.00000000000E+00 -0.23303102351E+04  0.23303102351E+04  0.25500000000E-02 0.  1.
    -200001    2    1    2    0    0 -0.48640734203E+03  0.77142243128E+03 -0.15219864115E+04  0.18773691643E+04  0.61350441944E+03 0.  0.
   -5000001    2    3    3    0    0 -0.33447369827E+02  0.41485112502E+03 -0.10187587238E+04  0.11055175345E+04  0.10525920031E+03 0.  0.
     200001    1    1    2    0    0  0.48640734203E+03 -0.77142243128E+03 -0.15196469264E+03  0.11093002018E+04  0.61300000000E+03 0. -1.
         13    1    4    4    0    0  0.26027050143E+02  0.23053002139E+03 -0.59510360416E+03  0.63872514351E+03  0.10566000000E+00 0.  1.
    -200003    1    4    4    0    0 -0.59474419971E+02  0.18432110363E+03 -0.42365511968E+03  0.46679239101E+03  0.30000000000E+02 0.  1.
    -200000    1    3    3    0    0 -0.45295997220E+03  0.35657130626E+03 -0.50322768762E+03  0.77185162982E+03  0.10100000000E+03 0. -1.
<mgrwt>
<rscale>  0 0.24734756E+04</rscale>
<asrwt>0</asrwt>
<pdfrwt beam="1">  1        2 0.33290146E+00 0.24734756E+04</pdfrwt>
<pdfrwt beam="2">  1       -2 0.93765591E-01 0.24734756E+04</pdfrwt>
<totfact> 0.46735286E+00</totfact>
</mgrwt>
</event>
<event>
 8    2  0.4306980E-052  0.1679559E+04  0.7818608E-02  0.8773109E-01
         -2   -1    0    0    0  501 -0.00000000000E+00  0.00000000000E+00  0.25686442743E+03  0.25686442744E+03  0.25500000000E-02 0. -1.
          2   -1    0    0  501    0  0.00000000000E+00 -0.00000000000E+00 -0.27455314386E+04  0.27455314386E+04  0.25500000000E-02 0.  1.
    -200001    2    1    2    0    0 -0.40582987907E+03 -0.96260079180E+02 -0.53911002159E+03  0.91660935989E+03  0.61283701722E+03 0.  0.
   -5000001    2    3    3    0    0 -0.40265569508E+03 -0.29618648255E+03 -0.32515011311E+03  0.60683446639E+03  0.11254968817E+03 0.  0.
     200001    1    1    2    0    0  0.40582987907E+03  0.96260079180E+02 -0.19495569896E+04  0.20857865062E+04  0.61300000000E+03 0.  1.
         13    1    4    4    0    0 -0.20439483910E+03 -0.16943986134E+03 -0.11282462287E+03  0.28847274317E+03  0.10566000000E+00 0.  1.
    -200003    1    4    4    0    0 -0.19826085598E+03 -0.12674662121E+03 -0.21232549024E+03  0.31836172322E+03  0.30000000000E+02 0.  1.
    -200000    1    3    3    0    0 -0.31741839896E+01  0.19992640338E+03 -0.21395990848E+03  0.30977489351E+03  0.10100000000E+03 0. -1.
<mgrwt>
<rscale>  0 0.16795587E+04</rscale>
<asrwt>0</asrwt>
<pdfrwt beam="1">  1        2 0.39221876E+00 0.16795587E+04</pdfrwt>
<pdfrwt beam="2">  1       -2 0.36694920E-01 0.16795587E+04</pdfrwt>
<totfact> 0.21804437E+01</totfact>
</mgrwt>
</event>
<event>
 8    2  0.4306980E-052  0.2451027E+04  0.7818608E-02  0.8420643E-01
         -2   -1    0    0    0  501 -0.00000000000E+00  0.00000000000E+00  0.16505357671E+04  0.16505357671E+04  0.25500000000E-02 0. -1.
          2   -1    0    0  501    0  0.00000000000E+00 -0.00000000000E+00 -0.90993658140E+03  0.90993658141E+03  0.25500000000E-02 0.  1.
    -200001    2    1    2    0    0  0.74359970612E+03  0.14707025292E+03 -0.40571496456E+03  0.10556882067E+04  0.61261960069E+03 0.  0.
   -5000001    2    3    3    0    0  0.29761665597E+03  0.25219881943E+03 -0.36733858311E+03  0.58491581675E+03  0.23453988918E+03 0.  0.
     200001    1    1    2    0    0 -0.74359970612E+03 -0.14707025292E+03  0.11463141502E+04  0.15047841417E+04  0.61300000000E+03 0. -1.
         13    1    4    4    0    0  0.25514899204E+03  0.74630455340E+02 -0.25551010193E+03  0.36872230249E+03  0.10566000000E+00 0.  1.
    -200003    1    4    4    0    0  0.42467663921E+02  0.17756836409E+03 -0.11182848119E+03  0.21619351426E+03  0.30000000000E+02 0.  1.
    -200000    1    3    3    0    0  0.44598305015E+03 -0.10512856651E+03 -0.38376381446E+02  0.47077238998E+03  0.10100000000E+03 0. -1.
<mgrwt>
<rscale>  0 0.24510266E+04</rscale>
<asrwt>0</asrwt>
<pdfrwt beam="1">  1        2 0.12999094E+00 0.24510266E+04</pdfrwt>
<pdfrwt beam="2">  1       -2 0.23579082E+00 0.24510266E+04</pdfrwt>
<totfact> 0.22677077E+00</totfact>
</mgrwt>
</event>
<event>
 8    2  0.4306980E-052  0.1531463E+04  0.7818608E-02  0.8863796E-01
         -2   -1    0    0    0  501 -0.00000000000E+00  0.00000000000E+00  0.70205841743E+03  0.70205841743E+03  0.25500000000E-02 0. -1.
          2   -1    0    0  501    0  0.00000000000E+00 -0.00000000000E+00 -0.83517965450E+03  0.83517965451E+03  0.25500000000E-02 0.  1.
    -200001    2    1    2    0    0 -0.39567887266E+03 -0.22143843133E+03  0.24863287896E+01  0.76279946168E+03  0.61340043020E+03 0.  0.
   -5000001    2    3    3    0    0 -0.51990783695E+03 -0.26532866417E+03 -0.48488741358E+02  0.58913701358E+03  0.63464980733E+02 0.  0.
     200001    1    1    2    0    0  0.39567887266E+03  0.22143843133E+03 -0.13560756586E+03  0.77443861026E+03  0.61300000000E+03 0.  1.
         13    1    4    4    0    0 -0.32382813287E+03 -0.14994832779E+03 -0.14485263575E+02  0.35715402094E+03  0.10566000000E+00 0.  1.
    -200003    1    4    4    0    0 -0.19607970407E+03 -0.11538033638E+03 -0.34003477783E+02  0.23198299264E+03  0.30000000000E+02 0.  1.
    -200000    1    3    3    0    0  0.12422896428E+03  0.43890232838E+02  0.50975070147E+02  0.17366244810E+03  0.10100000000E+03 0.  1.
<mgrwt>
<rscale>  0 0.15314632E+04</rscale>
<asrwt>0</asrwt>
<pdfrwt beam="1">  1        2 0.11931138E+00 0.15314632E+04</pdfrwt>
<pdfrwt beam="2">  1       -2 0.10029406E+00 0.15314632E+04</pdfrwt>
<totfact> 0.28477516E+01</totfact>
</mgrwt>
</event>
<event>
 8    2  0.4306980E-052  0.1293138E+04  0.7818608E-02  0.9035024E-01
          2   -1    0    0  501    0  0.00000000000E+00  0.00000000000E+00  0.99452160535E+03  0.99452160535E+03  0.25500000000E-02 0.  1.
         -2   -1    0    0    0  501 -0.00000000000E+00 -0.00000000000E+00 -0.42035438336E+03  0.42035438337E+03  0.25500000000E-02 0. -1.
    -200001    2    1    2    0    0 -0.18307338861E+03 -0.88211197807E+02  0.26938134313E+03  0.70076079285E+03  0.61416797355E+03 0.  0.
   -5000001    2    3    3    0    0 -0.18231827155E+02  0.11813081770E+03 -0.12319210924E+03  0.21695847449E+03  0.13269285686E+03 0.  0.
     200001    1    1    2    0    0  0.18307338861E+03  0.88211197807E+02  0.30478587886E+03  0.71411519588E+03  0.61300000000E+03 0. -1.
         13    1    4    4    0    0  0.48560923200E+02  0.51244487986E+02 -0.18991478150E+02  0.73108468848E+02  0.10566000000E+00 0.  1.
    -200003    1    4    4    0    0 -0.66792750355E+02  0.66886329714E+02 -0.10420063109E+03  0.14385000564E+03  0.30000000000E+02 0.  1.
    -200000    1    3    3    0    0 -0.16484156145E+03 -0.20634201551E+03  0.39257345237E+03  0.48380231836E+03  0.10100000000E+03 0.  1.
<mgrwt>
<rscale>  0 0.12931381E+04</rscale>
<asrwt>0</asrwt>
<pdfrwt beam="1">  1        2 0.14207451E+00 0.12931381E+04</pdfrwt>
<pdfrwt beam="2">  1       -2 0.60050628E-01 0.12931381E+04</pdfrwt>
<totfact> 0.71829393E+01</totfact>
</mgrwt>
</event>
<event>
 8    2  0.4306980E-052  0.1589882E+04  0.7818608E-02  0.8826788E-01
         -2   -1    0    0    0  501 -0.00000000000E+00  0.00000000000E+00  0.19719215939E+03  0.19719215940E+03  0.25500000000E-02 0. -1.
          2   -1    0    0  501    0  0.00000000000E+00 -0.00000000000E+00 -0.32046462299E+04  0.32046462299E+04  0.25500000000E-02 0.  1.
    -200001    2    1    2    0    0  0.41498903250E+03 -0.28894762916E+03 -0.14728773391E+04  0.16737176256E+04  0.61339742792E+03 0.  0.
   -5000001    2    3    3    0    0  0.36652433885E+03 -0.33593834984E+03 -0.55412811967E+03  0.74697166114E+03  0.60942790163E+02 0.  0.
     200001    1    1    2    0    0 -0.41498903250E+03  0.28894762916E+03 -0.15345767314E+04  0.17281207637E+04  0.61300000000E+03 0.  1.
         13    1    4    4    0    0  0.20343669875E+03 -0.17580226632E+03 -0.26931176129E+03  0.38055454691E+03  0.10566000000E+00 0.  1.
    -200003    1    4    4    0    0  0.16308764010E+03 -0.16013608353E+03 -0.28481635838E+03  0.36641711423E+03  0.30000000000E+02 0.  1.
    -200000    1    3    3    0    0  0.48464693654E+02  0.46990720687E+02 -0.91874921944E+03  0.92674596443E+03  0.10100000000E+03 0.  1.
<mgrwt>
<rscale>  0 0.15898819E+04</rscale>
<asrwt>0</asrwt>
<pdfrwt beam="1">  1        2 0.45780657E+00 0.15898819E+04</pdfrwt>
<pdfrwt beam="2">  1       -2 0.28170310E-01 0.15898819E+04</pdfrwt>
<totfact> 0.20092159E+01</totfact>
</mgrwt>
</event>
<event>
 8    2  0.4306980E-052  0.1617478E+04  0.7818608E-02  0.8809882E-01
         -2   -1    0    0    0  501 -0.00000000000E+00  0.00000000000E+00  0.26600311345E+03  0.26600311346E+03  0.25500000000E-02 0. -1.
          2   -1    0    0  501    0  0.00000000000E+00 -0.00000000000E+00 -0.24588389513E+04  0.24588389513E+04  0.25500000000E-02 0.  1.
    -200001    2    1    2    0    0 -0.11988006095E+03  0.36664116797E+03 -0.17024231346E+04  0.18501589252E+04  0.61322634020E+03 0.  0.
   -5000001    2    3    3    0    0 -0.28261274272E+03  0.76403469825E+02 -0.12042351490E+04  0.12426129466E+04  0.90538325882E+02 0.  0.
     200001    1    1    2    0    0  0.11988006095E+03 -0.36664116797E+03 -0.49041270323E+03  0.87468313952E+03  0.61300000000E+03 0. -1.
         13    1    4    4    0    0 -0.20234031687E+03  0.54385750052E+02 -0.96642902920E+03  0.98888042416E+03  0.10566000000E+00 0.  1.
    -200003    1    4    4    0    0 -0.80272425852E+02  0.22017719773E+02 -0.23780611976E+03  0.25373252242E+03  0.30000000000E+02 0. -1.
    -200000    1    3    3    0    0  0.16273268177E+03  0.29023769814E+03 -0.49818798561E+03  0.60754597863E+03  0.10100000000E+03 0.  1.
<mgrwt>
<rscale>  0 0.16174781E+04</rscale>
<asrwt>0</asrwt>
<pdfrwt beam="1">  1        2 0.35126269E+00 0.16174781E+04</pdfrwt>
<pdfrwt beam="2">  1       -2 0.38000446E-01 0.16174781E+04</pdfrwt>
<totfact> 0.29091902E+01</totfact>
</mgrwt>
</event>
<event>
 8    2  0.4306980E-052  0.1446294E+04  0.7818608E-02  0.8920974E-01
          2   -1    0    0  501    0  0.00000000000E+00  0.00000000000E+00  0.13078338047E+04  0.13078338047E+04  0.25500000000E-02 0.  1.
         -2   -1    0    0    0  501 -0.00000000000E+00 -0.00000000000E+00 -0.39985341885E+03  0.39985341886E+03  0.25500000000E-02 0. -1.
    -200001    2    1    2    0    0 -0.57718765651E+02 -0.36109738022E+03  0.31676955920E+03  0.78085281793E+03  0.61291548824E+03 0.  0.
   -5000001    2    3    3    0    0  0.44708491079E+02 -0.49490801940E+03  0.16420683604E+03  0.53210994954E+03  0.96147368945E+02 0.  0.
     200001    1    1    2    0    0  0.57718765651E+02  0.36109738022E+03  0.59121082666E+03  0.92683440563E+03  0.61300000000E+03 0.  1.
         13    1    4    4    0    0 -0.21943555749E+02 -0.18192489978E+03  0.40124432411E+02  0.18758510080E+03  0.10566000000E+00 0.  1.
    -200003    1    4    4    0    0  0.66652046828E+02 -0.31298311961E+03  0.12408240363E+03  0.34452484874E+03  0.30000000000E+02 0.  1.
    -200000    1    3    3    0    0 -0.10242725673E+03  0.13381063918E+03  0.15256272317E+03  0.24874286840E+03  0.10100000000E+03 0.  1.
<mgrwt>
<rscale>  0 0.14462943E+04</rscale>
<asrwt>0</asrwt>
<pdfrwt beam="1">  1        2 0.18683340E+00 0.14462943E+04</pdfrwt>
<pdfrwt beam="2">  1       -2 0.57121916E-01 0.14462943E+04</pdfrwt>
<totfact> 0.51855705E+01</totfact>
</mgrwt>
</event>
<event>
 8    2  0.4306980E-052  0.1773206E+04  0.7818608E-02  0.8720679E-01
          2   -1    0    0  501    0  0.00000000000E+00  0.00000000000E+00  0.82496331873E+03  0.82496331874E+03  0.25500000000E-02 0.  1.
         -2   -1    0    0    0  501 -0.00000000000E+00 -0.00000000000E+00 -0.95284827774E+03  0.95284827774E+03  0.25500000000E-02 0. -1.
    -200001    2    1    2    0    0  0.44394963998E+03 -0.38588259547E+03 -0.31749987756E+03  0.90734075971E+03  0.61356696592E+03 0.  0.
   -5000001    2    3    3    0    0  0.20079489567E+02 -0.37849714034E+03 -0.40470826854E+02  0.39094309871E+03  0.86806379106E+02 0.  0.
     200001    1    1    2    0    0 -0.44394963998E+03  0.38588259547E+03  0.18961491856E+03  0.87047083677E+03  0.61300000000E+03 0.  1.
         13    1    4    4    0    0 -0.94736167590E+01 -0.11673681172E+03  0.20488414096E+02  0.11889919638E+03  0.10566000000E+00 0.  1.
    -200003    1    4    4    0    0  0.29553106326E+02 -0.26176032862E+03 -0.60959240950E+02  0.27204390232E+03  0.30000000000E+02 0.  1.
    -200000    1    3    3    0    0  0.42387015041E+03 -0.73854551287E+01 -0.27702905071E+03  0.51639766101E+03  0.10100000000E+03 0. -1.
<mgrwt>
<rscale>  0 0.17732060E+04</rscale>
<asrwt>0</asrwt>
<pdfrwt beam="1">  1        2 0.11785190E+00 0.17732060E+04</pdfrwt>
<pdfrwt beam="2">  1       -2 0.13612118E+00 0.17732060E+04</pdfrwt>
<totfact> 0.13382658E+01</totfact>
</mgrwt>
</event>
<event>
 8    2  0.4306980E-052  0.1358942E+04  0.7818608E-02  0.8984086E-01
          2   -1    0    0  501    0  0.00000000000E+00  0.00000000000E+00  0.18473708978E+04  0.18473708978E+04  0.25500000000E-02 0.  1.
         -2   -1    0    0    0  501 -0.00000000000E+00 -0.00000000000E+00 -0.24991251376E+03  0.24991251377E+03  0.25500000000E-02 0. -1.
    -200001    2    1    2    0    0 -0.50347944949E+02 -0.27923571774E+03  0.67931201034E+03  0.95742847995E+03  0.61212497515E+03 0.  0.
   -5000001    2    3    3    0    0  0.87938757940E+02 -0.23847733119E+03  0.72824324002E+03  0.77472729356E+03  0.72522411077E+02 0.  0.
     200001    1    1    2    0    0  0.50347944949E+02  0.27923571774E+03  0.91814637373E+03  0.11398549317E+04  0.61300000000E+03 0. -1.
         13    1    4    4    0    0  0.36460707082E+02 -0.63194465181E+02  0.13754503416E+03  0.15569704935E+03  0.10566000000E+00 0.  1.
    -200003    1    4    4    0    0  0.51478050858E+02 -0.17528286601E+03  0.59069820586E+03  0.61903024421E+03  0.30000000000E+02 0.  1.
    -200000    1    3    3    0    0 -0.13828670289E+03 -0.40758386544E+02 -0.48931229683E+02  0.18270118639E+03  0.10100000000E+03 0. -1.
<mgrwt>
<rscale>  0 0.13589424E+04</rscale>
<asrwt>0</asrwt>
<pdfrwt beam="1">  1        2 0.26391014E+00 0.13589424E+04</pdfrwt>
<pdfrwt beam="2">  1       -2 0.35701787E-01 0.13589424E+04</pdfrwt>
<totfact> 0.69276795E+01</totfact>
</mgrwt>
</event>
<event>
 8    2  0.4306980E-052  0.1377449E+04  0.7818608E-02  0.8970306E-01
         -2   -1    0    0    0  501 -0.00000000000E+00  0.00000000000E+00  0.10093133246E+04  0.10093133246E+04  0.25500000000E-02 0.  1.
          2   -1    0    0  501    0  0.00000000000E+00 -0.00000000000E+00 -0.46996437016E+03  0.46996437017E+03  0.25500000000E-02 0. -1.
    -200001    2    1    2    0    0 -0.30986784893E+03  0.74850505075E+01  0.21342560096E+03  0.71896911130E+03  0.61261079494E+03 0.  0.
   -5000001    2    3    3    0    0  0.26500180839E+02 -0.11620229540E+03 -0.90011668013E+01  0.28524491552E+03  0.25899499568E+03 0.  0.
     200001    1    1    2    0    0  0.30986784893E+03 -0.74850505075E+01  0.32592335350E+03  0.76030858350E+03  0.61300000000E+03 0. -1.
         13    1    4    4    0    0  0.11543360806E+03 -0.12950944675E+03 -0.52058198310E+02  0.18112890946E+03  0.10566000000E+00 0.  1.
    -200003    1    4    4    0    0 -0.88933427224E+02  0.13307151353E+02  0.43057031508E+02  0.10411600606E+03  0.30000000000E+02 0.  1.
    -200000    1    3    3    0    0 -0.33636802977E+03  0.12368734591E+03  0.22242676776E+03  0.43372419578E+03  0.10100000000E+03 0.  1.
<mgrwt>
<rscale>  0 0.13774488E+04</rscale>
<asrwt>0</asrwt>
<pdfrwt beam="1">  1        2 0.67137766E-01 0.13774488E+04</pdfrwt>
<pdfrwt beam="2">  1       -2 0.14418762E+00 0.13774488E+04</pdfrwt>
<totfact> 0.23386818E+01</totfact>
</mgrwt>
</event>
<event>
 8    2  0.4306980E-052  0.1389052E+04  0.7818608E-02  0.8961781E-01
         -2   -1    0    0    0  501 -0.00000000000E+00  0.00000000000E+00  0.83110666557E+03  0.83110666557E+03  0.25500000000E-02 0. -1.
          2   -1    0    0  501    0  0.00000000000E+00 -0.00000000000E+00 -0.58039076096E+03  0.58039076097E+03  0.25500000000E-02 0.  1.
    -200001    2    1    2    0    0  0.22953051461E+03 -0.21723346872E+03  0.50020964441E+02  0.69322025436E+03  0.61496145172E+03 0.  0.
   -5000001    2    3    3    0    0  0.19204862532E+03 -0.24008388326E+03 -0.14694690726E+03  0.46755595511E+03  0.32014408025E+03 0.  0.
     200001    1    1    2    0    0 -0.22953051461E+03  0.21723346872E+03  0.20069494017E+03  0.71827717218E+03  0.61300000000E+03 0.  1.
         13    1    4    4    0    0  0.22277910368E+03 -0.27843667158E+03 -0.18178924057E+03  0.40025597843E+03  0.10566000000E+00 0.  1.
    -200003    1    4    4    0    0 -0.30730478356E+02  0.38352788324E+02  0.34842333304E+02  0.67299976689E+02  0.30000000000E+02 0.  1.
    -200000    1    3    3    0    0  0.37481889289E+02  0.22850414533E+02  0.19696787171E+03  0.22566429924E+03  0.10100000000E+03 0. -1.
<mgrwt>
<rscale>  0 0.13890524E+04</rscale>
<asrwt>0</asrwt>
<pdfrwt beam="1">  1        2 0.82912967E-01 0.13890524E+04</pdfrwt>
<pdfrwt beam="2">  1       -2 0.11872952E+00 0.13890524E+04</pdfrwt>
<totfact> 0.30020355E+01</totfact>
</mgrwt>
</event>
<event>
 8    2  0.4306980E-052  0.1492470E+04  0.7818608E-02  0.8889476E-01
          2   -1    0    0  501    0  0.00000000000E+00  0.00000000000E+00  0.30032424896E+04  0.30032424896E+04  0.25500000000E-02 0.  1.
         -2   -1    0    0    0  501 -0.00000000000E+00 -0.00000000000E+00 -0.18542185649E+03  0.18542185651E+03  0.25500000000E-02 0. -1.
    -200001    2    1    2    0    0 -0.21905239935E+02  0.14457227397E+03  0.55970995747E+03  0.84426382458E+03  0.61491884591E+03 0.  0.
   -5000001    2    3    3    0    0 -0.20117483730E+03 -0.63168956351E+02  0.45999679050E+03  0.53533386005E+03  0.17471022363E+03 0.  0.
     200001    1    1    2    0    0  0.21905239935E+02 -0.14457227397E+03  0.22581106757E+04  0.23444005216E+04  0.61300000000E+03 0.  1.
         13    1    4    4    0    0 -0.14640392635E+03 -0.11528840251E+03  0.36829650758E+03  0.41275641008E+03  0.10566000000E+00 0.  1.
    -200003    1    4    4    0    0 -0.54770910947E+02  0.52119446155E+02  0.91700282914E+02  0.12257744997E+03  0.30000000000E+02 0.  1.
    -200000    1    3    3    0    0  0.17926959736E+03  0.20774123032E+03  0.99713166973E+02  0.30892996453E+03  0.10100000000E+03 0. -1.
<mgrwt>
<rscale>  0 0.14924702E+04</rscale>
<asrwt>0</asrwt>
<pdfrwt beam="1">  1        2 0.42903460E+00 0.14924702E+04</pdfrwt>
<pdfrwt beam="2">  1       -2 0.26488839E-01 0.14924702E+04</pdfrwt>
<totfact> 0.29505189E+01</totfact>
</mgrwt>
</event>
<event>
 8    2  0.4306980E-052  0.1777039E+04  0.7818608E-02  0.8718606E-01
         -2   -1    0    0    0  501 -0.00000000000E+00  0.00000000000E+00  0.62193368661E+03  0.62193368661E+03  0.25500000000E-02 0. -1.
          2   -1    0    0  501    0  0.00000000000E+00 -0.00000000000E+00 -0.12693751401E+04  0.12693751401E+04  0.25500000000E-02 0.  1.
    -200001    2    1    2    0    0  0.22910295276E+03  0.28298222962E+03 -0.88850545981E+03  0.11386814552E+04  0.61203463870E+03 0.  0.
   -5000001    2    3    3    0    0 -0.15303045125E+03 -0.63010055980E+01 -0.96052358473E+02  0.20707335813E+03  0.10097177029E+03 0.  0.
     200001    1    1    2    0    0 -0.22910295276E+03 -0.28298222962E+03  0.24106400633E+03  0.75262737154E+03  0.61300000000E+03 0. -1.
         13    1    4    4    0    0 -0.37476296782E+02  0.37855571033E+02 -0.45704291102E+02  0.70188392686E+02  0.10566000000E+00 0.  1.
    -200003    1    4    4    0    0 -0.11555415447E+03 -0.44156576631E+02 -0.50348067372E+02  0.13688496544E+03  0.30000000000E+02 0.  1.
    -200000    1    3    3    0    0  0.38213340401E+03  0.28928323521E+03 -0.79245310133E+03  0.93160809703E+03  0.10100000000E+03 0.  1.
<mgrwt>
<rscale>  0 0.17770393E+04</rscale>
<asrwt>0</asrwt>
<pdfrwt beam="1">  1        2 0.18133930E+00 0.17770393E+04</pdfrwt>
<pdfrwt beam="2">  1       -2 0.88847670E-01 0.17770393E+04</pdfrwt>
<totfact> 0.20168853E+01</totfact>
</mgrwt>
</event>
<event>
 8    2  0.4306980E-052  0.1349464E+04  0.7818608E-02  0.8991234E-01
         -2   -1    0    0    0  501 -0.00000000000E+00  0.00000000000E+00  0.93590226623E+03  0.93590226624E+03  0.25500000000E-02 0. -1.
          2   -1    0    0  501    0  0.00000000000E+00 -0.00000000000E+00 -0.48644288030E+03  0.48644288030E+03  0.25500000000E-02 0.  1.
    -200001    2    1    2    0    0  0.24776546079E+03  0.12762645398E+03  0.18127990446E+03  0.69752415512E+03  0.61318945514E+03 0.  0.
   -5000001    2    3    3    0    0  0.14420575137E+03  0.33831478756E+03 -0.12291781344E+01  0.38347837414E+03  0.10863681853E+03 0.  0.
     200001    1    1    2    0    0 -0.24776546079E+03 -0.12762645398E+03  0.26817948148E+03  0.72482099142E+03  0.61300000000E+03 0.  1.
         13    1    4    4    0    0  0.11036802658E+02 -0.63119908944E+01 -0.14847362304E+01  0.12801087754E+02  0.10566000000E+00 0.  1.
    -200003    1    4    4    0    0  0.13316894871E+03  0.34462677846E+03  0.25555809603E+00  0.37067728638E+03  0.30000000000E+02 0.  1.
    -200000    1    3    3    0    0  0.10355970942E+03 -0.21068833358E+03  0.18250908259E+03  0.31404578098E+03  0.10100000000E+03 0. -1.
<mgrwt>
<rscale>  0 0.13494636E+04</rscale>
<asrwt>0</asrwt>
<pdfrwt beam="1">  1        2 0.69491841E-01 0.13494636E+04</pdfrwt>
<pdfrwt beam="2">  1       -2 0.13370032E+00 0.13494636E+04</pdfrwt>
<totfact> 0.27398452E+01</totfact>
</mgrwt>
</event>
<event>
 8    2  0.4306980E-052  0.2065377E+04  0.7818608E-02  0.8576650E-01
         -2   -1    0    0    0  501 -0.00000000000E+00  0.00000000000E+00  0.71023933561E+03  0.71023933561E+03  0.25500000000E-02 0. -1.
          2   -1    0    0  501    0  0.00000000000E+00 -0.00000000000E+00 -0.15015299069E+04  0.15015299069E+04  0.25500000000E-02 0.  1.
    -200001    2    1    2    0    0 -0.16871049455E+03 -0.80568170985E+03 -0.52281033568E+03  0.11509031410E+04  0.61127828706E+03 0.  0.
   -5000001    2    3    3    0    0 -0.18527159330E+03 -0.73486366228E+03 -0.62789175862E+03  0.98801492376E+03  0.87035990278E+02 0.  0.
     200001    1    1    2    0    0  0.16871049455E+03  0.80568170985E+03 -0.26848023564E+03  0.10608661016E+04  0.61300000000E+03 0.  1.
         13    1    4    4    0    0 -0.65589602072E+02 -0.39979152325E+03 -0.31356994562E+03  0.51230984758E+03  0.10566000000E+00 0.  1.
    -200003    1    4    4    0    0 -0.11968199123E+03 -0.33507213902E+03 -0.31432181301E+03  0.47570507618E+03  0.30000000000E+02 0.  1.
    -200000    1    3    3    0    0  0.16561098756E+02 -0.70818047571E+02  0.10508142295E+03  0.16288821720E+03  0.10100000000E+03 0. -1.
<mgrwt>
<rscale>  0 0.20653771E+04</rscale>
<asrwt>0</asrwt>
<pdfrwt beam="1">  1        2 0.21450427E+00 0.20653771E+04</pdfrwt>
<pdfrwt beam="2">  1       -2 0.10146276E+00 0.20653771E+04</pdfrwt>
<totfact> 0.10807381E+01</totfact>
</mgrwt>
</event>
<event>
 8    2  0.4306980E-052  0.1804700E+04  0.7818608E-02  0.8703804E-01
         -2   -1    0    0    0  501 -0.00000000000E+00  0.00000000000E+00  0.20988319613E+03  0.20988319614E+03  0.25500000000E-02 0. -1.
          2   -1    0    0  501    0  0.00000000000E+00 -0.00000000000E+00 -0.38794688784E+04  0.38794688784E+04  0.25500000000E-02 0.  1.
    -200001    2    1    2    0    0  0.31923611988E+03  0.34452820195E+03 -0.77675380934E+03  0.10952150324E+04  0.61281163881E+03 0.  0.
   -5000001    2    3    3    0    0 -0.42342528599E+02 -0.70511305179E+02  0.33115264191E+02  0.11079346223E+03  0.66436711729E+02 0.  0.
     200001    1    1    2    0    0 -0.31923611988E+03 -0.34452820195E+03 -0.28928318729E+04  0.29941370422E+04  0.61300000000E+03 0.  1.
         13    1    4    4    0    0  0.16443281386E+01 -0.30922897816E+02  0.31865231073E+02  0.44433473190E+02  0.10566000000E+00 0.  1.
    -200003    1    4    4    0    0 -0.43986856737E+02 -0.39588407363E+02  0.12500331178E+01  0.66359989045E+02  0.30000000000E+02 0. -1.
    -200000    1    3    3    0    0  0.36157864848E+03  0.41503950713E+03 -0.80986907353E+03  0.98442157015E+03  0.10100000000E+03 0.  1.
<mgrwt>
<rscale>  0 0.18046998E+04</rscale>
<asrwt>0</asrwt>
<pdfrwt beam="1">  1        2 0.55420980E+00 0.18046998E+04</pdfrwt>
<pdfrwt beam="2">  1       -2 0.29983316E-01 0.18046998E+04</pdfrwt>
<totfact> 0.67375337E+00</totfact>
</mgrwt>
</event>
<event>
 8    2  0.4306980E-052  0.2129083E+04  0.7818608E-02  0.8548539E-01
          2   -1    0    0  501    0  0.00000000000E+00  0.00000000000E+00  0.13794995370E+04  0.13794995370E+04  0.25500000000E-02 0.  1.
         -2   -1    0    0    0  501 -0.00000000000E+00 -0.00000000000E+00 -0.82149261714E+03  0.82149261714E+03  0.25500000000E-02 0. -1.
    -200001    2    1    2    0    0 -0.69564234161E+03  0.41559084788E+03 -0.49747501629E+02  0.10170291239E+04  0.61256787751E+03 0.  0.
   -5000001    2    3    3    0    0 -0.39552011005E+03 -0.82786978751E+02  0.14067994690E+02  0.42312068855E+03  0.12467304158E+03 0.  0.
     200001    1    1    2    0    0  0.69564234161E+03 -0.41559084788E+03  0.60775442152E+03  0.11839630303E+04  0.61300000000E+03 0. -1.
         13    1    4    4    0    0 -0.78616741285E+02 -0.65778366724E+02  0.19284034710E+02  0.10430374249E+03  0.10566000000E+00 0.  1.
    -200003    1    4    4    0    0 -0.31690336876E+03 -0.17008612027E+02 -0.52160400201E+01  0.31881694605E+03  0.30000000000E+02 0.  1.
    -200000    1    3    3    0    0 -0.30012223156E+03  0.49837782663E+03 -0.63815496319E+02  0.59390843531E+03  0.10100000000E+03 0.  1.
<mgrwt>
<rscale>  0 0.21290831E+04</rscale>
<asrwt>0</asrwt>
<pdfrwt beam="1">  1        2 0.19707136E+00 0.21290831E+04</pdfrwt>
<pdfrwt beam="2">  1       -2 0.11735609E+00 0.21290831E+04</pdfrwt>
<totfact> 0.87981241E+00</totfact>
</mgrwt>
</event>
<event>
 8    2  0.4306980E-052  0.1358656E+04  0.7818608E-02  0.8984301E-01
          2   -1    0    0  501    0  0.00000000000E+00  0.00000000000E+00  0.93958968259E+03  0.93958968259E+03  0.25500000000E-02 0.  1.
         -2   -1    0    0    0  501 -0.00000000000E+00 -0.00000000000E+00 -0.49115778979E+03  0.49115778979E+03  0.25500000000E-02 0. -1.
    -200001    2    1    2    0    0  0.10186931215E+03  0.14956378283E+03  0.46149903975E+03  0.79146159563E+03  0.61699547143E+03 0.  0.
   -5000001    2    3    3    0    0  0.16032148525E+03  0.35201975313E+03  0.32885456661E+03  0.52275984143E+03  0.12454573701E+03 0.  0.
     200001    1    1    2    0    0 -0.10186931215E+03 -0.14956378283E+03 -0.13067146950E+02  0.63928587676E+03  0.61300000000E+03 0. -1.
         13    1    4    4    0    0  0.51602935723E+02  0.20567901281E+03  0.23142970466E+03  0.31388921398E+03  0.10566000000E+00 0.  1.
    -200003    1    4    4    0    0  0.10871854952E+03  0.14634074032E+03  0.97424861945E+02  0.20887062745E+03  0.30000000000E+02 0.  1.
    -200000    1    3    3    0    0 -0.58452173092E+02 -0.20245597031E+03  0.13264447314E+03  0.26870175419E+03  0.10100000000E+03 0.  1.
<mgrwt>
<rscale>  0 0.13586564E+04</rscale>
<asrwt>0</asrwt>
<pdfrwt beam="1">  1        2 0.13422710E+00 0.13586564E+04</pdfrwt>
<pdfrwt beam="2">  1       -2 0.70165399E-01 0.13586564E+04</pdfrwt>
<totfact> 0.55422767E+01</totfact>
</mgrwt>
</event>
<event>
 8    2  0.4306980E-052  0.2019934E+04  0.7818608E-02  0.8597357E-01
          2   -1    0    0  501    0  0.00000000000E+00  0.00000000000E+00  0.15785321531E+04  0.15785321531E+04  0.25500000000E-02 0.  1.
         -2   -1    0    0    0  501 -0.00000000000E+00 -0.00000000000E+00 -0.64619134713E+03  0.64619134713E+03  0.25500000000E-02 0. -1.
    -200001    2    1    2    0    0 -0.53580588068E+03  0.31078584072E+02  0.11235319226E+04  0.13878382852E+04  0.61295783265E+03 0.  0.
   -5000001    2    3    3    0    0 -0.55436279143E+03 -0.13433854156E+03  0.10105893219E+04  0.11627511566E+04  0.73037842964E+02 0.  0.
     200001    1    1    2    0    0  0.53580588068E+03 -0.31078584072E+02 -0.19119111658E+03  0.83688521508E+03  0.61300000000E+03 0. -1.
         13    1    4    4    0    0 -0.49284834980E+02  0.11613159144E+01  0.62638479533E+02  0.79711566889E+02  0.10566000000E+00 0.  1.
    -200003    1    4    4    0    0 -0.50507795645E+03 -0.13549985747E+03  0.94795084232E+03  0.10830395897E+04  0.30000000000E+02 0.  1.
    -200000    1    3    3    0    0  0.18556910746E+02  0.16541712563E+03  0.11294260073E+03  0.22508712857E+03  0.10100000000E+03 0. -1.
<mgrwt>
<rscale>  0 0.20199345E+04</rscale>
<asrwt>0</asrwt>
<pdfrwt beam="1">  1        2 0.22550459E+00 0.20199345E+04</pdfrwt>
<pdfrwt beam="2">  1       -2 0.92313051E-01 0.20199345E+04</pdfrwt>
<totfact> 0.12327429E+01</totfact>
</mgrwt>
</event>
<event>
 8    2  0.4306980E-052  0.1339535E+04  0.7818608E-02  0.8998788E-01
         -2   -1    0    0    0  501 -0.00000000000E+00  0.00000000000E+00  0.82096358262E+03  0.82096358262E+03  0.25500000000E-02 0. -1.
          2   -1    0    0  501    0  0.00000000000E+00 -0.00000000000E+00 -0.54641745811E+03  0.54641745812E+03  0.25500000000E-02 0.  1.
    -200001    2    1    2    0    0 -0.14315285692E+03  0.22474742218E+03  0.92849377501E+02  0.67471456104E+03  0.61287403907E+03 0.  0.
   -5000001    2    3    3    0    0 -0.19699917897E+03  0.19309641803E+03 -0.19982246832E+03  0.35886804484E+03  0.11297057840E+03 0.  0.
     200001    1    1    2    0    0  0.14315285692E+03 -0.22474742218E+03  0.18169674701E+03  0.69266647969E+03  0.61300000000E+03 0. -1.
         13    1    4    4    0    0 -0.12891735810E+03  0.14817648556E+03 -0.82905085264E+02  0.21318822767E+03  0.10566000000E+00 0.  1.
    -200003    1    4    4    0    0 -0.68081820871E+02  0.44919932474E+02 -0.11691738306E+03  0.14567981716E+03  0.30000000000E+02 0.  1.
    -200000    1    3    3    0    0  0.53846322054E+02  0.31651004144E+02  0.29267184582E+03  0.31584651621E+03  0.10100000000E+03 0. -1.
<mgrwt>
<rscale>  0 0.13395355E+04</rscale>
<asrwt>0</asrwt>
<pdfrwt beam="1">  1        2 0.78059638E-01 0.13395355E+04</pdfrwt>
<pdfrwt beam="2">  1       -2 0.11728051E+00 0.13395355E+04</pdfrwt>
<totfact> 0.33323798E+01</totfact>
</mgrwt>
</event>
<event>
 8    2  0.4306980E-052  0.1285218E+04  0.7818608E-02  0.9041371E-01
          2   -1    0    0  501    0  0.00000000000E+00  0.00000000000E+00  0.12990425970E+04  0.12990425970E+04  0.25500000000E-02 0.  1.
         -2   -1    0    0    0  501 -0.00000000000E+00 -0.00000000000E+00 -0.31788490728E+03  0.31788490729E+03  0.25500000000E-02 0. -1.
    -200001    2    1    2    0    0  0.18903907058E+03  0.59633158848E+01  0.43666246652E+03  0.77549100673E+03  0.61232414659E+03 0.  0.
   -5000001    2    3    3    0    0  0.22790187523E+03  0.56006691721E+02 -0.68211853232E+02  0.25672927356E+03  0.78619645968E+02 0.  0.
     200001    1    1    2    0    0 -0.18903907058E+03 -0.59633158848E+01  0.54449522316E+03  0.84143649754E+03  0.61300000000E+03 0.  1.
         13    1    4    4    0    0  0.14322495795E+03  0.60709100404E+02 -0.58714960699E+02  0.16627219018E+03  0.10566000000E+00 0.  1.
    -200003    1    4    4    0    0  0.84676917274E+02 -0.47024086822E+01 -0.94968925328E+01  0.90457083383E+02  0.30000000000E+02 0.  1.
    -200000    1    3    3    0    0 -0.38862804648E+02 -0.50043375837E+02  0.50487431976E+03  0.51876173317E+03  0.10100000000E+03 0.  1.
<mgrwt>
<rscale>  0 0.12852175E+04</rscale>
<asrwt>0</asrwt>
<pdfrwt beam="1">  1        2 0.18557751E+00 0.12852175E+04</pdfrwt>
<pdfrwt beam="2">  1       -2 0.45412129E-01 0.12852175E+04</pdfrwt>
<totfact> 0.84808162E+01</totfact>
</mgrwt>
</event>
<event>
 8    2  0.4306980E-052  0.1836376E+04  0.7818608E-02  0.8687191E-01
         -2   -1    0    0    0  501 -0.00000000000E+00  0.00000000000E+00  0.45495117587E+03  0.45495117588E+03  0.25500000000E-02 0. -1.
          2   -1    0    0  501    0  0.00000000000E+00 -0.00000000000E+00 -0.18530978595E+04  0.18530978596E+04  0.25500000000E-02 0.  1.
    -200001    2    1    2    0    0 -0.22349430591E+03 -0.12118436004E+03  0.98672255954E+02  0.67071238956E+03  0.61276711850E+03 0.  0.
   -5000001    2    3    3    0    0 -0.37527686463E+03 -0.16233894798E+03 -0.66062703550E+02  0.42157336788E+03  0.78569488681E+02 0.  0.
     200001    1    1    2    0    0  0.22349430591E+03  0.12118436004E+03 -0.14968189396E+04  0.16373366459E+04  0.61300000000E+03 0.  1.
         13    1    4    4    0    0 -0.31071149367E+03 -0.14529018895E+03 -0.50050804461E+02  0.34663520522E+03  0.10566000000E+00 0.  1.
    -200003    1    4    4    0    0 -0.64565370957E+02 -0.17048759026E+02 -0.16011899089E+02  0.74938162665E+02  0.30000000000E+02 0. -1.
    -200000    1    3    3    0    0  0.15178255872E+03  0.41154587937E+02  0.16473495950E+03  0.24913902168E+03  0.10100000000E+03 0. -1.
<mgrwt>
<rscale>  0 0.18363758E+04</rscale>
<asrwt>0</asrwt>
<pdfrwt beam="1">  1        2 0.26472826E+00 0.18363758E+04</pdfrwt>
<pdfrwt beam="2">  1       -2 0.64993026E-01 0.18363758E+04</pdfrwt>
<totfact> 0.19695717E+01</totfact>
</mgrwt>
</event>
<event>
 8    2  0.4306980E-052  0.1653888E+04  0.7818608E-02  0.8788110E-01
          2   -1    0    0  501    0  0.00000000000E+00  0.00000000000E+00  0.18497342585E+04  0.18497342585E+04  0.25500000000E-02 0.  1.
         -2   -1    0    0    0  501 -0.00000000000E+00 -0.00000000000E+00 -0.36969442685E+03  0.36969442686E+03  0.25500000000E-02 0. -1.
    -200001    2    1    2    0    0 -0.39316092341E+03 -0.37783661140E+03  0.87842928997E+03  0.12020594011E+04  0.61316618448E+03 0.  0.
   -5000001    2    3    3    0    0 -0.23607789935E+03  0.15101839012E+02  0.48971106923E+02  0.26542842809E+03  0.10996927308E+03 0.  0.
     200001    1    1    2    0    0  0.39316092341E+03  0.37783661140E+03  0.60161054169E+03  0.10173692842E+04  0.61300000000E+03 0.  1.
         13    1    4    4    0    0 -0.13383291582E+03 -0.24715667977E+02 -0.11538044978E+02  0.13658422766E+03  0.10566000000E+00 0.  1.
    -200003    1    4    4    0    0 -0.10224498353E+03  0.39817506990E+02  0.60509151901E+02  0.12884420043E+03  0.30000000000E+02 0.  1.
    -200000    1    3    3    0    0 -0.15708302406E+03 -0.39293845041E+03  0.82945818305E+03  0.93663097306E+03  0.10100000000E+03 0.  1.
<mgrwt>
<rscale>  0 0.16538881E+04</rscale>
<asrwt>0</asrwt>
<pdfrwt beam="1">  1        2 0.26424774E+00 0.16538881E+04</pdfrwt>
<pdfrwt beam="2">  1       -2 0.52813491E-01 0.16538881E+04</pdfrwt>
<totfact> 0.31040008E+01</totfact>
</mgrwt>
</event>
<event>
 8    2  0.4306980E-052  0.1653968E+04  0.7818608E-02  0.8788062E-01
         -2   -1    0    0    0  501 -0.00000000000E+00  0.00000000000E+00  0.32423795697E+03  0.32423795698E+03  0.25500000000E-02 0. -1.
          2   -1    0    0  501    0  0.00000000000E+00 -0.00000000000E+00 -0.21092622110E+04  0.21092622110E+04  0.25500000000E-02 0.  1.
    -200001    2    1    2    0    0  0.29874668485E+03 -0.29500486543E+03 -0.35806872664E+03  0.82469672147E+03  0.61288988984E+03 0.  0.
   -5000001    2    3    3    0    0  0.67101195316E+02 -0.33838918132E+03  0.23085081152E+02  0.36532643849E+03  0.11798591968E+03 0.  0.
     200001    1    1    2    0    0 -0.29874668485E+03  0.29500486543E+03 -0.14269555274E+04  0.16088034465E+04  0.61300000000E+03 0.  1.
         13    1    4    4    0    0  0.49124657134E+02 -0.23359058570E+03  0.64626731795E+02  0.24729419583E+03  0.10566000000E+00 0.  1.
    -200003    1    4    4    0    0  0.17976538182E+02 -0.10479859562E+03 -0.41541650644E+02  0.11803224266E+03  0.30000000000E+02 0.  1.
    -200000    1    3    3    0    0  0.23164548954E+03  0.43384315888E+02 -0.38115380780E+03  0.45937028298E+03  0.10100000000E+03 0.  1.
<mgrwt>
<rscale>  0 0.16539684E+04</rscale>
<asrwt>0</asrwt>
<pdfrwt beam="1">  1        2 0.30132317E+00 0.16539684E+04</pdfrwt>
<pdfrwt beam="2">  1       -2 0.46319709E-01 0.16539684E+04</pdfrwt>
<totfact> 0.29800425E+01</totfact>
</mgrwt>
</event>
<event>
 8    2  0.4306980E-052  0.1285249E+04  0.7818608E-02  0.9041345E-01
          2   -1    0    0  501    0  0.00000000000E+00  0.00000000000E+00  0.62585210107E+03  0.62585210108E+03  0.25500000000E-02 0.  1.
         -2   -1    0    0    0  501 -0.00000000000E+00 -0.00000000000E+00 -0.65984649321E+03  0.65984649321E+03  0.25500000000E-02 0. -1.
    -200001    2    1    2    0    0 -0.30920105074E+02  0.14090843320E+03 -0.14719008600E+03  0.64585993920E+03  0.61209386551E+03 0.  0.
   -5000001    2    3    3    0    0 -0.39760600227E+02 -0.11102987982E+03  0.10221168330E+03  0.27714146875E+03  0.22902319961E+03 0.  0.
     200001    1    1    2    0    0  0.30920105074E+02 -0.14090843320E+03  0.11319569386E+03  0.63983865509E+03  0.61300000000E+03 0.  1.
         13    1    4    4    0    0 -0.72605553083E+01  0.43470302834E+02 -0.42247504050E+02  0.61051172424E+02  0.10566000000E+00 0.  1.
    -200003    1    4    4    0    0 -0.32500044919E+02 -0.15450018265E+03  0.14445918735E+03  0.21609029633E+03  0.30000000000E+02 0.  1.
    -200000    1    3    3    0    0  0.88404951531E+01  0.25193831301E+03 -0.24940176929E+03  0.36871847044E+03  0.10100000000E+03 0. -1.
<mgrwt>
<rscale>  0 0.12852491E+04</rscale>
<asrwt>0</asrwt>
<pdfrwt beam="1">  1        2 0.89407444E-01 0.12852491E+04</pdfrwt>
<pdfrwt beam="2">  1       -2 0.94263784E-01 0.12852491E+04</pdfrwt>
<totfact> 0.48120406E+01</totfact>
</mgrwt>
</event>
<event>
 8    2  0.4306980E-052  0.1988191E+04  0.7818608E-02  0.8612162E-01
         -2   -1    0    0    0  501 -0.00000000000E+00  0.00000000000E+00  0.12417814194E+04  0.12417814194E+04  0.25500000000E-02 0. -1.
          2   -1    0    0  501    0  0.00000000000E+00 -0.00000000000E+00 -0.79581283812E+03  0.79581283812E+03  0.25500000000E-02 0.  1.
    -200001    2    1    2    0    0 -0.15887510000E+03 -0.48533145408E+03  0.82533895155E+03  0.11541471478E+04  0.62456651865E+03 0.  0.
   -5000001    2    3    3    0    0  0.34294855950E+02 -0.34696373014E+03  0.79080191221E+02  0.36448684349E+03  0.70971932863E+02 0.  0.
     200001    1    1    2    0    0  0.15887510000E+03  0.48533145408E+03 -0.37937037028E+03  0.88344710966E+03  0.61300000000E+03 0.  1.
         13    1    4    4    0    0 -0.73451684895E+01 -0.18157863262E+03  0.53529147131E+02  0.18944691099E+03  0.10566000000E+00 0.  1.
    -200003    1    4    4    0    0  0.41640024440E+02 -0.16538509752E+03  0.25551044090E+02  0.17503993250E+03  0.30000000000E+02 0. -1.
    -200000    1    3    3    0    0 -0.19316995595E+03 -0.13836772394E+03  0.74625876033E+03  0.78966030436E+03  0.10100000000E+03 0. -1.
<mgrwt>
<rscale>  0 0.19881907E+04</rscale>
<asrwt>0</asrwt>
<pdfrwt beam="1">  1        2 0.11368755E+00 0.19881907E+04</pdfrwt>
<pdfrwt beam="2">  1       -2 0.17739734E+00 0.19881907E+04</pdfrwt>
<totfact> 0.67488887E+00</totfact>
</mgrwt>
</event>
<event>
 8    2  0.4306980E-052  0.1514604E+04  0.7818608E-02  0.8874799E-01
          2   -1    0    0  501    0  0.00000000000E+00  0.00000000000E+00  0.34604772495E+04  0.34604772495E+04  0.25500000000E-02 0.  1.
         -2   -1    0    0    0  501 -0.00000000000E+00 -0.00000000000E+00 -0.16573035932E+03  0.16573035934E+03  0.25500000000E-02 0. -1.
    -200001    2    1    2    0    0 -0.29269166858E+03 -0.16224865793E+03  0.23447570761E+04  0.24471220790E+04  0.61524603507E+03 0.  0.
   -5000001    2    3    3    0    0 -0.10393348361E+03 -0.22368912851E+03  0.59676566304E+03  0.68499848402E+03  0.22859280673E+03 0.  0.
     200001    1    1    2    0    0  0.29269166858E+03  0.16224865793E+03  0.94998981403E+03  0.11790855298E+04  0.61300000000E+03 0.  1.
         13    1    4    4    0    0 -0.15087752570E+03 -0.13452468526E+03  0.51028059087E+03  0.54885991955E+03  0.10566000000E+00 0.  1.
    -200003    1    4    4    0    0  0.46944042083E+02 -0.89164443245E+02  0.86485072175E+02  0.13613856447E+03  0.30000000000E+02 0.  1.
    -200000    1    3    3    0    0 -0.18875818496E+03  0.61440470576E+02  0.17479914131E+04  0.17621235950E+04  0.10100000000E+03 0.  1.
<mgrwt>
<rscale>  0 0.15146038E+04</rscale>
<asrwt>0</asrwt>
<pdfrwt beam="1">  1        2 0.49435386E+00 0.15146038E+04</pdfrwt>
<pdfrwt beam="2">  1       -2 0.23675767E-01 0.15146038E+04</pdfrwt>
<totfact> 0.19632868E+01</totfact>
</mgrwt>
</event>
<event>
 8    2  0.4306980E-052  0.1583901E+04  0.7818608E-02  0.8830500E-01
         -2   -1    0    0    0  501 -0.00000000000E+00  0.00000000000E+00  0.87601992822E+03  0.87601992822E+03  0.25500000000E-02 0. -1.
          2   -1    0    0  501    0  0.00000000000E+00 -0.00000000000E+00 -0.71594918672E+03  0.71594918673E+03  0.25500000000E-02 0.  1.
    -200001    2    1    2    0    0  0.21524500239E+03  0.32496082845E+03 -0.23829109087E+03  0.76348187874E+03  0.61171233770E+03 0.  0.
   -5000001    2    3    3    0    0 -0.11645363092E+03  0.12089263172E+03  0.11821384811E+03  0.22592761751E+03  0.94298981486E+02 0.  0.
     200001    1    1    2    0    0 -0.21524500239E+03 -0.32496082845E+03  0.39836183236E+03  0.82848723621E+03  0.61300000000E+03 0. -1.
         13    1    4    4    0    0 -0.10878575532E+03  0.77394529848E+02  0.58320541807E+02  0.14568991239E+03  0.10566000000E+00 0.  1.
    -200003    1    4    4    0    0 -0.76678755951E+01  0.43498101871E+02  0.59893306302E+02  0.80237705116E+02  0.30000000000E+02 0.  1.
    -200000    1    3    3    0    0  0.33169863331E+03  0.20406819673E+03 -0.35650493898E+03  0.53755426123E+03  0.10100000000E+03 0.  1.
<mgrwt>
<rscale>  0 0.15839012E+04</rscale>
<asrwt>0</asrwt>
<pdfrwt beam="1">  1        2 0.10227846E+00 0.15839012E+04</pdfrwt>
<pdfrwt beam="2">  1       -2 0.12514570E+00 0.15839012E+04</pdfrwt>
<totfact> 0.20132110E+01</totfact>
</mgrwt>
</event>
<event>
 8    2  0.4306980E-052  0.1658416E+04  0.7818608E-02  0.8785443E-01
         -2   -1    0    0    0  501 -0.00000000000E+00  0.00000000000E+00  0.27487219488E+03  0.27487219489E+03  0.25500000000E-02 0. -1.
          2   -1    0    0  501    0  0.00000000000E+00 -0.00000000000E+00 -0.25014762941E+04  0.25014762941E+04  0.25500000000E-02 0.  1.
    -200001    2    1    2    0    0  0.19100883799E+03 -0.79941261101E+02 -0.24440806065E+03  0.69122376448E+03  0.61251939648E+03 0.  0.
   -5000001    2    3    3    0    0  0.38631469134E+02  0.19039959947E+03 -0.29588505672E+03  0.36083925432E+03  0.70089962068E+02 0.  0.
     200001    1    1    2    0    0 -0.19100883799E+03  0.79941261101E+02 -0.19821960385E+04  0.20851247245E+04  0.61300000000E+03 0.  1.
         13    1    4    4    0    0  0.26503768172E+02  0.14556989440E+03 -0.24191095208E+03  0.28357355974E+03  0.10566000000E+00 0.  1.
    -200003    1    4    4    0    0  0.12127700962E+02  0.44829705069E+02 -0.53974104632E+02  0.77265694574E+02  0.30000000000E+02 0. -1.
    -200000    1    3    3    0    0  0.15237736885E+03 -0.27034086057E+03  0.51476996062E+02  0.33038451017E+03  0.10100000000E+03 0. -1.
<mgrwt>
<rscale>  0 0.16584164E+04</rscale>
<asrwt>0</asrwt>
<pdfrwt beam="1">  1        2 0.35735374E+00 0.16584164E+04</pdfrwt>
<pdfrwt beam="2">  1       -2 0.39267458E-01 0.16584164E+04</pdfrwt>
<totfact> 0.25836811E+01</totfact>
</mgrwt>
</event>
<event>
 8    2  0.4306980E-052  0.1717951E+04  0.7818608E-02  0.8751192E-01
          2   -1    0    0  501    0  0.00000000000E+00  0.00000000000E+00  0.82098677089E+03  0.82098677090E+03  0.25500000000E-02 0.  1.
         -2   -1    0    0    0  501 -0.00000000000E+00 -0.00000000000E+00 -0.89872214510E+03  0.89872214510E+03  0.25500000000E-02 0. -1.
    -200001    2    1    2    0    0  0.86358869561E+02  0.44475440501E+01 -0.63591980630E+03  0.88615238208E+03  0.61106007005E+03 0.  0.
   -5000001    2    3    3    0    0 -0.18304989066E+03 -0.55808754769E+02 -0.15381133092E+03  0.32149187907E+03  0.20755053169E+03 0.  0.
     200001    1    1    2    0    0 -0.86358869561E+02 -0.44475440501E+01  0.55818443210E+03  0.83355653392E+03  0.61300000000E+03 0.  1.
         13    1    4    4    0    0 -0.74855569990E+02 -0.12158987059E+03 -0.12132834064E+03  0.18737137026E+03  0.10566000000E+00 0.  1.
    -200003    1    4    4    0    0 -0.10819432067E+03  0.65781115819E+02 -0.32482990285E+02  0.13412050880E+03  0.30000000000E+02 0.  1.
    -200000    1    3    3    0    0  0.26940876022E+03  0.60256298819E+02 -0.48210847538E+03  0.56466050301E+03  0.10100000000E+03 0. -1.
<mgrwt>
<rscale>  0 0.17179511E+04</rscale>
<asrwt>0</asrwt>
<pdfrwt beam="1">  1        2 0.11728382E+00 0.17179511E+04</pdfrwt>
<pdfrwt beam="2">  1       -2 0.12838888E+00 0.17179511E+04</pdfrwt>
<totfact> 0.15695006E+01</totfact>
</mgrwt>
</event>
<event>
 8    2  0.4306980E-052  0.1441967E+04  0.7818608E-02  0.8923988E-01
          2   -1    0    0  501    0  0.00000000000E+00  0.00000000000E+00  0.20349075865E+04  0.20349075865E+04  0.25500000000E-02 0.  1.
         -2   -1    0    0    0  501 -0.00000000000E+00 -0.00000000000E+00 -0.25545018059E+03  0.25545018060E+03  0.25500000000E-02 0. -1.
    -200001    2    1    2    0    0 -0.11757876327E+03 -0.61763003177E+02  0.32526318918E+03  0.70666295620E+03  0.61313698085E+03 0.  0.
   -5000001    2    3    3    0    0 -0.46913616240E+01  0.23634695808E+03  0.20950603902E+03  0.35280729033E+03  0.15715696058E+03 0.  0.
     200001    1    1    2    0    0  0.11757876327E+03  0.61763003177E+02  0.14541942167E+04  0.15836948109E+04  0.61300000000E+03 0.  1.
         13    1    4    4    0    0  0.10239222595E+02  0.14693070945E+03  0.31219803577E+02  0.15055949773E+03  0.10566000000E+00 0.  1.
    -200003    1    4    4    0    0 -0.14930584219E+02  0.89416248633E+02  0.17828623544E+03  0.20224779260E+03  0.30000000000E+02 0.  1.
    -200000    1    3    3    0    0 -0.11288740165E+03 -0.29810996126E+03  0.11575715016E+03  0.35385566587E+03  0.10100000000E+03 0.  1.
<mgrwt>
<rscale>  0 0.14419674E+04</rscale>
<asrwt>0</asrwt>
<pdfrwt beam="1">  1        2 0.29070108E+00 0.14419674E+04</pdfrwt>
<pdfrwt beam="2">  1       -2 0.36492883E-01 0.14419674E+04</pdfrwt>
<totfact> 0.52869211E+01</totfact>
</mgrwt>
</event>
<event>
 8    2  0.4306980E-052  0.2029950E+04  0.7818608E-02  0.8592745E-01
          2   -1    0    0  501    0  0.00000000000E+00  0.00000000000E+00  0.13798372345E+04  0.13798372345E+04  0.25500000000E-02 0.  1.
         -2   -1    0    0    0  501 -0.00000000000E+00 -0.00000000000E+00 -0.74659083400E+03  0.74659083401E+03  0.25500000000E-02 0. -1.
    -200001    2    1    2    0    0  0.89442136943E+02  0.79173316743E+03  0.17522909339E+03  0.10217153647E+04  0.61510628924E+03 0.  0.
   -5000001    2    3    3    0    0 -0.11390627809E+03  0.74124235013E+03  0.47582403487E+02  0.75639559921E+03  0.86344400868E+02 0.  0.
     200001    1    1    2    0    0 -0.89442136943E+02 -0.79173316743E+03  0.45801730708E+03  0.11047127038E+04  0.61300000000E+03 0.  1.
         13    1    4    4    0    0 -0.95352809712E+02  0.56933305212E+03  0.12303760714E+02  0.57739386579E+03  0.10566000000E+00 0.  1.
    -200003    1    4    4    0    0 -0.18553468381E+02  0.17190929801E+03  0.35278642773E+02  0.17900173342E+03  0.30000000000E+02 0.  1.
    -200000    1    3    3    0    0  0.20334841504E+03  0.50490817301E+02  0.12764668991E+03  0.26531976552E+03  0.10100000000E+03 0.  1.
<mgrwt>
<rscale>  0 0.20299496E+04</rscale>
<asrwt>0</asrwt>
<pdfrwt beam="1">  1        2 0.19711960E+00 0.20299496E+04</pdfrwt>
<pdfrwt beam="2">  1       -2 0.10665583E+00 0.20299496E+04</pdfrwt>
<totfact> 0.11181139E+01</totfact>
</mgrwt>
</event>
<event>
 8    2  0.4306980E-052  0.1475382E+04  0.7818608E-02  0.8900991E-01
         -2   -1    0    0    0  501 -0.00000000000E+00  0.00000000000E+00  0.50344030071E+03  0.50344030072E+03  0.25500000000E-02 0.  1.
          2   -1    0    0  501    0  0.00000000000E+00 -0.00000000000E+00 -0.10809383405E+04  0.10809383405E+04  0.25500000000E-02 0. -1.
    -200001    2    1    2    0    0  0.38794281161E+03 -0.13419228028E+03 -0.30636028199E+03  0.79838126407E+03  0.61241230171E+03 0.  0.
   -5000001    2    3    3    0    0 -0.80571958908E+02 -0.11437653063E+03 -0.25893838344E+03  0.31635575584E+03  0.11600882084E+03 0.  0.
     200001    1    1    2    0    0 -0.38794281161E+03  0.13419228028E+03 -0.27113775779E+03  0.78599737713E+03  0.61300000000E+03 0.  1.
         13    1    4    4    0    0  0.14861686727E+01 -0.68511533924E+02 -0.17084918730E+03  0.18408013185E+03  0.10566000000E+00 0.  1.
    -200003    1    4    4    0    0 -0.82058127581E+02 -0.45864996704E+02 -0.88089196147E+02  0.13227562399E+03  0.30000000000E+02 0.  1.
    -200000    1    3    3    0    0  0.46851477051E+03 -0.19815749647E+02 -0.47421898545E+02  0.48202550823E+03  0.10100000000E+03 0.  1.
<mgrwt>
<rscale>  0 0.14753819E+04</rscale>
<asrwt>0</asrwt>
<pdfrwt beam="1">  1        2 0.15441976E+00 0.14753819E+04</pdfrwt>
<pdfrwt beam="2">  1       -2 0.71920043E-01 0.14753819E+04</pdfrwt>
<totfact> 0.42602325E+01</totfact>
</mgrwt>
</event>
<event>
 8    2  0.4306980E-052  0.1405501E+04  0.7818608E-02  0.8949847E-01
         -2   -1    0    0    0  501 -0.00000000000E+00  0.00000000000E+00  0.25989301129E+04  0.25989301129E+04  0.25500000000E-02 0. -1.
          2   -1    0    0  501    0  0.00000000000E+00 -0.00000000000E+00 -0.19002355721E+03  0.19002355722E+03  0.25500000000E-02 0.  1.
    -200001    2    1    2    0    0 -0.12953618542E+03  0.25637160776E+03  0.15723510999E+04  0.17128030974E+04  0.61554889686E+03 0.  0.
   -5000001    2    3    3    0    0  0.20354612340E+03 -0.60352802434E+01  0.41197280632E+03  0.47325479919E+03  0.11305336284E+03 0.  0.
     200001    1    1    2    0    0  0.12953618542E+03 -0.25637160776E+03  0.83655545577E+03  0.10761505727E+04  0.61300000000E+03 0.  1.
         13    1    4    4    0    0  0.16277709759E+03 -0.22850077453E+02  0.37169471781E+03  0.40641786865E+03  0.10566000000E+00 0.  1.
    -200003    1    4    4    0    0  0.40769025811E+02  0.16814797210E+02  0.40278088505E+02  0.66836930542E+02  0.30000000000E+02 0.  1.
    -200000    1    3    3    0    0 -0.33308230883E+03  0.26240688800E+03  0.11603782936E+04  0.12395482982E+04  0.10100000000E+03 0. -1.
<mgrwt>
<rscale>  0 0.14055005E+04</rscale>
<asrwt>0</asrwt>
<pdfrwt beam="1">  1        2 0.27146222E-01 0.14055005E+04</pdfrwt>
<pdfrwt beam="2">  1       -2 0.37127574E+00 0.14055005E+04</pdfrwt>
<totfact> 0.22394142E+00</totfact>
</mgrwt>
</event>
<event>
 8    2  0.4306980E-052  0.1512239E+04  0.7818608E-02  0.8876355E-01
         -2   -1    0    0    0  501 -0.00000000000E+00  0.00000000000E+00  0.17174123065E+04  0.17174123065E+04  0.25500000000E-02 0. -1.
          2   -1    0    0  501    0  0.00000000000E+00 -0.00000000000E+00 -0.33289424603E+03  0.33289424604E+03  0.25500000000E-02 0.  1.
    -200001    2    1    2    0    0  0.30020792639E+03  0.71807988427E+02  0.26054528859E+03  0.73335363837E+03  0.61208048917E+03 0.  0.
   -5000001    2    3    3    0    0  0.43458134515E+03 -0.90150197840E+02  0.17528839983E+03  0.48484527462E+03  0.85795766133E+02 0.  0.
     200001    1    1    2    0    0 -0.30020792639E+03 -0.71807988427E+02  0.11239727719E+04  0.13169529142E+04  0.61300000000E+03 0. -1.
         13    1    4    4    0    0  0.87340043678E+02 -0.14261524460E+02  0.70280276862E+02  0.11300886155E+03  0.10566000000E+00 0.  1.
    -200003    1    4    4    0    0  0.34724130147E+03 -0.75888673380E+02  0.10500812296E+03  0.37183641307E+03  0.30000000000E+02 0.  1.
    -200000    1    3    3    0    0 -0.13437341876E+03  0.16195818627E+03  0.85256888767E+02  0.24850836374E+03  0.10100000000E+03 0. -1.
<mgrwt>
<rscale>  0 0.15122390E+04</rscale>
<asrwt>0</asrwt>
<pdfrwt beam="1">  1        2 0.47556320E-01 0.15122390E+04</pdfrwt>
<pdfrwt beam="2">  1       -2 0.24534462E+00 0.15122390E+04</pdfrwt>
<totfact> 0.70547081E+00</totfact>
</mgrwt>
</event>
<event>
 8    2  0.4306980E-052  0.1440569E+04  0.7818608E-02  0.8924965E-01
         -2   -1    0    0    0  501 -0.00000000000E+00  0.00000000000E+00  0.10698277570E+03  0.10698277573E+03  0.25500000000E-02 0. -1.
          2   -1    0    0  501    0  0.00000000000E+00 -0.00000000000E+00 -0.48494699590E+04  0.48494699590E+04  0.25500000000E-02 0.  1.
    -200001    2    1    2    0    0  0.33385690084E+02  0.37435134583E+03 -0.25256864410E+04  0.26259532034E+04  0.61260484309E+03 0.  0.
   -5000001    2    3    3    0    0  0.14553640518E+02 -0.56842534223E+01 -0.32484738754E+02  0.10186179641E+03  0.95270394803E+02 0.  0.
     200001    1    1    2    0    0 -0.33385690084E+02 -0.37435134583E+03 -0.22168007424E+04  0.23304995314E+04  0.61300000000E+03 0.  1.
         13    1    4    4    0    0  0.86677205716E+01 -0.26433218227E+02  0.22388583865E+02  0.35708602007E+02  0.10566000000E+00 0.  1.
    -200003    1    4    4    0    0  0.58859199463E+01  0.20748964805E+02 -0.54873322618E+02  0.66153194400E+02  0.30000000000E+02 0. -1.
    -200000    1    3    3    0    0  0.18832049566E+02  0.38003559925E+03 -0.24932017022E+04  0.25240914070E+04  0.10100000000E+03 0.  1.
<mgrwt>
<rscale>  0 0.14405690E+04</rscale>
<asrwt>0</asrwt>
<pdfrwt beam="1">  1        2 0.69278129E+00 0.14405690E+04</pdfrwt>
<pdfrwt beam="2">  1       -2 0.15283257E-01 0.14405690E+04</pdfrwt>
<totfact> 0.42054139E+00</totfact>
</mgrwt>
</event>
<event>
 8    2  0.4306980E-052  0.1562686E+04  0.7818608E-02  0.8843805E-01
          2   -1    0    0  501    0  0.00000000000E+00  0.00000000000E+00  0.17646901751E+04  0.17646901751E+04  0.25500000000E-02 0.  1.
         -2   -1    0    0    0  501 -0.00000000000E+00 -0.00000000000E+00 -0.34595146740E+03  0.34595146741E+03  0.25500000000E-02 0. -1.
    -200001    2    1    2    0    0 -0.60885943959E+02  0.40862901346E+03  0.10500163218E+04  0.12845605529E+04  0.61390289874E+03 0.  0.
   -5000001    2    3    3    0    0  0.53628341371E+02 -0.13057157053E+03  0.34660623184E+03  0.38520659252E+03  0.91232148598E+02 0.  0.
     200001    1    1    2    0    0  0.60885943959E+02 -0.40862901346E+03  0.36872238588E+03  0.82608108964E+03  0.61300000000E+03 0.  1.
         13    1    4    4    0    0  0.70335705517E+02 -0.76179071773E+02  0.21901125549E+03  0.24231447262E+03  0.10566000000E+00 0.  1.
    -200003    1    4    4    0    0 -0.16707364146E+02 -0.54392498753E+02  0.12759497635E+03  0.14289211989E+03  0.30000000000E+02 0.  1.
    -200000    1    3    3    0    0 -0.11451428533E+03  0.53920058399E+03  0.70341008998E+03  0.89935396035E+03  0.10100000000E+03 0. -1.
<mgrwt>
<rscale>  0 0.15626863E+04</rscale>
<asrwt>0</asrwt>
<pdfrwt beam="1">  1        2 0.25209859E+00 0.15626863E+04</pdfrwt>
<pdfrwt beam="2">  1       -2 0.49421639E-01 0.15626863E+04</pdfrwt>
<totfact> 0.39621694E+01</totfact>
</mgrwt>
</event>
<event>
 8    2  0.4306980E-052  0.1709025E+04  0.7818608E-02  0.8756234E-01
         -2   -1    0    0    0  501 -0.00000000000E+00  0.00000000000E+00  0.92257006682E+03  0.92257006682E+03  0.25500000000E-02 0. -1.
          2   -1    0    0  501    0  0.00000000000E+00 -0.00000000000E+00 -0.79147540974E+03  0.79147540975E+03  0.25500000000E-02 0.  1.
    -200001    2    1    2    0    0 -0.19882612070E+03 -0.39138354118E+03  0.46854372719E+03  0.88799839709E+03  0.61342890898E+03 0.  0.
   -5000001    2    3    3    0    0  0.13852193548E+03  0.61809338984E+02  0.44623618672E+02  0.17448823175E+03  0.73798066932E+02 0.  0.
     200001    1    1    2    0    0  0.19882612070E+03  0.39138354118E+03 -0.33744907011E+03  0.82604707947E+03  0.61300000000E+03 0.  1.
         13    1    4    4    0    0  0.25327316250E+02  0.11413100747E+02  0.37678756681E+02  0.46812729958E+02  0.10566000000E+00 0.  1.
    -200003    1    4    4    0    0  0.11319461923E+03  0.50396238237E+02  0.69448619911E+01  0.12767550180E+03  0.30000000000E+02 0.  1.
    -200000    1    3    3    0    0 -0.33734805618E+03 -0.45319288017E+03  0.42392010852E+03  0.71351016534E+03  0.10100000000E+03 0. -1.
<mgrwt>
<rscale>  0 0.17090249E+04</rscale>
<asrwt>0</asrwt>
<pdfrwt beam="1">  1        2 0.11306792E+00 0.17090249E+04</pdfrwt>
<pdfrwt beam="2">  1       -2 0.13179572E+00 0.17090249E+04</pdfrwt>
<totfact> 0.15410947E+01</totfact>
</mgrwt>
</event>
<event>
 8    2  0.4306980E-052  0.1287139E+04  0.7818608E-02  0.9039826E-01
          2   -1    0    0  501    0  0.00000000000E+00  0.00000000000E+00  0.14726852077E+04  0.14726852077E+04  0.25500000000E-02 0.  1.
         -2   -1    0    0    0  501 -0.00000000000E+00 -0.00000000000E+00 -0.28124261697E+03  0.28124261699E+03  0.25500000000E-02 0. -1.
    -200001    2    1    2    0    0 -0.13331373763E+02  0.16139884036E+03  0.74270976564E+03  0.97716694804E+03  0.61401151225E+03 0.  0.
   -5000001    2    3    3    0    0 -0.85867096684E+02  0.16941608666E+03  0.79748191190E+03  0.84105414429E+03  0.18793537485E+03 0.  0.
     200001    1    1    2    0    0  0.13331373763E+02 -0.16139884036E+03  0.44873282511E+03  0.77676087667E+03  0.61300000000E+03 0. -1.
         13    1    4    4    0    0 -0.98759094845E+02  0.19916292967E+03  0.64081866580E+03  0.67828298296E+03  0.10566000000E+00 0.  1.
    -200003    1    4    4    0    0  0.12891998161E+02 -0.29746843007E+02  0.15666324609E+03  0.16277116133E+03  0.30000000000E+02 0. -1.
    -200000    1    3    3    0    0  0.72535722921E+02 -0.80172463069E+01 -0.54772146257E+02  0.13611280375E+03  0.10100000000E+03 0. -1.
<mgrwt>
<rscale>  0 0.12871392E+04</rscale>
<asrwt>0</asrwt>
<pdfrwt beam="1">  1        2 0.21038360E+00 0.12871392E+04</pdfrwt>
<pdfrwt beam="2">  1       -2 0.40177518E-01 0.12871392E+04</pdfrwt>
<totfact> 0.86943237E+01</totfact>
</mgrwt>
</event>
<event>
 8    2  0.4306980E-052  0.1501663E+04  0.7818608E-02  0.8883348E-01
          2   -1    0    0  501    0  0.00000000000E+00  0.00000000000E+00  0.58667531670E+03  0.58667531671E+03  0.25500000000E-02 0.  1.
         -2   -1    0    0    0  501 -0.00000000000E+00 -0.00000000000E+00 -0.96092021783E+03  0.96092021784E+03  0.25500000000E-02 0. -1.
    -200001    2    1    2    0    0  0.36352795932E+03 -0.19099841438E+03 -0.44060125539E+02  0.73924910044E+03  0.61311904744E+03 0.  0.
   -5000001    2    3    3    0    0 -0.12043967432E+02  0.15344956559E+03 -0.12844708160E+03  0.21292140649E+03  0.71728977666E+02 0.  0.
     200001    1    1    2    0    0 -0.36352795932E+03  0.19099841438E+03 -0.33018477559E+03  0.80834643411E+03  0.61300000000E+03 0. -1.
         13    1    4    4    0    0 -0.31776497130E+02  0.83605393514E+02 -0.83899720865E+02  0.12263271146E+03  0.10566000000E+00 0.  1.
    -200003    1    4    4    0    0  0.19732529698E+02  0.69844172076E+02 -0.44547360739E+02  0.90288695029E+02  0.30000000000E+02 0.  1.
    -200000    1    3    3    0    0  0.37557192675E+03 -0.34444797997E+03  0.84386956065E+02  0.52632769395E+03  0.10100000000E+03 0.  1.
<mgrwt>
<rscale>  0 0.15016633E+04</rscale>
<asrwt>0</asrwt>
<pdfrwt beam="1">  1        2 0.83810759E-01 0.15016633E+04</pdfrwt>
<pdfrwt beam="2">  1       -2 0.13727432E+00 0.15016633E+04</pdfrwt>
<totfact> 0.20378871E+01</totfact>
</mgrwt>
</event>
<event>
 8    2  0.4306980E-052  0.1389452E+04  0.7818608E-02  0.8961490E-01
          2   -1    0    0  501    0  0.00000000000E+00  0.00000000000E+00  0.29458042046E+04  0.29458042046E+04  0.25500000000E-02 0.  1.
         -2   -1    0    0    0  501 -0.00000000000E+00 -0.00000000000E+00 -0.16384113721E+03  0.16384113723E+03  0.25500000000E-02 0. -1.
    -200001    2    1    2    0    0 -0.28904724022E+03 -0.65502410063E+02  0.16966462221E+04  0.18284269657E+04  0.61375719380E+03 0.  0.
   -5000001    2    3    3    0    0 -0.40812802452E+03 -0.20538587763E+03  0.10157657662E+04  0.11160037677E+04  0.70231579083E+02 0.  0.
     200001    1    1    2    0    0  0.28904724022E+03  0.65502410063E+02  0.10853168453E+04  0.12812183762E+04  0.61300000000E+03 0.  1.
         13    1    4    4    0    0 -0.32378490178E+03 -0.15763924836E+03  0.76653329388E+03  0.84691209522E+03  0.10566000000E+00 0.  1.
    -200003    1    4    4    0    0 -0.84343122738E+02 -0.47746629272E+02  0.24923247230E+03  0.26909167250E+03  0.30000000000E+02 0. -1.
    -200000    1    3    3    0    0  0.11908078430E+03  0.13988346757E+03  0.68088045595E+03  0.71242319795E+03  0.10100000000E+03 0.  1.
<mgrwt>
<rscale>  0 0.13894516E+04</rscale>
<asrwt>0</asrwt>
<pdfrwt beam="1">  1        2 0.42082915E+00 0.13894516E+04</pdfrwt>
<pdfrwt beam="2">  1       -2 0.23405878E-01 0.13894516E+04</pdfrwt>
<totfact> 0.40092716E+01</totfact>
</mgrwt>
</event>
<event>
 8    2  0.4306980E-052  0.1577243E+04  0.7818608E-02  0.8834651E-01
          2   -1    0    0  501    0  0.00000000000E+00  0.00000000000E+00  0.15421829404E+04  0.15421829404E+04  0.25500000000E-02 0.  1.
         -2   -1    0    0    0  501 -0.00000000000E+00 -0.00000000000E+00 -0.40327527658E+03  0.40327527659E+03  0.25500000000E-02 0. -1.
    -200001    2    1    2    0    0  0.41645645341E+02 -0.49328072574E+03  0.53184672001E+03  0.95079635302E+03  0.61326383977E+03 0.  0.
   -5000001    2    3    3    0    0 -0.22857656789E+03 -0.71401840433E+02  0.29689620023E+03  0.38829783290E+03  0.72680004934E+02 0.  0.
     200001    1    1    2    0    0 -0.41645645341E+02  0.49328072574E+03  0.60706094383E+03  0.99466186399E+03  0.61300000000E+03 0. -1.
         13    1    4    4    0    0 -0.41251123577E+02 -0.40046440784E+02  0.58548753529E+02  0.82056933404E+02  0.10566000000E+00 0.  1.
    -200003    1    4    4    0    0 -0.18732544432E+03 -0.31355399648E+02  0.23834744670E+03  0.30624089950E+03  0.30000000000E+02 0.  1.
    -200000    1    3    3    0    0  0.27022221323E+03 -0.42187888531E+03  0.23495051977E+03  0.56249852012E+03  0.10100000000E+03 0.  1.
<mgrwt>
<rscale>  0 0.15772435E+04</rscale>
<asrwt>0</asrwt>
<pdfrwt beam="1">  1        2 0.22031185E+00 0.15772435E+04</pdfrwt>
<pdfrwt beam="2">  1       -2 0.57610753E-01 0.15772435E+04</pdfrwt>
<totfact> 0.37695728E+01</totfact>
</mgrwt>
</event>
<event>
 8    2  0.4306980E-052  0.1260926E+04  0.7818608E-02  0.9061138E-01
          2   -1    0    0  501    0  0.00000000000E+00  0.00000000000E+00  0.84404970122E+03  0.84404970122E+03  0.25500000000E-02 0.  1.
         -2   -1    0    0    0  501 -0.00000000000E+00 -0.00000000000E+00 -0.47092447399E+03  0.47092447400E+03  0.25500000000E-02 0. -1.
    -200001    2    1    2    0    0 -0.10224604094E+03  0.40828341520E+02  0.85083679252E+02  0.62878313789E+03  0.61319474530E+03 0.  0.
   -5000001    2    3    3    0    0  0.25989180532E+02 -0.18508883092E+03  0.20795360512E+03  0.32418363114E+03  0.16406404840E+03 0.  0.
     200001    1    1    2    0    0  0.10224604094E+03 -0.40828341520E+02  0.28804154797E+03  0.68619103733E+03  0.61300000000E+03 0.  1.
         13    1    4    4    0    0 -0.19723660504E+01 -0.18655300591E+03  0.10667713403E+03  0.21490913506E+03  0.10566000000E+00 0.  1.
    -200003    1    4    4    0    0  0.27961546582E+02  0.14641749894E+01  0.10127647110E+03  0.10927449608E+03  0.30000000000E+02 0.  1.
    -200000    1    3    3    0    0 -0.12823522147E+03  0.22591717244E+03 -0.12286992587E+03  0.30459950675E+03  0.10100000000E+03 0.  1.
<mgrwt>
<rscale>  0 0.12609261E+04</rscale>
<asrwt>0</asrwt>
<pdfrwt beam="1">  1        2 0.12057853E+00 0.12609261E+04</pdfrwt>
<pdfrwt beam="2">  1       -2 0.67274926E-01 0.12609261E+04</pdfrwt>
<totfact> 0.70671239E+01</totfact>
</mgrwt>
</event>
<event>
 8    2  0.4306980E-052  0.1635794E+04  0.7818608E-02  0.8798855E-01
          2   -1    0    0  501    0  0.00000000000E+00  0.00000000000E+00  0.26043595243E+04  0.26043595243E+04  0.25500000000E-02 0.  1.
         -2   -1    0    0    0  501 -0.00000000000E+00 -0.00000000000E+00 -0.25685977488E+03  0.25685977489E+03  0.25500000000E-02 0. -1.
    -200001    2    1    2    0    0  0.46157709833E+03  0.22532795802E+03  0.87498623584E+03  0.11855429718E+04  0.61325779147E+03 0.  0.
   -5000001    2    3    3    0    0 -0.32420555797E+02  0.23231593193E+03  0.14993265996E+03  0.30237469684E+03  0.11802063423E+03 0.  0.
     200001    1    1    2    0    0 -0.46157709833E+03 -0.22532795802E+03  0.14725135136E+04  0.16756763274E+04  0.61300000000E+03 0.  1.
         13    1    4    4    0    0 -0.41850769475E+01  0.21628733229E+03  0.10948011663E+03  0.24245336062E+03  0.10566000000E+00 0.  1.
    -200003    1    4    4    0    0 -0.28235478849E+02  0.16028599638E+02  0.40452543332E+02  0.59921336219E+02  0.30000000000E+02 0.  1.
    -200000    1    3    3    0    0  0.49399765412E+03 -0.69879739051E+01  0.72505357588E+03  0.88316827499E+03  0.10100000000E+03 0. -1.
<mgrwt>
<rscale>  0 0.16357936E+04</rscale>
<asrwt>0</asrwt>
<pdfrwt beam="1">  1        2 0.37205135E+00 0.16357936E+04</pdfrwt>
<pdfrwt beam="2">  1       -2 0.36694254E-01 0.16357936E+04</pdfrwt>
<totfact> 0.26043647E+01</totfact>
</mgrwt>
</event>
<event>
 8    2  0.4306980E-052  0.1351305E+04  0.7818608E-02  0.8989841E-01
         -2   -1    0    0    0  501 -0.00000000000E+00  0.00000000000E+00  0.12621251714E+04  0.12621251714E+04  0.25500000000E-02 0. -1.
          2   -1    0    0  501    0  0.00000000000E+00 -0.00000000000E+00 -0.36169642925E+03  0.36169642926E+03  0.25500000000E-02 0.  1.
    -200001    2    1    2    0    0  0.14523210595E+03  0.68003804014E+02  0.73103545101E+03  0.96794053745E+03  0.61382340412E+03 0.  0.
   -5000001    2    3    3    0    0  0.22008659109E+03 -0.18801963363E+03  0.50245883697E+03  0.60242793431E+03  0.16329434461E+03 0.  0.
     200001    1    1    2    0    0 -0.14523210595E+03 -0.68003804014E+02  0.16939329110E+03  0.65588106317E+03  0.61300000000E+03 0.  1.
         13    1    4    4    0    0  0.16007808578E+03 -0.60001156494E+02  0.17576621650E+03  0.24519157072E+03  0.10566000000E+00 0.  1.
    -200003    1    4    4    0    0  0.60008505305E+02 -0.12801847714E+03  0.32669262047E+03  0.35723636359E+03  0.30000000000E+02 0. -1.
    -200000    1    3    3    0    0 -0.74854485137E+02  0.25602343765E+03  0.22857661404E+03  0.36551260314E+03  0.10100000000E+03 0. -1.
<mgrwt>
<rscale>  0 0.13513048E+04</rscale>
<asrwt>0</asrwt>
<pdfrwt beam="1">  1        2 0.51670918E-01 0.13513048E+04</pdfrwt>
<pdfrwt beam="2">  1       -2 0.18030360E+00 0.13513048E+04</pdfrwt>
<totfact> 0.17068810E+01</totfact>
</mgrwt>
</event>
<event>
 8    2  0.4306980E-052  0.1527343E+04  0.7818608E-02  0.8866471E-01
          2   -1    0    0  501    0  0.00000000000E+00  0.00000000000E+00  0.17338100633E+04  0.17338100633E+04  0.25500000000E-02 0.  1.
         -2   -1    0    0    0  501 -0.00000000000E+00 -0.00000000000E+00 -0.33636550415E+03  0.33636550415E+03  0.25500000000E-02 0. -1.
    -200001    2    1    2    0    0  0.45294220188E+02 -0.30742337963E+03  0.11486671069E+04  0.13392720708E+04  0.61453466649E+03 0.  0.
   -5000001    2    3    3    0    0 -0.14279675728E+03  0.70924361347E+02  0.39701333434E+03  0.47110755714E+03  0.19723479365E+03 0.  0.
     200001    1    1    2    0    0 -0.45294220188E+02  0.30742337963E+03  0.24877745224E+03  0.73090349669E+03  0.61300000000E+03 0. -1.
         13    1    4    4    0    0 -0.27427630385E+02  0.22543989384E+02 -0.15690954335E+02  0.38816537427E+02  0.10566000000E+00 0.  1.
    -200003    1    4    4    0    0 -0.11536912689E+03  0.48380371963E+02  0.41270428867E+03  0.43229101971E+03  0.30000000000E+02 0.  1.
    -200000    1    3    3    0    0  0.18809097746E+03 -0.37834774098E+03  0.75165377258E+03  0.86816451364E+03  0.10100000000E+03 0.  1.
<mgrwt>
<rscale>  0 0.15273427E+04</rscale>
<asrwt>0</asrwt>
<pdfrwt beam="1">  1        2 0.24768715E+00 0.15273427E+04</pdfrwt>
<pdfrwt beam="2">  1       -2 0.48052216E-01 0.15273427E+04</pdfrwt>
<totfact> 0.43636850E+01</totfact>
</mgrwt>
</event>
<event>
 8    2  0.4306980E-052  0.1389574E+04  0.7818608E-02  0.8961400E-01
         -2   -1    0    0    0  501 -0.00000000000E+00  0.00000000000E+00  0.16703238194E+03  0.16703238195E+03  0.25500000000E-02 0. -1.
          2   -1    0    0  501    0  0.00000000000E+00 -0.00000000000E+00 -0.28900343521E+04  0.28900343521E+04  0.25500000000E-02 0.  1.
    -200001    2    1    2    0    0 -0.31299315707E+03  0.73913865063E+01 -0.15679696666E+04  0.17124894878E+04  0.61324711279E+03 0.  0.
   -5000001    2    3    3    0    0 -0.18302592360E+03 -0.26492634162E+03 -0.56491969607E+03  0.66017837872E+03  0.11409107559E+03 0.  0.
     200001    1    1    2    0    0  0.31299315707E+03 -0.73913865063E+01 -0.11550323035E+04  0.13445772462E+04  0.61300000000E+03 0.  1.
         13    1    4    4    0    0 -0.98739202183E+02 -0.20193241138E+03 -0.31138417137E+03  0.38403937579E+03  0.10566000000E+00 0.  1.
    -200003    1    4    4    0    0 -0.84286721414E+02 -0.62993930235E+02 -0.25353552470E+03  0.27613900293E+03  0.30000000000E+02 0.  1.
    -200000    1    3    3    0    0 -0.12996723347E+03  0.27231772812E+03 -0.10030499706E+04  0.10523111091E+04  0.10100000000E+03 0.  1.
<mgrwt>
<rscale>  0 0.13895745E+04</rscale>
<asrwt>0</asrwt>
<pdfrwt beam="1">  1        2 0.41286202E+00 0.13895745E+04</pdfrwt>
<pdfrwt beam="2">  1       -2 0.23861771E-01 0.13895745E+04</pdfrwt>
<totfact> 0.41556897E+01</totfact>
</mgrwt>
</event>
<event>
 8    2  0.4306980E-052  0.2065185E+04  0.7818608E-02  0.8576737E-01
          2   -1    0    0  501    0  0.00000000000E+00  0.00000000000E+00  0.12272952770E+04  0.12272952770E+04  0.25500000000E-02 0.  1.
         -2   -1    0    0    0  501 -0.00000000000E+00 -0.00000000000E+00 -0.86877821593E+03  0.86877821594E+03  0.25500000000E-02 0. -1.
    -200001    2    1    2    0    0 -0.71330449895E+03 -0.37061266986E+03 -0.34345085430E+02  0.10115151840E+04  0.61304675461E+03 0.  0.
   -5000001    2    3    3    0    0 -0.78479518347E+03 -0.34035760231E+03  0.78100656931E+01  0.87733491777E+03  0.19470178060E+03 0.  0.
     200001    1    1    2    0    0  0.71330449895E+03  0.37061266986E+03  0.39286214650E+03  0.10845583089E+04  0.61300000000E+03 0.  1.
         13    1    4    4    0    0 -0.67512360222E+03 -0.27018678717E+03  0.68865695890E+02  0.73043498922E+03  0.10566000000E+00 0.  1.
    -200003    1    4    4    0    0 -0.10967158125E+03 -0.70170815139E+02 -0.61055630197E+02  0.14689992855E+03  0.30000000000E+02 0.  1.
    -200000    1    3    3    0    0  0.71490684519E+02 -0.30255067554E+02 -0.42155151123E+02  0.13418026625E+03  0.10100000000E+03 0. -1.
<mgrwt>
<rscale>  0 0.20651851E+04</rscale>
<asrwt>0</asrwt>
<pdfrwt beam="1">  1        2 0.17532790E+00 0.20651851E+04</pdfrwt>
<pdfrwt beam="2">  1       -2 0.12411117E+00 0.20651851E+04</pdfrwt>
<totfact> 0.93433658E+00</totfact>
</mgrwt>
</event>
<event>
 8    2  0.4306980E-052  0.1789320E+04  0.7818608E-02  0.8711999E-01
          2   -1    0    0  501    0  0.00000000000E+00  0.00000000000E+00  0.40206357617E+04  0.40206357617E+04  0.25500000000E-02 0.  1.
         -2   -1    0    0    0  501 -0.00000000000E+00 -0.00000000000E+00 -0.19907720468E+03  0.19907720470E+03  0.25500000000E-02 0. -1.
    -200001    2    1    2    0    0  0.61820946681E+03  0.13606826942E+03  0.22763623578E+04  0.24409218564E+04  0.61284288887E+03 0.  0.
   -5000001    2    3    3    0    0  0.35612217919E+03  0.26954203593E+03  0.18789068180E+04  0.19362666288E+04  0.13914636683E+03 0.  0.
     200001    1    1    2    0    0 -0.61820946681E+03 -0.13606826942E+03  0.15451961993E+04  0.17787911100E+04  0.61300000000E+03 0. -1.
         13    1    4    4    0    0  0.56683333242E+02 -0.47111704430E+01  0.32289533838E+03  0.32786675053E+03  0.10566000000E+00 0.  1.
    -200003    1    4    4    0    0  0.29943884595E+03  0.27425320637E+03  0.15560114796E+04  0.16083998782E+04  0.30000000000E+02 0.  1.
    -200000    1    3    3    0    0  0.26208728761E+03 -0.13347376651E+03  0.39745553979E+03  0.50465522764E+03  0.10100000000E+03 0. -1.
<mgrwt>
<rscale>  0 0.17893205E+04</rscale>
<asrwt>0</asrwt>
<pdfrwt beam="1">  1        2 0.57437653E+00 0.17893205E+04</pdfrwt>
<pdfrwt beam="2">  1       -2 0.28439601E-01 0.17893205E+04</pdfrwt>
<totfact> 0.59768913E+00</totfact>
</mgrwt>
</event>
<event>
 8    2  0.4306980E-052  0.1770098E+04  0.7818608E-02  0.8722365E-01
         -2   -1    0    0    0  501 -0.00000000000E+00  0.00000000000E+00  0.48148254296E+03  0.48148254297E+03  0.25500000000E-02 0. -1.
          2   -1    0    0  501    0  0.00000000000E+00 -0.00000000000E+00 -0.16268741619E+04  0.16268741619E+04  0.25500000000E-02 0.  1.
    -200001    2    1    2    0    0  0.23165336069E+03 -0.12630028496E+02 -0.12810731657E+04  0.14390277280E+04  0.61304938547E+03 0.  0.
   -5000001    2    3    3    0    0  0.23180951355E+03 -0.85947267594E+02 -0.12685327284E+04  0.13135936637E+04  0.23501158888E+03 0.  0.
     200001    1    1    2    0    0 -0.23165336069E+03  0.12630028496E+02  0.13568154674E+03  0.66932897686E+03  0.61300000000E+03 0. -1.
         13    1    4    4    0    0  0.26340047113E+03 -0.11133181771E+03 -0.11449458901E+04  0.11801168095E+04  0.10566000000E+00 0.  1.
    -200003    1    4    4    0    0 -0.31590957584E+02  0.25384550112E+02 -0.12358683833E+03  0.13347685415E+03  0.30000000000E+02 0.  1.
    -200000    1    3    3    0    0 -0.15615285115E+00  0.73317239098E+02 -0.12540437327E+02  0.12543406436E+03  0.10100000000E+03 0. -1.
<mgrwt>
<rscale>  0 0.17700977E+04</rscale>
<asrwt>0</asrwt>
<pdfrwt beam="1">  1        2 0.23241059E+00 0.17700977E+04</pdfrwt>
<pdfrwt beam="2">  1       -2 0.68783221E-01 0.17700977E+04</pdfrwt>
<totfact> 0.22959072E+01</totfact>
</mgrwt>
</event>
<event>
 8    2  0.4306980E-052  0.1384409E+04  0.7818608E-02  0.8965182E-01
          2   -1    0    0  501    0  0.00000000000E+00  0.00000000000E+00  0.10940786857E+04  0.10940786857E+04  0.25500000000E-02 0.  1.
         -2   -1    0    0    0  501 -0.00000000000E+00 -0.00000000000E+00 -0.43794581743E+03  0.43794581744E+03  0.25500000000E-02 0. -1.
    -200001    2    1    2    0    0 -0.69956294992E+02  0.30338855373E+03  0.24425953513E+03  0.73055888296E+03  0.61409694937E+03 0.  0.
   -5000001    2    3    3    0    0 -0.13090231181E+03  0.15266187780E+03 -0.15387793014E+03  0.28880398593E+03  0.13888218293E+03 0.  0.
     200001    1    1    2    0    0  0.69956294992E+02 -0.30338855373E+03  0.41187333310E+03  0.80146562013E+03  0.61300000000E+03 0. -1.
         13    1    4    4    0    0 -0.12004526698E+03  0.13843779656E+03 -0.66890139316E+02  0.19506458300E+03  0.10566000000E+00 0.  1.
    -200003    1    4    4    0    0 -0.10857044834E+02  0.14224081236E+02 -0.86987790819E+02  0.93739402927E+02  0.30000000000E+02 0.  1.
    -200000    1    3    3    0    0  0.60946016819E+02  0.15072667593E+03  0.39813746527E+03  0.44175489703E+03  0.10100000000E+03 0.  1.
<mgrwt>
<rscale>  0 0.13844092E+04</rscale>
<asrwt>0</asrwt>
<pdfrwt beam="1">  1        2 0.15629696E+00 0.13844092E+04</pdfrwt>
<pdfrwt beam="2">  1       -2 0.62563687E-01 0.13844092E+04</pdfrwt>
<totfact> 0.56938887E+01</totfact>
</mgrwt>
</event>
<event>
 8    2  0.4306980E-052  0.2596696E+04  0.7818608E-02  0.8369324E-01
         -2   -1    0    0    0  501 -0.00000000000E+00  0.00000000000E+00  0.24808192068E+04  0.24808192068E+04  0.25500000000E-02 0.  1.
          2   -1    0    0  501    0  0.00000000000E+00 -0.00000000000E+00 -0.67949655385E+03  0.67949655386E+03  0.25500000000E-02 0. -1.
    -200001    2    1    2    0    0  0.10383100683E+04  0.14763431531E+02  0.31547516693E+03  0.12467281592E+04  0.61359658166E+03 0.  0.
   -5000001    2    3    3    0    0  0.88913909487E+03  0.22916240017E+03  0.21743194413E+03  0.95002566405E+03  0.11040097983E+03 0.  0.
     200001    1    1    2    0    0 -0.10383100683E+04 -0.14763431531E+02  0.14858474860E+04  0.19135876015E+04  0.61300000000E+03 0. -1.
         13    1    4    4    0    0  0.16031807773E+03  0.27181830472E+02  0.78229435469E+02  0.18044554218E+03  0.10566000000E+00 0.  1.
    -200003    1    4    4    0    0  0.72882101714E+03  0.20198056970E+03  0.13920250867E+03  0.76958012187E+03  0.30000000000E+02 0.  1.
    -200000    1    3    3    0    0  0.14917097345E+03 -0.21439896864E+03  0.98043222791E+02  0.29670249511E+03  0.10100000000E+03 0. -1.
<mgrwt>
<rscale>  0 0.25966964E+04</rscale>
<asrwt>0</asrwt>
<pdfrwt beam="1">  1        2 0.97070936E-01 0.25966964E+04</pdfrwt>
<pdfrwt beam="2">  1       -2 0.35440275E+00 0.25966964E+04</pdfrwt>
<totfact> 0.60596433E-01</totfact>
</mgrwt>
</event>
<event>
 8    2  0.4306980E-052  0.1289195E+04  0.7818608E-02  0.9038177E-01
          2   -1    0    0  501    0  0.00000000000E+00  0.00000000000E+00  0.11342409348E+04  0.11342409348E+04  0.25500000000E-02 0.  1.
         -2   -1    0    0    0  501 -0.00000000000E+00 -0.00000000000E+00 -0.36632975114E+03  0.36632975115E+03  0.25500000000E-02 0. -1.
    -200001    2    1    2    0    0 -0.38100522064E+02  0.13424542085E+03  0.21915344009E+03  0.66607829896E+03  0.61331768868E+03 0.  0.
   -5000001    2    3    3    0    0  0.11171225646E+03  0.32802256837E+03  0.17890388757E+03  0.39809606449E+03  0.79971507234E+02 0.  0.
     200001    1    1    2    0    0  0.38100522064E+02 -0.13424542085E+03  0.54875774355E+03  0.83449238697E+03  0.61300000000E+03 0.  1.
         13    1    4    4    0    0  0.16336100925E+02  0.14598392635E+03  0.89247756391E+02  0.17188178534E+03  0.10566000000E+00 0.  1.
    -200003    1    4    4    0    0  0.95376155539E+02  0.18203864202E+03  0.89656131182E+02  0.22621427915E+03  0.30000000000E+02 0.  1.
    -200000    1    3    3    0    0 -0.14981277853E+03 -0.19377714753E+03  0.40249552514E+02  0.26798223447E+03  0.10100000000E+03 0. -1.
<mgrwt>
<rscale>  0 0.12891954E+04</rscale>
<asrwt>0</asrwt>
<pdfrwt beam="1">  1        2 0.16203442E+00 0.12891954E+04</pdfrwt>
<pdfrwt beam="2">  1       -2 0.52332821E-01 0.12891954E+04</pdfrwt>
<totfact> 0.78883168E+01</totfact>
</mgrwt>
</event>
<event>
 8    2  0.4306980E-052  0.1342332E+04  0.7818608E-02  0.8996653E-01
          2   -1    0    0  501    0  0.00000000000E+00  0.00000000000E+00  0.21513245401E+03  0.21513245403E+03  0.25500000000E-02 0.  1.
         -2   -1    0    0    0  501 -0.00000000000E+00 -0.00000000000E+00 -0.20938911290E+04  0.20938911290E+04  0.25500000000E-02 0. -1.
    -200001    2    1    2    0    0 -0.63296418782E+02  0.26524216791E+03 -0.90487787172E+03  0.11264109401E+04  0.61289297511E+03 0.  0.
   -5000001    2    3    3    0    0  0.10072532530E+03  0.33678223799E+03 -0.83483598354E+03  0.90932114240E+03  0.79661493892E+02 0.  0.
     200001    1    1    2    0    0  0.63296418782E+02 -0.26524216791E+03 -0.97388080322E+03  0.11826126429E+04  0.61300000000E+03 0. -1.
         13    1    4    4    0    0  0.88094458610E+02  0.20707784921E+03 -0.56498495545E+03  0.60815284290E+03  0.10566000000E+00 0.  1.
    -200003    1    4    4    0    0  0.12630866692E+02  0.12970438879E+03 -0.26985102809E+03  0.30116829950E+03  0.30000000000E+02 0.  1.
    -200000    1    3    3    0    0 -0.16402174408E+03 -0.71540070080E+02 -0.70041888182E+02  0.21708979769E+03  0.10100000000E+03 0.  1.
<mgrwt>
<rscale>  0 0.13423322E+04</rscale>
<asrwt>0</asrwt>
<pdfrwt beam="1">  1        2 0.30733209E-01 0.13423322E+04</pdfrwt>
<pdfrwt beam="2">  1       -2 0.29912729E+00 0.13423322E+04</pdfrwt>
<totfact> 0.54879838E+00</totfact>
</mgrwt>
</event>
<event>
 8    2  0.4306980E-052  0.1967303E+04  0.7818608E-02  0.8622062E-01
          2   -1    0    0  501    0  0.00000000000E+00  0.00000000000E+00  0.29694010529E+04  0.29694010529E+04  0.25500000000E-02 0.  1.
         -2   -1    0    0    0  501 -0.00000000000E+00 -0.00000000000E+00 -0.32584708126E+03  0.32584708127E+03  0.25500000000E-02 0. -1.
    -200001    2    1    2    0    0 -0.23918054168E+03  0.22890926686E+03  0.15876027878E+03  0.71463280445E+03  0.61309741077E+03 0.  0.
   -5000001    2    3    3    0    0 -0.98043786296E+02  0.26676620914E+03 -0.17184851543E+03  0.33932505525E+03  0.69518245777E+02 0.  0.
     200001    1    1    2    0    0  0.23918054168E+03 -0.22890926686E+03  0.24847936928E+04  0.25806153297E+04  0.61300000000E+03 0.  1.
         13    1    4    4    0    0 -0.54578361987E+02  0.20059203268E+03 -0.12468137923E+03  0.24240754663E+03  0.10566000000E+00 0.  1.
    -200003    1    4    4    0    0 -0.43465424309E+02  0.66174176467E+02 -0.47167136194E+02  0.96917508626E+02  0.30000000000E+02 0. -1.
    -200000    1    3    3    0    0 -0.14113675538E+03 -0.37856942279E+02  0.33060879421E+03  0.37530774920E+03  0.10100000000E+03 0.  1.
<mgrwt>
<rscale>  0 0.19673034E+04</rscale>
<asrwt>0</asrwt>
<pdfrwt beam="1">  1        2 0.42420015E+00 0.19673034E+04</pdfrwt>
<pdfrwt beam="2">  1       -2 0.46549583E-01 0.19673034E+04</pdfrwt>
<totfact> 0.10045350E+01</totfact>
</mgrwt>
</event>
<event>
 8    2  0.4306980E-052  0.1472954E+04  0.7818608E-02  0.8902640E-01
          2   -1    0    0  501    0  0.00000000000E+00  0.00000000000E+00  0.10584269523E+04  0.10584269523E+04  0.25500000000E-02 0.  1.
         -2   -1    0    0    0  501 -0.00000000000E+00 -0.00000000000E+00 -0.51245727727E+03  0.51245727728E+03  0.25500000000E-02 0. -1.
    -200001    2    1    2    0    0  0.34940790162E+03  0.95635040242E+01  0.49742170494E+03  0.86356305235E+03  0.61329882644E+03 0.  0.
   -5000001    2    3    3    0    0  0.39959155636E+03  0.21899866956E+03  0.36785412505E+03  0.59269362712E+03  0.91297585563E+02 0.  0.
     200001    1    1    2    0    0 -0.34940790162E+03 -0.95635040242E+01  0.48547970064E+02  0.70732117720E+03  0.61300000000E+03 0. -1.
         13    1    4    4    0    0  0.17000129247E+02  0.10527305639E+02 -0.23926938014E+01  0.20138637145E+02  0.10566000000E+00 0.  1.
    -200003    1    4    4    0    0  0.38259142711E+03  0.20847136392E+03  0.37024681885E+03  0.57255498997E+03  0.30000000000E+02 0.  1.
    -200000    1    3    3    0    0 -0.50183654739E+02 -0.20943516554E+03  0.12956757990E+03  0.27086942524E+03  0.10100000000E+03 0.  1.
<mgrwt>
<rscale>  0 0.14729543E+04</rscale>
<asrwt>0</asrwt>
<pdfrwt beam="1">  1        2 0.15120385E+00 0.14729543E+04</pdfrwt>
<pdfrwt beam="2">  1       -2 0.73208184E-01 0.14729543E+04</pdfrwt>
<totfact> 0.42270142E+01</totfact>
</mgrwt>
</event>
<event>
 8    2  0.4306980E-052  0.1543991E+04  0.7818608E-02  0.8855715E-01
          2   -1    0    0  501    0  0.00000000000E+00  0.00000000000E+00  0.16263613586E+04  0.16263613586E+04  0.25500000000E-02 0.  1.
         -2   -1    0    0    0  501 -0.00000000000E+00 -0.00000000000E+00 -0.36644834904E+03  0.36644834905E+03  0.25500000000E-02 0. -1.
    -200001    2    1    2    0    0  0.39838914284E+03 -0.60621450768E+02  0.32993071693E+03  0.80831617284E+03  0.61816817119E+03 0.  0.
   -5000001    2    3    3    0    0  0.40524274355E+03 -0.21080752338E+03  0.40202395013E+03  0.61337704767E+03  0.77114544764E+02 0.  0.
     200001    1    1    2    0    0 -0.39838914284E+03  0.60621450768E+02  0.92998229267E+03  0.11844935349E+04  0.61300000000E+03 0.  1.
         13    1    4    4    0    0  0.66507301078E+01 -0.12683440670E+00 -0.23048606236E+01  0.70407275521E+01  0.10566000000E+00 0.  1.
    -200003    1    4    4    0    0  0.39859201344E+03 -0.21068068898E+03  0.40432881075E+03  0.60633632011E+03  0.30000000000E+02 0.  1.
    -200000    1    3    3    0    0 -0.68536007054E+01  0.15018607262E+03 -0.72093233201E+02  0.19493912517E+03  0.10100000000E+03 0.  1.
<mgrwt>
<rscale>  0 0.15439915E+04</rscale>
<asrwt>0</asrwt>
<pdfrwt beam="1">  1        2 0.23233734E+00 0.15439915E+04</pdfrwt>
<pdfrwt beam="2">  1       -2 0.52349763E-01 0.15439915E+04</pdfrwt>
<totfact> 0.41632120E+01</totfact>
</mgrwt>
</event>
<event>
 8    2  0.4306980E-052  0.1415425E+04  0.7818608E-02  0.8942728E-01
          2   -1    0    0  501    0  0.00000000000E+00  0.00000000000E+00  0.73755366076E+03  0.73755366076E+03  0.25500000000E-02 0.  1.
         -2   -1    0    0    0  501 -0.00000000000E+00 -0.00000000000E+00 -0.67907894708E+03  0.67907894709E+03  0.25500000000E-02 0. -1.
    -200001    2    1    2    0    0 -0.21459457811E+02 -0.27439909701E+03  0.25194900601E+03  0.71737823742E+03  0.61269720183E+03 0.  0.
   -5000001    2    3    3    0    0  0.85408020980E+02 -0.43690737523E+03  0.18002009486E+03  0.48671751954E+03  0.79398518249E+02 0.  0.
     200001    1    1    2    0    0  0.21459457811E+02  0.27439909701E+03 -0.19347429233E+03  0.69925437043E+03  0.61300000000E+03 0. -1.
         13    1    4    4    0    0  0.17000298513E+02 -0.22218654850E+03  0.11211224945E+03  0.24944947409E+03  0.10566000000E+00 0.  1.
    -200003    1    4    4    0    0  0.68407722466E+02 -0.21472082673E+03  0.67907845408E+02  0.23726804546E+03  0.30000000000E+02 0. -1.
    -200000    1    3    3    0    0 -0.10686747879E+03  0.16250827822E+03  0.71928911149E+02  0.23066071788E+03  0.10100000000E+03 0.  1.
<mgrwt>
<rscale>  0 0.14154253E+04</rscale>
<asrwt>0</asrwt>
<pdfrwt beam="1">  1        2 0.10536481E+00 0.14154253E+04</pdfrwt>
<pdfrwt beam="2">  1       -2 0.97011278E-01 0.14154253E+04</pdfrwt>
<totfact> 0.36445318E+01</totfact>
</mgrwt>
</event>
<event>
 8    2  0.4306980E-052  0.1830810E+04  0.7818608E-02  0.8690085E-01
         -2   -1    0    0    0  501 -0.00000000000E+00  0.00000000000E+00  0.38426495029E+03  0.38426495029E+03  0.25500000000E-02 0. -1.
          2   -1    0    0  501    0  0.00000000000E+00 -0.00000000000E+00 -0.21806981443E+04  0.21806981443E+04  0.25500000000E-02 0.  1.
    -200001    2    1    2    0    0  0.40515157408E+03  0.36711123604E+03 -0.33168485532E+03  0.88562538189E+03  0.61269814444E+03 0.  0.
   -5000001    2    3    3    0    0  0.37076536150E+03 -0.17473376615E+01 -0.10595577593E+02  0.38508728815E+03  0.10348887260E+03 0.  0.
     200001    1    1    2    0    0 -0.40515157408E+03 -0.36711123604E+03 -0.14647483387E+04  0.16793377127E+04  0.61300000000E+03 0.  1.
         13    1    4    4    0    0  0.25818786352E+03 -0.10031172110E+02 -0.47256507051E+02  0.26266858569E+03  0.10566000000E+00 0.  1.
    -200003    1    4    4    0    0  0.11257749798E+03  0.82838344482E+01  0.36660929458E+02  0.12241870247E+03  0.30000000000E+02 0.  1.
    -200000    1    3    3    0    0  0.34386212573E+02  0.36885857370E+03 -0.32108927773E+03  0.50053809374E+03  0.10100000000E+03 0.  1.
<mgrwt>
<rscale>  0 0.18308095E+04</rscale>
<asrwt>0</asrwt>
<pdfrwt beam="1">  1        2 0.31152830E+00 0.18308095E+04</pdfrwt>
<pdfrwt beam="2">  1       -2 0.54894994E-01 0.18308095E+04</pdfrwt>
<totfact> 0.19079670E+01</totfact>
</mgrwt>
</event>
<event>
 8    2  0.4306980E-052  0.1802888E+04  0.7818608E-02  0.8704765E-01
         -2   -1    0    0    0  501 -0.00000000000E+00  0.00000000000E+00  0.46283190040E+03  0.46283190040E+03  0.25500000000E-02 0. -1.
          2   -1    0    0  501    0  0.00000000000E+00 -0.00000000000E+00 -0.17557152835E+04  0.17557152835E+04  0.25500000000E-02 0.  1.
    -200001    2    1    2    0    0  0.23163850576E+02 -0.39836182378E+03 -0.12887814398E+04  0.14871003078E+04  0.62552459537E+03 0.  0.
   -5000001    2    3    3    0    0  0.29679791931E+03 -0.27997657654E+03 -0.58882900913E+03  0.71962061721E+03  0.68252050623E+02 0.  0.
     200001    1    1    2    0    0 -0.23163850576E+02  0.39836182378E+03 -0.41019433589E+01  0.73144687610E+03  0.61300000000E+03 0. -1.
         13    1    4    4    0    0  0.23499671589E+03 -0.20328778882E+03 -0.44286517019E+03  0.54099810692E+03  0.10566000000E+00 0.  1.
    -200003    1    4    4    0    0  0.61801203421E+02 -0.76688787720E+02 -0.14596383894E+03  0.17862251030E+03  0.30000000000E+02 0. -1.
    -200000    1    3    3    0    0 -0.27363406873E+03 -0.11838524725E+03 -0.69995243064E+03  0.76747969061E+03  0.10100000000E+03 0.  1.
<mgrwt>
<rscale>  0 0.18028877E+04</rscale>
<asrwt>0</asrwt>
<pdfrwt beam="1">  1        2 0.25081647E+00 0.18028877E+04</pdfrwt>
<pdfrwt beam="2">  1       -2 0.66118844E-01 0.18028877E+04</pdfrwt>
<totfact> 0.21372110E+01</totfact>
</mgrwt>
</event>
<event>
 8    2  0.4306980E-052  0.1298360E+04  0.7818608E-02  0.9030867E-01
          2   -1    0    0  501    0  0.00000000000E+00  0.00000000000E+00  0.23857671308E+04  0.23857671308E+04  0.25500000000E-02 0.  1.
         -2   -1    0    0    0  501 -0.00000000000E+00 -0.00000000000E+00 -0.17664531872E+03  0.17664531873E+03  0.25500000000E-02 0. -1.
    -200001    2    1    2    0    0 -0.16653313610E+03  0.11126426195E+03  0.12492500662E+04  0.14060233325E+04  0.61332117384E+03 0.  0.
   -5000001    2    3    3    0    0  0.63808010986E+02  0.17293431145E+03  0.96105034081E+02  0.22415840617E+03  0.83863431469E+02 0.  0.
     200001    1    1    2    0    0  0.16653313610E+03 -0.11126426195E+03  0.95987174588E+03  0.11563891170E+04  0.61300000000E+03 0.  1.
         13    1    4    4    0    0  0.55635550105E+02  0.14898615701E+03  0.94255115043E+02  0.18486813487E+03  0.10566000000E+00 0.  1.
    -200003    1    4    4    0    0  0.81724608809E+01  0.23948154440E+02  0.18499190371E+01  0.39290271294E+02  0.30000000000E+02 0.  1.
    -200000    1    3    3    0    0 -0.23034114708E+03 -0.61670049500E+02  0.11531450321E+04  0.11818649263E+04  0.10100000000E+03 0.  1.
<mgrwt>
<rscale>  0 0.12983599E+04</rscale>
<asrwt>0</asrwt>
<pdfrwt beam="1">  1        2 0.34082385E+00 0.12983599E+04</pdfrwt>
<pdfrwt beam="2">  1       -2 0.25235047E-01 0.12983599E+04</pdfrwt>
<totfact> 0.70186419E+01</totfact>
</mgrwt>
</event>
<event>
 8    2  0.4306980E-052  0.1533511E+04  0.7818608E-02  0.8862469E-01
         -2   -1    0    0    0  501 -0.00000000000E+00  0.00000000000E+00  0.51021884782E+03  0.51021884783E+03  0.25500000000E-02 0. -1.
          2   -1    0    0  501    0  0.00000000000E+00 -0.00000000000E+00 -0.11522781250E+04  0.11522781250E+04  0.25500000000E-02 0.  1.
    -200001    2    1    2    0    0  0.27192673662E+03  0.36324466515E+03 -0.23053327129E+03  0.79588662765E+03  0.61188160460E+03 0.  0.
   -5000001    2    3    3    0    0  0.25366741079E+03  0.49764875219E+03 -0.81462712761E+02  0.57045173014E+03  0.82325980077E+02 0.  0.
     200001    1    1    2    0    0 -0.27192673662E+03 -0.36324466515E+03 -0.41152600588E+03  0.86661034517E+03  0.61300000000E+03 0. -1.
         13    1    4    4    0    0  0.11182037769E+03  0.14356007393E+03 -0.28055486723E+02  0.18412064847E+03  0.10566000000E+00 0.  1.
    -200003    1    4    4    0    0  0.14184703310E+03  0.35408867826E+03 -0.53407226039E+02  0.38633108167E+03  0.30000000000E+02 0.  1.
    -200000    1    3    3    0    0  0.18259325835E+02 -0.13440408704E+03 -0.14907055853E+03  0.22543489751E+03  0.10100000000E+03 0. -1.
<mgrwt>
<rscale>  0 0.15335110E+04</rscale>
<asrwt>0</asrwt>
<pdfrwt beam="1">  1        2 0.16461116E+00 0.15335110E+04</pdfrwt>
<pdfrwt beam="2">  1       -2 0.72888407E-01 0.15335110E+04</pdfrwt>
<totfact> 0.37398901E+01</totfact>
</mgrwt>
</event>
<event>
 8    2  0.4306980E-052  0.1540155E+04  0.7818608E-02  0.8858181E-01
          2   -1    0    0  501    0  0.00000000000E+00  0.00000000000E+00  0.17727647408E+04  0.17727647408E+04  0.25500000000E-02 0.  1.
         -2   -1    0    0    0  501 -0.00000000000E+00 -0.00000000000E+00 -0.33451678423E+03  0.33451678424E+03  0.25500000000E-02 0. -1.
    -200001    2    1    2    0    0  0.19777098973E+03 -0.21428495794E+03  0.22075682470E+03  0.71333566392E+03  0.61244002661E+03 0.  0.
   -5000001    2    3    3    0    0 -0.93820841694E+02 -0.22159225170E+03 -0.99540446535E+02  0.26850925435E+03  0.65448016203E+02 0.  0.
     200001    1    1    2    0    0 -0.19777098973E+03  0.21428495794E+03  0.12174911319E+04  0.13939458612E+04  0.61300000000E+03 0.  1.
         13    1    4    4    0    0 -0.75875314626E+01 -0.12856258190E+02 -0.24404789945E+02  0.28608721479E+02  0.10566000000E+00 0.  1.
    -200003    1    4    4    0    0 -0.86233310231E+02 -0.20873599351E+03 -0.75135656590E+02  0.23990053287E+03  0.30000000000E+02 0.  1.
    -200000    1    3    3    0    0  0.29159183142E+03  0.73072937653E+01  0.32029727123E+03  0.44482640957E+03  0.10100000000E+03 0.  1.
<mgrwt>
<rscale>  0 0.15401553E+04</rscale>
<asrwt>0</asrwt>
<pdfrwt beam="1">  1        2 0.25325210E+00 0.15401553E+04</pdfrwt>
<pdfrwt beam="2">  1       -2 0.47788113E-01 0.15401553E+04</pdfrwt>
<totfact> 0.42081123E+01</totfact>
</mgrwt>
</event>
<event>
 8    2  0.4306980E-052  0.1489051E+04  0.7818608E-02  0.8891766E-01
         -2   -1    0    0    0  501 -0.00000000000E+00  0.00000000000E+00  0.75260308136E+03  0.75260308137E+03  0.25500000000E-02 0. -1.
          2   -1    0    0  501    0  0.00000000000E+00 -0.00000000000E+00 -0.73653494707E+03  0.73653494707E+03  0.25500000000E-02 0.  1.
    -200001    2    1    2    0    0 -0.39434454387E+02  0.23864037881E+03 -0.34052110534E+03  0.73985224023E+03  0.61067373253E+03 0.  0.
   -5000001    2    3    3    0    0  0.85493903334E+02  0.11091225078E+03  0.14424544132E+03  0.21342924110E+03  0.71655835325E+02 0.  0.
     200001    1    1    2    0    0  0.39434454387E+02 -0.23864037881E+03  0.35658923963E+03  0.74928578821E+03  0.61300000000E+03 0. -1.
         13    1    4    4    0    0  0.54718883255E+02  0.97138633214E+02  0.11143462739E+03  0.15763171506E+03  0.10566000000E+00 0.  1.
    -200003    1    4    4    0    0  0.30775020079E+02  0.13773617565E+02  0.32810813927E+02  0.55797526040E+02  0.30000000000E+02 0. -1.
    -200000    1    3    3    0    0 -0.12492835772E+03  0.12772812803E+03 -0.48476654666E+03  0.52642299913E+03  0.10100000000E+03 0.  1.
<mgrwt>
<rscale>  0 0.14890513E+04</rscale>
<asrwt>0</asrwt>
<pdfrwt beam="1">  1        2 0.10521928E+00 0.14890513E+04</pdfrwt>
<pdfrwt beam="2">  1       -2 0.10751473E+00 0.14890513E+04</pdfrwt>
<totfact> 0.28419505E+01</totfact>
</mgrwt>
</event>
<event>
 8    2  0.4306980E-052  0.1428009E+04  0.7818608E-02  0.8933790E-01
         -2   -1    0    0    0  501 -0.00000000000E+00  0.00000000000E+00  0.32009828420E+03  0.32009828421E+03  0.25500000000E-02 0. -1.
          2   -1    0    0  501    0  0.00000000000E+00 -0.00000000000E+00 -0.15926424243E+04  0.15926424243E+04  0.25500000000E-02 0.  1.
    -200001    2    1    2    0    0 -0.58531204990E+02  0.18052187177E+03 -0.21714211216E+03  0.67756602906E+03  0.61313210544E+03 0.  0.
   -5000001    2    3    3    0    0  0.63723942183E+02  0.37151209434E+03 -0.77820789360E+02  0.39289952750E+03  0.78942931358E+02 0.  0.
     200001    1    1    2    0    0  0.58531204990E+02 -0.18052187177E+03 -0.10554020279E+04  0.12351746794E+04  0.61300000000E+03 0.  1.
         13    1    4    4    0    0  0.34351243927E+02  0.54215384711E+02 -0.32464850434E+01  0.64264039150E+02  0.10566000000E+00 0.  1.
    -200003    1    4    4    0    0  0.29372698256E+02  0.31729670962E+03 -0.74574304317E+02  0.32863548835E+03  0.30000000000E+02 0.  1.
    -200000    1    3    3    0    0 -0.12225514717E+03 -0.19099022256E+03 -0.13932132280E+03  0.28466650156E+03  0.10100000000E+03 0.  1.
<mgrwt>
<rscale>  0 0.14280086E+04</rscale>
<asrwt>0</asrwt>
<pdfrwt beam="1">  1        2 0.22752034E+00 0.14280086E+04</pdfrwt>
<pdfrwt beam="2">  1       -2 0.45728327E-01 0.14280086E+04</pdfrwt>
<totfact> 0.57556132E+01</totfact>
</mgrwt>
</event>
<event>
 8    2  0.4306980E-052  0.1960945E+04  0.7818608E-02  0.8625101E-01
         -2   -1    0    0    0  501 -0.00000000000E+00  0.00000000000E+00  0.43720217105E+03  0.43720217106E+03  0.25500000000E-02 0. -1.
          2   -1    0    0  501    0  0.00000000000E+00 -0.00000000000E+00 -0.21988147647E+04  0.21988147647E+04  0.25500000000E-02 0.  1.
    -200001    2    1    2    0    0  0.54389692245E+03  0.53849214874E+03 -0.88698915218E+03  0.13220409767E+04  0.61257238885E+03 0.  0.
   -5000001    2    3    3    0    0  0.14553593482E+03  0.36402186133E+03 -0.96879695644E+02  0.41451394630E+03  0.93506750574E+02 0.  0.
     200001    1    1    2    0    0 -0.54389692245E+03 -0.53849214874E+03 -0.87462344144E+03  0.13139759590E+04  0.61300000000E+03 0. -1.
         13    1    4    4    0    0  0.45404297432E+02  0.18607985264E+03 -0.13765531620E+02  0.19203323360E+03  0.10566000000E+00 0.  1.
    -200003    1    4    4    0    0  0.10013163738E+03  0.17794200869E+03 -0.83114164024E+02  0.22248071270E+03  0.30000000000E+02 0.  1.
    -200000    1    3    3    0    0  0.39836098763E+03  0.17447028741E+03 -0.79010945654E+03  0.90752703044E+03  0.10100000000E+03 0.  1.
<mgrwt>
<rscale>  0 0.19609453E+04</rscale>
<asrwt>0</asrwt>
<pdfrwt beam="1">  1        2 0.31411639E+00 0.19609453E+04</pdfrwt>
<pdfrwt beam="2">  1       -2 0.62457454E-01 0.19609453E+04</pdfrwt>
<totfact> 0.14085864E+01</totfact>
</mgrwt>
</event>
<event>
 8    2  0.4306980E-052  0.1341094E+04  0.7818608E-02  0.8997597E-01
          2   -1    0    0  501    0  0.00000000000E+00  0.00000000000E+00  0.87658474731E+03  0.87658474731E+03  0.25500000000E-02 0.  1.
         -2   -1    0    0    0  501 -0.00000000000E+00 -0.00000000000E+00 -0.51293782326E+03  0.51293782326E+03  0.25500000000E-02 0. -1.
    -200001    2    1    2    0    0 -0.10963046510E+03  0.21763445120E+03  0.31182531560E+03  0.72782923350E+03  0.61083285149E+03 0.  0.
   -5000001    2    3    3    0    0  0.12456505834E+03  0.24173319785E+03  0.22793603978E+03  0.45826161047E+03  0.28999564254E+03 0.  0.
     200001    1    1    2    0    0  0.10963046510E+03 -0.21763445120E+03  0.51821608451E+02  0.66169333707E+03  0.61300000000E+03 0. -1.
         13    1    4    4    0    0  0.19648823818E+03  0.25110799431E+03  0.17681143612E+03  0.36458901198E+03  0.10566000000E+00 0.  1.
    -200003    1    4    4    0    0 -0.71923179844E+02 -0.93747964547E+01  0.51124603662E+02  0.93672598485E+02  0.30000000000E+02 0.  1.
    -200000    1    3    3    0    0 -0.23419552344E+03 -0.24098746655E+02  0.83889275818E+02  0.26956762303E+03  0.10100000000E+03 0. -1.
<mgrwt>
<rscale>  0 0.13410943E+04</rscale>
<asrwt>0</asrwt>
<pdfrwt beam="1">  1        2 0.12522639E+00 0.13410943E+04</pdfrwt>
<pdfrwt beam="2">  1       -2 0.73276832E-01 0.13410943E+04</pdfrwt>
<totfact> 0.55451345E+01</totfact>
</mgrwt>
</event>
<event>
 8    2  0.4306980E-052  0.1247283E+04  0.7818608E-02  0.9072447E-01
          2   -1    0    0  501    0  0.00000000000E+00  0.00000000000E+00  0.10903619539E+04  0.10903619539E+04  0.25500000000E-02 0.  1.
         -2   -1    0    0    0  501 -0.00000000000E+00 -0.00000000000E+00 -0.35669706156E+03  0.35669706157E+03  0.25500000000E-02 0. -1.
    -200001    2    1    2    0    0 -0.14409353287E+01 -0.11259881640E+03  0.33124129444E+03  0.70517336262E+03  0.61226473560E+03 0.  0.
   -5000001    2    3    3    0    0  0.52937770281E+02 -0.11830137913E+03 -0.14477434835E+03  0.21549851639E+03  0.93179261652E+02 0.  0.
     200001    1    1    2    0    0  0.14409353287E+01  0.11259881640E+03  0.40242359788E+03  0.74188565283E+03  0.61300000000E+03 0.  1.
         13    1    4    4    0    0  0.25537770443E+02 -0.11369438877E+03 -0.12193832347E+03  0.16866403782E+03  0.10566000000E+00 0.  1.
    -200003    1    4    4    0    0  0.27399999838E+02 -0.46069903531E+01 -0.22836024878E+02  0.46834478576E+02  0.30000000000E+02 0.  1.
    -200000    1    3    3    0    0 -0.54378705610E+02  0.57025627264E+01  0.47601564279E+03  0.48967484623E+03  0.10100000000E+03 0.  1.
<mgrwt>
<rscale>  0 0.12472833E+04</rscale>
<asrwt>0</asrwt>
<pdfrwt beam="1">  1        2 0.15576599E+00 0.12472833E+04</pdfrwt>
<pdfrwt beam="2">  1       -2 0.50956723E-01 0.12472833E+04</pdfrwt>
<totfact> 0.88669076E+01</totfact>
</mgrwt>
</event>
<event>
 8    2  0.4306980E-052  0.1544169E+04  0.7818608E-02  0.8855601E-01
         -2   -1    0    0    0  501 -0.00000000000E+00  0.00000000000E+00  0.12146306027E+04  0.12146306027E+04  0.25500000000E-02 0. -1.
          2   -1    0    0  501    0  0.00000000000E+00 -0.00000000000E+00 -0.49077822017E+03  0.49077822018E+03  0.25500000000E-02 0.  1.
    -200001    2    1    2    0    0 -0.55911772208E+02  0.41137308173E+03  0.12035531786E+03  0.75024828889E+03  0.61321542202E+03 0.  0.
   -5000001    2    3    3    0    0  0.13732878894E+03  0.46040199111E+03  0.15380545475E+03  0.52427116597E+03  0.14274084164E+03 0.  0.
     200001    1    1    2    0    0  0.55911772208E+02 -0.41137308173E+03  0.60349706472E+03  0.95516053403E+03  0.61300000000E+03 0. -1.
         13    1    4    4    0    0  0.13864929566E+03  0.26905867283E+03  0.12892155064E+03  0.32899388140E+03  0.10566000000E+00 0.  1.
    -200003    1    4    4    0    0 -0.13205067281E+01  0.19134331827E+03  0.24883904114E+02  0.19527728457E+03  0.30000000000E+02 0.  1.
    -200000    1    3    3    0    0 -0.19324056114E+03 -0.49028909374E+02 -0.33450136897E+02  0.22597712292E+03  0.10100000000E+03 0.  1.
<mgrwt>
<rscale>  0 0.15441687E+04</rscale>
<asrwt>0</asrwt>
<pdfrwt beam="1">  1        2 0.70111174E-01 0.15441687E+04</pdfrwt>
<pdfrwt beam="2">  1       -2 0.17351866E+00 0.15441687E+04</pdfrwt>
<totfact> 0.13308966E+01</totfact>
</mgrwt>
</event>
<event>
 8    2  0.4306980E-052  0.1776753E+04  0.7818608E-02  0.8718761E-01
          2   -1    0    0  501    0  0.00000000000E+00  0.00000000000E+00  0.21444515032E+04  0.21444515032E+04  0.25500000000E-02 0.  1.
         -2   -1    0    0    0  501 -0.00000000000E+00 -0.00000000000E+00 -0.36802535966E+03  0.36802535967E+03  0.25500000000E-02 0. -1.
    -200001    2    1    2    0    0  0.19208304848E+03 -0.46196755807E+03  0.14594993839E+04  0.16601145613E+04  0.61280664384E+03 0.  0.
   -5000001    2    3    3    0    0 -0.29796118315E+01 -0.37676574358E+03  0.33265576431E+03  0.50890374928E+03  0.79761299400E+02 0.  0.
     200001    1    1    2    0    0 -0.19208304848E+03  0.46196755807E+03  0.31692675966E+03  0.85236230161E+03  0.61300000000E+03 0. -1.
         13    1    4    4    0    0  0.18589416999E+02 -0.17472909873E+03  0.19022816042E+03  0.25896445422E+03  0.10566000000E+00 0.  1.
    -200003    1    4    4    0    0 -0.21569028831E+02 -0.20203664485E+03  0.14242760389E+03  0.24993929506E+03  0.30000000000E+02 0.  1.
    -200000    1    3    3    0    0  0.19506266031E+03 -0.85201814491E+02  0.11268436196E+04  0.11512108120E+04  0.10100000000E+03 0. -1.
<mgrwt>
<rscale>  0 0.17767527E+04</rscale>
<asrwt>0</asrwt>
<pdfrwt beam="1">  1        2 0.30635023E+00 0.17767527E+04</pdfrwt>
<pdfrwt beam="2">  1       -2 0.52575049E-01 0.17767527E+04</pdfrwt>
<totfact> 0.21875187E+01</totfact>
</mgrwt>
</event>
<event>
 8    2  0.4306980E-052  0.1388544E+04  0.7818608E-02  0.8962153E-01
         -2   -1    0    0    0  501 -0.00000000000E+00  0.00000000000E+00  0.25606807315E+03  0.25606807316E+03  0.25500000000E-02 0. -1.
          2   -1    0    0  501    0  0.00000000000E+00 -0.00000000000E+00 -0.18823658953E+04  0.18823658953E+04  0.25500000000E-02 0.  1.
    -200001    2    1    2    0    0  0.13352808545E+03 -0.74538088365E+02 -0.36927525621E+03  0.73157206781E+03  0.61273795323E+03 0.  0.
   -5000001    2    3    3    0    0 -0.13511878424E+03  0.53432481954E+02  0.83765512728E+02  0.18021506388E+03  0.65944614221E+02 0.  0.
     200001    1    1    2    0    0 -0.13352808545E+03  0.74538088365E+02 -0.12570225659E+04  0.14068619006E+04  0.61300000000E+03 0.  1.
         13    1    4    4    0    0 -0.11553176609E+01  0.10109470341E+02 -0.47434621723E+01  0.11227098774E+02  0.10566000000E+00 0.  1.
    -200003    1    4    4    0    0 -0.13396346658E+03  0.43323011614E+02  0.88508974900E+02  0.16898796511E+03  0.30000000000E+02 0.  1.
    -200000    1    3    3    0    0  0.26864686968E+03 -0.12797057032E+03 -0.45304076894E+03  0.55135700393E+03  0.10100000000E+03 0.  1.
<mgrwt>
<rscale>  0 0.13885443E+04</rscale>
<asrwt>0</asrwt>
<pdfrwt beam="1">  1        2 0.26890941E+00 0.13885443E+04</pdfrwt>
<pdfrwt beam="2">  1       -2 0.36581154E-01 0.13885443E+04</pdfrwt>
<totfact> 0.63288950E+01</totfact>
</mgrwt>
</event>
<event>
 8    2  0.4306980E-052  0.1253127E+04  0.7818608E-02  0.9067585E-01
         -2   -1    0    0    0  501 -0.00000000000E+00  0.00000000000E+00  0.18379864205E+03  0.18379864207E+03  0.25500000000E-02 0. -1.
          2   -1    0    0  501    0  0.00000000000E+00 -0.00000000000E+00 -0.21359346640E+04  0.21359346640E+04  0.25500000000E-02 0.  1.
    -200001    2    1    2    0    0  0.15204614560E+02  0.75949310728E+02 -0.78050710063E+03  0.99516439228E+03  0.61250416769E+03 0.  0.
   -5000001    2    3    3    0    0  0.25190950357E+03  0.13295252787E+03 -0.60653668605E+03  0.67933963646E+03  0.11171757913E+03 0.  0.
     200001    1    1    2    0    0 -0.15204614560E+02 -0.75949310728E+02 -0.11716289214E+04  0.13245689138E+04  0.61300000000E+03 0.  1.
         13    1    4    4    0    0  0.15004037496E+03  0.74481998218E+02 -0.23548003846E+03  0.28898190576E+03  0.10566000000E+00 0.  1.
    -200003    1    4    4    0    0  0.10186912861E+03  0.58470529647E+02 -0.37105664758E+03  0.39035773070E+03  0.30000000000E+02 0.  1.
    -200000    1    3    3    0    0 -0.23670488901E+03 -0.57003217137E+02 -0.17397041458E+03  0.31582475583E+03  0.10100000000E+03 0. -1.
<mgrwt>
<rscale>  0 0.12531271E+04</rscale>
<asrwt>0</asrwt>
<pdfrwt beam="1">  1        2 0.30513351E+00 0.12531271E+04</pdfrwt>
<pdfrwt beam="2">  1       -2 0.26256950E-01 0.12531271E+04</pdfrwt>
<totfact> 0.88169237E+01</totfact>
</mgrwt>
</event>
<event>
 8    2  0.4306980E-052  0.1532360E+04  0.7818608E-02  0.8863214E-01
         -2   -1    0    0    0  501 -0.00000000000E+00  0.00000000000E+00  0.49774461175E+03  0.49774461175E+03  0.25500000000E-02 0. -1.
          2   -1    0    0  501    0  0.00000000000E+00 -0.00000000000E+00 -0.11793841864E+04  0.11793841864E+04  0.25500000000E-02 0.  1.
    -200001    2    1    2    0    0 -0.35826038627E+03  0.26253446918E+02 -0.65525650679E+03  0.96614018070E+03  0.61239367341E+03 0.  0.
   -5000001    2    3    3    0    0  0.12268640639E+03 -0.77194432590E+02 -0.12293798272E+03  0.23431008278E+03  0.13702748835E+03 0.  0.
     200001    1    1    2    0    0  0.35826038627E+03 -0.26253446918E+02 -0.26383067838E+02  0.71098861743E+03  0.61300000000E+03 0. -1.
         13    1    4    4    0    0  0.40885142409E+02 -0.96140468915E+02 -0.38013870862E+02  0.11117396357E+03  0.10566000000E+00 0.  1.
    -200003    1    4    4    0    0  0.81801263984E+02  0.18946036325E+02 -0.84924111855E+02  0.12313611922E+03  0.30000000000E+02 0.  1.
    -200000    1    3    3    0    0 -0.48094679266E+03  0.10344787951E+03 -0.53231852407E+03  0.73183009792E+03  0.10100000000E+03 0.  1.
<mgrwt>
<rscale>  0 0.15323604E+04</rscale>
<asrwt>0</asrwt>
<pdfrwt beam="1">  1        2 0.16848345E+00 0.15323604E+04</pdfrwt>
<pdfrwt beam="2">  1       -2 0.71106373E-01 0.15323604E+04</pdfrwt>
<totfact> 0.38094375E+01</totfact>
</mgrwt>
</event>
<event>
 8    2  0.4306980E-052  0.1550874E+04  0.7818608E-02  0.8851310E-01
          2   -1    0    0  501    0  0.00000000000E+00  0.00000000000E+00  0.18881933024E+04  0.18881933024E+04  0.25500000000E-02 0.  1.
         -2   -1    0    0    0  501 -0.00000000000E+00 -0.00000000000E+00 -0.31845383593E+03  0.31845383594E+03  0.25500000000E-02 0. -1.
    -200001    2    1    2    0    0  0.17690018596E+03 -0.39161672656E+03  0.49650705423E+03  0.89811584449E+03  0.61272789957E+03 0.  0.
   -5000001    2    3    3    0    0  0.20148399108E+03 -0.21568351802E+03 -0.53114360964E+02  0.31173579931E+03  0.85105197400E+02 0.  0.
     200001    1    1    2    0    0 -0.17690018596E+03  0.39161672656E+03  0.10732324123E+04  0.13085312939E+04  0.61300000000E+03 0. -1.
         13    1    4    4    0    0  0.15916549210E+03 -0.14963922835E+03 -0.62516136448E+02  0.22723078800E+03  0.10566000000E+00 0.  1.
    -200003    1    4    4    0    0  0.42318498985E+02 -0.66044289668E+02  0.94017754836E+01  0.84505011309E+02  0.30000000000E+02 0. -1.
    -200000    1    3    3    0    0 -0.24583805126E+02 -0.17593320854E+03  0.54962141519E+03  0.58638004518E+03  0.10100000000E+03 0.  1.
<mgrwt>
<rscale>  0 0.15508738E+04</rscale>
<asrwt>0</asrwt>
<pdfrwt beam="1">  1        2 0.26974191E+00 0.15508738E+04</pdfrwt>
<pdfrwt beam="2">  1       -2 0.45493404E-01 0.15508738E+04</pdfrwt>
<totfact> 0.40470656E+01</totfact>
</mgrwt>
</event>
<event>
 8    2  0.4306980E-052  0.1446185E+04  0.7818608E-02  0.8921050E-01
          2   -1    0    0  501    0  0.00000000000E+00  0.00000000000E+00  0.11657232146E+04  0.11657232146E+04  0.25500000000E-02 0.  1.
         -2   -1    0    0    0  501 -0.00000000000E+00 -0.00000000000E+00 -0.44853087863E+03  0.44853087864E+03  0.25500000000E-02 0. -1.
    -200001    2    1    2    0    0 -0.30177063482E+03  0.11902830999E+02  0.62274123575E+03  0.92440106272E+03  0.61278339129E+03 0.  0.
   -5000001    2    3    3    0    0 -0.13801809436E+03  0.25587748236E+03  0.39556413293E+03  0.53949982727E+03  0.22375611726E+03 0.  0.
     200001    1    1    2    0    0  0.30177063482E+03 -0.11902830999E+02  0.94451100250E+02  0.68985303055E+03  0.61300000000E+03 0. -1.
         13    1    4    4    0    0 -0.15014461271E+03  0.28543234882E+03  0.33841997774E+03  0.46748596019E+03  0.10566000000E+00 0.  1.
    -200003    1    4    4    0    0  0.12126518344E+02 -0.29554866464E+02  0.57144155192E+02  0.72013867078E+02  0.30000000000E+02 0.  1.
    -200000    1    3    3    0    0 -0.16375254045E+03 -0.24397465136E+03  0.22717710282E+03  0.38490123545E+03  0.10100000000E+03 0. -1.
<mgrwt>
<rscale>  0 0.14461851E+04</rscale>
<asrwt>0</asrwt>
<pdfrwt beam="1">  1        2 0.16653189E+00 0.14461851E+04</pdfrwt>
<pdfrwt beam="2">  1       -2 0.64075839E-01 0.14461851E+04</pdfrwt>
<totfact> 0.48912357E+01</totfact>
</mgrwt>
</event>
<event>
 8    2  0.4306980E-052  0.1683856E+04  0.7818608E-02  0.8770626E-01
         -2   -1    0    0    0  501 -0.00000000000E+00  0.00000000000E+00  0.32825124329E+03  0.32825124330E+03  0.25500000000E-02 0.  1.
          2   -1    0    0  501    0  0.00000000000E+00 -0.00000000000E+00 -0.21594507907E+04  0.21594507907E+04  0.25500000000E-02 0. -1.
    -200001    2    1    2    0    0  0.24217913417E+03 -0.22693192763E+03 -0.21876455331E+03  0.73103916282E+03  0.61352383408E+03 0.  0.
   -5000001    2    3    3    0    0  0.35104900714E+03 -0.15787940210E+03 -0.31940358635E+03  0.53881503454E+03  0.20035388555E+03 0.  0.
     200001    1    1    2    0    0 -0.24217913417E+03  0.22693192763E+03 -0.16124349941E+04  0.17566628712E+04  0.61300000000E+03 0. -1.
         13    1    4    4    0    0  0.28320477075E+03 -0.41345475414E+02 -0.26593732558E+03  0.39068793533E+03  0.10566000000E+00 0.  1.
    -200003    1    4    4    0    0  0.67844236392E+02 -0.11653392668E+03 -0.53466260765E+02  0.14812709921E+03  0.30000000000E+02 0.  1.
    -200000    1    3    3    0    0 -0.10886987297E+03 -0.69052525527E+02  0.10063903304E+03  0.19222412828E+03  0.10100000000E+03 0.  1.
<mgrwt>
<rscale>  0 0.16838556E+04</rscale>
<asrwt>0</asrwt>
<pdfrwt beam="1">  1        2 0.30849296E+00 0.16838556E+04</pdfrwt>
<pdfrwt beam="2">  1       -2 0.46893036E-01 0.16838556E+04</pdfrwt>
<totfact> 0.27326180E+01</totfact>
</mgrwt>
</event>
<event>
 8    2  0.4306980E-052  0.1317396E+04  0.7818608E-02  0.9015883E-01
         -2   -1    0    0    0  501 -0.00000000000E+00  0.00000000000E+00  0.34249923546E+03  0.34249923547E+03  0.25500000000E-02 0. -1.
          2   -1    0    0  501    0  0.00000000000E+00 -0.00000000000E+00 -0.12668140574E+04  0.12668140574E+04  0.25500000000E-02 0.  1.
    -200001    2    1    2    0    0 -0.80157886822E+01 -0.67876739109E+02 -0.17988497884E+03  0.64255774160E+03  0.61306634315E+03 0.  0.
   -5000001    2    3    3    0    0 -0.99284881054E+01  0.26115652763E+03 -0.76228312170E+02  0.28309668170E+03  0.77663819188E+02 0.  0.
     200001    1    1    2    0    0  0.80157886822E+01  0.67876739109E+02 -0.74442984306E+03  0.96675555122E+03  0.61300000000E+03 0.  1.
         13    1    4    4    0    0 -0.10969785282E+02  0.44058985733E+02 -0.40890562550E+02  0.61103025151E+02  0.10566000000E+00 0.  1.
    -200003    1    4    4    0    0  0.10412971763E+01  0.21709754190E+03 -0.35337749620E+02  0.22199365655E+03  0.30000000000E+02 0.  1.
    -200000    1    3    3    0    0  0.19126994232E+01 -0.32903326674E+03 -0.10365666667E+03  0.35946105991E+03  0.10100000000E+03 0. -1.
<mgrwt>
<rscale>  0 0.13173957E+04</rscale>
<asrwt>0</asrwt>
<pdfrwt beam="1">  1        2 0.18097343E+00 0.13173957E+04</pdfrwt>
<pdfrwt beam="2">  1       -2 0.48928463E-01 0.13173957E+04</pdfrwt>
<totfact> 0.75885055E+01</totfact>
</mgrwt>
</event>
<event>
 8    2  0.4306980E-052  0.1552493E+04  0.7818608E-02  0.8850277E-01
         -2   -1    0    0    0  501 -0.00000000000E+00  0.00000000000E+00  0.83582977070E+03  0.83582977070E+03  0.25500000000E-02 0. -1.
          2   -1    0    0  501    0  0.00000000000E+00 -0.00000000000E+00 -0.72091062758E+03  0.72091062758E+03  0.25500000000E-02 0.  1.
    -200001    2    1    2    0    0 -0.12872412598E+03  0.14605850134E+03  0.49415050187E+03  0.81008893348E+03  0.61168323111E+03 0.  0.
   -5000001    2    3    3    0    0  0.60345423042E+01  0.19567848099E+03 -0.63531051308E+02  0.22542513623E+03  0.91944624313E+02 0.  0.
     200001    1    1    2    0    0  0.12872412598E+03 -0.14605850134E+03 -0.37923135876E+03  0.74665146480E+03  0.61300000000E+03 0.  1.
         13    1    4    4    0    0 -0.12932850608E+01  0.17154863642E+03 -0.30655535369E+02  0.17427099660E+03  0.10566000000E+00 0.  1.
    -200003    1    4    4    0    0  0.73278273650E+01  0.24129844573E+02 -0.32875515939E+02  0.51154139630E+02  0.30000000000E+02 0. -1.
    -200000    1    3    3    0    0 -0.13475866829E+03 -0.49619979652E+02  0.55768155318E+03  0.58466379725E+03  0.10100000000E+03 0. -1.
<mgrwt>
<rscale>  0 0.15524929E+04</rscale>
<asrwt>0</asrwt>
<pdfrwt beam="1">  1        2 0.10298723E+00 0.15524929E+04</pdfrwt>
<pdfrwt beam="2">  1       -2 0.11940425E+00 0.15524929E+04</pdfrwt>
<totfact> 0.22497571E+01</totfact>
</mgrwt>
</event>
<event>
 8    2  0.4306980E-052  0.1284116E+04  0.7818608E-02  0.9042257E-01
          2   -1    0    0  501    0  0.00000000000E+00  0.00000000000E+00  0.13425192993E+04  0.13425192993E+04  0.25500000000E-02 0.  1.
         -2   -1    0    0    0  501 -0.00000000000E+00 -0.00000000000E+00 -0.30706358319E+03  0.30706358320E+03  0.25500000000E-02 0. -1.
    -200001    2    1    2    0    0  0.12467140393E+03  0.95796849949E+02  0.37714630814E+03  0.73642338273E+03  0.61266635739E+03 0.  0.
   -5000001    2    3    3    0    0  0.25590625517E+03  0.27197076736E+03  0.16516617889E+03  0.41487026029E+03  0.73357729593E+02 0.  0.
     200001    1    1    2    0    0 -0.12467140393E+03 -0.95796849949E+02  0.65830940798E+03  0.91315949979E+03  0.61300000000E+03 0.  1.
         13    1    4    4    0    0  0.11932624713E+03  0.88046342960E+02  0.80987451634E+02  0.16896712772E+03  0.10566000000E+00 0.  1.
    -200003    1    4    4    0    0  0.13658000804E+03  0.18392442440E+03  0.84178727255E+02  0.24590313257E+03  0.30000000000E+02 0.  1.
    -200000    1    3    3    0    0 -0.13123485124E+03 -0.17617391741E+03  0.21198012925E+03  0.32155312244E+03  0.10100000000E+03 0. -1.
<mgrwt>
<rscale>  0 0.12841165E+04</rscale>
<asrwt>0</asrwt>
<pdfrwt beam="1">  1        2 0.19178847E+00 0.12841165E+04</pdfrwt>
<pdfrwt beam="2">  1       -2 0.43866226E-01 0.12841165E+04</pdfrwt>
<totfact> 0.86000365E+01</totfact>
</mgrwt>
</event>
<event>
 8    2  0.4306980E-052  0.1257683E+04  0.7818608E-02  0.9063813E-01
          2   -1    0    0  501    0  0.00000000000E+00  0.00000000000E+00  0.70208458074E+03  0.70208458075E+03  0.25500000000E-02 0.  1.
         -2   -1    0    0    0  501 -0.00000000000E+00 -0.00000000000E+00 -0.56323925997E+03  0.56323925997E+03  0.25500000000E-02 0. -1.
    -200001    2    1    2    0    0  0.86385730939E+02 -0.10789137663E+02 -0.90203799676E+01  0.62876106655E+03  0.62263971248E+03 0.  0.
   -5000001    2    3    3    0    0  0.10614380552E+03 -0.19288724154E+03  0.21039085441E+03  0.32562348934E+03  0.11530112659E+03 0.  0.
     200001    1    1    2    0    0 -0.86385730939E+02  0.10789137663E+02  0.14786570074E+03  0.63656277417E+03  0.61300000000E+03 0. -1.
         13    1    4    4    0    0  0.41275578268E+01 -0.11675011341E+03  0.11330001673E+03  0.16274068536E+03  0.10566000000E+00 0.  1.
    -200003    1    4    4    0    0  0.10201624769E+03 -0.76137128131E+02  0.97090837672E+02  0.16288280398E+03  0.30000000000E+02 0.  1.
    -200000    1    3    3    0    0 -0.19758074578E+02  0.18209810388E+03 -0.21941123437E+03  0.30313757721E+03  0.10100000000E+03 0. -1.
<mgrwt>
<rscale>  0 0.12576829E+04</rscale>
<asrwt>0</asrwt>
<pdfrwt beam="1">  1        2 0.10029780E+00 0.12576829E+04</pdfrwt>
<pdfrwt beam="2">  1       -2 0.80462751E-01 0.12576829E+04</pdfrwt>
<totfact> 0.60235762E+01</totfact>
</mgrwt>
</event>
<event>
 8    2  0.4306980E-052  0.1551166E+04  0.7818608E-02  0.8851123E-01
         -2   -1    0    0    0  501 -0.00000000000E+00  0.00000000000E+00  0.85535396862E+03  0.85535396863E+03  0.25500000000E-02 0. -1.
          2   -1    0    0  501    0  0.00000000000E+00 -0.00000000000E+00 -0.70325195054E+03  0.70325195055E+03  0.25500000000E-02 0.  1.
    -200001    2    1    2    0    0 -0.41869599118E+03  0.14243331643E+03  0.25171905560E+03  0.79618468598E+03  0.61233486638E+03 0.  0.
   -5000001    2    3    3    0    0 -0.33700966778E+03 -0.19031502628E+03  0.16840721851E+03  0.42939322315E+03  0.78881071476E+02 0.  0.
     200001    1    1    2    0    0  0.41869599118E+03 -0.14243331643E+03 -0.99617037515E+02  0.76242123319E+03  0.61300000000E+03 0.  1.
         13    1    4    4    0    0 -0.21074412710E+02 -0.25598052338E+02  0.33773229180E+02  0.47328990353E+02  0.10566000000E+00 0.  1.
    -200003    1    4    4    0    0 -0.31593525507E+03 -0.16471697394E+03  0.13463398933E+03  0.38206423280E+03  0.30000000000E+02 0.  1.
    -200000    1    3    3    0    0 -0.81686323393E+02  0.33274834271E+03  0.83311837083E+02  0.36679146283E+03  0.10100000000E+03 0.  1.
<mgrwt>
<rscale>  0 0.15511665E+04</rscale>
<asrwt>0</asrwt>
<pdfrwt beam="1">  1        2 0.10046456E+00 0.15511665E+04</pdfrwt>
<pdfrwt beam="2">  1       -2 0.12219343E+00 0.15511665E+04</pdfrwt>
<totfact> 0.21906723E+01</totfact>
</mgrwt>
</event>
<event>
 8    2  0.4306980E-052  0.2158225E+04  0.7818608E-02  0.8536020E-01
         -2   -1    0    0    0  501 -0.00000000000E+00  0.00000000000E+00  0.48268806268E+03  0.48268806269E+03  0.25500000000E-02 0. -1.
          2   -1    0    0  501    0  0.00000000000E+00 -0.00000000000E+00 -0.24124984870E+04  0.24124984870E+04  0.25500000000E-02 0.  1.
    -200001    2    1    2    0    0  0.34711034032E+03 -0.78557765835E+03 -0.66111326774E+03  0.12450413074E+04  0.61273098390E+03 0.  0.
   -5000001    2    3    3    0    0  0.66183220939E+02 -0.17400181057E+03  0.10017954589E+03  0.22390820533E+03  0.73770550937E+02 0.  0.
     200001    1    1    2    0    0 -0.34711034032E+03  0.78557765835E+03 -0.12686971566E+04  0.16501452423E+04  0.61300000000E+03 0. -1.
         13    1    4    4    0    0  0.19616862999E+02 -0.13240520689E+02  0.34043472952E+02  0.41462053937E+02  0.10566000000E+00 0.  1.
    -200003    1    4    4    0    0  0.46566357941E+02 -0.16076128988E+03  0.66136072942E+02  0.18244615140E+03  0.30000000000E+02 0.  1.
    -200000    1    3    3    0    0  0.28092711938E+03 -0.61157584778E+03 -0.76129281363E+03  0.10211331020E+04  0.10100000000E+03 0.  1.
<mgrwt>
<rscale>  0 0.21582254E+04</rscale>
<asrwt>0</asrwt>
<pdfrwt beam="1">  1        2 0.34464263E+00 0.21582254E+04</pdfrwt>
<pdfrwt beam="2">  1       -2 0.68955439E-01 0.21582254E+04</pdfrwt>
<totfact> 0.86716202E+00</totfact>
</mgrwt>
</event>
<event>
 8    2  0.4306980E-052  0.1292760E+04  0.7818608E-02  0.9035327E-01
         -2   -1    0    0    0  501 -0.00000000000E+00  0.00000000000E+00  0.43859868661E+04  0.43859868661E+04  0.25500000000E-02 0. -1.
          2   -1    0    0  501    0  0.00000000000E+00 -0.00000000000E+00 -0.95259496640E+02  0.95259496674E+02  0.25500000000E-02 0.  1.
    -200001    2    1    2    0    0  0.75742074509E+01  0.16900925799E+03  0.17432256857E+04  0.18555740057E+04  0.61294176026E+03 0.  0.
   -5000001    2    3    3    0    0  0.22426766425E+03 -0.23438558610E+02  0.69228113194E+03  0.76073261473E+03  0.22048944239E+03 0.  0.
     200001    1    1    2    0    0 -0.75742074509E+01 -0.16900925799E+03  0.25475016837E+04  0.26256723570E+04  0.61300000000E+03 0. -1.
         13    1    4    4    0    0  0.13617568289E+03  0.53249606857E+02  0.57207730115E+03  0.59046743085E+03  0.10566000000E+00 0.  1.
    -200003    1    4    4    0    0  0.88091981359E+02 -0.76688165468E+02  0.12020383080E+03  0.17026518388E+03  0.30000000000E+02 0.  1.
    -200000    1    3    3    0    0 -0.21669345680E+03  0.19244781660E+03  0.10509445538E+04  0.10948413910E+04  0.10100000000E+03 0. -1.
<mgrwt>
<rscale>  0 0.12927597E+04</rscale>
<asrwt>0</asrwt>
<pdfrwt beam="1">  1        2 0.13608504E-01 0.12927597E+04</pdfrwt>
<pdfrwt beam="2">  1       -2 0.62656935E+00 0.12927597E+04</pdfrwt>
<totfact> 0.17735613E-01</totfact>
</mgrwt>
</event>
<event>
 8    2  0.4306980E-052  0.1658497E+04  0.7818608E-02  0.8785396E-01
         -2   -1    0    0    0  501 -0.00000000000E+00  0.00000000000E+00  0.80954453997E+03  0.80954453997E+03  0.25500000000E-02 0. -1.
          2   -1    0    0  501    0  0.00000000000E+00 -0.00000000000E+00 -0.84943181648E+03  0.84943181648E+03  0.25500000000E-02 0.  1.
    -200001    2    1    2    0    0 -0.39163104708E+03  0.85557816840E+02 -0.40911789286E+03  0.83873537655E+03  0.61270267223E+03 0.  0.
   -5000001    2    3    3    0    0 -0.29877076241E+03  0.32123024085E+03 -0.17608186965E+03  0.48002753997E+03  0.83479208245E+02 0.  0.
     200001    1    1    2    0    0  0.39163104708E+03 -0.85557816840E+02  0.36923061636E+03  0.82024097990E+03  0.61300000000E+03 0. -1.
         13    1    4    4    0    0 -0.56496735521E+02  0.75734345800E+02 -0.70386179871E+01  0.94747694249E+02  0.10566000000E+00 0.  1.
    -200003    1    4    4    0    0 -0.24227402689E+03  0.24549589505E+03 -0.16904325166E+03  0.38527984572E+03  0.30000000000E+02 0.  1.
    -200000    1    3    3    0    0 -0.92860284668E+02 -0.23567242401E+03 -0.23303602322E+03  0.35870783658E+03  0.10100000000E+03 0. -1.
<mgrwt>
<rscale>  0 0.16584968E+04</rscale>
<asrwt>0</asrwt>
<pdfrwt beam="1">  1        2 0.12134740E+00 0.16584968E+04</pdfrwt>
<pdfrwt beam="2">  1       -2 0.11564922E+00 0.16584968E+04</pdfrwt>
<totfact> 0.19561022E+01</totfact>
</mgrwt>
</event>
<event>
 8    2  0.4306980E-052  0.1730399E+04  0.7818608E-02  0.8744214E-01
          2   -1    0    0  501    0  0.00000000000E+00  0.00000000000E+00  0.20758531865E+04  0.20758531865E+04  0.25500000000E-02 0.  1.
         -2   -1    0    0    0  501 -0.00000000000E+00 -0.00000000000E+00 -0.36060861947E+03  0.36060861947E+03  0.25500000000E-02 0. -1.
    -200001    2    1    2    0    0 -0.25957507863E+03 -0.53980065067E+03  0.66655396632E+03  0.10821040468E+04  0.60654019991E+03 0.  0.
   -5000001    2    3    3    0    0 -0.38306825764E+03 -0.34421007178E+03  0.21448502818E+03  0.56434583617E+03  0.85208755204E+02 0.  0.
     200001    1    1    2    0    0  0.25957507863E+03  0.53980065067E+03  0.10486906007E+04  0.13543577592E+04  0.61300000000E+03 0. -1.
         13    1    4    4    0    0 -0.18898064589E+03 -0.12271982744E+03  0.78813973422E+02  0.23871634661E+03  0.10566000000E+00 0.  1.
    -200003    1    4    4    0    0 -0.19408761175E+03 -0.22149024434E+03  0.13567105476E+03  0.32562948956E+03  0.30000000000E+02 0.  1.
    -200000    1    3    3    0    0  0.12349317901E+03 -0.19559057889E+03  0.45206893814E+03  0.51775821060E+03  0.10100000000E+03 0.  1.
<mgrwt>
<rscale>  0 0.17303994E+04</rscale>
<asrwt>0</asrwt>
<pdfrwt beam="1">  1        2 0.29655045E+00 0.17303994E+04</pdfrwt>
<pdfrwt beam="2">  1       -2 0.51515518E-01 0.17303994E+04</pdfrwt>
<totfact> 0.24836098E+01</totfact>
</mgrwt>
</event>
<event>
 8    2  0.4306980E-052  0.1228972E+04  0.7818608E-02  0.9087868E-01
          2   -1    0    0  501    0  0.00000000000E+00  0.00000000000E+00  0.15120466471E+04  0.15120466471E+04  0.25500000000E-02 0.  1.
         -2   -1    0    0    0  501 -0.00000000000E+00 -0.00000000000E+00 -0.24972334402E+03  0.24972334403E+03  0.25500000000E-02 0. -1.
    -200001    2    1    2    0    0  0.15700881227E+02  0.39866740774E+02  0.68048807694E+03  0.91552114766E+03  0.61096568993E+03 0.  0.
   -5000001    2    3    3    0    0 -0.27397534434E+02 -0.26802750774E+03  0.37329345983E+03  0.46693907660E+03  0.78068715250E+02 0.  0.
     200001    1    1    2    0    0 -0.15700881227E+02 -0.39866740774E+02  0.58183522612E+03  0.84624884345E+03  0.61300000000E+03 0. -1.
         13    1    4    4    0    0 -0.14951492622E+02 -0.19061379714E+02  0.64836464814E+02  0.69214605842E+02  0.10566000000E+00 0.  1.
    -200003    1    4    4    0    0 -0.12446041811E+02 -0.24896612803E+03  0.30845699502E+03  0.39772447076E+03  0.30000000000E+02 0.  1.
    -200000    1    3    3    0    0  0.43098415661E+02  0.30789424852E+03  0.30719461711E+03  0.44858207107E+03  0.10100000000E+03 0.  1.
<mgrwt>
<rscale>  0 0.12289725E+04</rscale>
<asrwt>0</asrwt>
<pdfrwt beam="1">  1        2 0.21600666E+00 0.12289725E+04</pdfrwt>
<pdfrwt beam="2">  1       -2 0.35674764E-01 0.12289725E+04</pdfrwt>
<totfact> 0.10469707E+02</totfact>
</mgrwt>
</event>
<event>
 8    2  0.4306980E-052  0.1811450E+04  0.7818608E-02  0.8700234E-01
         -2   -1    0    0    0  501 -0.00000000000E+00  0.00000000000E+00  0.83420028035E+03  0.83420028035E+03  0.25500000000E-02 0. -1.
          2   -1    0    0  501    0  0.00000000000E+00 -0.00000000000E+00 -0.98338253244E+03  0.98338253245E+03  0.25500000000E-02 0.  1.
    -200001    2    1    2    0    0 -0.12459843571E+03 -0.65105960561E+03 -0.11541746802E+01  0.90265948708E+03  0.61269032737E+03 0.  0.
   -5000001    2    3    3    0    0  0.11265238074E+03 -0.39538653966E+03 -0.22035232699E+03  0.47850680640E+03  0.10673584745E+03 0.  0.
     200001    1    1    2    0    0  0.12459843571E+03  0.65105960561E+03 -0.14802807742E+03  0.91492332572E+03  0.61300000000E+03 0.  1.
         13    1    4    4    0    0  0.62285081492E+02 -0.24812741116E+03 -0.18608518808E+03  0.31634530490E+03  0.10566000000E+00 0.  1.
    -200003    1    4    4    0    0  0.50367299244E+02 -0.14725912849E+03 -0.34267138909E+02  0.16216150149E+03  0.30000000000E+02 0.  1.
    -200000    1    3    3    0    0 -0.23725081644E+03 -0.25567306595E+03  0.21919815231E+03  0.42415268068E+03  0.10100000000E+03 0. -1.
<mgrwt>
<rscale>  0 0.18114502E+04</rscale>
<asrwt>0</asrwt>
<pdfrwt beam="1">  1        2 0.14048322E+00 0.18114502E+04</pdfrwt>
<pdfrwt beam="2">  1       -2 0.11917147E+00 0.18114502E+04</pdfrwt>
<totfact> 0.14703034E+01</totfact>
</mgrwt>
</event>
<event>
 8    2  0.4306980E-052  0.1882053E+04  0.7818608E-02  0.8663842E-01
          2   -1    0    0  501    0  0.00000000000E+00  0.00000000000E+00  0.69605680838E+03  0.69605680839E+03  0.25500000000E-02 0.  1.
         -2   -1    0    0    0  501 -0.00000000000E+00 -0.00000000000E+00 -0.12722101485E+04  0.12722101485E+04  0.25500000000E-02 0. -1.
    -200001    2    1    2    0    0  0.33857910783E+03  0.26478939034E+03 -0.88262480264E+03  0.11592904487E+04  0.61658622172E+03 0.  0.
   -5000001    2    3    3    0    0  0.75702747128E+02  0.28423849939E+03 -0.13648506971E+03  0.36153876437E+03  0.15987392981E+03 0.  0.
     200001    1    1    2    0    0 -0.33857910783E+03 -0.26478939034E+03  0.30647146247E+03  0.80897650819E+03  0.61300000000E+03 0.  1.
         13    1    4    4    0    0 -0.96653784180E+01  0.71708313041E+02  0.28405758867E+02  0.77732875928E+02  0.10566000000E+00 0.  1.
    -200003    1    4    4    0    0  0.85368125546E+02  0.21253018635E+03 -0.16489082857E+03  0.28380588844E+03  0.30000000000E+02 0.  1.
    -200000    1    3    3    0    0  0.26287636070E+03 -0.19449109045E+02 -0.74613973293E+03  0.79775168437E+03  0.10100000000E+03 0. -1.
<mgrwt>
<rscale>  0 0.18820526E+04</rscale>
<asrwt>0</asrwt>
<pdfrwt beam="1">  1        2 0.99436687E-01 0.18820526E+04</pdfrwt>
<pdfrwt beam="2">  1       -2 0.18174431E+00 0.18820526E+04</pdfrwt>
<totfact> 0.75172456E+00</totfact>
</mgrwt>
</event>
<event>
 8    2  0.4306980E-052  0.1873927E+04  0.7818608E-02  0.8667945E-01
         -2   -1    0    0    0  501 -0.00000000000E+00  0.00000000000E+00  0.31352377346E+03  0.31352377348E+03  0.25500000000E-02 0. -1.
          2   -1    0    0  501    0  0.00000000000E+00 -0.00000000000E+00 -0.28001075287E+04  0.28001075287E+04  0.25500000000E-02 0.  1.
    -200001    2    1    2    0    0 -0.30820146109E+03  0.47852505382E+03 -0.19447344825E+04  0.21169648574E+04  0.61284062567E+03 0.  0.
   -5000001    2    3    3    0    0 -0.18238461413E+03  0.58191408309E+03 -0.16787457258E+04  0.17891383956E+04  0.10459846742E+03 0.  0.
     200001    1    1    2    0    0  0.30820146109E+03 -0.47852505382E+03 -0.54184927280E+03  0.99666644479E+03  0.61300000000E+03 0. -1.
         13    1    4    4    0    0 -0.32697513643E+02  0.26443412777E+03 -0.72677088511E+03  0.77407394087E+03  0.10566000000E+00 0.  1.
    -200003    1    4    4    0    0 -0.14968710049E+03  0.31747995532E+03 -0.95197484066E+03  0.10150644548E+04  0.30000000000E+02 0.  1.
    -200000    1    3    3    0    0 -0.12581684696E+03 -0.10338902927E+03 -0.26598875672E+03  0.32782646179E+03  0.10100000000E+03 0. -1.
<mgrwt>
<rscale>  0 0.18739267E+04</rscale>
<asrwt>0</asrwt>
<pdfrwt beam="1">  1        2 0.40001535E+00 0.18739267E+04</pdfrwt>
<pdfrwt beam="2">  1       -2 0.44789112E-01 0.18739267E+04</pdfrwt>
<totfact> 0.13553980E+01</totfact>
</mgrwt>
</event>
<event>
 8    2  0.4306980E-052  0.1297263E+04  0.7818608E-02  0.9031738E-01
          2   -1    0    0  501    0  0.00000000000E+00  0.00000000000E+00  0.15073161978E+04  0.15073161979E+04  0.25500000000E-02 0.  1.
         -2   -1    0    0    0  501 -0.00000000000E+00 -0.00000000000E+00 -0.27912050307E+03  0.27912050308E+03  0.25500000000E-02 0. -1.
    -200001    2    1    2    0    0  0.46082027187E+02 -0.20630620865E+03  0.64280121208E+03  0.91285699344E+03  0.61272235740E+03 0.  0.
   -5000001    2    3    3    0    0  0.27071008433E+03 -0.42792413555E+02  0.11131922578E+03  0.30468873793E+03  0.72993948891E+02 0.  0.
     200001    1    1    2    0    0 -0.46082027187E+02  0.20630620865E+03  0.58539448270E+03  0.87357970749E+03  0.61300000000E+03 0. -1.
         13    1    4    4    0    0  0.34950607997E+02 -0.13733195944E+02  0.39993462322E+02  0.54860129992E+02  0.10566000000E+00 0.  1.
    -200003    1    4    4    0    0  0.23575947634E+03 -0.29059217610E+02  0.71325763456E+02  0.24982860794E+03  0.30000000000E+02 0.  1.
    -200000    1    3    3    0    0 -0.22462805715E+03 -0.16351379510E+03  0.53148198630E+03  0.60816825551E+03  0.10100000000E+03 0.  1.
<mgrwt>
<rscale>  0 0.12972631E+04</rscale>
<asrwt>0</asrwt>
<pdfrwt beam="1">  1        2 0.21533089E+00 0.12972631E+04</pdfrwt>
<pdfrwt beam="2">  1       -2 0.39874358E-01 0.12972631E+04</pdfrwt>
<totfact> 0.84511700E+01</totfact>
</mgrwt>
</event>
<event>
 8    2  0.4306980E-052  0.2675697E+04  0.7818608E-02  0.8342934E-01
         -2   -1    0    0    0  501 -0.00000000000E+00  0.00000000000E+00  0.21212290473E+04  0.21212290473E+04  0.25500000000E-02 0. -1.
          2   -1    0    0  501    0  0.00000000000E+00 -0.00000000000E+00 -0.84377444264E+03  0.84377444264E+03  0.25500000000E-02 0.  1.
    -200001    2    1    2    0    0 -0.10198306924E+04  0.59438947007E+03  0.79961451020E+03  0.15516904888E+04  0.61237776331E+03 0.  0.
   -5000001    2    3    3    0    0 -0.70357486615E+03  0.97806208517E+02  0.56448285047E+03  0.90973988274E+03  0.66348466846E+02 0.  0.
     200001    1    1    2    0    0  0.10198306924E+04 -0.59438947007E+03  0.47784009445E+03  0.14133130011E+04  0.61300000000E+03 0.  1.
         13    1    4    4    0    0 -0.54420872585E+03  0.82072086811E+02  0.44313245670E+03  0.70658711428E+03  0.10566000000E+00 0.  1.
    -200003    1    4    4    0    0 -0.15936614031E+03  0.15734121707E+02  0.12135039378E+03  0.20315276846E+03  0.30000000000E+02 0. -1.
    -200000    1    3    3    0    0 -0.31625582621E+03  0.49658326155E+03  0.23513165973E+03  0.64195060610E+03  0.10100000000E+03 0.  1.
<mgrwt>
<rscale>  0 0.26756972E+04</rscale>
<asrwt>0</asrwt>
<pdfrwt beam="1">  1        2 0.12053921E+00 0.26756972E+04</pdfrwt>
<pdfrwt beam="2">  1       -2 0.30303272E+00 0.26756972E+04</pdfrwt>
<totfact> 0.95420320E-01</totfact>
</mgrwt>
</event>
<event>
 8    2  0.4306980E-052  0.1359621E+04  0.7818608E-02  0.8983577E-01
         -2   -1    0    0    0  501 -0.00000000000E+00  0.00000000000E+00  0.31347262118E+03  0.31347262119E+03  0.25500000000E-02 0. -1.
          2   -1    0    0  501    0  0.00000000000E+00 -0.00000000000E+00 -0.14742660350E+04  0.14742660350E+04  0.25500000000E-02 0.  1.
    -200001    2    1    2    0    0  0.12067926520E+03 -0.21162433838E+03 -0.79726382508E+03  0.10345646341E+04  0.61265490262E+03 0.  0.
   -5000001    2    3    3    0    0  0.27818361153E+03 -0.39182084371E+02 -0.68221031849E+03  0.75531159569E+03  0.16175082836E+03 0.  0.
     200001    1    1    2    0    0 -0.12067926520E+03  0.21162433838E+03 -0.36352958873E+03  0.75317402207E+03  0.61300000000E+03 0. -1.
         13    1    4    4    0    0  0.11170840715E+03  0.39352716955E+02 -0.14844931789E+03  0.18990686061E+03  0.10566000000E+00 0.  1.
    -200003    1    4    4    0    0  0.16647520437E+03 -0.78534801326E+02 -0.53376100060E+03  0.56540473509E+03  0.30000000000E+02 0.  1.
    -200000    1    3    3    0    0 -0.15750434633E+03 -0.17244225401E+03 -0.11505350658E+03  0.27925303841E+03  0.10100000000E+03 0. -1.
<mgrwt>
<rscale>  0 0.13596206E+04</rscale>
<asrwt>0</asrwt>
<pdfrwt beam="1">  1        2 0.21060943E+00 0.13596206E+04</pdfrwt>
<pdfrwt beam="2">  1       -2 0.44781804E-01 0.13596206E+04</pdfrwt>
<totfact> 0.69677598E+01</totfact>
</mgrwt>
</event>
<event>
 8    2  0.4306980E-052  0.1942304E+04  0.7818608E-02  0.8634081E-01
         -2   -1    0    0    0  501 -0.00000000000E+00  0.00000000000E+00  0.34079502361E+03  0.34079502362E+03  0.25500000000E-02 0. -1.
          2   -1    0    0  501    0  0.00000000000E+00 -0.00000000000E+00 -0.27674598600E+04  0.27674598600E+04  0.25500000000E-02 0.  1.
    -200001    2    1    2    0    0  0.17172910999E+03 -0.30192148461E+03 -0.22832077523E+04  0.23892302630E+04  0.61215695660E+03 0.  0.
   -5000001    2    3    3    0    0 -0.17330571411E+03 -0.46243186284E+02 -0.35403540277E+03  0.41025897059E+03  0.10391368398E+03 0.  0.
     200001    1    1    2    0    0 -0.17172910999E+03  0.30192148461E+03 -0.14345708413E+03  0.71902462063E+03  0.61300000000E+03 0. -1.
         13    1    4    4    0    0 -0.16266216682E+03 -0.43457335136E+02 -0.24986023814E+03  0.30129332926E+03  0.10566000000E+00 0.  1.
    -200003    1    4    4    0    0 -0.10643547295E+02 -0.27858511481E+01 -0.10417516463E+03  0.10896564133E+03  0.30000000000E+02 0.  1.
    -200000    1    3    3    0    0  0.34503482410E+03 -0.25567829832E+03 -0.19291723495E+04  0.19789712924E+04  0.10100000000E+03 0.  1.
<mgrwt>
<rscale>  0 0.19423044E+04</rscale>
<asrwt>0</asrwt>
<pdfrwt beam="1">  1        2 0.39535140E+00 0.19423044E+04</pdfrwt>
<pdfrwt beam="2">  1       -2 0.48685005E-01 0.19423044E+04</pdfrwt>
<totfact> 0.11868654E+01</totfact>
</mgrwt>
</event>
<event>
 8    2  0.4306980E-052  0.1438975E+04  0.7818608E-02  0.8926080E-01
         -2   -1    0    0    0  501 -0.00000000000E+00  0.00000000000E+00  0.51009561630E+03  0.51009561631E+03  0.25500000000E-02 0. -1.
          2   -1    0    0  501    0  0.00000000000E+00 -0.00000000000E+00 -0.10148340381E+04  0.10148340381E+04  0.25500000000E-02 0.  1.
    -200001    2    1    2    0    0 -0.68063299113E+02  0.36993124368E+03 -0.26873813654E+03  0.76799711293E+03  0.61328430740E+03 0.  0.
   -5000001    2    3    3    0    0  0.24967372553E+03  0.24783303769E+03 -0.10216615297E+03  0.37580836444E+03  0.83879795993E+02 0.  0.
     200001    1    1    2    0    0  0.68063299113E+02 -0.36993124368E+03 -0.23600028528E+03  0.75693254150E+03  0.61300000000E+03 0.  1.
         13    1    4    4    0    0  0.18392589883E+03  0.15132658216E+03 -0.90060142990E+02  0.25463564411E+03  0.10566000000E+00 0.  1.
    -200003    1    4    4    0    0  0.65747826699E+02  0.96506455529E+02 -0.12106009978E+02  0.12117272033E+03  0.30000000000E+02 0. -1.
    -200000    1    3    3    0    0 -0.31773702464E+03  0.12209820599E+03 -0.16657198358E+03  0.39218874850E+03  0.10100000000E+03 0. -1.
<mgrwt>
<rscale>  0 0.14389752E+04</rscale>
<asrwt>0</asrwt>
<pdfrwt beam="1">  1        2 0.14497629E+00 0.14389752E+04</pdfrwt>
<pdfrwt beam="2">  1       -2 0.72870803E-01 0.14389752E+04</pdfrwt>
<totfact> 0.45502419E+01</totfact>
</mgrwt>
</event>
<event>
 8    2  0.4306980E-052  0.1254795E+04  0.7818608E-02  0.9066202E-01
          2   -1    0    0  501    0  0.00000000000E+00  0.00000000000E+00  0.20128278171E+04  0.20128278171E+04  0.25500000000E-02 0.  1.
         -2   -1    0    0    0  501 -0.00000000000E+00 -0.00000000000E+00 -0.19555947260E+03  0.19555947262E+03  0.25500000000E-02 0. -1.
    -200001    2    1    2    0    0 -0.12375445572E+03 -0.54746092118E+02  0.94251561464E+03  0.11316915860E+04  0.61161904986E+03 0.  0.
   -5000001    2    3    3    0    0 -0.16791845341E+03  0.34217734766E+02  0.13023800527E+03  0.30715478524E+03  0.21912248564E+03 0.  0.
     200001    1    1    2    0    0  0.12375445572E+03  0.54746092118E+02  0.87475272982E+03  0.10766957036E+04  0.61300000000E+03 0. -1.
         13    1    4    4    0    0 -0.18053788556E+03 -0.22846888800E+02  0.15287634402E+03  0.23767014153E+03  0.10566000000E+00 0.  1.
    -200003    1    4    4    0    0  0.12619432150E+02  0.57064623566E+02 -0.22638338750E+02  0.69484643712E+02  0.30000000000E+02 0.  1.
    -200000    1    3    3    0    0  0.44163997690E+02 -0.88963826883E+02  0.81227760936E+03  0.82453680079E+03  0.10100000000E+03 0.  1.
<mgrwt>
<rscale>  0 0.12547949E+04</rscale>
<asrwt>0</asrwt>
<pdfrwt beam="1">  1        2 0.28754685E+00 0.12547949E+04</pdfrwt>
<pdfrwt beam="2">  1       -2 0.27937066E-01 0.12547949E+04</pdfrwt>
<totfact> 0.90995078E+01</totfact>
</mgrwt>
</event>
<event>
 8    2  0.4306980E-052  0.1843896E+04  0.7818608E-02  0.8683298E-01
          2   -1    0    0  501    0  0.00000000000E+00  0.00000000000E+00  0.31024176583E+04  0.31024176583E+04  0.25500000000E-02 0.  1.
         -2   -1    0    0    0  501 -0.00000000000E+00 -0.00000000000E+00 -0.27397593413E+03  0.27397593414E+03  0.25500000000E-02 0. -1.
    -200001    2    1    2    0    0  0.31152853136E+03  0.33113637905E+03  0.23606303707E+04  0.24812300377E+04  0.61418679987E+03 0.  0.
   -5000001    2    3    3    0    0  0.44122349485E+03  0.23284432637E+03  0.12767689825E+04  0.13805763137E+04  0.16418669406E+03 0.  0.
     200001    1    1    2    0    0 -0.31152853136E+03 -0.33113637905E+03  0.46781135340E+03  0.89516355475E+03  0.61300000000E+03 0. -1.
         13    1    4    4    0    0  0.14011165853E+03  0.15554950720E+03  0.59262774985E+03  0.62851776992E+03  0.10566000000E+00 0.  1.
    -200003    1    4    4    0    0  0.30111183633E+03  0.77294819168E+02  0.68414123269E+03  0.75205854381E+03  0.30000000000E+02 0.  1.
    -200000    1    3    3    0    0 -0.12969496349E+03  0.98292052685E+02  0.10838613882E+04  0.11006537239E+04  0.10100000000E+03 0. -1.
<mgrwt>
<rscale>  0 0.18438956E+04</rscale>
<asrwt>0</asrwt>
<pdfrwt beam="1">  1        2 0.44320247E+00 0.18438956E+04</pdfrwt>
<pdfrwt beam="2">  1       -2 0.39139424E-01 0.18438956E+04</pdfrwt>
<totfact> 0.12047092E+01</totfact>
</mgrwt>
</event>
<event>
 8    2  0.4306980E-052  0.1256020E+04  0.7818608E-02  0.9065187E-01
         -2   -1    0    0    0  501 -0.00000000000E+00  0.00000000000E+00  0.25050163138E+03  0.25050163139E+03  0.25500000000E-02 0. -1.
          2   -1    0    0  501    0  0.00000000000E+00 -0.00000000000E+00 -0.15744279466E+04  0.15744279466E+04  0.25500000000E-02 0.  1.
    -200001    2    1    2    0    0  0.27016933210E+02 -0.12114880566E+03 -0.57178267203E+03  0.84671896274E+03  0.61203809525E+03 0.  0.
   -5000001    2    3    3    0    0 -0.16797156493E+03 -0.22965606281E+03 -0.11295914821E+03  0.32660900776E+03  0.11383022872E+03 0.  0.
     200001    1    1    2    0    0 -0.27016933210E+02  0.12114880566E+03 -0.75214364318E+03  0.97821061524E+03  0.61300000000E+03 0.  1.
         13    1    4    4    0    0 -0.74801424854E+02 -0.18362204621E+03 -0.71572912648E+02  0.21079611478E+03  0.10566000000E+00 0.  1.
    -200003    1    4    4    0    0 -0.93170140078E+02 -0.46034016597E+02 -0.41386235563E+02  0.11581289298E+03  0.30000000000E+02 0.  1.
    -200000    1    3    3    0    0  0.19498849814E+03  0.10850725715E+03 -0.45882352382E+03  0.52010995498E+03  0.10100000000E+03 0.  1.
<mgrwt>
<rscale>  0 0.12560203E+04</rscale>
<asrwt>0</asrwt>
<pdfrwt beam="1">  1        2 0.22491827E+00 0.12560203E+04</pdfrwt>
<pdfrwt beam="2">  1       -2 0.35785948E-01 0.12560203E+04</pdfrwt>
<totfact> 0.96291995E+01</totfact>
</mgrwt>
</event>
<event>
 8    2  0.4306980E-052  0.1248076E+04  0.7818608E-02  0.9071786E-01
          2   -1    0    0  501    0  0.00000000000E+00  0.00000000000E+00  0.33572108043E+04  0.33572108043E+04  0.25500000000E-02 0.  1.
         -2   -1    0    0    0  501 -0.00000000000E+00 -0.00000000000E+00 -0.11599621236E+03  0.11599621239E+03  0.25500000000E-02 0. -1.
    -200001    2    1    2    0    0  0.27186471461E+02 -0.47807271731E+02  0.13380336462E+04  0.14729841912E+04  0.61345232058E+03 0.  0.
   -5000001    2    3    3    0    0 -0.16935352992E+03 -0.23891145489E+03  0.55834098565E+03  0.64035556695E+03  0.11203255998E+03 0.  0.
     200001    1    1    2    0    0 -0.27186471461E+02  0.47807271731E+02  0.19031809457E+04  0.20002228255E+04  0.61300000000E+03 0.  1.
         13    1    4    4    0    0 -0.42430632071E+02 -0.13377128844E+03  0.31586117935E+03  0.34563479561E+03  0.10566000000E+00 0.  1.
    -200003    1    4    4    0    0 -0.12692289785E+03 -0.10514016645E+03  0.24247980630E+03  0.29472077135E+03  0.30000000000E+02 0.  1.
    -200000    1    3    3    0    0  0.19654000138E+03  0.19110418316E+03  0.77969266053E+03  0.83262862420E+03  0.10100000000E+03 0. -1.
<mgrwt>
<rscale>  0 0.12480765E+04</rscale>
<asrwt>0</asrwt>
<pdfrwt beam="1">  1        2 0.47960152E+00 0.12480765E+04</pdfrwt>
<pdfrwt beam="2">  1       -2 0.16570888E-01 0.12480765E+04</pdfrwt>
<totfact> 0.43449255E+01</totfact>
</mgrwt>
</event>
<event>
 8    2  0.4306980E-052  0.1470694E+04  0.7818608E-02  0.8904178E-01
         -2   -1    0    0    0  501 -0.00000000000E+00  0.00000000000E+00  0.14152605895E+04  0.14152605895E+04  0.25500000000E-02 0.  1.
          2   -1    0    0  501    0  0.00000000000E+00 -0.00000000000E+00 -0.38207465520E+03  0.38207465521E+03  0.25500000000E-02 0. -1.
    -200001    2    1    2    0    0 -0.90055431790E+02 -0.15739684606E+03  0.95836468223E+03  0.11537119328E+04  0.61620176218E+03 0.  0.
   -5000001    2    3    3    0    0 -0.21208269600E+03 -0.28744877965E+01  0.87273644189E+03  0.91643359840E+03  0.18219305875E+03 0.  0.
     200001    1    1    2    0    0  0.90055431790E+02  0.15739684606E+03  0.74821252092E+02  0.64362331197E+03  0.61300000000E+03 0. -1.
         13    1    4    4    0    0 -0.99458932320E+02 -0.87969386921E+02  0.47986087646E+03  0.49789272356E+03  0.10566000000E+00 0.  1.
    -200003    1    4    4    0    0 -0.11262376368E+03  0.85094899125E+02  0.39287556543E+03  0.41854087484E+03  0.30000000000E+02 0.  1.
    -200000    1    3    3    0    0  0.12202726421E+03 -0.15452235826E+03  0.85628240336E+02  0.23727833436E+03  0.10100000000E+03 0. -1.
<mgrwt>
<rscale>  0 0.14706940E+04</rscale>
<asrwt>0</asrwt>
<pdfrwt beam="1">  1        2 0.54582093E-01 0.14706940E+04</pdfrwt>
<pdfrwt beam="2">  1       -2 0.20218009E+00 0.14706940E+04</pdfrwt>
<totfact> 0.11356604E+01</totfact>
</mgrwt>
</event>
<event>
 8    2  0.4306980E-052  0.1295459E+04  0.7818608E-02  0.9033174E-01
         -2   -1    0    0    0  501 -0.00000000000E+00  0.00000000000E+00  0.15728109010E+03  0.15728109012E+03  0.25500000000E-02 0. -1.
          2   -1    0    0  501    0  0.00000000000E+00 -0.00000000000E+00 -0.26675375290E+04  0.26675375290E+04  0.25500000000E-02 0.  1.
    -200001    2    1    2    0    0 -0.13514064729E+03 -0.11668901547E+03 -0.10281349210E+04  0.12110241729E+04  0.61452323850E+03 0.  0.
   -5000001    2    3    3    0    0 -0.19494598134E+03 -0.12535513075E+03 -0.10608205102E+04  0.10888721067E+04  0.81144718377E+02 0.  0.
     200001    1    1    2    0    0  0.13514064729E+03  0.11668901547E+03 -0.14821215179E+04  0.16137944462E+04  0.61300000000E+03 0. -1.
         13    1    4    4    0    0 -0.11459711376E+03 -0.10899754609E+03 -0.66866525325E+03  0.68711439776E+03  0.10566000000E+00 0.  1.
    -200003    1    4    4    0    0 -0.80348867575E+02 -0.16357584658E+02 -0.39215525696E+03  0.40175770889E+03  0.30000000000E+02 0.  1.
    -200000    1    3    3    0    0  0.59805334050E+02  0.86661152791E+01  0.32685589241E+02  0.12215206621E+03  0.10100000000E+03 0. -1.
<mgrwt>
<rscale>  0 0.12954585E+04</rscale>
<asrwt>0</asrwt>
<pdfrwt beam="1">  1        2 0.38107676E+00 0.12954585E+04</pdfrwt>
<pdfrwt beam="2">  1       -2 0.22468729E-01 0.12954585E+04</pdfrwt>
<totfact> 0.61523352E+01</totfact>
</mgrwt>
</event>
<event>
 8    2  0.4306980E-052  0.1853345E+04  0.7818608E-02  0.8678435E-01
         -2   -1    0    0    0  501 -0.00000000000E+00  0.00000000000E+00  0.16127538307E+03  0.16127538309E+03  0.25500000000E-02 0. -1.
          2   -1    0    0  501    0  0.00000000000E+00 -0.00000000000E+00 -0.53245681106E+04  0.53245681106E+04  0.25500000000E-02 0.  1.
    -200001    2    1    2    0    0  0.61639839274E+03 -0.69678357259E+02 -0.16557210837E+04  0.18714791113E+04  0.61336751220E+03 0.  0.
   -5000001    2    3    3    0    0  0.10991007164E+03 -0.27838809232E+03 -0.69709827673E+03  0.76276415292E+03  0.79265325130E+02 0.  0.
     200001    1    1    2    0    0 -0.61639839274E+03  0.69678357259E+02 -0.35075716438E+04  0.36143643823E+04  0.61300000000E+03 0.  1.
         13    1    4    4    0    0 -0.73678945964E+01 -0.59382112800E+01 -0.99719388698E+01  0.13747689000E+02  0.10566000000E+00 0.  1.
    -200003    1    4    4    0    0  0.11727796623E+03 -0.27244988104E+03 -0.68712633786E+03  0.74901646392E+03  0.30000000000E+02 0.  1.
    -200000    1    3    3    0    0  0.50648832110E+03  0.20870973506E+03 -0.95862280701E+03  0.11087149584E+04  0.10100000000E+03 0. -1.
<mgrwt>
<rscale>  0 0.18533448E+04</rscale>
<asrwt>0</asrwt>
<pdfrwt beam="1">  1        2 0.76065248E+00 0.18533448E+04</pdfrwt>
<pdfrwt beam="2">  1       -2 0.23039344E-01 0.18533448E+04</pdfrwt>
<totfact> 0.64993038E-01</totfact>
</mgrwt>
</event>
<event>
 8    2  0.4306980E-052  0.1386846E+04  0.7818608E-02  0.8963395E-01
         -2   -1    0    0    0  501 -0.00000000000E+00  0.00000000000E+00  0.75379149108E+03  0.75379149109E+03  0.25500000000E-02 0. -1.
          2   -1    0    0  501    0  0.00000000000E+00 -0.00000000000E+00 -0.63788963973E+03  0.63788963973E+03  0.25500000000E-02 0.  1.
    -200001    2    1    2    0    0 -0.66683797142E+02  0.15354298017E+03 -0.22035569070E+03  0.67275115498E+03  0.61320087292E+03 0.  0.
   -5000001    2    3    3    0    0 -0.15272392279E+02  0.24599470761E+03 -0.37854568713E+03  0.45730851894E+03  0.71327428866E+02 0.  0.
     200001    1    1    2    0    0  0.66683797142E+02 -0.15354298017E+03  0.33625754206E+03  0.71892997583E+03  0.61300000000E+03 0. -1.
         13    1    4    4    0    0 -0.16763887324E+02  0.20139592759E+03 -0.31233522284E+03  0.37201431445E+03  0.10566000000E+00 0.  1.
    -200003    1    4    4    0    0  0.14914950454E+01  0.44598780021E+02 -0.66210464292E+02  0.85294204484E+02  0.30000000000E+02 0. -1.
    -200000    1    3    3    0    0 -0.51411404864E+02 -0.92451727435E+02  0.15818999643E+03  0.21544263605E+03  0.10100000000E+03 0. -1.
<mgrwt>
<rscale>  0 0.13868465E+04</rscale>
<asrwt>0</asrwt>
<pdfrwt beam="1">  1        2 0.91127091E-01 0.13868465E+04</pdfrwt>
<pdfrwt beam="2">  1       -2 0.10768450E+00 0.13868465E+04</pdfrwt>
<totfact> 0.34037699E+01</totfact>
</mgrwt>
</event>
<event>
 8    2  0.4306980E-052  0.1314839E+04  0.7818608E-02  0.9017880E-01
          2   -1    0    0  501    0  0.00000000000E+00  0.00000000000E+00  0.69568087699E+03  0.69568087699E+03  0.25500000000E-02 0.  1.
         -2   -1    0    0    0  501 -0.00000000000E+00 -0.00000000000E+00 -0.62126258987E+03  0.62126258988E+03  0.25500000000E-02 0. -1.
    -200001    2    1    2    0    0  0.39656756225E+02 -0.18345897663E+03  0.18548031595E+03  0.66630253005E+03  0.61182208159E+03 0.  0.
   -5000001    2    3    3    0    0  0.10841658017E+03  0.52311965263E+02  0.33177564974E+03  0.36312077743E+03  0.85386888201E+02 0.  0.
     200001    1    1    2    0    0 -0.39656756225E+02  0.18345897663E+03 -0.11106202883E+03  0.65064093682E+03  0.61300000000E+03 0. -1.
         13    1    4    4    0    0  0.66767682454E+02  0.40219058714E+02  0.10784132080E+03  0.13306110529E+03  0.10566000000E+00 0.  1.
    -200003    1    4    4    0    0  0.41648897715E+02  0.12092906550E+02  0.22393432894E+03  0.23005967214E+03  0.30000000000E+02 0.  1.
    -200000    1    3    3    0    0 -0.68759823944E+02 -0.23577094190E+03 -0.14629533379E+03  0.30318175262E+03  0.10100000000E+03 0.  1.
<mgrwt>
<rscale>  0 0.13148392E+04</rscale>
<asrwt>0</asrwt>
<pdfrwt beam="1">  1        2 0.99382983E-01 0.13148392E+04</pdfrwt>
<pdfrwt beam="2">  1       -2 0.88751798E-01 0.13148392E+04</pdfrwt>
<totfact> 0.48550081E+01</totfact>
</mgrwt>
</event>
<event>
 8    2  0.4306980E-052  0.1442597E+04  0.7818608E-02  0.8923549E-01
          2   -1    0    0  501    0  0.00000000000E+00  0.00000000000E+00  0.18259011097E+04  0.18259011097E+04  0.25500000000E-02 0.  1.
         -2   -1    0    0    0  501 -0.00000000000E+00 -0.00000000000E+00 -0.28493942779E+03  0.28493942780E+03  0.25500000000E-02 0. -1.
    -200001    2    1    2    0    0 -0.11334778384E+03  0.60201975206E+02  0.24417580586E+03  0.67073824729E+03  0.61138856245E+03 0.  0.
   -5000001    2    3    3    0    0 -0.75830676668E+02 -0.25304994456E+02 -0.18109689521E+03  0.22377421578E+03  0.10434644184E+03 0.  0.
     200001    1    1    2    0    0  0.11334778384E+03 -0.60201975206E+02  0.12967858761E+04  0.14401022902E+04  0.61300000000E+03 0.  1.
         13    1    4    4    0    0  0.28488418358E+00 -0.25283943721E+01  0.12295467763E+02  0.12556417827E+02  0.10566000000E+00 0.  1.
    -200003    1    4    4    0    0 -0.76115560852E+02 -0.22776600084E+02 -0.19339236297E+03  0.21121779795E+03  0.30000000000E+02 0.  1.
    -200000    1    3    3    0    0 -0.37517107174E+02  0.85506969663E+02  0.42527270107E+03  0.44696403151E+03  0.10100000000E+03 0.  1.
<mgrwt>
<rscale>  0 0.14425966E+04</rscale>
<asrwt>0</asrwt>
<pdfrwt beam="1">  1        2 0.26084302E+00 0.14425966E+04</pdfrwt>
<pdfrwt beam="2">  1       -2 0.40705632E-01 0.14425966E+04</pdfrwt>
<totfact> 0.54767056E+01</totfact>
</mgrwt>
</event>
<event>
 8    2  0.4306980E-052  0.1299815E+04  0.7818608E-02  0.9029712E-01
         -2   -1    0    0    0  501 -0.00000000000E+00  0.00000000000E+00  0.39879411276E+03  0.39879411277E+03  0.25500000000E-02 0. -1.
          2   -1    0    0  501    0  0.00000000000E+00 -0.00000000000E+00 -0.10591430485E+04  0.10591430485E+04  0.25500000000E-02 0.  1.
    -200001    2    1    2    0    0  0.55026346474E+02  0.97462053015E+02 -0.12520988342E+03  0.63655445150E+03  0.61400106208E+03 0.  0.
   -5000001    2    3    3    0    0 -0.11030411397E+03  0.16118568049E+03 -0.27754404830E+03  0.38199294688E+03  0.17532852467E+03 0.  0.
     200001    1    1    2    0    0 -0.55026346474E+02 -0.97462053015E+02 -0.53513905229E+03  0.82138270975E+03  0.61300000000E+03 0.  1.
         13    1    4    4    0    0 -0.74150090468E+02  0.16700542057E+03 -0.28027073357E+03  0.33457546484E+03  0.10566000000E+00 0.  1.
    -200003    1    4    4    0    0 -0.36154023503E+02 -0.58197400777E+01  0.27266852695E+01  0.47417482035E+02  0.30000000000E+02 0.  1.
    -200000    1    3    3    0    0  0.16533046044E+03 -0.63723627473E+02  0.15233416488E+03  0.25456150463E+03  0.10100000000E+03 0. -1.
<mgrwt>
<rscale>  0 0.12998154E+04</rscale>
<asrwt>0</asrwt>
<pdfrwt beam="1">  1        2 0.15130615E+00 0.12998154E+04</pdfrwt>
<pdfrwt beam="2">  1       -2 0.56970588E-01 0.12998154E+04</pdfrwt>
<totfact> 0.73229822E+01</totfact>
</mgrwt>
</event>
<event>
 8    2  0.4306980E-052  0.1731804E+04  0.7818608E-02  0.8743431E-01
          2   -1    0    0  501    0  0.00000000000E+00  0.00000000000E+00  0.15517529529E+04  0.15517529529E+04  0.25500000000E-02 0.  1.
         -2   -1    0    0    0  501 -0.00000000000E+00 -0.00000000000E+00 -0.48318637895E+03  0.48318637895E+03  0.25500000000E-02 0. -1.
    -200001    2    1    2    0    0 -0.38897370131E+03 -0.15574621462E+03  0.10579590688E+04  0.12923499818E+04  0.61264480774E+03 0.  0.
   -5000001    2    3    3    0    0 -0.22314606539E+03  0.11640937125E+03  0.10598475613E+03  0.28337844613E+03  0.75665494015E+02 0.  0.
     200001    1    1    2    0    0  0.38897370131E+03  0.15574621462E+03  0.10607505147E+02  0.74258935007E+03  0.61300000000E+03 0.  1.
         13    1    4    4    0    0 -0.12688397135E+03  0.32357933697E+02  0.43352520631E+02  0.13793487691E+03  0.10566000000E+00 0.  1.
    -200003    1    4    4    0    0 -0.96262094038E+02  0.84051437557E+02  0.62632235500E+02  0.14544356922E+03  0.30000000000E+02 0.  1.
    -200000    1    3    3    0    0 -0.16582763592E+03 -0.27215558588E+03  0.95197431266E+03  0.10089715356E+04  0.10100000000E+03 0.  1.
<mgrwt>
<rscale>  0 0.17318036E+04</rscale>
<asrwt>0</asrwt>
<pdfrwt beam="1">  1        2 0.22167899E+00 0.17318036E+04</pdfrwt>
<pdfrwt beam="2">  1       -2 0.69026626E-01 0.17318036E+04</pdfrwt>
<totfact> 0.25029290E+01</totfact>
</mgrwt>
</event>
<event>
 8    2  0.4306980E-052  0.1939272E+04  0.7818608E-02  0.8635551E-01
         -2   -1    0    0    0  501 -0.00000000000E+00  0.00000000000E+00  0.11927505016E+04  0.11927505016E+04  0.25500000000E-02 0. -1.
          2   -1    0    0  501    0  0.00000000000E+00 -0.00000000000E+00 -0.78825697060E+03  0.78825697061E+03  0.25500000000E-02 0.  1.
    -200001    2    1    2    0    0  0.88894819505E+02 -0.73215344473E+03  0.69033713654E+02  0.96500882823E+03  0.61848640193E+03 0.  0.
   -5000001    2    3    3    0    0  0.12306883232E+03 -0.53474271337E+03  0.30948317402E+03  0.63613833245E+03  0.88297429285E+02 0.  0.
     200001    1    1    2    0    0 -0.88894819505E+02  0.73215344473E+03  0.33545981737E+03  0.10159986440E+04  0.61300000000E+03 0. -1.
         13    1    4    4    0    0  0.43559790665E+02 -0.17536878227E+03  0.14588758126E+03  0.23223880530E+03  0.10566000000E+00 0.  1.
    -200003    1    4    4    0    0  0.79509041651E+02 -0.35937393110E+03  0.16359559276E+03  0.40389952715E+03  0.30000000000E+02 0.  1.
    -200000    1    3    3    0    0 -0.34174012810E+02 -0.19741073136E+03 -0.24044946036E+03  0.32887049578E+03  0.10100000000E+03 0. -1.
<mgrwt>
<rscale>  0 0.19392719E+04</rscale>
<asrwt>0</asrwt>
<pdfrwt beam="1">  1        2 0.11260814E+00 0.19392719E+04</pdfrwt>
<pdfrwt beam="2">  1       -2 0.17039293E+00 0.19392719E+04</pdfrwt>
<totfact> 0.76832447E+00</totfact>
</mgrwt>
</event>
<event>
 8    2  0.4306980E-052  0.1951004E+04  0.7818608E-02  0.8629877E-01
         -2   -1    0    0    0  501 -0.00000000000E+00  0.00000000000E+00  0.48829182399E+03  0.48829182399E+03  0.25500000000E-02 0. -1.
          2   -1    0    0  501    0  0.00000000000E+00 -0.00000000000E+00 -0.19488439182E+04  0.19488439182E+04  0.25500000000E-02 0.  1.
    -200001    2    1    2    0    0  0.10892982143E+03 -0.73687832742E+03 -0.53536321802E+03  0.11004986067E+04  0.60797042089E+03 0.  0.
   -5000001    2    3    3    0    0  0.66560469788E+02 -0.73735393607E+02 -0.37150747797E+03  0.40868691541E+03  0.13834733185E+03 0.  0.
     200001    1    1    2    0    0 -0.10892982143E+03  0.73687832742E+03 -0.92518887622E+03  0.13366371355E+04  0.61300000000E+03 0.  1.
         13    1    4    4    0    0  0.20658437882E+02 -0.46389202857E+01 -0.28277954780E+03  0.28357111005E+03  0.10566000000E+00 0.  1.
    -200003    1    4    4    0    0  0.45902031905E+02 -0.69096473322E+02 -0.88727930175E+02  0.12511580536E+03  0.30000000000E+02 0.  1.
    -200000    1    3    3    0    0  0.42369351638E+02 -0.66314293382E+03 -0.16385574005E+03  0.69181169127E+03  0.10100000000E+03 0.  1.
<mgrwt>
<rscale>  0 0.19510044E+04</rscale>
<asrwt>0</asrwt>
<pdfrwt beam="1">  1        2 0.27840627E+00 0.19510044E+04</pdfrwt>
<pdfrwt beam="2">  1       -2 0.69755976E-01 0.19510044E+04</pdfrwt>
<totfact> 0.14947700E+01</totfact>
</mgrwt>
</event>
<event>
 8    2  0.4306980E-052  0.1619169E+04  0.7818608E-02  0.8808857E-01
         -2   -1    0    0    0  501 -0.00000000000E+00  0.00000000000E+00  0.27098431099E+03  0.27098431100E+03  0.25500000000E-02 0. -1.
          2   -1    0    0  501    0  0.00000000000E+00 -0.00000000000E+00 -0.24186903676E+04  0.24186903676E+04  0.25500000000E-02 0.  1.
    -200001    2    1    2    0    0 -0.12649930523E+03  0.35059504570E+03 -0.17030191838E+04  0.18456164015E+04  0.60589322555E+03 0.  0.
   -5000001    2    3    3    0    0 -0.24946191863E+03  0.27170316348E+03 -0.15932512869E+04  0.16368252988E+04  0.68509398092E+02 0.  0.
     200001    1    1    2    0    0  0.12649930523E+03 -0.35059504570E+03 -0.44468687281E+03  0.84405827710E+03  0.61300000000E+03 0. -1.
         13    1    4    4    0    0 -0.18884668443E+03  0.17734560008E+03 -0.11043186577E+04  0.11342990086E+04  0.10566000000E+00 0.  1.
    -200003    1    4    4    0    0 -0.60615234197E+02  0.94357563402E+02 -0.48893262921E+03  0.50252629015E+03  0.30000000000E+02 0. -1.
    -200000    1    3    3    0    0  0.12296261340E+03  0.78891882226E+02 -0.10976789686E+03  0.20879110267E+03  0.10100000000E+03 0. -1.
<mgrwt>
<rscale>  0 0.16191691E+04</rscale>
<asrwt>0</asrwt>
<pdfrwt beam="1">  1        2 0.34552718E+00 0.16191691E+04</pdfrwt>
<pdfrwt beam="2">  1       -2 0.38712046E-01 0.16191691E+04</pdfrwt>
<totfact> 0.29450091E+01</totfact>
</mgrwt>
</event>
<event>
 8    2  0.4306980E-052  0.1411036E+04  0.7818608E-02  0.8945869E-01
          2   -1    0    0  501    0  0.00000000000E+00  0.00000000000E+00  0.37325992270E+03  0.37325992270E+03  0.25500000000E-02 0.  1.
         -2   -1    0    0    0  501 -0.00000000000E+00 -0.00000000000E+00 -0.13335365786E+04  0.13335365786E+04  0.25500000000E-02 0. -1.
    -200001    2    1    2    0    0 -0.30739623276E+03  0.13797694675E+03 -0.59138611307E+03  0.91598722321E+03  0.61299671826E+03 0.  0.
   -5000001    2    3    3    0    0 -0.23337511635E+03  0.19632082382E+02  0.27823397641E+02  0.27325395758E+03  0.13800079814E+03 0.  0.
     200001    1    1    2    0    0  0.30739623276E+03 -0.13797694675E+03 -0.36889054286E+03  0.79080927812E+03  0.61300000000E+03 0.  1.
         13    1    4    4    0    0 -0.23882927340E+03  0.90889514034E+01  0.30204200770E+02  0.24090316681E+03  0.10566000000E+00 0.  1.
    -200003    1    4    4    0    0  0.54541570496E+01  0.10543130979E+02 -0.23808031289E+01  0.32350790771E+02  0.30000000000E+02 0.  1.
    -200000    1    3    3    0    0 -0.74021116413E+02  0.11834486437E+03 -0.61920951071E+03  0.64273326563E+03  0.10100000000E+03 0. -1.
<mgrwt>
<rscale>  0 0.14110362E+04</rscale>
<asrwt>0</asrwt>
<pdfrwt beam="1">  1        2 0.53322847E-01 0.14110362E+04</pdfrwt>
<pdfrwt beam="2">  1       -2 0.19050522E+00 0.14110362E+04</pdfrwt>
<totfact> 0.13987698E+01</totfact>
</mgrwt>
</event>
<event>
 8    2  0.4306980E-052  0.1504268E+04  0.7818608E-02  0.8881619E-01
         -2   -1    0    0    0  501 -0.00000000000E+00  0.00000000000E+00  0.59394029671E+03  0.59394029672E+03  0.25500000000E-02 0. -1.
          2   -1    0    0  501    0  0.00000000000E+00 -0.00000000000E+00 -0.95246258027E+03  0.95246258027E+03  0.25500000000E-02 0.  1.
    -200001    2    1    2    0    0 -0.17331757717E+03  0.38534174581E+02 -0.58810155164E+03  0.86817024323E+03  0.61345926599E+03 0.  0.
   -5000001    2    3    3    0    0  0.15009909486E+03  0.14211495798E+03 -0.22839784502E+03  0.36327908764E+03  0.19256095230E+03 0.  0.
     200001    1    1    2    0    0  0.17331757717E+03 -0.38534174581E+02  0.22957926808E+03  0.67823263376E+03  0.61300000000E+03 0. -1.
         13    1    4    4    0    0  0.16070619700E+03  0.66959139175E+02 -0.75090674750E+02  0.18960123594E+03  0.10566000000E+00 0.  1.
    -200003    1    4    4    0    0 -0.10607102141E+02  0.75155818804E+02 -0.15330717027E+03  0.17367785170E+03  0.30000000000E+02 0.  1.
    -200000    1    3    3    0    0 -0.32341667203E+03 -0.10358078340E+03 -0.35970370662E+03  0.50489115559E+03  0.10100000000E+03 0.  1.
<mgrwt>
<rscale>  0 0.15042685E+04</rscale>
<asrwt>0</asrwt>
<pdfrwt beam="1">  1        2 0.13606608E+00 0.15042685E+04</pdfrwt>
<pdfrwt beam="2">  1       -2 0.84848614E-01 0.15042685E+04</pdfrwt>
<totfact> 0.35226500E+01</totfact>
</mgrwt>
</event>
<event>
 8    2  0.4306980E-052  0.1569666E+04  0.7818608E-02  0.8839403E-01
          2   -1    0    0  501    0  0.00000000000E+00  0.00000000000E+00  0.19733764056E+04  0.19733764057E+04  0.25500000000E-02 0.  1.
         -2   -1    0    0    0  501 -0.00000000000E+00 -0.00000000000E+00 -0.31213652992E+03  0.31213652993E+03  0.25500000000E-02 0. -1.
    -200001    2    1    2    0    0  0.18796406346E+03 -0.61097273083E+02  0.18011508405E+03  0.67040829054E+03  0.61477025513E+03 0.  0.
   -5000001    2    3    3    0    0  0.16229362988E+03  0.21530791591E+03 -0.55650724517E+02  0.29245946311E+03  0.98685426832E+02 0.  0.
     200001    1    1    2    0    0 -0.18796406346E+03  0.61097273083E+02  0.14811247917E+04  0.16151046450E+04  0.61300000000E+03 0.  1.
         13    1    4    4    0    0  0.19610830187E+02  0.70317928527E+02 -0.46663153595E+02  0.86640964909E+02  0.10566000000E+00 0.  1.
    -200003    1    4    4    0    0  0.14268279970E+03  0.14498998739E+03 -0.89875709218E+01  0.20581849820E+03  0.30000000000E+02 0.  1.
    -200000    1    3    3    0    0  0.25670433572E+02 -0.27640518900E+03  0.23576580857E+03  0.37794882743E+03  0.10100000000E+03 0.  1.
<mgrwt>
<rscale>  0 0.15696660E+04</rscale>
<asrwt>0</asrwt>
<pdfrwt beam="1">  1        2 0.28191090E+00 0.15696660E+04</pdfrwt>
<pdfrwt beam="2">  1       -2 0.44590935E-01 0.15696660E+04</pdfrwt>
<totfact> 0.38024851E+01</totfact>
</mgrwt>
</event>
<event>
 8    2  0.4306980E-052  0.1902747E+04  0.7818608E-02  0.8653490E-01
         -2   -1    0    0    0  501 -0.00000000000E+00  0.00000000000E+00  0.42997632739E+03  0.42997632740E+03  0.25500000000E-02 0. -1.
          2   -1    0    0  501    0  0.00000000000E+00 -0.00000000000E+00 -0.21050257354E+04  0.21050257354E+04  0.25500000000E-02 0.  1.
    -200001    2    1    2    0    0  0.67827314167E+03 -0.23970233328E+03 -0.69260771877E+03  0.11717440769E+04  0.61299842284E+03 0.  0.
   -5000001    2    3    3    0    0  0.42815621720E+03 -0.14244530721E+03 -0.42238674681E+02  0.46097104807E+03  0.84272116695E+02 0.  0.
     200001    1    1    2    0    0 -0.67827314167E+03  0.23970233328E+03 -0.98244168921E+03  0.13632579858E+04  0.61300000000E+03 0.  1.
         13    1    4    4    0    0  0.31627611760E+02 -0.12410072059E+01  0.15163985443E+02  0.35097058895E+02  0.10566000000E+00 0.  1.
    -200003    1    4    4    0    0  0.39652860544E+03 -0.14120430000E+03 -0.57402660124E+02  0.42587398918E+03  0.30000000000E+02 0.  1.
    -200000    1    3    3    0    0  0.25011692448E+03 -0.97257026078E+02 -0.65036904409E+03  0.71077302885E+03  0.10100000000E+03 0.  1.
<mgrwt>
<rscale>  0 0.19027467E+04</rscale>
<asrwt>0</asrwt>
<pdfrwt beam="1">  1        2 0.30071796E+00 0.19027467E+04</pdfrwt>
<pdfrwt beam="2">  1       -2 0.61425191E-01 0.19027467E+04</pdfrwt>
<totfact> 0.16392063E+01</totfact>
</mgrwt>
</event>
<event>
 8    2  0.4306980E-052  0.1558459E+04  0.7818608E-02  0.8846483E-01
          2   -1    0    0  501    0  0.00000000000E+00  0.00000000000E+00  0.34769677526E+03  0.34769677527E+03  0.25500000000E-02 0.  1.
         -2   -1    0    0    0  501 -0.00000000000E+00 -0.00000000000E+00 -0.17463453005E+04  0.17463453005E+04  0.25500000000E-02 0. -1.
    -200001    2    1    2    0    0 -0.18167754464E+03 -0.14775968806E+03 -0.13464915746E+03  0.66985702552E+03  0.61297502673E+03 0.  0.
   -5000001    2    3    3    0    0 -0.27871482656E+03  0.58813419839E+02  0.10670693655E+03  0.32266479187E+03  0.10763468171E+03 0.  0.
     200001    1    1    2    0    0  0.18167754464E+03  0.14775968806E+03 -0.12639993678E+04  0.14241850503E+04  0.61300000000E+03 0. -1.
         13    1    4    4    0    0 -0.17862870734E+03  0.36341545260E+02  0.16904776496E+02  0.18307022049E+03  0.10566000000E+00 0.  1.
    -200003    1    4    4    0    0 -0.10008611922E+03  0.22471874580E+02  0.89802160056E+02  0.13959457138E+03  0.30000000000E+02 0.  1.
    -200000    1    3    3    0    0  0.97037281920E+02 -0.20657310790E+03 -0.24135609401E+03  0.34719223365E+03  0.10100000000E+03 0. -1.
<mgrwt>
<rscale>  0 0.15584590E+04</rscale>
<asrwt>0</asrwt>
<pdfrwt beam="1">  1        2 0.49670969E-01 0.15584590E+04</pdfrwt>
<pdfrwt beam="2">  1       -2 0.24947790E+00 0.15584590E+04</pdfrwt>
<totfact> 0.63165740E+00</totfact>
</mgrwt>
</event>
<event>
 8    2  0.4306980E-052  0.1511044E+04  0.7818608E-02  0.8877142E-01
          2   -1    0    0  501    0  0.00000000000E+00  0.00000000000E+00  0.32014860798E+04  0.32014860798E+04  0.25500000000E-02 0.  1.
         -2   -1    0    0    0  501 -0.00000000000E+00 -0.00000000000E+00 -0.17829636005E+03  0.17829636007E+03  0.25500000000E-02 0. -1.
    -200001    2    1    2    0    0 -0.27502347550E+03 -0.14045365259E+02  0.22862790459E+04  0.23824652759E+04  0.61092858068E+03 0.  0.
   -5000001    2    3    3    0    0 -0.16148812681E+03 -0.15529432210E+03  0.27790015011E+03  0.36339907284E+03  0.68085616195E+02 0.  0.
     200001    1    1    2    0    0  0.27502347550E+03  0.14045365259E+02  0.73691067390E+03  0.99731716403E+03  0.61300000000E+03 0. -1.
         13    1    4    4    0    0 -0.90613870655E+02 -0.51302288206E+02  0.11049371372E+03  0.15182776514E+03  0.10566000000E+00 0.  1.
    -200003    1    4    4    0    0 -0.70874256150E+02 -0.10399203390E+03  0.16740643638E+03  0.21157130770E+03  0.30000000000E+02 0.  1.
    -200000    1    3    3    0    0 -0.11353534870E+03  0.14124895684E+03  0.20083788958E+04  0.20190662030E+04  0.10100000000E+03 0.  1.
<mgrwt>
<rscale>  0 0.15110438E+04</rscale>
<asrwt>0</asrwt>
<pdfrwt beam="1">  1        2 0.45735514E+00 0.15110438E+04</pdfrwt>
<pdfrwt beam="2">  1       -2 0.25470909E-01 0.15110438E+04</pdfrwt>
<totfact> 0.24437919E+01</totfact>
</mgrwt>
</event>
<event>
 8    2  0.4306980E-052  0.1436542E+04  0.7818608E-02  0.8927784E-01
          2   -1    0    0  501    0  0.00000000000E+00  0.00000000000E+00  0.93853120715E+03  0.93853120715E+03  0.25500000000E-02 0.  1.
         -2   -1    0    0    0  501 -0.00000000000E+00 -0.00000000000E+00 -0.54970297186E+03  0.54970297186E+03  0.25500000000E-02 0. -1.
    -200001    2    1    2    0    0  0.14285823103E+03 -0.34461700736E+03  0.21975143189E+03  0.75099248094E+03  0.61362012571E+03 0.  0.
   -5000001    2    3    3    0    0  0.66952800634E+02 -0.42587563636E+03 -0.44131721846E+02  0.44734808699E+03  0.11099534631E+03 0.  0.
     200001    1    1    2    0    0 -0.14285823103E+03  0.34461700736E+03  0.16907680340E+03  0.73724169808E+03  0.61300000000E+03 0.  1.
         13    1    4    4    0    0  0.73533462002E+02 -0.29288719357E+03 -0.66035151312E+02  0.30911281203E+03  0.10566000000E+00 0.  1.
    -200003    1    4    4    0    0 -0.65806613682E+01 -0.13298844279E+03  0.21903429465E+02  0.13823527496E+03  0.30000000000E+02 0.  1.
    -200000    1    3    3    0    0  0.75905430396E+02  0.81258629001E+02  0.26388315374E+03  0.30364439395E+03  0.10100000000E+03 0.  1.
<mgrwt>
<rscale>  0 0.14365422E+04</rscale>
<asrwt>0</asrwt>
<pdfrwt beam="1">  1        2 0.13407589E+00 0.14365422E+04</pdfrwt>
<pdfrwt beam="2">  1       -2 0.78528997E-01 0.14365422E+04</pdfrwt>
<totfact> 0.43032234E+01</totfact>
</mgrwt>
</event>
<event>
 8    2  0.4306980E-052  0.1423028E+04  0.7818608E-02  0.8937316E-01
         -2   -1    0    0    0  501 -0.00000000000E+00  0.00000000000E+00  0.61331353686E+03  0.61331353687E+03  0.25500000000E-02 0. -1.
          2   -1    0    0  501    0  0.00000000000E+00 -0.00000000000E+00 -0.82543795480E+03  0.82543795480E+03  0.25500000000E-02 0.  1.
    -200001    2    1    2    0    0  0.86317017539E+02 -0.34785584039E+03 -0.15157911696E+03  0.72608814431E+03  0.61300363082E+03 0.  0.
   -5000001    2    3    3    0    0  0.19435924046E+03  0.98553694236E+02 -0.90144376339E+02  0.25182047527E+03  0.88313069138E+02 0.  0.
     200001    1    1    2    0    0 -0.86317017539E+02  0.34785584039E+03 -0.60545300975E+02  0.71266334736E+03  0.61300000000E+03 0. -1.
         13    1    4    4    0    0  0.78601058826E+02  0.75045886424E+02 -0.17879374351E+02  0.11013489324E+03  0.10566000000E+00 0.  1.
    -200003    1    4    4    0    0  0.11575818163E+03  0.23507807813E+02 -0.72265001988E+02  0.14168558203E+03  0.30000000000E+02 0.  1.
    -200000    1    3    3    0    0 -0.10804222292E+03 -0.44640953462E+03 -0.61434740620E+02  0.47426766903E+03  0.10100000000E+03 0. -1.
<mgrwt>
<rscale>  0 0.14230281E+04</rscale>
<asrwt>0</asrwt>
<pdfrwt beam="1">  1        2 0.11791971E+00 0.14230281E+04</pdfrwt>
<pdfrwt beam="2">  1       -2 0.87616220E-01 0.14230281E+04</pdfrwt>
<totfact> 0.39940660E+01</totfact>
</mgrwt>
</event>
<event>
 8    2  0.4306980E-052  0.2433959E+04  0.7818608E-02  0.8426898E-01
          2   -1    0    0  501    0  0.00000000000E+00  0.00000000000E+00  0.10224268227E+04  0.10224268227E+04  0.25500000000E-02 0.  1.
         -2   -1    0    0    0  501 -0.00000000000E+00 -0.00000000000E+00 -0.14485523569E+04  0.14485523569E+04  0.25500000000E-02 0. -1.
    -200001    2    1    2    0    0 -0.58065165818E+03  0.43689707021E+03  0.56028442426E+03  0.11010123901E+04  0.60850164262E+03 0.  0.
   -5000001    2    3    3    0    0 -0.32824256051E+03  0.77245685618E+02  0.77982317231E+01  0.38791950421E+03  0.19160024752E+03 0.  0.
     200001    1    1    2    0    0  0.58065165818E+03 -0.43689707021E+03 -0.98640995843E+03  0.13699667894E+04  0.61300000000E+03 0. -1.
         13    1    4    4    0    0 -0.97282446735E+02  0.11332273063E+03  0.25764401064E+02  0.15155768290E+03  0.10566000000E+00 0.  1.
    -200003    1    4    4    0    0 -0.23096011378E+03 -0.36077045008E+02 -0.17966169341E+02  0.23636182131E+03  0.30000000000E+02 0.  1.
    -200000    1    3    3    0    0 -0.25240909766E+03  0.35965138460E+03  0.55248619253E+03  0.71309288593E+03  0.10100000000E+03 0.  1.
<mgrwt>
<rscale>  0 0.24339587E+04</rscale>
<asrwt>0</asrwt>
<pdfrwt beam="1">  1        2 0.14606098E+00 0.24339587E+04</pdfrwt>
<pdfrwt beam="2">  1       -2 0.20693605E+00 0.24339587E+04</pdfrwt>
<totfact> 0.29384147E+00</totfact>
</mgrwt>
</event>
<event>
 8    2  0.4306980E-052  0.1269237E+04  0.7818608E-02  0.9054322E-01
         -2   -1    0    0    0  501 -0.00000000000E+00  0.00000000000E+00  0.12475449696E+04  0.12475449696E+04  0.25500000000E-02 0. -1.
          2   -1    0    0  501    0  0.00000000000E+00 -0.00000000000E+00 -0.32282662600E+03  0.32282662601E+03  0.25500000000E-02 0.  1.
    -200001    2    1    2    0    0  0.14674003157E+03 -0.23291245349E+02  0.36950667415E+03  0.73007157961E+03  0.61187761043E+03 0.  0.
   -5000001    2    3    3    0    0  0.21813934462E+02 -0.15422550580E+03  0.46505687834E+03  0.50185862683E+03  0.10640877246E+03 0.  0.
     200001    1    1    2    0    0 -0.14674003157E+03  0.23291245349E+02  0.55521166943E+03  0.84030001597E+03  0.61300000000E+03 0.  1.
         13    1    4    4    0    0  0.23817519883E+02 -0.21541853172E+01  0.13637473154E+03  0.13845574504E+03  0.10566000000E+00 0.  1.
    -200003    1    4    4    0    0 -0.20035854204E+01 -0.15207132048E+03  0.32868214679E+03  0.36340288178E+03  0.30000000000E+02 0.  1.
    -200000    1    3    3    0    0  0.12492609711E+03  0.13093426045E+03 -0.95550204190E+02  0.22821295279E+03  0.10100000000E+03 0.  1.
<mgrwt>
<rscale>  0 0.12692371E+04</rscale>
<asrwt>0</asrwt>
<pdfrwt beam="1">  1        2 0.46118091E-01 0.12692371E+04</pdfrwt>
<pdfrwt beam="2">  1       -2 0.17822071E+00 0.12692371E+04</pdfrwt>
<totfact> 0.20142213E+01</totfact>
</mgrwt>
</event>
<event>
 8    2  0.4306980E-052  0.1564681E+04  0.7818608E-02  0.8842545E-01
         -2   -1    0    0    0  501 -0.00000000000E+00  0.00000000000E+00  0.29426034709E+03  0.29426034710E+03  0.25500000000E-02 0. -1.
          2   -1    0    0  501    0  0.00000000000E+00 -0.00000000000E+00 -0.20799828420E+04  0.20799828420E+04  0.25500000000E-02 0.  1.
    -200001    2    1    2    0    0 -0.24282074407E+03 -0.40475886530E+03 -0.10745116261E+04  0.13233475936E+04  0.61145888330E+03 0.  0.
   -5000001    2    3    3    0    0 -0.29155129896E+03 -0.47834052326E+03 -0.10366950961E+04  0.11839918714E+04  0.11527451171E+03 0.  0.
     200001    1    1    2    0    0  0.24282074407E+03  0.40475886530E+03 -0.71121086876E+03  0.10508955955E+04  0.61300000000E+03 0.  1.
         13    1    4    4    0    0 -0.16510986426E+03 -0.34983889253E+03 -0.65274565055E+03  0.75876571712E+03  0.10566000000E+00 0.  1.
    -200003    1    4    4    0    0 -0.12644143470E+03 -0.12850163073E+03 -0.38394944558E+03  0.42522615426E+03  0.30000000000E+02 0.  1.
    -200000    1    3    3    0    0  0.48730554897E+02  0.73581657956E+02 -0.37816529998E+02  0.13935572220E+03  0.10100000000E+03 0. -1.
<mgrwt>
<rscale>  0 0.15646808E+04</rscale>
<asrwt>0</asrwt>
<pdfrwt beam="1">  1        2 0.29714040E+00 0.15646808E+04</pdfrwt>
<pdfrwt beam="2">  1       -2 0.42037194E-01 0.15646808E+04</pdfrwt>
<totfact> 0.37689492E+01</totfact>
</mgrwt>
</event>
<event>
 8    2  0.4306980E-052  0.1261051E+04  0.7818608E-02  0.9061035E-01
         -2   -1    0    0    0  501 -0.00000000000E+00  0.00000000000E+00  0.29216133331E+03  0.29216133332E+03  0.25500000000E-02 0. -1.
          2   -1    0    0  501    0  0.00000000000E+00 -0.00000000000E+00 -0.13607637533E+04  0.13607637533E+04  0.25500000000E-02 0.  1.
    -200001    2    1    2    0    0 -0.64108934928E+01 -0.27722457956E+02 -0.72469479380E+03  0.94946855664E+03  0.61277921119E+03 0.  0.
   -5000001    2    3    3    0    0  0.48531998049E+02 -0.16671148302E+03 -0.25996793251E+03  0.45096206118E+03  0.32501597081E+03 0.  0.
     200001    1    1    2    0    0  0.64108934928E+01  0.27722457956E+02 -0.34390762620E+03  0.70345652999E+03  0.61300000000E+03 0. -1.
         13    1    4    4    0    0  0.36652888094E+02 -0.19526042182E+03 -0.11733837686E+02  0.19901698583E+03  0.10566000000E+00 0.  1.
    -200003    1    4    4    0    0  0.11879109955E+02  0.28548938808E+02 -0.24823409482E+03  0.25194507535E+03  0.30000000000E+02 0.  1.
    -200000    1    3    3    0    0 -0.54942891542E+02  0.13898902506E+03 -0.46472686129E+03  0.49850649546E+03  0.10100000000E+03 0.  1.
<mgrwt>
<rscale>  0 0.12610512E+04</rscale>
<asrwt>0</asrwt>
<pdfrwt beam="1">  1        2 0.19439482E+00 0.12610512E+04</pdfrwt>
<pdfrwt beam="2">  1       -2 0.41737334E-01 0.12610512E+04</pdfrwt>
<totfact> 0.92885688E+01</totfact>
</mgrwt>
</event>
<event>
 8    2  0.4306980E-052  0.1593891E+04  0.7818608E-02  0.8824310E-01
         -2   -1    0    0    0  501 -0.00000000000E+00  0.00000000000E+00  0.58562353082E+03  0.58562353082E+03  0.25500000000E-02 0. -1.
          2   -1    0    0  501    0  0.00000000000E+00 -0.00000000000E+00 -0.10845223606E+04  0.10845223606E+04  0.25500000000E-02 0.  1.
    -200001    2    1    2    0    0  0.62575887546E+02  0.10417721714E+03  0.27182184872E+03  0.67790197054E+03  0.60901176503E+03 0.  0.
   -5000001    2    3    3    0    0  0.17180531379E+03  0.19054924937E+03  0.38706974311E+03  0.47084093444E+03  0.77731057057E+02 0.  0.
     200001    1    1    2    0    0 -0.62575887546E+02 -0.10417721714E+03 -0.77072067851E+03  0.99224392089E+03  0.61300000000E+03 0.  1.
         13    1    4    4    0    0  0.33194257380E+02  0.12888165435E+02  0.25692001351E+02  0.43909607477E+02  0.10566000000E+00 0.  1.
    -200003    1    4    4    0    0  0.13861105641E+03  0.17766108393E+03  0.36137774176E+03  0.42693132696E+03  0.30000000000E+02 0.  1.
    -200000    1    3    3    0    0 -0.10922942625E+03 -0.86372032232E+02 -0.11524789439E+03  0.20706103610E+03  0.10100000000E+03 0.  1.
<mgrwt>
<rscale>  0 0.15938906E+04</rscale>
<asrwt>0</asrwt>
<pdfrwt beam="1">  1        2 0.15493177E+00 0.15938906E+04</pdfrwt>
<pdfrwt beam="2">  1       -2 0.83660504E-01 0.15938906E+04</pdfrwt>
<totfact> 0.29980864E+01</totfact>
</mgrwt>
</event>
<event>
 8    2  0.4306980E-052  0.1832600E+04  0.7818608E-02  0.8689153E-01
          2   -1    0    0  501    0  0.00000000000E+00  0.00000000000E+00  0.20379239313E+04  0.20379239313E+04  0.25500000000E-02 0. -1.
         -2   -1    0    0    0  501 -0.00000000000E+00 -0.00000000000E+00 -0.41199054900E+03  0.41199054900E+03  0.25500000000E-02 0.  1.
    -200001    2    1    2    0    0 -0.10788381547E+03  0.47734456846E+03  0.18042647873E+03  0.80530025108E+03  0.61356175360E+03 0.  0.
   -5000001    2    3    3    0    0 -0.33970141354E+03  0.22042154177E+03  0.17548421665E+03  0.44478081142E+03  0.55249918344E+02 0.  0.
     200001    1    1    2    0    0  0.10788381547E+03 -0.47734456846E+03  0.14455069036E+04  0.16446142292E+04  0.61300000000E+03 0. -1.
         13    1    4    4    0    0 -0.23381844907E+03  0.15090340130E+03  0.12669427828E+03  0.30576846627E+03  0.10566000000E+00 0.  1.
    -200003    1    4    4    0    0 -0.10588296447E+03  0.69518140463E+02  0.48789938376E+02  0.13901234515E+03  0.30000000000E+02 0. -1.
    -200000    1    3    3    0    0  0.23181759807E+03  0.25692302670E+03  0.49422620781E+01  0.36051943967E+03  0.10100000000E+03 0.  1.
<mgrwt>
<rscale>  0 0.18325997E+04</rscale>
<asrwt>0</asrwt>
<pdfrwt beam="1">  1        2 0.29113199E+00 0.18325997E+04</pdfrwt>
<pdfrwt beam="2">  1       -2 0.58855792E-01 0.18325997E+04</pdfrwt>
<totfact> 0.19537453E+01</totfact>
</mgrwt>
</event>
<event>
 8    2  0.4306980E-052  0.1248963E+04  0.7818608E-02  0.9071047E-01
         -2   -1    0    0    0  501 -0.00000000000E+00  0.00000000000E+00  0.26287654580E+03  0.26287654581E+03  0.25500000000E-02 0. -1.
          2   -1    0    0  501    0  0.00000000000E+00 -0.00000000000E+00 -0.14834998866E+04  0.14834998866E+04  0.25500000000E-02 0.  1.
    -200001    2    1    2    0    0 -0.19545772234E+02 -0.94717232021E+02 -0.70359598756E+03  0.93863905229E+03  0.61371211942E+03 0.  0.
   -5000001    2    3    3    0    0  0.14635554968E+03 -0.22444888603E+02 -0.70900008161E+03  0.73133072040E+03  0.10119183232E+03 0.  0.
     200001    1    1    2    0    0  0.19545772234E+02  0.94717232021E+02 -0.51702735325E+03  0.80773738013E+03  0.61300000000E+03 0. -1.
         13    1    4    4    0    0  0.46890840985E+02 -0.53042368668E+02 -0.26189170748E+03  0.27129231735E+03  0.10566000000E+00 0.  1.
    -200003    1    4    4    0    0  0.99464708697E+02  0.30597480065E+02 -0.44710837414E+03  0.46003840305E+03  0.30000000000E+02 0. -1.
    -200000    1    3    3    0    0 -0.16590132192E+03 -0.72272343418E+02  0.54040940542E+01  0.20730833189E+03  0.10100000000E+03 0. -1.
<mgrwt>
<rscale>  0 0.12489633E+04</rscale>
<asrwt>0</asrwt>
<pdfrwt beam="1">  1        2 0.21192855E+00 0.12489633E+04</pdfrwt>
<pdfrwt beam="2">  1       -2 0.37553793E-01 0.12489633E+04</pdfrwt>
<totfact> 0.98090777E+01</totfact>
</mgrwt>
</event>
<event>
 8    2  0.4306980E-052  0.1355424E+04  0.7818608E-02  0.8986733E-01
         -2   -1    0    0    0  501 -0.00000000000E+00  0.00000000000E+00  0.23122938995E+03  0.23122938997E+03  0.25500000000E-02 0. -1.
          2   -1    0    0  501    0  0.00000000000E+00 -0.00000000000E+00 -0.19863105487E+04  0.19863105487E+04  0.25500000000E-02 0.  1.
    -200001    2    1    2    0    0  0.14389923828E+03 -0.51346182609E+02 -0.47649821730E+03  0.79139592091E+03  0.61311787716E+03 0.  0.
   -5000001    2    3    3    0    0  0.18608333881E+03 -0.26369832656E+03 -0.43587615156E+03  0.54906539538E+03  0.85562681680E+02 0.  0.
     200001    1    1    2    0    0 -0.14389923828E+03  0.51346182609E+02 -0.12785829415E+04  0.14261440178E+04  0.61300000000E+03 0.  1.
         13    1    4    4    0    0  0.88236100274E+02 -0.63057427308E+02 -0.13272207890E+03  0.17139722846E+03  0.10566000000E+00 0.  1.
    -200003    1    4    4    0    0  0.97847238533E+02 -0.20064089925E+03 -0.30315407266E+03  0.37766816692E+03  0.30000000000E+02 0.  1.
    -200000    1    3    3    0    0 -0.42184100530E+02  0.21235214395E+03 -0.40622065745E+02  0.24233052553E+03  0.10100000000E+03 0. -1.
<mgrwt>
<rscale>  0 0.13554237E+04</rscale>
<asrwt>0</asrwt>
<pdfrwt beam="1">  1        2 0.28375864E+00 0.13554237E+04</pdfrwt>
<pdfrwt beam="2">  1       -2 0.33032771E-01 0.13554237E+04</pdfrwt>
<totfact> 0.68163145E+01</totfact>
</mgrwt>
</event>
<event>
 8    2  0.4306980E-052  0.1631590E+04  0.7818608E-02  0.8801372E-01
         -2   -1    0    0    0  501 -0.00000000000E+00  0.00000000000E+00  0.13561633979E+04  0.13561633979E+04  0.25500000000E-02 0. -1.
          2   -1    0    0  501    0  0.00000000000E+00 -0.00000000000E+00 -0.49073864003E+03  0.49073864004E+03  0.25500000000E-02 0.  1.
    -200001    2    1    2    0    0 -0.52887828179E+03  0.86213973381E+02  0.38147508562E+03  0.89973712546E+03  0.61388807435E+03 0.  0.
   -5000001    2    3    3    0    0  0.11742330474E+03  0.46109415497E+02  0.10780450789E+03  0.18951835534E+03  0.91548262659E+02 0.  0.
     200001    1    1    2    0    0  0.52887828179E+03 -0.86213973381E+02  0.48394967224E+03  0.94716491247E+03  0.61300000000E+03 0. -1.
         13    1    4    4    0    0  0.40650195082E+02  0.39649342578E+02  0.87619032347E+02  0.10441079791E+03  0.10566000000E+00 0.  1.
    -200003    1    4    4    0    0  0.76773109659E+02  0.64600729190E+01  0.20185475546E+02  0.85107557431E+02  0.30000000000E+02 0.  1.
    -200000    1    3    3    0    0 -0.64630158653E+03  0.40104557885E+02  0.27367057772E+03  0.71021877012E+03  0.10100000000E+03 0.  1.
<mgrwt>
<rscale>  0 0.16315904E+04</rscale>
<asrwt>0</asrwt>
<pdfrwt beam="1">  1        2 0.70105519E-01 0.16315904E+04</pdfrwt>
<pdfrwt beam="2">  1       -2 0.19373763E+00 0.16315904E+04</pdfrwt>
<totfact> 0.96157910E+00</totfact>
</mgrwt>
</event>
<event>
 8    2  0.4306980E-052  0.1397566E+04  0.7818608E-02  0.8955582E-01
          2   -1    0    0  501    0  0.00000000000E+00  0.00000000000E+00  0.79075096537E+03  0.79075096538E+03  0.25500000000E-02 0.  1.
         -2   -1    0    0    0  501 -0.00000000000E+00 -0.00000000000E+00 -0.61751107191E+03  0.61751107191E+03  0.25500000000E-02 0. -1.
    -200001    2    1    2    0    0  0.23234859373E+03  0.43600415369E+02 -0.15272236531E+03  0.67484042636E+03  0.61335031993E+03 0.  0.
   -5000001    2    3    3    0    0  0.15394554102E+03  0.19841754405E+03  0.12052892987E+03  0.33574950591E+03  0.18743467234E+03 0.  0.
     200001    1    1    2    0    0 -0.23234859373E+03 -0.43600415369E+02  0.32596225878E+03  0.73342161093E+03  0.61300000000E+03 0.  1.
         13    1    4    4    0    0 -0.11187822629E+02  0.13206485998E+03  0.58953926138E+02  0.14505816485E+03  0.10566000000E+00 0.  1.
    -200003    1    4    4    0    0  0.16513336365E+03  0.66352684073E+02  0.61575003736E+02  0.19069134107E+03  0.30000000000E+02 0.  1.
    -200000    1    3    3    0    0  0.78403052715E+02 -0.15481712869E+03 -0.27325129518E+03  0.33909092045E+03  0.10100000000E+03 0.  1.
<mgrwt>
<rscale>  0 0.13975657E+04</rscale>
<asrwt>0</asrwt>
<pdfrwt beam="1">  1        2 0.11296442E+00 0.13975657E+04</pdfrwt>
<pdfrwt beam="2">  1       -2 0.88215867E-01 0.13975657E+04</pdfrwt>
<totfact> 0.41649311E+01</totfact>
</mgrwt>
</event>
<event>
 8    2  0.4306980E-052  0.1568115E+04  0.7818608E-02  0.8840379E-01
          2   -1    0    0  501    0  0.00000000000E+00  0.00000000000E+00  0.27557692624E+04  0.27557692624E+04  0.25500000000E-02 0.  1.
         -2   -1    0    0    0  501 -0.00000000000E+00 -0.00000000000E+00 -0.22307601318E+03  0.22307601319E+03  0.25500000000E-02 0. -1.
    -200001    2    1    2    0    0  0.48481426352E+02 -0.17474961600E+03  0.40378558347E+03  0.75603068002E+03  0.61290432754E+03 0.  0.
   -5000001    2    3    3    0    0  0.19457286561E+03 -0.87730511794E+02  0.47979855431E+03  0.54414862590E+03  0.14260375739E+03 0.  0.
     200001    1    1    2    0    0 -0.48481426352E+02  0.17474961600E+03  0.21289076658E+04  0.22228145956E+04  0.61300000000E+03 0.  1.
         13    1    4    4    0    0  0.72175381879E+02 -0.32540954490E+02  0.51873491366E+02  0.94652362564E+02  0.10566000000E+00 0.  1.
    -200003    1    4    4    0    0  0.12239748373E+03 -0.55189557305E+02  0.42792506295E+03  0.44949626334E+03  0.30000000000E+02 0.  1.
    -200000    1    3    3    0    0 -0.14609143926E+03 -0.87019104207E+02 -0.76012970838E+02  0.21188205412E+03  0.10100000000E+03 0. -1.
<mgrwt>
<rscale>  0 0.15681148E+04</rscale>
<asrwt>0</asrwt>
<pdfrwt beam="1">  1        2 0.39368131E+00 0.15681148E+04</pdfrwt>
<pdfrwt beam="2">  1       -2 0.31868003E-01 0.15681148E+04</pdfrwt>
<totfact> 0.28426257E+01</totfact>
</mgrwt>
</event>
<event>
 8    2  0.4306980E-052  0.1963220E+04  0.7818608E-02  0.8624012E-01
          2   -1    0    0  501    0  0.00000000000E+00  0.00000000000E+00  0.11817808492E+04  0.11817808492E+04  0.25500000000E-02 0.  1.
         -2   -1    0    0    0  501 -0.00000000000E+00 -0.00000000000E+00 -0.81534456643E+03  0.81534456644E+03  0.25500000000E-02 0. -1.
    -200001    2    1    2    0    0 -0.65493736904E+03  0.28343255978E+03 -0.10197029947E+03  0.94619692159E+03  0.61287331411E+03 0.  0.
   -5000001    2    3    3    0    0 -0.62580835756E+03  0.40171590082E+03 -0.10403384279E+03  0.78794172804E+03  0.23878308350E+03 0.  0.
     200001    1    1    2    0    0  0.65493736904E+03 -0.28343255978E+03  0.46840658223E+03  0.10509284940E+04  0.61300000000E+03 0.  1.
         13    1    4    4    0    0 -0.48762977956E+03  0.36321467788E+03 -0.16374424925E+03  0.62969825669E+03  0.10566000000E+00 0.  1.
    -200003    1    4    4    0    0 -0.13817857800E+03  0.38501222936E+02  0.59710406455E+02  0.15824347135E+03  0.30000000000E+02 0.  1.
    -200000    1    3    3    0    0 -0.29129011475E+02 -0.11828334104E+03  0.20635433197E+01  0.15825519355E+03  0.10100000000E+03 0. -1.
<mgrwt>
<rscale>  0 0.19632204E+04</rscale>
<asrwt>0</asrwt>
<pdfrwt beam="1">  1        2 0.16882584E+00 0.19632204E+04</pdfrwt>
<pdfrwt beam="2">  1       -2 0.11647780E+00 0.19632204E+04</pdfrwt>
<totfact> 0.11704372E+01</totfact>
</mgrwt>
</event>
<event>
 8    2  0.4306980E-052  0.1703180E+04  0.7818608E-02  0.8759553E-01
         -2   -1    0    0    0  501 -0.00000000000E+00  0.00000000000E+00  0.19370129752E+04  0.19370129752E+04  0.25500000000E-02 0. -1.
          2   -1    0    0  501    0  0.00000000000E+00 -0.00000000000E+00 -0.37439378149E+03  0.37439378150E+03  0.25500000000E-02 0.  1.
    -200001    2    1    2    0    0 -0.27684625583E+03  0.48316699446E+03  0.10521031199E+04  0.13385296548E+04  0.61208370977E+03 0.  0.
   -5000001    2    3    3    0    0 -0.28059315050E+03  0.43472911871E+02  0.71693404458E+03  0.77649386002E+03  0.91246261305E+02 0.  0.
     200001    1    1    2    0    0  0.27684625583E+03 -0.48316699446E+03  0.51051607376E+03  0.97287710194E+03  0.61300000000E+03 0.  1.
         13    1    4    4    0    0 -0.90519263738E+02 -0.10285449728E+02  0.31078760846E+03  0.32386490442E+03  0.10566000000E+00 0.  1.
    -200003    1    4    4    0    0 -0.19007388676E+03  0.53758361599E+02  0.40614643612E+03  0.45262895559E+03  0.30000000000E+02 0.  1.
    -200000    1    3    3    0    0  0.37468946646E+01  0.43969408259E+03  0.33516907536E+03  0.56203579474E+03  0.10100000000E+03 0. -1.
<mgrwt>
<rscale>  0 0.17031801E+04</rscale>
<asrwt>0</asrwt>
<pdfrwt beam="1">  1        2 0.53484826E-01 0.17031801E+04</pdfrwt>
<pdfrwt beam="2">  1       -2 0.27671614E+00 0.17031801E+04</pdfrwt>
<totfact> 0.39218297E+00</totfact>
</mgrwt>
</event>
<event>
 8    2  0.4306980E-052  0.1361620E+04  0.7818608E-02  0.8982078E-01
          2   -1    0    0  501    0  0.00000000000E+00  0.00000000000E+00  0.66984532373E+03  0.66984532373E+03  0.25500000000E-02 0.  1.
         -2   -1    0    0    0  501 -0.00000000000E+00 -0.00000000000E+00 -0.69195450569E+03  0.69195450569E+03  0.25500000000E-02 0. -1.
    -200001    2    1    2    0    0  0.69904097702E+02 -0.54703254021E+00 -0.29998424297E+03  0.68513859095E+03  0.61199465738E+03 0.  0.
   -5000001    2    3    3    0    0  0.16286542747E+03  0.26038023241E+03 -0.12002604780E+03  0.33972463866E+03  0.81753073731E+02 0.  0.
     200001    1    1    2    0    0 -0.69904097702E+02  0.54703254021E+00  0.27787506101E+03  0.67666123847E+03  0.61300000000E+03 0.  1.
         13    1    4    4    0    0  0.94950450873E+02  0.17169604378E+03 -0.43281841337E+02  0.20091900986E+03  0.10566000000E+00 0.  1.
    -200003    1    4    4    0    0  0.67914976599E+02  0.88684188635E+02 -0.76744206464E+02  0.13880562880E+03  0.30000000000E+02 0.  1.
    -200000    1    3    3    0    0 -0.92961329770E+02 -0.26092726495E+03 -0.17995819517E+03  0.34541395229E+03  0.10100000000E+03 0.  1.
<mgrwt>
<rscale>  0 0.13616203E+04</rscale>
<asrwt>0</asrwt>
<pdfrwt beam="1">  1        2 0.95692190E-01 0.13616203E+04</pdfrwt>
<pdfrwt beam="2">  1       -2 0.98850643E-01 0.13616203E+04</pdfrwt>
<totfact> 0.39435926E+01</totfact>
</mgrwt>
</event>
<event>
 8    2  0.4306980E-052  0.1478184E+04  0.7818608E-02  0.8899092E-01
         -2   -1    0    0    0  501 -0.00000000000E+00  0.00000000000E+00  0.20639394066E+03  0.20639394067E+03  0.25500000000E-02 0. -1.
          2   -1    0    0  501    0  0.00000000000E+00 -0.00000000000E+00 -0.26466701380E+04  0.26466701380E+04  0.25500000000E-02 0.  1.
    -200001    2    1    2    0    0  0.15227772015E+03  0.38332177118E+03 -0.12090129504E+04  0.14171315358E+04  0.61353515897E+03 0.  0.
   -5000001    2    3    3    0    0 -0.15486137431E+03  0.35925798655E+03 -0.52276807524E+03  0.65815425175E+03  0.82657198400E+02 0.  0.
     200001    1    1    2    0    0 -0.15227772015E+03 -0.38332177118E+03 -0.12312632469E+04  0.14359325428E+04  0.61300000000E+03 0. -1.
         13    1    4    4    0    0 -0.40667405780E+02  0.33864681239E+02 -0.84016284636E+02  0.99294520374E+02  0.10566000000E+00 0.  1.
    -200003    1    4    4    0    0 -0.11419396853E+03  0.32539330531E+03 -0.43875179061E+03  0.55885973137E+03  0.30000000000E+02 0.  1.
    -200000    1    3    3    0    0  0.30713909446E+03  0.24063784630E+02 -0.68624487516E+03  0.75897728409E+03  0.10100000000E+03 0. -1.
<mgrwt>
<rscale>  0 0.14781836E+04</rscale>
<asrwt>0</asrwt>
<pdfrwt beam="1">  1        2 0.37809571E+00 0.14781836E+04</pdfrwt>
<pdfrwt beam="2">  1       -2 0.29484850E-01 0.14781836E+04</pdfrwt>
<totfact> 0.37898103E+01</totfact>
</mgrwt>
</event>
<event>
 8    2  0.4306980E-052  0.1568416E+04  0.7818608E-02  0.8840190E-01
         -2   -1    0    0    0  501 -0.00000000000E+00  0.00000000000E+00  0.24766966278E+03  0.24766966279E+03  0.25500000000E-02 0. -1.
          2   -1    0    0  501    0  0.00000000000E+00 -0.00000000000E+00 -0.24830730518E+04  0.24830730518E+04  0.25500000000E-02 0.  1.
    -200001    2    1    2    0    0  0.27088526885E+03  0.20092834893E+03 -0.17351699363E+04  0.18706534532E+04  0.61219163984E+03 0.  0.
   -5000001    2    3    3    0    0  0.39999095154E+03  0.16265763972E+03 -0.73262984915E+03  0.85408050904E+03  0.79099626935E+02 0.  0.
     200001    1    1    2    0    0 -0.27088526885E+03 -0.20092834893E+03 -0.50023345268E+03  0.86008926134E+03  0.61300000000E+03 0. -1.
         13    1    4    4    0    0  0.33007594589E+03  0.11863853926E+03 -0.59890682648E+03  0.69405664828E+03  0.10566000000E+00 0.  1.
    -200003    1    4    4    0    0  0.69915005644E+02  0.44019100455E+02 -0.13372302268E+03  0.16002386076E+03  0.30000000000E+02 0. -1.
    -200000    1    3    3    0    0 -0.12910568268E+03  0.38270709218E+02 -0.10025400872E+04  0.10165729442E+04  0.10100000000E+03 0.  1.
<mgrwt>
<rscale>  0 0.15684156E+04</rscale>
<asrwt>0</asrwt>
<pdfrwt beam="1">  1        2 0.35472471E+00 0.15684156E+04</pdfrwt>
<pdfrwt beam="2">  1       -2 0.35381382E-01 0.15684156E+04</pdfrwt>
<totfact> 0.32548302E+01</totfact>
</mgrwt>
</event>
<event>
 8    2  0.4306980E-052  0.1970821E+04  0.7818608E-02  0.8620385E-01
          2   -1    0    0  501    0  0.00000000000E+00  0.00000000000E+00  0.24587325873E+04  0.24587325873E+04  0.25500000000E-02 0.  1.
         -2   -1    0    0    0  501 -0.00000000000E+00 -0.00000000000E+00 -0.39493279901E+03  0.39493279902E+03  0.25500000000E-02 0. -1.
    -200001    2    1    2    0    0  0.42814968993E+01 -0.70589796583E+03  0.57969366662E+03  0.10996271171E+04  0.61222935263E+03 0.  0.
   -5000001    2    3    3    0    0  0.19480171061E+03 -0.63391942514E+03  0.56067788953E+03  0.87150113892E+03  0.73164166737E+02 0.  0.
     200001    1    1    2    0    0 -0.42814968993E+01  0.70589796583E+03  0.14841061216E+04  0.17540382692E+04  0.61300000000E+03 0.  1.
         13    1    4    4    0    0  0.59843717290E+02 -0.16322361301E+03  0.18272904342E+03  0.25221644042E+03  0.10566000000E+00 0.  1.
    -200003    1    4    4    0    0  0.13495799332E+03 -0.47069581213E+03  0.37794884611E+03  0.61928469850E+03  0.30000000000E+02 0. -1.
    -200000    1    3    3    0    0 -0.19052021371E+03 -0.71978540689E+02  0.19015777083E+02  0.22812597820E+03  0.10100000000E+03 0. -1.
<mgrwt>
<rscale>  0 0.19708213E+04</rscale>
<asrwt>0</asrwt>
<pdfrwt beam="1">  1        2 0.35124753E+00 0.19708213E+04</pdfrwt>
<pdfrwt beam="2">  1       -2 0.56418969E-01 0.19708213E+04</pdfrwt>
<totfact> 0.12769699E+01</totfact>
</mgrwt>
</event>
<event>
 8    2  0.4306980E-052  0.1759923E+04  0.7818608E-02  0.8727907E-01
         -2   -1    0    0    0  501 -0.00000000000E+00  0.00000000000E+00  0.17757741343E+03  0.17757741345E+03  0.25500000000E-02 0. -1.
          2   -1    0    0  501    0  0.00000000000E+00 -0.00000000000E+00 -0.43605358592E+04  0.43605358592E+04  0.25500000000E-02 0.  1.
    -200001    2    1    2    0    0 -0.51318867912E+03  0.89698923354E+02 -0.11797340729E+04  0.14290082324E+04  0.61553515610E+03 0.  0.
   -5000001    2    3    3    0    0 -0.31451296112E+03 -0.45920321201E+02 -0.11124542796E+04  0.11595788521E+04  0.77727160135E+02 0.  0.
     200001    1    1    2    0    0  0.51318867912E+03 -0.89698923354E+02 -0.30032243729E+04  0.31091050402E+04  0.61300000000E+03 0.  1.
         13    1    4    4    0    0 -0.18972250069E+03 -0.30436927093E+02 -0.76776204263E+03  0.79144146914E+03  0.10566000000E+00 0.  1.
    -200003    1    4    4    0    0 -0.12479046043E+03 -0.15483394108E+02 -0.34469223694E+03  0.36813738293E+03  0.30000000000E+02 0. -1.
    -200000    1    3    3    0    0 -0.19867571800E+03  0.13561924456E+03 -0.67279793324E+02  0.26942938037E+03  0.10100000000E+03 0. -1.
<mgrwt>
<rscale>  0 0.17599235E+04</rscale>
<asrwt>0</asrwt>
<pdfrwt beam="1">  1        2 0.62293363E+00 0.17599235E+04</pdfrwt>
<pdfrwt beam="2">  1       -2 0.25368205E-01 0.17599235E+04</pdfrwt>
<totfact> 0.42034098E+00</totfact>
</mgrwt>
</event>
<event>
 8    2  0.4306980E-052  0.1391719E+04  0.7818608E-02  0.8959835E-01
          2   -1    0    0  501    0  0.00000000000E+00  0.00000000000E+00  0.24276483394E+04  0.24276483394E+04  0.25500000000E-02 0.  1.
         -2   -1    0    0    0  501 -0.00000000000E+00 -0.00000000000E+00 -0.19946072538E+03  0.19946072540E+03  0.25500000000E-02 0. -1.
    -200001    2    1    2    0    0  0.15422024089E+03 -0.13484734212E+03  0.16019976679E+04  0.17271921036E+04  0.61223226522E+03 0.  0.
   -5000001    2    3    3    0    0  0.26697290835E+03 -0.30752237480E+03  0.97989507183E+03  0.10640612938E+04  0.78660920288E+02 0.  0.
     200001    1    1    2    0    0 -0.15422024089E+03  0.13484734212E+03  0.62618994620E+03  0.89991696123E+03  0.61300000000E+03 0. -1.
         13    1    4    4    0    0  0.89453508647E+02 -0.11761163315E+03  0.43875536690E+03  0.46296944781E+03  0.10566000000E+00 0.  1.
    -200003    1    4    4    0    0  0.17751939970E+03 -0.18991074165E+03  0.54113970493E+03  0.60109184599E+03  0.30000000000E+02 0.  1.
    -200000    1    3    3    0    0 -0.11275266746E+03  0.17267503267E+03  0.62210259602E+03  0.66313080980E+03  0.10100000000E+03 0. -1.
<mgrwt>
<rscale>  0 0.13917191E+04</rscale>
<asrwt>0</asrwt>
<pdfrwt beam="1">  1        2 0.34680692E+00 0.13917191E+04</pdfrwt>
<pdfrwt beam="2">  1       -2 0.28494388E-01 0.13917191E+04</pdfrwt>
<totfact> 0.53041026E+01</totfact>
</mgrwt>
</event>
<event>
 8    2  0.4306980E-052  0.2228142E+04  0.7818608E-02  0.8506805E-01
          2   -1    0    0  501    0  0.00000000000E+00  0.00000000000E+00  0.46079594837E+03  0.46079594838E+03  0.25500000000E-02 0.  1.
         -2   -1    0    0    0  501 -0.00000000000E+00 -0.00000000000E+00 -0.26934997894E+04  0.26934997894E+04  0.25500000000E-02 0. -1.
    -200001    2    1    2    0    0 -0.71969102772E+03 -0.13094760761E+03 -0.19300228565E+04  0.21530528953E+04  0.61281815568E+03 0.  0.
   -5000001    2    3    3    0    0 -0.19002244313E+03  0.38253308641E+02 -0.12535982903E+04  0.12716171612E+04  0.89048788271E+02 0.  0.
     200001    1    1    2    0    0  0.71969102772E+03  0.13094760761E+03 -0.30268098457E+03  0.10012428425E+04  0.61300000000E+03 0.  1.
         13    1    4    4    0    0 -0.79807689219E+02 -0.10842102521E+01 -0.72548393797E+03  0.72986121845E+03  0.10566000000E+00 0.  1.
    -200003    1    4    4    0    0 -0.11021475391E+03  0.39337518893E+02 -0.52811435229E+03  0.54175594271E+03  0.30000000000E+02 0.  1.
    -200000    1    3    3    0    0 -0.52966858460E+03 -0.16920091625E+03 -0.67642456622E+03  0.88143573410E+03  0.10100000000E+03 0.  1.
<mgrwt>
<rscale>  0 0.22281416E+04</rscale>
<asrwt>0</asrwt>
<pdfrwt beam="1">  1        2 0.65827994E-01 0.22281416E+04</pdfrwt>
<pdfrwt beam="2">  1       -2 0.38478568E+00 0.22281416E+04</pdfrwt>
<totfact> 0.63002113E-01</totfact>
</mgrwt>
</event>
<event>
 8    2  0.4306980E-052  0.2877288E+04  0.7818608E-02  0.8279667E-01
          2   -1    0    0  501    0  0.00000000000E+00  0.00000000000E+00  0.21843107682E+04  0.21843107682E+04  0.25500000000E-02 0.  1.
         -2   -1    0    0    0  501 -0.00000000000E+00 -0.00000000000E+00 -0.94752841207E+03  0.94752841208E+03  0.25500000000E-02 0. -1.
    -200001    2    1    2    0    0 -0.58329979336E+03 -0.11438131961E+04  0.38626185898E+03  0.14742199862E+04  0.61284505989E+03 0.  0.
   -5000001    2    3    3    0    0 -0.58080322508E+03 -0.51409365752E+03  0.14682688483E+03  0.79298358302E+03  0.75100957873E+02 0.  0.
     200001    1    1    2    0    0  0.58329979336E+03  0.11438131961E+04  0.85052049714E+03  0.16576191941E+04  0.61300000000E+03 0.  1.
         13    1    4    4    0    0 -0.35836113329E+03 -0.34093657899E+03  0.11404880905E+03  0.50760968742E+03  0.10566000000E+00 0.  1.
    -200003    1    4    4    0    0 -0.22244209179E+03 -0.17315707853E+03  0.32778075782E+02  0.28537389561E+03  0.30000000000E+02 0.  1.
    -200000    1    3    3    0    0 -0.24965682749E+01 -0.62971953860E+03  0.23943497415E+03  0.68123640316E+03  0.10100000000E+03 0.  1.
<mgrwt>
<rscale>  0 0.28772880E+04</rscale>
<asrwt>0</asrwt>
<pdfrwt beam="1">  1        2 0.31204440E+00 0.28772880E+04</pdfrwt>
<pdfrwt beam="2">  1       -2 0.13536120E+00 0.28772880E+04</pdfrwt>
<totfact> 0.21996008E+00</totfact>
</mgrwt>
</event>
<event>
 8    2  0.4306980E-052  0.1280990E+04  0.7818608E-02  0.9044777E-01
          2   -1    0    0  501    0  0.00000000000E+00  0.00000000000E+00  0.15270028329E+04  0.15270028329E+04  0.25500000000E-02 0.  1.
         -2   -1    0    0    0  501 -0.00000000000E+00 -0.00000000000E+00 -0.26865314713E+03  0.26865314714E+03  0.25500000000E-02 0. -1.
    -200001    2    1    2    0    0  0.13242448669E+03 -0.11071911905E+03  0.53325852409E+03  0.83060615711E+03  0.61298202805E+03 0.  0.
   -5000001    2    3    3    0    0 -0.72150362444E+02 -0.28315820208E+03  0.43623527000E+03  0.52861175635E+03  0.61195881845E+02 0.  0.
     200001    1    1    2    0    0 -0.13242448669E+03  0.11071911905E+03  0.72509116165E+03  0.96504982291E+03  0.61300000000E+03 0.  1.
         13    1    4    4    0    0 -0.19955949600E+02 -0.16226086495E+03  0.24033662948E+03  0.29066911576E+03  0.10566000000E+00 0.  1.
    -200003    1    4    4    0    0 -0.52194412844E+02 -0.12089733713E+03  0.19589864051E+03  0.23794264059E+03  0.30000000000E+02 0.  1.
    -200000    1    3    3    0    0  0.20457484914E+03  0.17243908303E+03  0.97023254094E+02  0.30199440076E+03  0.10100000000E+03 0. -1.
<mgrwt>
<rscale>  0 0.12809904E+04</rscale>
<asrwt>0</asrwt>
<pdfrwt beam="1">  1        2 0.21814326E+00 0.12809904E+04</pdfrwt>
<pdfrwt beam="2">  1       -2 0.38379020E-01 0.12809904E+04</pdfrwt>
<totfact> 0.88977864E+01</totfact>
</mgrwt>
</event>
<event>
 8    2  0.4306980E-052  0.3591049E+04  0.7818608E-02  0.8092545E-01
          2   -1    0    0  501    0  0.00000000000E+00  0.00000000000E+00  0.47779648225E+04  0.47779648225E+04  0.25500000000E-02 0. -1.
         -2   -1    0    0    0  501 -0.00000000000E+00 -0.00000000000E+00 -0.67474524633E+03  0.67474524633E+03  0.25500000000E-02 0.  1.
    -200001    2    1    2    0    0 -0.15797025065E+04 -0.34344313386E+03  0.13252721211E+04  0.21806809953E+04  0.62097521131E+03 0.  0.
   -5000001    2    3    3    0    0 -0.12279603407E+04 -0.78611534513E+02  0.11715125046E+04  0.17035003724E+04  0.12411929214E+03 0.  0.
     200001    1    1    2    0    0  0.15797025065E+04  0.34344313386E+03  0.27779474550E+04  0.32720290735E+04  0.61300000000E+03 0. -1.
         13    1    4    4    0    0 -0.58023474858E+03 -0.24824255031E+02  0.47411297571E+03  0.74971443363E+03  0.10566000000E+00 0.  1.
    -200003    1    4    4    0    0 -0.64772559216E+03 -0.53787279482E+02  0.69739952885E+03  0.95378593878E+03  0.30000000000E+02 0.  1.
    -200000    1    3    3    0    0 -0.35174216572E+03 -0.26483159934E+03  0.15375961656E+03  0.47718062287E+03  0.10100000000E+03 0.  1.
<mgrwt>
<rscale>  0 0.35910495E+04</rscale>
<asrwt>0</asrwt>
<pdfrwt beam="1">  1        2 0.68256641E+00 0.35910495E+04</pdfrwt>
<pdfrwt beam="2">  1       -2 0.96392177E-01 0.35910495E+04</pdfrwt>
<totfact> 0.10436936E-01</totfact>
</mgrwt>
</event>
<event>
 8    2  0.4306980E-052  0.1651515E+04  0.7818608E-02  0.8789511E-01
          2   -1    0    0  501    0  0.00000000000E+00  0.00000000000E+00  0.12039729764E+04  0.12039729764E+04  0.25500000000E-02 0.  1.
         -2   -1    0    0    0  501 -0.00000000000E+00 -0.00000000000E+00 -0.56635413272E+03  0.56635413272E+03  0.25500000000E-02 0. -1.
    -200001    2    1    2    0    0 -0.29270214206E+03  0.17281147153E+03  0.78651707284E+03  0.10537532949E+04  0.61339102697E+03 0.  0.
   -5000001    2    3    3    0    0  0.70634079954E+02  0.19973870512E+03  0.57573440749E+03  0.62089232628E+03  0.95668434112E+02 0.  0.
     200001    1    1    2    0    0  0.29270214206E+03 -0.17281147153E+03 -0.14889822912E+03  0.71657381427E+03  0.61300000000E+03 0. -1.
         13    1    4    4    0    0 -0.20791025282E+02  0.53428995418E+02  0.14481464340E+03  0.15575049403E+03  0.10566000000E+00 0.  1.
    -200003    1    4    4    0    0  0.91425105236E+02  0.14630970970E+03  0.43091976410E+03  0.46514183225E+03  0.30000000000E+02 0.  1.
    -200000    1    3    3    0    0 -0.36333622202E+03 -0.26927233593E+02  0.21078266534E+03  0.43286096861E+03  0.10100000000E+03 0.  1.
<mgrwt>
<rscale>  0 0.16515145E+04</rscale>
<asrwt>0</asrwt>
<pdfrwt beam="1">  1        2 0.17199614E+00 0.16515145E+04</pdfrwt>
<pdfrwt beam="2">  1       -2 0.80907733E-01 0.16515145E+04</pdfrwt>
<totfact> 0.27435023E+01</totfact>
</mgrwt>
</event>
<event>
 8    2  0.4306980E-052  0.1808114E+04  0.7818608E-02  0.8701997E-01
          2   -1    0    0  501    0  0.00000000000E+00  0.00000000000E+00  0.38682807397E+04  0.38682807397E+04  0.25500000000E-02 0.  1.
         -2   -1    0    0    0  501 -0.00000000000E+00 -0.00000000000E+00 -0.21128733759E+03  0.21128733760E+03  0.25500000000E-02 0. -1.
    -200001    2    1    2    0    0 -0.19394667401E+03 -0.36536819806E+02  0.32603270529E+04  0.33232193190E+04  0.61245726296E+03 0.  0.
   -5000001    2    3    3    0    0 -0.40342729069E+02  0.15767870596E+03  0.24259929884E+04  0.24470753962E+04  0.27612661001E+03 0.  0.
     200001    1    1    2    0    0  0.19394667401E+03  0.36536819806E+02  0.39666634925E+03  0.75634875831E+03  0.61300000000E+03 0. -1.
         13    1    4    4    0    0 -0.98241700854E+02  0.11693436642E+03  0.22480244632E+04  0.22532063990E+04  0.10566000000E+00 0.  1.
    -200003    1    4    4    0    0  0.57898971785E+02  0.40744339534E+02  0.17796852519E+03  0.19386899725E+03  0.30000000000E+02 0.  1.
    -200000    1    3    3    0    0 -0.15360394494E+03 -0.19421552576E+03  0.83433406443E+03  0.87614392277E+03  0.10100000000E+03 0. -1.
<mgrwt>
<rscale>  0 0.18081136E+04</rscale>
<asrwt>0</asrwt>
<pdfrwt beam="1">  1        2 0.55261151E+00 0.18081136E+04</pdfrwt>
<pdfrwt beam="2">  1       -2 0.30183907E-01 0.18081136E+04</pdfrwt>
<totfact> 0.67665061E+00</totfact>
</mgrwt>
</event>
<event>
 8    2  0.4306980E-052  0.1996763E+04  0.7818608E-02  0.8608136E-01
          2   -1    0    0  501    0  0.00000000000E+00  0.00000000000E+00  0.45376593360E+03  0.45376593361E+03  0.25500000000E-02 0.  1.
         -2   -1    0    0    0  501 -0.00000000000E+00 -0.00000000000E+00 -0.21966509298E+04  0.21966509298E+04  0.25500000000E-02 0. -1.
    -200001    2    1    2    0    0 -0.11815613427E+03  0.31109285775E+03  0.76337562096E+02  0.70206387823E+03  0.61345466623E+03 0.  0.
   -5000001    2    3    3    0    0 -0.22333526530E+02  0.42860620170E+03  0.19393897657E+03  0.48521727151E+03  0.11671080238E+03 0.  0.
     200001    1    1    2    0    0  0.11815613427E+03 -0.31109285775E+03 -0.18192225583E+04  0.19483529852E+04  0.61300000000E+03 0. -1.
         13    1    4    4    0    0  0.38403946949E+02  0.26164627164E+03  0.10926887568E+03  0.28613516554E+03  0.10566000000E+00 0.  1.
    -200003    1    4    4    0    0 -0.60737473479E+02  0.16695993006E+03  0.84670100893E+02  0.19908210597E+03  0.30000000000E+02 0. -1.
    -200000    1    3    3    0    0 -0.95822607745E+02 -0.11751334395E+03 -0.11760141448E+03  0.21684660672E+03  0.10100000000E+03 0. -1.
<mgrwt>
<rscale>  0 0.19967627E+04</rscale>
<asrwt>0</asrwt>
<pdfrwt beam="1">  1        2 0.64823706E-01 0.19967627E+04</pdfrwt>
<pdfrwt beam="2">  1       -2 0.31380727E+00 0.19967627E+04</pdfrwt>
<totfact> 0.18311255E+00</totfact>
</mgrwt>
</event>
<event>
 8    2  0.4306980E-052  0.1460600E+04  0.7818608E-02  0.8911085E-01
          2   -1    0    0  501    0  0.00000000000E+00  0.00000000000E+00  0.89636248398E+03  0.89636248398E+03  0.25500000000E-02 0.  1.
         -2   -1    0    0    0  501 -0.00000000000E+00 -0.00000000000E+00 -0.59500238677E+03  0.59500238678E+03  0.25500000000E-02 0. -1.
    -200001    2    1    2    0    0 -0.26977059670E+03  0.74371623995E+02 -0.13723075960E+03  0.68735103196E+03  0.61262700435E+03 0.  0.
   -5000001    2    3    3    0    0 -0.41288255697E+03 -0.88537411527E+02 -0.11390586243E+03  0.44700661689E+03  0.92355243274E+02 0.  0.
     200001    1    1    2    0    0  0.26977059670E+03 -0.74371623995E+02  0.43859085681E+03  0.80401383880E+03  0.61300000000E+03 0.  1.
         13    1    4    4    0    0 -0.95902869265E+02  0.13542314207E+02 -0.38657814455E+02  0.10428419051E+03  0.10566000000E+00 0.  1.
    -200003    1    4    4    0    0 -0.31697968771E+03 -0.10207972573E+03 -0.75248047970E+02  0.34272242638E+03  0.30000000000E+02 0.  1.
    -200000    1    3    3    0    0  0.14311196027E+03  0.16290903552E+03 -0.23324897175E+02  0.24034441507E+03  0.10100000000E+03 0.  1.
<mgrwt>
<rscale>  0 0.14605996E+04</rscale>
<asrwt>0</asrwt>
<pdfrwt beam="1">  1        2 0.12805178E+00 0.14605996E+04</pdfrwt>
<pdfrwt beam="2">  1       -2 0.85000341E-01 0.14605996E+04</pdfrwt>
<totfact> 0.38253685E+01</totfact>
</mgrwt>
</event>
<event>
 8    2  0.4306980E-052  0.2095323E+04  0.7818608E-02  0.8563306E-01
          2   -1    0    0  501    0  0.00000000000E+00  0.00000000000E+00  0.22750586857E+04  0.22750586857E+04  0.25500000000E-02 0.  1.
         -2   -1    0    0    0  501 -0.00000000000E+00 -0.00000000000E+00 -0.48244690128E+03  0.48244690129E+03  0.25500000000E-02 0. -1.
    -200001    2    1    2    0    0  0.57565161379E+03 -0.27124512899E+03  0.15623601689E+03  0.89781653960E+03  0.61377206302E+03 0.  0.
   -5000001    2    3    3    0    0  0.27850644254E+03  0.14118453468E+03  0.16202182902E+03  0.37952322892E+03  0.14243558840E+03 0.  0.
     200001    1    1    2    0    0 -0.57565161379E+03  0.27124512899E+03  0.16363757675E+04  0.18596890474E+04  0.61300000000E+03 0.  1.
         13    1    4    4    0    0  0.11177614685E+03  0.11944759729E+03  0.36632463895E+02  0.16764123621E+03  0.10566000000E+00 0.  1.
    -200003    1    4    4    0    0  0.16673029569E+03  0.21736937389E+02  0.12538936512E+03  0.21188199271E+03  0.30000000000E+02 0.  1.
    -200000    1    3    3    0    0  0.29714517125E+03 -0.41242966367E+03 -0.57858121239E+01  0.51829331068E+03  0.10100000000E+03 0. -1.
<mgrwt>
<rscale>  0 0.20953234E+04</rscale>
<asrwt>0</asrwt>
<pdfrwt beam="1">  1        2 0.32500839E+00 0.20953234E+04</pdfrwt>
<pdfrwt beam="2">  1       -2 0.68920985E-01 0.20953234E+04</pdfrwt>
<totfact> 0.10291452E+01</totfact>
</mgrwt>
</event>
<event>
 8    2  0.4306980E-052  0.1420251E+04  0.7818608E-02  0.8939289E-01
         -2   -1    0    0    0  501 -0.00000000000E+00  0.00000000000E+00  0.41966511506E+03  0.41966511507E+03  0.25500000000E-02 0. -1.
          2   -1    0    0  501    0  0.00000000000E+00 -0.00000000000E+00 -0.12016200757E+04  0.12016200757E+04  0.25500000000E-02 0.  1.
    -200001    2    1    2    0    0  0.61225351889E+02 -0.26140289496E+03 -0.12095611212E+03  0.68066385624E+03  0.61367164423E+03 0.  0.
   -5000001    2    3    3    0    0  0.16308919371E+03 -0.87111956832E+02  0.19798422936E+03  0.28992415413E+03  0.10330383313E+03 0.  0.
     200001    1    1    2    0    0 -0.61225351889E+02  0.26140289496E+03 -0.66099884850E+03  0.94062133451E+03  0.61300000000E+03 0.  1.
         13    1    4    4    0    0 -0.75852901262E+01 -0.27479572348E+02  0.28218221845E+02  0.40111628374E+02  0.10566000000E+00 0.  1.
    -200003    1    4    4    0    0  0.17067448384E+03 -0.59632384485E+02  0.16976600752E+03  0.24981252575E+03  0.30000000000E+02 0.  1.
    -200000    1    3    3    0    0 -0.10186384183E+03 -0.17429093813E+03 -0.31894034148E+03  0.39073970212E+03  0.10100000000E+03 0.  1.
<mgrwt>
<rscale>  0 0.14202507E+04</rscale>
<asrwt>0</asrwt>
<pdfrwt beam="1">  1        2 0.17166001E+00 0.14202507E+04</pdfrwt>
<pdfrwt beam="2">  1       -2 0.59952160E-01 0.14202507E+04</pdfrwt>
<totfact> 0.53838502E+01</totfact>
</mgrwt>
</event>
