<event>
 4    1  0.6705655E-006  0.6810923E+03  0.7818608E-02  0.9750125E-01
         -2   -1    0    0    0  501 -0.00000000000E+00  0.00000000000E+00  0.47326795842E+03  0.47326795843E+03  0.25500000000E-02 0. -1.
          2   -1    0    0  501    0  0.00000000000E+00 -0.00000000000E+00 -0.24504447234E+03  0.24504447235E+03  0.25500000000E-02 0.  1.
   -5000001    1    1    2    0    0  0.22009279320E+03 -0.67664988511E+02  0.13654151868E+03  0.36628264307E+03  0.25000000000E+03 0.  0.
    5000001    1    1    2    0    0 -0.22009279320E+03  0.67664988511E+02  0.91681967404E+02  0.35202978771E+03  0.25000000000E+03 0.  0.
<mgrwt>
<rscale>  0 0.68109235E+03</rscale>
<asrwt>0</asrwt>
<pdfrwt beam="1">  1        2 0.37699150E-01 0.68109235E+03</pdfrwt>
<pdfrwt beam="2">  1       -2 0.72810455E-01 0.68109235E+03</pdfrwt>
<totfact> 0.23702663E+02</totfact>
</mgrwt>
</event>
<event>
 4    1  0.6705655E-006  0.1350684E+04  0.7818608E-02  0.8990311E-01
         -2   -1    0    0    0  501 -0.00000000000E+00  0.00000000000E+00  0.37063135759E+03  0.37063135760E+03  0.25500000000E-02 0. -1.
          2   -1    0    0  501    0  0.00000000000E+00 -0.00000000000E+00 -0.12305667310E+04  0.12305667310E+04  0.25500000000E-02 0.  1.
   -5000001    1    1    2    0    0  0.38569083657E+03  0.37867885939E+03 -0.80752063439E+03  0.10033666702E+04  0.25000000000E+03 0.  0.
    5000001    1    1    2    0    0 -0.38569083657E+03 -0.37867885939E+03 -0.52414739048E+02  0.59783141840E+03  0.25000000000E+03 0.  0.
<mgrwt>
<rscale>  0 0.13506837E+04</rscale>
<asrwt>0</asrwt>
<pdfrwt beam="1">  1        2 0.18931796E+00 0.13506837E+04</pdfrwt>
<pdfrwt beam="2">  1       -2 0.57020209E-01 0.13506837E+04</pdfrwt>
<totfact> 0.51145389E+01</totfact>
</mgrwt>
</event>
<event>
 4    1  0.6705655E-006  0.1185595E+04  0.7818608E-02  0.9125559E-01
         -2   -1    0    0    0  501 -0.00000000000E+00  0.00000000000E+00  0.46498360445E+03  0.46498360445E+03  0.25500000000E-02 0. -1.
          2   -1    0    0  501    0  0.00000000000E+00 -0.00000000000E+00 -0.75574510571E+03  0.75574510571E+03  0.25500000000E-02 0.  1.
   -5000001    1    1    2    0    0  0.10402191248E+03 -0.51601785756E+03 -0.25729436293E+03  0.63702070358E+03  0.25000000000E+03 0.  0.
    5000001    1    1    2    0    0 -0.10402191248E+03  0.51601785756E+03 -0.33467138330E+02  0.58370800658E+03  0.25000000000E+03 0.  0.
<mgrwt>
<rscale>  0 0.11855953E+04</rscale>
<asrwt>0</asrwt>
<pdfrwt beam="1">  1        2 0.11626848E+00 0.11855953E+04</pdfrwt>
<pdfrwt beam="2">  1       -2 0.71535939E-01 0.11855953E+04</pdfrwt>
<totfact> 0.65033765E+01</totfact>
</mgrwt>
</event>
<event>
 4    1  0.6705655E-006  0.6822219E+03  0.7818608E-02  0.9748128E-01
         -2   -1    0    0    0  501 -0.00000000000E+00  0.00000000000E+00  0.70113538266E+02  0.70113538313E+02  0.25500000000E-02 0. -1.
          2   -1    0    0  501    0  0.00000000000E+00 -0.00000000000E+00 -0.16595465893E+04  0.16595465893E+04  0.25500000000E-02 0.  1.
   -5000001    1    1    2    0    0 -0.18358127943E+03 -0.11482569802E+03 -0.10063775000E+04  0.10593312511E+04  0.25000000000E+03 0.  0.
    5000001    1    1    2    0    0  0.18358127943E+03  0.11482569802E+03 -0.58305555108E+03  0.67032887654E+03  0.25000000000E+03 0.  0.
<mgrwt>
<rscale>  0 0.68222191E+03</rscale>
<asrwt>0</asrwt>
<pdfrwt beam="1">  1        2 0.25531483E+00 0.68222191E+03</pdfrwt>
<pdfrwt beam="2">  1       -2 0.10786699E-01 0.68222191E+03</pdfrwt>
<totfact> 0.63868735E+02</totfact>
</mgrwt>
</event>
<event>
 4    1  0.6705655E-006  0.7746605E+03  0.7818608E-02  0.9597437E-01
         -2   -1    0    0    0  501 -0.00000000000E+00  0.00000000000E+00  0.16283346575E+03  0.16283346577E+03  0.25500000000E-02 0. -1.
          2   -1    0    0  501    0  0.00000000000E+00 -0.00000000000E+00 -0.92133841822E+03  0.92133841823E+03  0.25500000000E-02 0.  1.
   -5000001    1    1    2    0    0 -0.92726807868E+02  0.27817052365E+03 -0.43431039890E+03  0.58060539415E+03  0.25000000000E+03 0.  0.
    5000001    1    1    2    0    0  0.92726807868E+02 -0.27817052365E+03 -0.32419455358E+03  0.50356648984E+03  0.25000000000E+03 0.  0.
<mgrwt>
<rscale>  0 0.77466051E+03</rscale>
<asrwt>0</asrwt>
<pdfrwt beam="1">  1        2 0.14174437E+00 0.77466051E+03</pdfrwt>
<pdfrwt beam="2">  1       -2 0.25051303E-01 0.77466051E+03</pdfrwt>
<totfact> 0.40716266E+02</totfact>
</mgrwt>
</event>
<event>
 4    1  0.6705655E-006  0.1152687E+04  0.7818608E-02  0.9155309E-01
          2   -1    0    0  501    0  0.00000000000E+00  0.00000000000E+00  0.12442695663E+04  0.12442695663E+04  0.25500000000E-02 0.  1.
         -2   -1    0    0    0  501 -0.00000000000E+00 -0.00000000000E+00 -0.26696107687E+03  0.26696107688E+03  0.25500000000E-02 0. -1.
   -5000001    1    1    2    0    0  0.50347946415E+03  0.57657781884E+02  0.63730424701E+03  0.85174684848E+03  0.25000000000E+03 0.  0.
    5000001    1    1    2    0    0 -0.50347946415E+03 -0.57657781884E+02  0.34000424247E+03  0.65948379475E+03  0.25000000000E+03 0.  0.
<mgrwt>
<rscale>  0 0.11526865E+04</rscale>
<asrwt>0</asrwt>
<pdfrwt beam="1">  1        2 0.19142608E+00 0.11526865E+04</pdfrwt>
<pdfrwt beam="2">  1       -2 0.41070935E-01 0.11526865E+04</pdfrwt>
<totfact> 0.98997381E+01</totfact>
</mgrwt>
</event>
<event>
 4    1  0.6705655E-006  0.7073933E+03  0.7818608E-02  0.9704672E-01
         -2   -1    0    0    0  501 -0.00000000000E+00  0.00000000000E+00  0.16406665309E+03  0.16406665311E+03  0.25500000000E-02 0. -1.
          2   -1    0    0  501    0  0.00000000000E+00 -0.00000000000E+00 -0.76250298266E+03  0.76250298267E+03  0.25500000000E-02 0.  1.
   -5000001    1    1    2    0    0  0.23449910021E+03  0.55638198321E+02 -0.21119679904E+03  0.40643514247E+03  0.25000000000E+03 0.  0.
    5000001    1    1    2    0    0 -0.23449910021E+03 -0.55638198321E+02 -0.38723953053E+03  0.52013449330E+03  0.25000000000E+03 0.  0.
<mgrwt>
<rscale>  0 0.70739328E+03</rscale>
<asrwt>0</asrwt>
<pdfrwt beam="1">  1        2 0.11730815E+00 0.70739328E+03</pdfrwt>
<pdfrwt beam="2">  1       -2 0.25241024E-01 0.70739328E+03</pdfrwt>
<totfact> 0.51999870E+02</totfact>
</mgrwt>
</event>
<event>
 4    1  0.6705655E-006  0.7591933E+03  0.7818608E-02  0.9621037E-01
          2   -1    0    0  501    0  0.00000000000E+00  0.00000000000E+00  0.48535807540E+03  0.48535807541E+03  0.25500000000E-02 0.  1.
         -2   -1    0    0    0  501 -0.00000000000E+00 -0.00000000000E+00 -0.29688108307E+03  0.29688108308E+03  0.25500000000E-02 0. -1.
   -5000001    1    1    2    0    0  0.13803493595E+03 -0.22859594149E+03  0.19872633097E+03  0.41629545113E+03  0.25000000000E+03 0.  0.
    5000001    1    1    2    0    0 -0.13803493595E+03  0.22859594149E+03 -0.10249338631E+02  0.36594370736E+03  0.25000000000E+03 0.  0.
<mgrwt>
<rscale>  0 0.75919334E+03</rscale>
<asrwt>0</asrwt>
<pdfrwt beam="1">  1        2 0.74670472E-01 0.75919334E+03</pdfrwt>
<pdfrwt beam="2">  1       -2 0.45674013E-01 0.75919334E+03</pdfrwt>
<totfact> 0.29199960E+02</totfact>
</mgrwt>
</event>
<event>
 4    1  0.6705655E-006  0.5677804E+03  0.7818608E-02  0.9974602E-01
         -2   -1    0    0    0  501 -0.00000000000E+00  0.00000000000E+00  0.48924742049E+03  0.48924742049E+03  0.25500000000E-02 0. -1.
          2   -1    0    0  501    0  0.00000000000E+00 -0.00000000000E+00 -0.16472983035E+03  0.16472983037E+03  0.25500000000E-02 0.  1.
   -5000001    1    1    2    0    0  0.89440449322E+02  0.10001086656E+03  0.15121836274E+03  0.32151012525E+03  0.25000000000E+03 0.  0.
    5000001    1    1    2    0    0 -0.89440449322E+02 -0.10001086656E+03  0.17329922739E+03  0.33246712562E+03  0.25000000000E+03 0.  0.
<mgrwt>
<rscale>  0 0.56778040E+03</rscale>
<asrwt>0</asrwt>
<pdfrwt beam="1">  1        2 0.25343051E-01 0.56778040E+03</pdfrwt>
<pdfrwt beam="2">  1       -2 0.75268832E-01 0.56778040E+03</pdfrwt>
<totfact> 0.34536908E+02</totfact>
</mgrwt>
</event>
<event>
 4    1  0.6705655E-006  0.6320983E+03  0.7818608E-02  0.9840963E-01
          2   -1    0    0  501    0  0.00000000000E+00  0.00000000000E+00  0.14743699467E+03  0.14743699469E+03  0.25500000000E-02 0.  1.
         -2   -1    0    0    0  501 -0.00000000000E+00 -0.00000000000E+00 -0.67748992841E+03  0.67748992842E+03  0.25500000000E-02 0. -1.
   -5000001    1    1    2    0    0 -0.18363721580E+03 -0.54141238389E+02 -0.30036394989E+03  0.43516939588E+03  0.25000000000E+03 0.  0.
    5000001    1    1    2    0    0  0.18363721580E+03  0.54141238389E+02 -0.22968898386E+03  0.38975752722E+03  0.25000000000E+03 0.  0.
<mgrwt>
<rscale>  0 0.63209834E+03</rscale>
<asrwt>0</asrwt>
<pdfrwt beam="1">  1        2 0.22682615E-01 0.63209834E+03</pdfrwt>
<pdfrwt beam="2">  1       -2 0.10422922E+00 0.63209834E+03</pdfrwt>
<totfact> 0.18569242E+02</totfact>
</mgrwt>
</event>
<event>
 4    1  0.6705655E-006  0.5447723E+03  0.7818608E-02  0.1002711E+00
          2   -1    0    0  501    0  0.00000000000E+00  0.00000000000E+00  0.14962440834E+04  0.14962440834E+04  0.25500000000E-02 0.  1.
         -2   -1    0    0    0  501 -0.00000000000E+00 -0.00000000000E+00 -0.49586964924E+02  0.49586964990E+02  0.25500000000E-02 0. -1.
   -5000001    1    1    2    0    0  0.18152602147E+02  0.82033149483E+02  0.53013904623E+03  0.59212022674E+03  0.25000000000E+03 0.  0.
    5000001    1    1    2    0    0 -0.18152602147E+02 -0.82033149483E+02  0.91651807224E+03  0.95371082165E+03  0.25000000000E+03 0.  0.
<mgrwt>
<rscale>  0 0.54477226E+03</rscale>
<asrwt>0</asrwt>
<pdfrwt beam="1">  1        2 0.23019137E+00 0.54477226E+03</pdfrwt>
<pdfrwt beam="2">  1       -2 0.76287647E-02 0.54477226E+03</pdfrwt>
<totfact> 0.13805418E+03</totfact>
</mgrwt>
</event>
<event>
 4    1  0.6705655E-006  0.6135833E+03  0.7818608E-02  0.9877619E-01
         -2   -1    0    0    0  501 -0.00000000000E+00  0.00000000000E+00  0.26483659293E+02  0.26483659416E+02  0.25500000000E-02 0. -1.
          2   -1    0    0  501    0  0.00000000000E+00 -0.00000000000E+00 -0.35539311694E+04  0.35539311694E+04  0.25500000000E-02 0.  1.
   -5000001    1    1    2    0    0  0.13045591835E+03 -0.10712599316E+03 -0.14374511945E+04  0.14687616081E+04  0.25000000000E+03 0.  0.
    5000001    1    1    2    0    0 -0.13045591835E+03  0.10712599316E+03 -0.20899963156E+04  0.21116532207E+04  0.25000000000E+03 0.  0.
<mgrwt>
<rscale>  0 0.61358325E+03</rscale>
<asrwt>0</asrwt>
<pdfrwt beam="1">  1        2 0.54675826E+00 0.61358325E+03</pdfrwt>
<pdfrwt beam="2">  1       -2 0.40744120E-02 0.61358325E+03</pdfrwt>
<totfact> 0.23203695E+02</totfact>
</mgrwt>
</event>
<event>
 4    1  0.6705655E-006  0.7765644E+03  0.7818608E-02  0.9594573E-01
         -2   -1    0    0    0  501 -0.00000000000E+00  0.00000000000E+00  0.15018186920E+03  0.15018186922E+03  0.25500000000E-02 0. -1.
          2   -1    0    0  501    0  0.00000000000E+00 -0.00000000000E+00 -0.10038700449E+04  0.10038700449E+04  0.25500000000E-02 0.  1.
   -5000001    1    1    2    0    0  0.22823460963E+03  0.15783414310E+03 -0.26914642365E+03  0.46037207900E+03  0.25000000000E+03 0.  0.
    5000001    1    1    2    0    0 -0.22823460963E+03 -0.15783414310E+03 -0.58454175206E+03  0.69367983512E+03  0.25000000000E+03 0.  0.
<mgrwt>
<rscale>  0 0.77656443E+03</rscale>
<asrwt>0</asrwt>
<pdfrwt beam="1">  1        2 0.15444154E+00 0.77656443E+03</pdfrwt>
<pdfrwt beam="2">  1       -2 0.23104904E-01 0.77656443E+03</pdfrwt>
<totfact> 0.41598051E+02</totfact>
</mgrwt>
</event>
<event>
 4    1  0.6705655E-006  0.6375672E+03  0.7818608E-02  0.9830392E-01
         -2   -1    0    0    0  501 -0.00000000000E+00  0.00000000000E+00  0.45568945946E+02  0.45568946018E+02  0.25500000000E-02 0. -1.
          2   -1    0    0  501    0  0.00000000000E+00 -0.00000000000E+00 -0.22300926095E+04  0.22300926095E+04  0.25500000000E-02 0.  1.
   -5000001    1    1    2    0    0 -0.10560594448E+03 -0.15487807835E+03 -0.86699655709E+03  0.92158714437E+03  0.25000000000E+03 0.  0.
    5000001    1    1    2    0    0  0.10560594448E+03  0.15487807835E+03 -0.13175271065E+04  0.13540744112E+04  0.25000000000E+03 0.  0.
<mgrwt>
<rscale>  0 0.63756716E+03</rscale>
<asrwt>0</asrwt>
<pdfrwt beam="1">  1        2 0.34309109E+00 0.63756716E+03</pdfrwt>
<pdfrwt beam="2">  1       -2 0.70106088E-02 0.63756716E+03</pdfrwt>
<totfact> 0.62628359E+02</totfact>
</mgrwt>
</event>
<event>
 4    1  0.6705655E-006  0.1093218E+04  0.7818608E-02  0.9211827E-01
         -2   -1    0    0    0  501 -0.00000000000E+00  0.00000000000E+00  0.10865484661E+04  0.10865484661E+04  0.25500000000E-02 0. -1.
          2   -1    0    0  501    0  0.00000000000E+00 -0.00000000000E+00 -0.27498214682E+03  0.27498214683E+03  0.25500000000E-02 0.  1.
   -5000001    1    1    2    0    0  0.25698377163E+03 -0.31608542011E+03  0.75494756346E+02  0.48389059706E+03  0.25000000000E+03 0.  0.
    5000001    1    1    2    0    0 -0.25698377163E+03  0.31608542011E+03  0.73607156289E+03  0.87764001583E+03  0.25000000000E+03 0.  0.
<mgrwt>
<rscale>  0 0.10932181E+04</rscale>
<asrwt>0</asrwt>
<pdfrwt beam="1">  1        2 0.42304945E-01 0.10932181E+04</pdfrwt>
<pdfrwt beam="2">  1       -2 0.16716130E+00 0.10932181E+04</pdfrwt>
<totfact> 0.26813030E+01</totfact>
</mgrwt>
</event>
<event>
 4    1  0.6705655E-006  0.7809379E+03  0.7818608E-02  0.9588026E-01
          2   -1    0    0  501    0  0.00000000000E+00  0.00000000000E+00  0.15186952179E+04  0.15186952179E+04  0.25500000000E-02 0.  1.
         -2   -1    0    0    0  501 -0.00000000000E+00 -0.00000000000E+00 -0.10039275989E+03  0.10039275992E+03  0.25500000000E-02 0. -1.
   -5000001    1    1    2    0    0  0.23778260932E+03  0.22957362390E+02  0.10851975079E+04  0.11389562068E+04  0.25000000000E+03 0.  0.
    5000001    1    1    2    0    0 -0.23778260932E+03 -0.22957362390E+02  0.33310495008E+03  0.48013177103E+03  0.25000000000E+03 0.  0.
<mgrwt>
<rscale>  0 0.78093791E+03</rscale>
<asrwt>0</asrwt>
<pdfrwt beam="1">  1        2 0.23364540E+00 0.78093791E+03</pdfrwt>
<pdfrwt beam="2">  1       -2 0.15445041E-01 0.78093791E+03</pdfrwt>
<totfact> 0.41763410E+02</totfact>
</mgrwt>
</event>
<event>
 4    1  0.6705655E-006  0.9366434E+03  0.7818608E-02  0.9380900E-01
          2   -1    0    0  501    0  0.00000000000E+00  0.00000000000E+00  0.18897233456E+04  0.18897233456E+04  0.25500000000E-02 0.  1.
         -2   -1    0    0    0  501 -0.00000000000E+00 -0.00000000000E+00 -0.11606208367E+03  0.11606208370E+03  0.25500000000E-02 0. -1.
   -5000001    1    1    2    0    0  0.24572273047E+03  0.20307447633E+03  0.13899888867E+04  0.14478218151E+04  0.25000000000E+03 0.  0.
    5000001    1    1    2    0    0 -0.24572273047E+03 -0.20307447633E+03  0.38367237519E+03  0.55796361413E+03  0.25000000000E+03 0.  0.
<mgrwt>
<rscale>  0 0.93664343E+03</rscale>
<asrwt>0</asrwt>
<pdfrwt beam="1">  1        2 0.29072664E+00 0.93664343E+03</pdfrwt>
<pdfrwt beam="2">  1       -2 0.17855707E-01 0.93664343E+03</pdfrwt>
<totfact> 0.20145779E+02</totfact>
</mgrwt>
</event>
<event>
 4    1  0.6705655E-006  0.1175262E+04  0.7818608E-02  0.9134790E-01
         -2   -1    0    0    0  501 -0.00000000000E+00  0.00000000000E+00  0.37438787123E+03  0.37438787124E+03  0.25500000000E-02 0. -1.
          2   -1    0    0  501    0  0.00000000000E+00 -0.00000000000E+00 -0.92233196648E+03  0.92233196648E+03  0.25500000000E-02 0.  1.
   -5000001    1    1    2    0    0 -0.25425259603E+02  0.48817607746E+03 -0.42933506493E+02  0.55073188796E+03  0.25000000000E+03 0.  0.
    5000001    1    1    2    0    0  0.25425259603E+02 -0.48817607746E+03 -0.50501058875E+03  0.74598794976E+03  0.25000000000E+03 0.  0.
<mgrwt>
<rscale>  0 0.11752615E+04</rscale>
<asrwt>0</asrwt>
<pdfrwt beam="1">  1        2 0.14189722E+00 0.11752615E+04</pdfrwt>
<pdfrwt beam="2">  1       -2 0.57598135E-01 0.11752615E+04</pdfrwt>
<totfact> 0.79031141E+01</totfact>
</mgrwt>
</event>
<event>
 4    1  0.6705655E-006  0.5458312E+03  0.7818608E-02  0.1002463E+00
         -2   -1    0    0    0  501 -0.00000000000E+00  0.00000000000E+00  0.28312669131E+02  0.28312669246E+02  0.25500000000E-02 0. -1.
          2   -1    0    0  501    0  0.00000000000E+00 -0.00000000000E+00 -0.26307272842E+04  0.26307272842E+04  0.25500000000E-02 0.  1.
   -5000001    1    1    2    0    0  0.98933656675E+02  0.46756301841E+02 -0.12866813329E+04  0.13153033386E+04  0.25000000000E+03 0.  0.
    5000001    1    1    2    0    0 -0.98933656675E+02 -0.46756301841E+02 -0.13157332822E+04  0.13437366148E+04  0.25000000000E+03 0.  0.
<mgrwt>
<rscale>  0 0.54583115E+03</rscale>
<asrwt>0</asrwt>
<pdfrwt beam="1">  1        2 0.40472708E+00 0.54583115E+03</pdfrwt>
<pdfrwt beam="2">  1       -2 0.43557973E-02 0.54583115E+03</pdfrwt>
<totfact> 0.79177267E+02</totfact>
</mgrwt>
</event>
<event>
 4    1  0.6705655E-006  0.8018662E+03  0.7818608E-02  0.9557320E-01
          2   -1    0    0  501    0  0.00000000000E+00  0.00000000000E+00  0.20564738918E+04  0.20564738918E+04  0.25500000000E-02 0.  1.
         -2   -1    0    0    0  501 -0.00000000000E+00 -0.00000000000E+00 -0.78166501661E+02  0.78166501703E+02  0.25500000000E-02 0. -1.
   -5000001    1    1    2    0    0  0.26275264945E+03 -0.12849024325E+03  0.12891403612E+04  0.13453369720E+04  0.25000000000E+03 0.  0.
    5000001    1    1    2    0    0 -0.26275264945E+03  0.12849024325E+03  0.68916702900E+03  0.78930342155E+03  0.25000000000E+03 0.  0.
<mgrwt>
<rscale>  0 0.80186625E+03</rscale>
<asrwt>0</asrwt>
<pdfrwt beam="1">  1        2 0.31638056E+00 0.80186625E+03</pdfrwt>
<pdfrwt beam="2">  1       -2 0.12025617E-01 0.80186625E+03</pdfrwt>
<totfact> 0.32174682E+02</totfact>
</mgrwt>
</event>
<event>
 4    1  0.6705655E-006  0.6000195E+03  0.7818608E-02  0.9905366E-01
          2   -1    0    0  501    0  0.00000000000E+00  0.00000000000E+00  0.70230747338E+02  0.70230747384E+02  0.25500000000E-02 0.  1.
         -2   -1    0    0    0  501 -0.00000000000E+00 -0.00000000000E+00 -0.12815733250E+04  0.12815733250E+04  0.25500000000E-02 0. -1.
   -5000001    1    1    2    0    0  0.15053398042E+03  0.60919245555E+02 -0.52979662554E+03  0.60791125847E+03  0.25000000000E+03 0.  0.
    5000001    1    1    2    0    0 -0.15053398042E+03 -0.60919245555E+02 -0.68154595208E+03  0.74389281388E+03  0.25000000000E+03 0.  0.
<mgrwt>
<rscale>  0 0.60001951E+03</rscale>
<asrwt>0</asrwt>
<pdfrwt beam="1">  1        2 0.10804731E-01 0.60001951E+03</pdfrwt>
<pdfrwt beam="2">  1       -2 0.19716511E+00 0.60001951E+03</pdfrwt>
<totfact> 0.85746276E+01</totfact>
</mgrwt>
</event>
<event>
 4    1  0.6705655E-006  0.9208282E+03  0.7818608E-02  0.9399913E-01
          2   -1    0    0  501    0  0.00000000000E+00  0.00000000000E+00  0.93394667526E+03  0.93394667526E+03  0.25500000000E-02 0.  1.
         -2   -1    0    0    0  501 -0.00000000000E+00 -0.00000000000E+00 -0.22697350079E+03  0.22697350081E+03  0.25500000000E-02 0. -1.
   -5000001    1    1    2    0    0  0.30193399829E+03  0.22137623192E+03  0.23184317872E+03  0.50638210365E+03  0.25000000000E+03 0.  0.
    5000001    1    1    2    0    0 -0.30193399829E+03 -0.22137623192E+03  0.47512999574E+03  0.65453807241E+03  0.25000000000E+03 0.  0.
<mgrwt>
<rscale>  0 0.92082821E+03</rscale>
<asrwt>0</asrwt>
<pdfrwt beam="1">  1        2 0.14368410E+00 0.92082821E+03</pdfrwt>
<pdfrwt beam="2">  1       -2 0.34919001E-01 0.92082821E+03</pdfrwt>
<totfact> 0.21425274E+02</totfact>
</mgrwt>
</event>
<event>
 4    1  0.6705655E-006  0.8041575E+03  0.7818608E-02  0.9554019E-01
          2   -1    0    0  501    0  0.00000000000E+00  0.00000000000E+00  0.89861382559E+03  0.89861382560E+03  0.25500000000E-02 0.  1.
         -2   -1    0    0    0  501 -0.00000000000E+00 -0.00000000000E+00 -0.17990746222E+03  0.17990746223E+03  0.25500000000E-02 0. -1.
   -5000001    1    1    2    0    0 -0.27767985700E+03  0.14363287617E+03  0.41008508077E+03  0.57306743022E+03  0.25000000000E+03 0.  0.
    5000001    1    1    2    0    0  0.27767985700E+03 -0.14363287617E+03  0.30862128260E+03  0.50545385762E+03  0.25000000000E+03 0.  0.
<mgrwt>
<rscale>  0 0.80415753E+03</rscale>
<asrwt>0</asrwt>
<pdfrwt beam="1">  1        2 0.13824828E+00 0.80415753E+03</pdfrwt>
<pdfrwt beam="2">  1       -2 0.27678071E-01 0.80415753E+03</pdfrwt>
<totfact> 0.35129145E+02</totfact>
</mgrwt>
</event>
<event>
 4    1  0.6705655E-006  0.6411585E+03  0.7818608E-02  0.9823513E-01
         -2   -1    0    0    0  501 -0.00000000000E+00  0.00000000000E+00  0.16265096620E+03  0.16265096622E+03  0.25500000000E-02 0. -1.
          2   -1    0    0  501    0  0.00000000000E+00 -0.00000000000E+00 -0.63185023375E+03  0.63185023375E+03  0.25500000000E-02 0.  1.
   -5000001    1    1    2    0    0  0.11364768659E+03 -0.16158536266E+03 -0.27833048590E+03  0.42307621710E+03  0.25000000000E+03 0.  0.
    5000001    1    1    2    0    0 -0.11364768659E+03  0.16158536266E+03 -0.19086878165E+03  0.37142498287E+03  0.25000000000E+03 0.  0.
<mgrwt>
<rscale>  0 0.64115849E+03</rscale>
<asrwt>0</asrwt>
<pdfrwt beam="1">  1        2 0.97207727E-01 0.64115849E+03</pdfrwt>
<pdfrwt beam="2">  1       -2 0.25023226E-01 0.64115849E+03</pdfrwt>
<totfact> 0.67001256E+02</totfact>
</mgrwt>
</event>
<event>
 4    1  0.6705655E-006  0.6659359E+03  0.7818608E-02  0.9777328E-01
         -2   -1    0    0    0  501 -0.00000000000E+00  0.00000000000E+00  0.21391693344E+03  0.21391693346E+03  0.25500000000E-02 0. -1.
          2   -1    0    0  501    0  0.00000000000E+00 -0.00000000000E+00 -0.51827429414E+03  0.51827429415E+03  0.25500000000E-02 0.  1.
   -5000001    1    1    2    0    0 -0.13772336297E+03 -0.12958493667E+03 -0.28723454920E+02  0.31477772695E+03  0.25000000000E+03 0.  0.
    5000001    1    1    2    0    0  0.13772336297E+03  0.12958493667E+03 -0.27563390578E+03  0.41741350066E+03  0.25000000000E+03 0.  0.
<mgrwt>
<rscale>  0 0.66593588E+03</rscale>
<asrwt>0</asrwt>
<pdfrwt beam="1">  1        2 0.79734507E-01 0.66593588E+03</pdfrwt>
<pdfrwt beam="2">  1       -2 0.32910298E-01 0.66593588E+03</pdfrwt>
<totfact> 0.51210818E+02</totfact>
</mgrwt>
</event>
<event>
 4    1  0.6705655E-006  0.1010554E+04  0.7818608E-02  0.9297045E-01
         -2   -1    0    0    0  501 -0.00000000000E+00  0.00000000000E+00  0.85912406061E+02  0.85912406099E+02  0.25500000000E-02 0. -1.
          2   -1    0    0  501    0  0.00000000000E+00 -0.00000000000E+00 -0.29716866633E+04  0.29716866633E+04  0.25500000000E-02 0.  1.
   -5000001    1    1    2    0    0  0.12540561427E+03  0.32390864740E+03 -0.63010624169E+03  0.76169367581E+03  0.25000000000E+03 0.  0.
    5000001    1    1    2    0    0 -0.12540561427E+03 -0.32390864740E+03 -0.22556680156E+04  0.22959053936E+04  0.25000000000E+03 0.  0.
<mgrwt>
<rscale>  0 0.10105538E+04</rscale>
<asrwt>0</asrwt>
<pdfrwt beam="1">  1        2 0.45718248E+00 0.10105538E+04</pdfrwt>
<pdfrwt beam="2">  1       -2 0.13217296E-01 0.10105538E+04</pdfrwt>
<totfact> 0.80448677E+01</totfact>
</mgrwt>
</event>
<event>
 4    1  0.6705655E-006  0.8945104E+03  0.7818608E-02  0.9432470E-01
         -2   -1    0    0    0  501 -0.00000000000E+00  0.00000000000E+00  0.28535648718E+03  0.28535648719E+03  0.25500000000E-02 0. -1.
          2   -1    0    0  501    0  0.00000000000E+00 -0.00000000000E+00 -0.70100804841E+03  0.70100804841E+03  0.25500000000E-02 0.  1.
   -5000001    1    1    2    0    0  0.34328754051E+03 -0.13357962222E+03 -0.16043150665E+03  0.47321043867E+03  0.25000000000E+03 0.  0.
    5000001    1    1    2    0    0 -0.34328754051E+03  0.13357962222E+03 -0.25522005458E+03  0.51315409693E+03  0.25000000000E+03 0.  0.
<mgrwt>
<rscale>  0 0.89451036E+03</rscale>
<asrwt>0</asrwt>
<pdfrwt beam="1">  1        2 0.10784739E+00 0.89451036E+03</pdfrwt>
<pdfrwt beam="2">  1       -2 0.43900998E-01 0.89451036E+03</pdfrwt>
<totfact> 0.20183384E+02</totfact>
</mgrwt>
</event>
<event>
 4    1  0.6705655E-006  0.7248192E+03  0.7818608E-02  0.9675705E-01
         -2   -1    0    0    0  501 -0.00000000000E+00  0.00000000000E+00  0.38460240761E+03  0.38460240762E+03  0.25500000000E-02 0. -1.
          2   -1    0    0  501    0  0.00000000000E+00 -0.00000000000E+00 -0.34149737832E+03  0.34149737833E+03  0.25500000000E-02 0.  1.
   -5000001    1    1    2    0    0 -0.91640012503E+01 -0.23145916598E+03 -0.10188608689E+03  0.35572194076E+03  0.25000000000E+03 0.  0.
    5000001    1    1    2    0    0  0.91640012503E+01  0.23145916598E+03  0.14499111619E+03  0.37037784519E+03  0.25000000000E+03 0.  0.
<mgrwt>
<rscale>  0 0.72481919E+03</rscale>
<asrwt>0</asrwt>
<pdfrwt beam="1">  1        2 0.52538058E-01 0.72481919E+03</pdfrwt>
<pdfrwt beam="2">  1       -2 0.59169601E-01 0.72481919E+03</pdfrwt>
<totfact> 0.25575583E+02</totfact>
</mgrwt>
</event>
<event>
 4    1  0.6705655E-006  0.1063086E+04  0.7818608E-02  0.9241936E-01
          2   -1    0    0  501    0  0.00000000000E+00  0.00000000000E+00  0.57683327813E+03  0.57683327813E+03  0.25500000000E-02 0.  1.
         -2   -1    0    0    0  501 -0.00000000000E+00 -0.00000000000E+00 -0.48980915102E+03  0.48980915103E+03  0.25500000000E-02 0. -1.
   -5000001    1    1    2    0    0  0.14932663922E+03  0.26224112242E+03 -0.31681222866E+03  0.50392344627E+03  0.25000000000E+03 0.  0.
    5000001    1    1    2    0    0 -0.14932663922E+03 -0.26224112242E+03  0.40383635576E+03  0.56271898289E+03  0.25000000000E+03 0.  0.
<mgrwt>
<rscale>  0 0.10630865E+04</rscale>
<asrwt>0</asrwt>
<pdfrwt beam="1">  1        2 0.88743582E-01 0.10630865E+04</pdfrwt>
<pdfrwt beam="2">  1       -2 0.75355254E-01 0.10630865E+04</pdfrwt>
<totfact> 0.81825922E+01</totfact>
</mgrwt>
</event>
<event>
 4    1  0.6705655E-006  0.5607346E+03  0.7818608E-02  0.9990394E-01
         -2   -1    0    0    0  501 -0.00000000000E+00  0.00000000000E+00  0.82052779253E+02  0.82052779293E+02  0.25500000000E-02 0. -1.
          2   -1    0    0  501    0  0.00000000000E+00 -0.00000000000E+00 -0.95799085970E+03  0.95799085971E+03  0.25500000000E-02 0.  1.
   -5000001    1    1    2    0    0 -0.75942939278E+02  0.97530669192E+02 -0.38465393614E+03  0.47511915563E+03  0.25000000000E+03 0.  0.
    5000001    1    1    2    0    0  0.75942939278E+02 -0.97530669192E+02 -0.49128414431E+03  0.56492448337E+03  0.25000000000E+03 0.  0.
<mgrwt>
<rscale>  0 0.56073456E+03</rscale>
<asrwt>0</asrwt>
<pdfrwt beam="1">  1        2 0.14738320E+00 0.56073456E+03</pdfrwt>
<pdfrwt beam="2">  1       -2 0.12623505E-01 0.56073456E+03</pdfrwt>
<totfact> 0.12639727E+03</totfact>
</mgrwt>
</event>
<event>
 4    1  0.6705655E-006  0.8319023E+03  0.7818608E-02  0.9514954E-01
          2   -1    0    0  501    0  0.00000000000E+00  0.00000000000E+00  0.67553516131E+03  0.67553516132E+03  0.25500000000E-02 0.  1.
         -2   -1    0    0    0  501 -0.00000000000E+00 -0.00000000000E+00 -0.25611599972E+03  0.25611599973E+03  0.25500000000E-02 0. -1.
   -5000001    1    1    2    0    0  0.11156477587E+03  0.19276330837E+03  0.48610367596E+03  0.59025517876E+03  0.25000000000E+03 0.  0.
    5000001    1    1    2    0    0 -0.11156477587E+03 -0.19276330837E+03 -0.66684514358E+02  0.34139598229E+03  0.25000000000E+03 0.  0.
<mgrwt>
<rscale>  0 0.83190231E+03</rscale>
<asrwt>0</asrwt>
<pdfrwt beam="1">  1        2 0.10392849E+00 0.83190231E+03</pdfrwt>
<pdfrwt beam="2">  1       -2 0.39402462E-01 0.83190231E+03</pdfrwt>
<totfact> 0.26228590E+02</totfact>
</mgrwt>
</event>
<event>
 4    1  0.6705655E-006  0.6633885E+03  0.7818608E-02  0.9781976E-01
         -2   -1    0    0    0  501 -0.00000000000E+00  0.00000000000E+00  0.31787992642E+02  0.31787992744E+02  0.25500000000E-02 0. -1.
          2   -1    0    0  501    0  0.00000000000E+00 -0.00000000000E+00 -0.34610890451E+04  0.34610890451E+04  0.25500000000E-02 0.  1.
   -5000001    1    1    2    0    0  0.15078818835E+03  0.28225120808E+02 -0.89918352599E+03  0.94581433094E+03  0.25000000000E+03 0.  0.
    5000001    1    1    2    0    0 -0.15078818835E+03 -0.28225120808E+02 -0.25301175265E+04  0.25470627069E+04  0.25000000000E+03 0.  0.
<mgrwt>
<rscale>  0 0.66338849E+03</rscale>
<asrwt>0</asrwt>
<pdfrwt beam="1">  1        2 0.53247494E+00 0.66338849E+03</pdfrwt>
<pdfrwt beam="2">  1       -2 0.48904631E-02 0.66338849E+03</pdfrwt>
<totfact> 0.20101970E+02</totfact>
</mgrwt>
</event>
<event>
 4    1  0.6705655E-006  0.1368338E+04  0.7818608E-02  0.8977061E-01
         -2   -1    0    0    0  501 -0.00000000000E+00  0.00000000000E+00  0.23354904968E+03  0.23354904970E+03  0.25500000000E-02 0. -1.
          2   -1    0    0  501    0  0.00000000000E+00 -0.00000000000E+00 -0.20042364608E+04  0.20042364608E+04  0.25500000000E-02 0.  1.
   -5000001    1    1    2    0    0  0.30514500504E+03 -0.52534131256E+03 -0.11977466704E+04  0.13660871331E+04  0.25000000000E+03 0.  0.
    5000001    1    1    2    0    0 -0.30514500504E+03  0.52534131256E+03 -0.57294074074E+03  0.87169837741E+03  0.25000000000E+03 0.  0.
<mgrwt>
<rscale>  0 0.13683384E+04</rscale>
<asrwt>0</asrwt>
<pdfrwt beam="1">  1        2 0.30834406E+00 0.13683384E+04</pdfrwt>
<pdfrwt beam="2">  1       -2 0.35930624E-01 0.13683384E+04</pdfrwt>
<totfact> 0.47253232E+01</totfact>
</mgrwt>
</event>
<event>
 4    1  0.6705655E-006  0.6896752E+03  0.7818608E-02  0.9735054E-01
          2   -1    0    0  501    0  0.00000000000E+00  0.00000000000E+00  0.28460279127E+03  0.28460279128E+03  0.25500000000E-02 0.  1.
         -2   -1    0    0    0  501 -0.00000000000E+00 -0.00000000000E+00 -0.41782084610E+03  0.41782084611E+03  0.25500000000E-02 0. -1.
   -5000001    1    1    2    0    0 -0.40341668805E+02 -0.70005182619E+02 -0.29408662032E+03  0.39435404916E+03  0.25000000000E+03 0.  0.
    5000001    1    1    2    0    0  0.40341668805E+02  0.70005182619E+02  0.16086856548E+03  0.30806958824E+03  0.25000000000E+03 0.  0.
<mgrwt>
<rscale>  0 0.68967523E+03</rscale>
<asrwt>0</asrwt>
<pdfrwt beam="1">  1        2 0.43785045E-01 0.68967523E+03</pdfrwt>
<pdfrwt beam="2">  1       -2 0.64280131E-01 0.68967523E+03</pdfrwt>
<totfact> 0.26294388E+02</totfact>
</mgrwt>
</event>
<event>
 4    1  0.6705655E-006  0.9775943E+03  0.7818608E-02  0.9333466E-01
         -2   -1    0    0    0  501 -0.00000000000E+00  0.00000000000E+00  0.10702638845E+03  0.10702638848E+03  0.25500000000E-02 0. -1.
          2   -1    0    0  501    0  0.00000000000E+00 -0.00000000000E+00 -0.22323713156E+04  0.22323713156E+04  0.25500000000E-02 0.  1.
   -5000001    1    1    2    0    0 -0.31321284913E+03  0.25442108215E+03 -0.78370127440E+03  0.91625327470E+03  0.25000000000E+03 0.  0.
    5000001    1    1    2    0    0  0.31321284913E+03 -0.25442108215E+03 -0.13416436528E+04  0.14231444294E+04  0.25000000000E+03 0.  0.
<mgrwt>
<rscale>  0 0.97759427E+03</rscale>
<asrwt>0</asrwt>
<pdfrwt beam="1">  1        2 0.34344171E+00 0.97759427E+03</pdfrwt>
<pdfrwt beam="2">  1       -2 0.16465600E-01 0.97759427E+03</pdfrwt>
<totfact> 0.14944484E+02</totfact>
</mgrwt>
</event>
<event>
 4    1  0.6705655E-006  0.7971455E+03  0.7818608E-02  0.9564158E-01
          2   -1    0    0  501    0  0.00000000000E+00  0.00000000000E+00  0.75861159367E+03  0.75861159367E+03  0.25500000000E-02 0.  1.
         -2   -1    0    0    0  501 -0.00000000000E+00 -0.00000000000E+00 -0.20940916775E+03  0.20940916777E+03  0.25500000000E-02 0. -1.
   -5000001    1    1    2    0    0 -0.30298877048E+03  0.24161578334E+02  0.35115636849E+03  0.52744361976E+03  0.25000000000E+03 0.  0.
    5000001    1    1    2    0    0  0.30298877048E+03 -0.24161578334E+02  0.19804605743E+03  0.44057714167E+03  0.25000000000E+03 0.  0.
<mgrwt>
<rscale>  0 0.79714546E+03</rscale>
<asrwt>0</asrwt>
<pdfrwt beam="1">  1        2 0.11670948E+00 0.79714546E+03</pdfrwt>
<pdfrwt beam="2">  1       -2 0.32216795E-01 0.79714546E+03</pdfrwt>
<totfact> 0.33293781E+02</totfact>
</mgrwt>
</event>
<event>
 4    1  0.6705655E-006  0.8613538E+03  0.7818608E-02  0.9475224E-01
         -2   -1    0    0    0  501 -0.00000000000E+00  0.00000000000E+00  0.28109105892E+03  0.28109105893E+03  0.25500000000E-02 0. -1.
          2   -1    0    0  501    0  0.00000000000E+00 -0.00000000000E+00 -0.65986652759E+03  0.65986652760E+03  0.25500000000E-02 0.  1.
   -5000001    1    1    2    0    0  0.16002330240E+03 -0.10387277000E+03  0.13206065257E+03  0.34108213910E+03  0.25000000000E+03 0.  0.
    5000001    1    1    2    0    0 -0.16002330240E+03  0.10387277000E+03 -0.51083612124E+03  0.59987544743E+03  0.25000000000E+03 0.  0.
<mgrwt>
<rscale>  0 0.86135377E+03</rscale>
<asrwt>0</asrwt>
<pdfrwt beam="1">  1        2 0.10151793E+00 0.86135377E+03</pdfrwt>
<pdfrwt beam="2">  1       -2 0.43244778E-01 0.86135377E+03</pdfrwt>
<totfact> 0.22469318E+02</totfact>
</mgrwt>
</event>
<event>
 4    1  0.6705655E-006  0.6261472E+03  0.7818608E-02  0.9852596E-01
          2   -1    0    0  501    0  0.00000000000E+00  0.00000000000E+00  0.31934317330E+04  0.31934317330E+04  0.25500000000E-02 0.  1.
         -2   -1    0    0    0  501 -0.00000000000E+00 -0.00000000000E+00 -0.30692712605E+02  0.30692712710E+02  0.25500000000E-02 0. -1.
   -5000001    1    1    2    0    0 -0.12911670947E+03  0.13520271161E+02  0.87796578160E+03  0.92205088583E+03  0.25000000000E+03 0.  0.
    5000001    1    1    2    0    0  0.12911670947E+03 -0.13520271161E+02  0.22847732388E+04  0.23020735599E+04  0.25000000000E+03 0.  0.
<mgrwt>
<rscale>  0 0.62614721E+03</rscale>
<asrwt>0</asrwt>
<pdfrwt beam="1">  1        2 0.49129691E+00 0.62614721E+03</pdfrwt>
<pdfrwt beam="2">  1       -2 0.47219585E-02 0.62614721E+03</pdfrwt>
<totfact> 0.31879596E+02</totfact>
</mgrwt>
</event>
<event>
 4    1  0.6705655E-006  0.7659896E+03  0.7818608E-02  0.9610594E-01
          2   -1    0    0  501    0  0.00000000000E+00  0.00000000000E+00  0.70629456269E+03  0.70629456269E+03  0.25500000000E-02 0.  1.
         -2   -1    0    0    0  501 -0.00000000000E+00 -0.00000000000E+00 -0.20768248626E+03  0.20768248627E+03  0.25500000000E-02 0. -1.
   -5000001    1    1    2    0    0  0.25038700536E+03  0.12549159199E+03  0.15888070799E+03  0.40765778722E+03  0.25000000000E+03 0.  0.
    5000001    1    1    2    0    0 -0.25038700536E+03 -0.12549159199E+03  0.33973136844E+03  0.50631926174E+03  0.25000000000E+03 0.  0.
<mgrwt>
<rscale>  0 0.76598958E+03</rscale>
<asrwt>0</asrwt>
<pdfrwt beam="1">  1        2 0.10866070E+00 0.76598958E+03</pdfrwt>
<pdfrwt beam="2">  1       -2 0.31951152E-01 0.76598958E+03</pdfrwt>
<totfact> 0.37105821E+02</totfact>
</mgrwt>
</event>
<event>
 4    1  0.6705655E-006  0.5193869E+03  0.7818608E-02  0.1008839E+00
         -2   -1    0    0    0  501 -0.00000000000E+00  0.00000000000E+00  0.13579763828E+03  0.13579763830E+03  0.25500000000E-02 0. -1.
          2   -1    0    0  501    0  0.00000000000E+00 -0.00000000000E+00 -0.49662642921E+03  0.49662642922E+03  0.25500000000E-02 0.  1.
   -5000001    1    1    2    0    0  0.25258113204E+02 -0.52522904835E+02 -0.13256784451E+03  0.28891324167E+03  0.25000000000E+03 0.  0.
    5000001    1    1    2    0    0 -0.25258113204E+02  0.52522904835E+02 -0.22826094642E+03  0.34351082585E+03  0.25000000000E+03 0.  0.
<mgrwt>
<rscale>  0 0.51938693E+03</rscale>
<asrwt>0</asrwt>
<pdfrwt beam="1">  1        2 0.76404065E-01 0.51938693E+03</pdfrwt>
<pdfrwt beam="2">  1       -2 0.20891945E-01 0.51938693E+03</pdfrwt>
<totfact> 0.12275855E+03</totfact>
</mgrwt>
</event>
<event>
 4    1  0.6705655E-006  0.6040700E+03  0.7818608E-02  0.9896998E-01
         -2   -1    0    0    0  501 -0.00000000000E+00  0.00000000000E+00  0.89735972263E+02  0.89735972299E+02  0.25500000000E-02 0. -1.
          2   -1    0    0  501    0  0.00000000000E+00 -0.00000000000E+00 -0.10165949057E+04  0.10165949057E+04  0.25500000000E-02 0.  1.
   -5000001    1    1    2    0    0  0.12297715659E+03 -0.38384267449E+02 -0.26173242440E+03  0.38418822863E+03  0.25000000000E+03 0.  0.
    5000001    1    1    2    0    0 -0.12297715659E+03  0.38384267449E+02 -0.66512650908E+03  0.72214264942E+03  0.25000000000E+03 0.  0.
<mgrwt>
<rscale>  0 0.60406997E+03</rscale>
<asrwt>0</asrwt>
<pdfrwt beam="1">  1        2 0.15639921E+00 0.60406997E+03</pdfrwt>
<pdfrwt beam="2">  1       -2 0.13805535E-01 0.60406997E+03</pdfrwt>
<totfact> 0.99860949E+02</totfact>
</mgrwt>
</event>
<event>
 4    1  0.6705655E-006  0.6249438E+03  0.7818608E-02  0.9854966E-01
         -2   -1    0    0    0  501 -0.00000000000E+00  0.00000000000E+00  0.35176542560E+02  0.35176542653E+02  0.25500000000E-02 0. -1.
          2   -1    0    0  501    0  0.00000000000E+00 -0.00000000000E+00 -0.27756756472E+04  0.27756756472E+04  0.25500000000E-02 0.  1.
   -5000001    1    1    2    0    0 -0.74642774710E+02 -0.17179368769E+03 -0.14033189255E+04  0.14376677717E+04  0.25000000000E+03 0.  0.
    5000001    1    1    2    0    0  0.74642774710E+02  0.17179368769E+03 -0.13371801792E+04  0.13731844182E+04  0.25000000000E+03 0.  0.
<mgrwt>
<rscale>  0 0.62494375E+03</rscale>
<asrwt>0</asrwt>
<pdfrwt beam="1">  1        2 0.42702685E+00 0.62494375E+03</pdfrwt>
<pdfrwt beam="2">  1       -2 0.54117779E-02 0.62494375E+03</pdfrwt>
<totfact> 0.46280030E+02</totfact>
</mgrwt>
</event>
<event>
 4    1  0.6705655E-006  0.1112210E+04  0.7818608E-02  0.9193372E-01
         -2   -1    0    0    0  501 -0.00000000000E+00  0.00000000000E+00  0.72227135472E+02  0.72227135517E+02  0.25500000000E-02 0. -1.
          2   -1    0    0  501    0  0.00000000000E+00 -0.00000000000E+00 -0.42816701494E+04  0.42816701494E+04  0.25500000000E-02 0.  1.
   -5000001    1    1    2    0    0 -0.44368234086E+03 -0.13297303982E+03 -0.14020806471E+04  0.14976201087E+04  0.25000000000E+03 0.  0.
    5000001    1    1    2    0    0  0.44368234086E+03  0.13297303982E+03 -0.28073623668E+04  0.28562771763E+04  0.25000000000E+03 0.  0.
<mgrwt>
<rscale>  0 0.11122100E+04</rscale>
<asrwt>0</asrwt>
<pdfrwt beam="1">  1        2 0.65871829E+00 0.11122100E+04</pdfrwt>
<pdfrwt beam="2">  1       -2 0.11111870E-01 0.11122100E+04</pdfrwt>
<totfact> 0.11987642E+01</totfact>
</mgrwt>
</event>
<event>
 4    1  0.6705655E-006  0.9077712E+03  0.7818608E-02  0.9415919E-01
          2   -1    0    0  501    0  0.00000000000E+00  0.00000000000E+00  0.29081605451E+03  0.29081605452E+03  0.25500000000E-02 0. -1.
         -2   -1    0    0    0  501 -0.00000000000E+00 -0.00000000000E+00 -0.70839332252E+03  0.70839332253E+03  0.25500000000E-02 0.  1.
   -5000001    1    1    2    0    0  0.33951141820E+03  0.16465675907E+03 -0.24582776469E+03  0.51508362553E+03  0.25000000000E+03 0.  0.
    5000001    1    1    2    0    0 -0.33951141820E+03 -0.16465675907E+03 -0.17174950332E+03  0.48412575152E+03  0.25000000000E+03 0.  0.
<mgrwt>
<rscale>  0 0.90777123E+03</rscale>
<asrwt>0</asrwt>
<pdfrwt beam="1">  1        2 0.44740931E-01 0.90777123E+03</pdfrwt>
<pdfrwt beam="2">  1       -2 0.10898359E+00 0.90777123E+03</pdfrwt>
<totfact> 0.76591206E+01</totfact>
</mgrwt>
</event>
<event>
 4    1  0.6705655E-006  0.6278075E+03  0.7818608E-02  0.9849337E-01
          2   -1    0    0  501    0  0.00000000000E+00  0.00000000000E+00  0.23162200705E+04  0.23162200705E+04  0.25500000000E-02 0.  1.
         -2   -1    0    0    0  501 -0.00000000000E+00 -0.00000000000E+00 -0.42541539454E+02  0.42541539531E+02  0.25500000000E-02 0. -1.
   -5000001    1    1    2    0    0 -0.15461985583E+03 -0.92031116064E+02  0.13640932648E+04  0.13984375071E+04  0.25000000000E+03 0.  0.
    5000001    1    1    2    0    0  0.15461985583E+03  0.92031116064E+02  0.90958526626E+03  0.96032410297E+03  0.25000000000E+03 0.  0.
<mgrwt>
<rscale>  0 0.62780751E+03</rscale>
<asrwt>0</asrwt>
<pdfrwt beam="1">  1        2 0.35634153E+00 0.62780751E+03</pdfrwt>
<pdfrwt beam="2">  1       -2 0.65448525E-02 0.62780751E+03</pdfrwt>
<totfact> 0.62629566E+02</totfact>
</mgrwt>
</event>
<event>
 4    1  0.6705655E-006  0.6426558E+03  0.7818608E-02  0.9820658E-01
         -2   -1    0    0    0  501 -0.00000000000E+00  0.00000000000E+00  0.77354696339E+02  0.77354696381E+02  0.25500000000E-02 0. -1.
          2   -1    0    0  501    0  0.00000000000E+00 -0.00000000000E+00 -0.13347815595E+04  0.13347815595E+04  0.25500000000E-02 0.  1.
   -5000001    1    1    2    0    0  0.16428939492E+03  0.11629459063E+03 -0.66248291869E+03  0.73613793181E+03  0.25000000000E+03 0.  0.
    5000001    1    1    2    0    0 -0.16428939492E+03 -0.11629459063E+03 -0.59494394451E+03  0.67599832411E+03  0.25000000000E+03 0.  0.
<mgrwt>
<rscale>  0 0.64265581E+03</rscale>
<asrwt>0</asrwt>
<pdfrwt beam="1">  1        2 0.20535099E+00 0.64265581E+03</pdfrwt>
<pdfrwt beam="2">  1       -2 0.11900724E-01 0.64265581E+03</pdfrwt>
<totfact> 0.82527044E+02</totfact>
</mgrwt>
</event>
<event>
 4    1  0.6705655E-006  0.7028110E+03  0.7818608E-02  0.9712437E-01
         -2   -1    0    0    0  501 -0.00000000000E+00  0.00000000000E+00  0.14129157194E+03  0.14129157196E+03  0.25500000000E-02 0. -1.
          2   -1    0    0  501    0  0.00000000000E+00 -0.00000000000E+00 -0.87397874166E+03  0.87397874167E+03  0.25500000000E-02 0.  1.
   -5000001    1    1    2    0    0  0.21143716065E+03 -0.12267862375E+03 -0.31567770736E+03  0.47107126059E+03  0.25000000000E+03 0.  0.
    5000001    1    1    2    0    0 -0.21143716065E+03  0.12267862375E+03 -0.41700946236E+03  0.54419905304E+03  0.25000000000E+03 0.  0.
<mgrwt>
<rscale>  0 0.70281101E+03</rscale>
<asrwt>0</asrwt>
<pdfrwt beam="1">  1        2 0.13445826E+00 0.70281101E+03</pdfrwt>
<pdfrwt beam="2">  1       -2 0.21737165E-01 0.70281101E+03</pdfrwt>
<totfact> 0.56612871E+02</totfact>
</mgrwt>
</event>
<event>
 4    1  0.6705655E-006  0.1014356E+04  0.7818608E-02  0.9292938E-01
         -2   -1    0    0    0  501 -0.00000000000E+00  0.00000000000E+00  0.34711609234E+03  0.34711609235E+03  0.25500000000E-02 0. -1.
          2   -1    0    0  501    0  0.00000000000E+00 -0.00000000000E+00 -0.74104778572E+03  0.74104778573E+03  0.25500000000E-02 0.  1.
   -5000001    1    1    2    0    0 -0.26462514452E+03  0.28706400281E+03  0.23662179253E+02  0.46421127469E+03  0.25000000000E+03 0.  0.
    5000001    1    1    2    0    0  0.26462514452E+03 -0.28706400281E+03 -0.41759387263E+03  0.62395260339E+03  0.25000000000E+03 0.  0.
<mgrwt>
<rscale>  0 0.10143562E+04</rscale>
<asrwt>0</asrwt>
<pdfrwt beam="1">  1        2 0.11400735E+00 0.10143562E+04</pdfrwt>
<pdfrwt beam="2">  1       -2 0.53402476E-01 0.10143562E+04</pdfrwt>
<totfact> 0.12561849E+02</totfact>
</mgrwt>
</event>
<event>
 4    1  0.6705655E-006  0.7678198E+03  0.7818608E-02  0.9607801E-01
         -2   -1    0    0    0  501 -0.00000000000E+00  0.00000000000E+00  0.67886305230E+02  0.67886305278E+02  0.25500000000E-02 0. -1.
          2   -1    0    0  501    0  0.00000000000E+00 -0.00000000000E+00 -0.21710829667E+04  0.21710829667E+04  0.25500000000E-02 0.  1.
   -5000001    1    1    2    0    0 -0.25926280661E+03  0.13246267718E+03 -0.10839696118E+04  0.11498929007E+04  0.25000000000E+03 0.  0.
    5000001    1    1    2    0    0  0.25926280661E+03 -0.13246267718E+03 -0.10192270496E+04  0.10890763713E+04  0.25000000000E+03 0.  0.
<mgrwt>
<rscale>  0 0.76781977E+03</rscale>
<asrwt>0</asrwt>
<pdfrwt beam="1">  1        2 0.33401271E+00 0.76781977E+03</pdfrwt>
<pdfrwt beam="2">  1       -2 0.10444049E-01 0.76781977E+03</pdfrwt>
<totfact> 0.35193924E+02</totfact>
</mgrwt>
</event>
<event>
 4    1  0.6705655E-006  0.7366227E+03  0.7818608E-02  0.9656574E-01
          2   -1    0    0  501    0  0.00000000000E+00  0.00000000000E+00  0.10180224207E+04  0.10180224207E+04  0.25500000000E-02 0.  1.
         -2   -1    0    0    0  501 -0.00000000000E+00 -0.00000000000E+00 -0.13325172146E+03  0.13325172149E+03  0.25500000000E-02 0. -1.
   -5000001    1    1    2    0    0  0.18390549764E+03 -0.13340768179E+03  0.21303466478E+03  0.39937777857E+03  0.25000000000E+03 0.  0.
    5000001    1    1    2    0    0 -0.18390549764E+03  0.13340768179E+03  0.67173603446E+03  0.75189636361E+03  0.25000000000E+03 0.  0.
<mgrwt>
<rscale>  0 0.73662267E+03</rscale>
<asrwt>0</asrwt>
<pdfrwt beam="1">  1        2 0.15661883E+00 0.73662267E+03</pdfrwt>
<pdfrwt beam="2">  1       -2 0.20500266E-01 0.73662267E+03</pdfrwt>
<totfact> 0.50436906E+02</totfact>
</mgrwt>
</event>
<event>
 4    1  0.6705655E-006  0.6927431E+03  0.7818608E-02  0.9729724E-01
         -2   -1    0    0    0  501 -0.00000000000E+00  0.00000000000E+00  0.92904240011E+02  0.92904240046E+02  0.25500000000E-02 0. -1.
          2   -1    0    0  501    0  0.00000000000E+00 -0.00000000000E+00 -0.12913646775E+04  0.12913646775E+04  0.25500000000E-02 0.  1.
   -5000001    1    1    2    0    0 -0.17418873513E+03  0.16232055658E+03 -0.54329457258E+03  0.64370697614E+03  0.25000000000E+03 0.  0.
    5000001    1    1    2    0    0  0.17418873513E+03 -0.16232055658E+03 -0.65516586495E+03  0.74056194145E+03  0.25000000000E+03 0.  0.
<mgrwt>
<rscale>  0 0.69274311E+03</rscale>
<asrwt>0</asrwt>
<pdfrwt beam="1">  1        2 0.19867148E+00 0.69274311E+03</pdfrwt>
<pdfrwt beam="2">  1       -2 0.14292961E-01 0.69274311E+03</pdfrwt>
<totfact> 0.64285261E+02</totfact>
</mgrwt>
</event>
<event>
 4    1  0.6705655E-006  0.8719097E+03  0.7818608E-02  0.9461393E-01
         -2   -1    0    0    0  501 -0.00000000000E+00  0.00000000000E+00  0.14241345690E+03  0.14241345692E+03  0.25500000000E-02 0. -1.
          2   -1    0    0  501    0  0.00000000000E+00 -0.00000000000E+00 -0.13345412462E+04  0.13345412462E+04  0.25500000000E-02 0.  1.
   -5000001    1    1    2    0    0  0.33121827135E+03 -0.12392837466E+02 -0.82141085625E+03  0.92036673151E+03  0.25000000000E+03 0.  0.
    5000001    1    1    2    0    0 -0.33121827135E+03  0.12392837466E+02 -0.37071693304E+03  0.55658797161E+03  0.25000000000E+03 0.  0.
<mgrwt>
<rscale>  0 0.87190970E+03</rscale>
<asrwt>0</asrwt>
<pdfrwt beam="1">  1        2 0.20531403E+00 0.87190970E+03</pdfrwt>
<pdfrwt beam="2">  1       -2 0.21909764E-01 0.87190970E+03</pdfrwt>
<totfact> 0.28784706E+02</totfact>
</mgrwt>
</event>
<event>
 4    1  0.6705655E-006  0.1182141E+04  0.7818608E-02  0.9128634E-01
         -2   -1    0    0    0  501 -0.00000000000E+00  0.00000000000E+00  0.22553980863E+04  0.22553980863E+04  0.25500000000E-02 0. -1.
          2   -1    0    0  501    0  0.00000000000E+00 -0.00000000000E+00 -0.15490130670E+03  0.15490130672E+03  0.25500000000E-02 0.  1.
   -5000001    1    1    2    0    0 -0.50081003115E+03 -0.91358666830E+02  0.71086018852E+03  0.90938402280E+03  0.25000000000E+03 0.  0.
    5000001    1    1    2    0    0  0.50081003115E+03  0.91358666830E+02  0.13896365911E+04  0.15009153702E+04  0.25000000000E+03 0.  0.
<mgrwt>
<rscale>  0 0.11821406E+04</rscale>
<asrwt>0</asrwt>
<pdfrwt beam="1">  1        2 0.23830972E-01 0.11821406E+04</pdfrwt>
<pdfrwt beam="2">  1       -2 0.34698429E+00 0.11821406E+04</pdfrwt>
<totfact> 0.37786036E+00</totfact>
</mgrwt>
</event>
<event>
 4    1  0.6705655E-006  0.1683311E+04  0.7818608E-02  0.8770940E-01
          2   -1    0    0  501    0  0.00000000000E+00  0.00000000000E+00  0.16152332328E+04  0.16152332328E+04  0.25500000000E-02 0.  1.
         -2   -1    0    0    0  501 -0.00000000000E+00 -0.00000000000E+00 -0.43856470829E+03  0.43856470830E+03  0.25500000000E-02 0. -1.
   -5000001    1    1    2    0    0 -0.95107763795E+02 -0.64525997605E+03  0.11612308695E+04  0.13551247380E+04  0.25000000000E+03 0.  0.
    5000001    1    1    2    0    0  0.95107763795E+02  0.64525997605E+03  0.15437654990E+02  0.69867320302E+03  0.25000000000E+03 0.  0.
<mgrwt>
<rscale>  0 0.16833114E+04</rscale>
<asrwt>0</asrwt>
<pdfrwt beam="1">  1        2 0.24849742E+00 0.16833114E+04</pdfrwt>
<pdfrwt beam="2">  1       -2 0.67471494E-01 0.16833114E+04</pdfrwt>
<totfact> 0.20981530E+01</totfact>
</mgrwt>
</event>
<event>
 4    1  0.6705655E-006  0.9786001E+03  0.7818608E-02  0.9332332E-01
          2   -1    0    0  501    0  0.00000000000E+00  0.00000000000E+00  0.19199355253E+04  0.19199355253E+04  0.25500000000E-02 0.  1.
         -2   -1    0    0    0  501 -0.00000000000E+00 -0.00000000000E+00 -0.12469925949E+03  0.12469925951E+03  0.25500000000E-02 0. -1.
   -5000001    1    1    2    0    0 -0.40981243343E+03 -0.66700115202E+02  0.10380775922E+04  0.11456440212E+04  0.25000000000E+03 0.  0.
    5000001    1    1    2    0    0  0.40981243343E+03  0.66700115202E+02  0.75715867358E+03  0.89899076354E+03  0.25000000000E+03 0.  0.
<mgrwt>
<rscale>  0 0.97860010E+03</rscale>
<asrwt>0</asrwt>
<pdfrwt beam="1">  1        2 0.29537468E+00 0.97860010E+03</pdfrwt>
<pdfrwt beam="2">  1       -2 0.19184502E-01 0.97860010E+03</pdfrwt>
<totfact> 0.17064320E+02</totfact>
</mgrwt>
</event>
<event>
 4    1  0.6705655E-006  0.5603184E+03  0.7818608E-02  0.9991334E-01
         -2   -1    0    0    0  501 -0.00000000000E+00  0.00000000000E+00  0.39046381578E+02  0.39046381662E+02  0.25500000000E-02 0. -1.
          2   -1    0    0  501    0  0.00000000000E+00 -0.00000000000E+00 -0.20101526990E+04  0.20101526990E+04  0.25500000000E-02 0.  1.
   -5000001    1    1    2    0    0  0.12482452868E+03  0.19655606875E+02 -0.96852316330E+03  0.10082185396E+04  0.25000000000E+03 0.  0.
    5000001    1    1    2    0    0 -0.12482452868E+03 -0.19655606875E+02 -0.10025831541E+04  0.10409805410E+04  0.25000000000E+03 0.  0.
<mgrwt>
<rscale>  0 0.56031844E+03</rscale>
<asrwt>0</asrwt>
<pdfrwt beam="1">  1        2 0.30925418E+00 0.56031844E+03</pdfrwt>
<pdfrwt beam="2">  1       -2 0.60071372E-02 0.56031844E+03</pdfrwt>
<totfact> 0.10581556E+03</totfact>
</mgrwt>
</event>
<event>
 4    1  0.6705655E-006  0.6007451E+03  0.7818608E-02  0.9903861E-01
         -2   -1    0    0    0  501 -0.00000000000E+00  0.00000000000E+00  0.47238766589E+02  0.47238766658E+02  0.25500000000E-02 0. -1.
          2   -1    0    0  501    0  0.00000000000E+00 -0.00000000000E+00 -0.19099496572E+04  0.19099496572E+04  0.25500000000E-02 0.  1.
   -5000001    1    1    2    0    0  0.12814852422E+03 -0.79669521327E+02 -0.70203780233E+03  0.76034620588E+03  0.25000000000E+03 0.  0.
    5000001    1    1    2    0    0 -0.12814852422E+03  0.79669521327E+02 -0.11606730883E+04  0.11968422180E+04  0.25000000000E+03 0.  0.
<mgrwt>
<rscale>  0 0.60074509E+03</rscale>
<asrwt>0</asrwt>
<pdfrwt beam="1">  1        2 0.29383835E+00 0.60074509E+03</pdfrwt>
<pdfrwt beam="2">  1       -2 0.72675040E-02 0.60074509E+03</pdfrwt>
<totfact> 0.88589769E+02</totfact>
</mgrwt>
</event>
<event>
 4    1  0.6705655E-006  0.7711977E+03  0.7818608E-02  0.9602669E-01
         -2   -1    0    0    0  501 -0.00000000000E+00  0.00000000000E+00  0.56607506229E+02  0.56607506286E+02  0.25500000000E-02 0. -1.
          2   -1    0    0  501    0  0.00000000000E+00 -0.00000000000E+00 -0.26266214399E+04  0.26266214399E+04  0.25500000000E-02 0.  1.
   -5000001    1    1    2    0    0  0.85568763638E+02  0.27642028212E+03 -0.14574449882E+04  0.15067767185E+04  0.25000000000E+03 0.  0.
    5000001    1    1    2    0    0 -0.85568763638E+02 -0.27642028212E+03 -0.11125689454E+04  0.11764522277E+04  0.25000000000E+03 0.  0.
<mgrwt>
<rscale>  0 0.77119774E+03</rscale>
<asrwt>0</asrwt>
<pdfrwt beam="1">  1        2 0.40409551E+00 0.77119774E+03</pdfrwt>
<pdfrwt beam="2">  1       -2 0.87088491E-02 0.77119774E+03</pdfrwt>
<totfact> 0.26208371E+02</totfact>
</mgrwt>
</event>
<event>
 4    1  0.6705655E-006  0.5431217E+03  0.7818608E-02  0.1003099E+00
         -2   -1    0    0    0  501 -0.00000000000E+00  0.00000000000E+00  0.94172155171E+02  0.94172155206E+02  0.25500000000E-02 0. -1.
          2   -1    0    0  501    0  0.00000000000E+00 -0.00000000000E+00 -0.78309018677E+03  0.78309018677E+03  0.25500000000E-02 0.  1.
   -5000001    1    1    2    0    0  0.64185448575E+02  0.76504034270E+02 -0.28683717907E+03  0.39338048549E+03  0.25000000000E+03 0.  0.
    5000001    1    1    2    0    0 -0.64185448575E+02 -0.76504034270E+02 -0.40208085253E+03  0.48388185649E+03  0.25000000000E+03 0.  0.
<mgrwt>
<rscale>  0 0.54312168E+03</rscale>
<asrwt>0</asrwt>
<pdfrwt beam="1">  1        2 0.12047541E+00 0.54312168E+03</pdfrwt>
<pdfrwt beam="2">  1       -2 0.14488024E-01 0.54312168E+03</pdfrwt>
<totfact> 0.13217420E+03</totfact>
</mgrwt>
</event>
<event>
 4    1  0.6705655E-006  0.6480247E+03  0.7818608E-02  0.9810493E-01
         -2   -1    0    0    0  501 -0.00000000000E+00  0.00000000000E+00  0.16346625462E+03  0.16346625464E+03  0.25500000000E-02 0. -1.
          2   -1    0    0  501    0  0.00000000000E+00 -0.00000000000E+00 -0.64223651568E+03  0.64223651568E+03  0.25500000000E-02 0.  1.
   -5000001    1    1    2    0    0  0.94013018711E+02 -0.76088958202E+02 -0.31873307853E+02  0.27954227766E+03  0.25000000000E+03 0.  0.
    5000001    1    1    2    0    0 -0.94013018711E+02  0.76088958202E+02 -0.44689695321E+03  0.52616049266E+03  0.25000000000E+03 0.  0.
<mgrwt>
<rscale>  0 0.64802468E+03</rscale>
<asrwt>0</asrwt>
<pdfrwt beam="1">  1        2 0.98805616E-01 0.64802468E+03</pdfrwt>
<pdfrwt beam="2">  1       -2 0.25148655E-01 0.64802468E+03</pdfrwt>
<totfact> 0.65081592E+02</totfact>
</mgrwt>
</event>
<event>
 4    1  0.6705655E-006  0.1283706E+04  0.7818608E-02  0.9042587E-01
          2   -1    0    0  501    0  0.00000000000E+00  0.00000000000E+00  0.13727313451E+04  0.13727313451E+04  0.25500000000E-02 0.  1.
         -2   -1    0    0    0  501 -0.00000000000E+00 -0.00000000000E+00 -0.30011371168E+03  0.30011371169E+03  0.25500000000E-02 0. -1.
   -5000001    1    1    2    0    0  0.55947815425E+03 -0.18881099876E+03  0.49921858394E+03  0.81264050655E+03  0.25000000000E+03 0.  0.
    5000001    1    1    2    0    0 -0.55947815425E+03  0.18881099876E+03  0.57339904950E+03  0.86020455027E+03  0.25000000000E+03 0.  0.
<mgrwt>
<rscale>  0 0.12837064E+04</rscale>
<asrwt>0</asrwt>
<pdfrwt beam="1">  1        2 0.21118944E+00 0.12837064E+04</pdfrwt>
<pdfrwt beam="2">  1       -2 0.46171340E-01 0.12837064E+04</pdfrwt>
<totfact> 0.65449670E+01</totfact>
</mgrwt>
</event>
<event>
 4    1  0.6705655E-006  0.7311476E+03  0.7818608E-02  0.9665400E-01
          2   -1    0    0  501    0  0.00000000000E+00  0.00000000000E+00  0.62918814843E+03  0.62918814843E+03  0.25500000000E-02 0.  1.
         -2   -1    0    0    0  501 -0.00000000000E+00 -0.00000000000E+00 -0.21240739021E+03  0.21240739022E+03  0.25500000000E-02 0. -1.
   -5000001    1    1    2    0    0 -0.21779513901E+03 -0.12517839814E+03  0.10518019404E+03  0.36968530827E+03  0.25000000000E+03 0.  0.
    5000001    1    1    2    0    0  0.21779513901E+03  0.12517839814E+03  0.31160056419E+03  0.47191023038E+03  0.25000000000E+03 0.  0.
<mgrwt>
<rscale>  0 0.73114763E+03</rscale>
<asrwt>0</asrwt>
<pdfrwt beam="1">  1        2 0.96798176E-01 0.73114763E+03</pdfrwt>
<pdfrwt beam="2">  1       -2 0.32678060E-01 0.73114763E+03</pdfrwt>
<totfact> 0.41118303E+02</totfact>
</mgrwt>
</event>
<event>
 4    1  0.6705655E-006  0.6033796E+03  0.7818608E-02  0.9898419E-01
          2   -1    0    0  501    0  0.00000000000E+00  0.00000000000E+00  0.24742984729E+03  0.24742984730E+03  0.25500000000E-02 0.  1.
         -2   -1    0    0    0  501 -0.00000000000E+00 -0.00000000000E+00 -0.36784868832E+03  0.36784868833E+03  0.25500000000E-02 0. -1.
   -5000001    1    1    2    0    0 -0.12862682022E+03  0.30105525819E+02  0.47057913994E+02  0.28664551075E+03  0.25000000000E+03 0.  0.
    5000001    1    1    2    0    0  0.12862682022E+03 -0.30105525819E+02 -0.16747675503E+03  0.32863302488E+03  0.25000000000E+03 0.  0.
<mgrwt>
<rscale>  0 0.60337963E+03</rscale>
<asrwt>0</asrwt>
<pdfrwt beam="1">  1        2 0.38066130E-01 0.60337963E+03</pdfrwt>
<pdfrwt beam="2">  1       -2 0.56592106E-01 0.60337963E+03</pdfrwt>
<totfact> 0.40256379E+02</totfact>
</mgrwt>
</event>
<event>
 4    1  0.6705655E-006  0.7988627E+03  0.7818608E-02  0.9561665E-01
         -2   -1    0    0    0  501 -0.00000000000E+00  0.00000000000E+00  0.98891286030E+02  0.98891286063E+02  0.25500000000E-02 0. -1.
          2   -1    0    0  501    0  0.00000000000E+00 -0.00000000000E+00 -0.16133412471E+04  0.16133412471E+04  0.25500000000E-02 0.  1.
   -5000001    1    1    2    0    0 -0.19119443595E+02 -0.23052011050E+03 -0.12044606234E+04  0.12516910432E+04  0.25000000000E+03 0.  0.
    5000001    1    1    2    0    0  0.19119443595E+02  0.23052011050E+03 -0.30998933773E+03  0.46054148996E+03  0.25000000000E+03 0.  0.
<mgrwt>
<rscale>  0 0.79886267E+03</rscale>
<asrwt>0</asrwt>
<pdfrwt beam="1">  1        2 0.24820633E+00 0.79886267E+03</pdfrwt>
<pdfrwt beam="2">  1       -2 0.15214045E-01 0.79886267E+03</pdfrwt>
<totfact> 0.37933409E+02</totfact>
</mgrwt>
</event>
<event>
 4    1  0.6705655E-006  0.5997870E+03  0.7818608E-02  0.9905848E-01
         -2   -1    0    0    0  501 -0.00000000000E+00  0.00000000000E+00  0.12779345864E+03  0.12779345867E+03  0.25500000000E-02 0. -1.
          2   -1    0    0  501    0  0.00000000000E+00 -0.00000000000E+00 -0.70376149821E+03  0.70376149821E+03  0.25500000000E-02 0.  1.
   -5000001    1    1    2    0    0  0.14231756621E+03  0.74424061409E+02 -0.23178903901E+03  0.37685459951E+03  0.25000000000E+03 0.  0.
    5000001    1    1    2    0    0 -0.14231756621E+03 -0.74424061409E+02 -0.34417900056E+03  0.45470035737E+03  0.25000000000E+03 0.  0.
<mgrwt>
<rscale>  0 0.59978702E+03</rscale>
<asrwt>0</asrwt>
<pdfrwt beam="1">  1        2 0.10827100E+00 0.59978702E+03</pdfrwt>
<pdfrwt beam="2">  1       -2 0.19660533E-01 0.59978702E+03</pdfrwt>
<totfact> 0.89919722E+02</totfact>
</mgrwt>
</event>
<event>
 4    1  0.6705655E-006  0.8246090E+03  0.7818608E-02  0.9525064E-01
          2   -1    0    0  501    0  0.00000000000E+00  0.00000000000E+00  0.19924610308E+04  0.19924610308E+04  0.25500000000E-02 0.  1.
         -2   -1    0    0    0  501 -0.00000000000E+00 -0.00000000000E+00 -0.85319100897E+02  0.85319100935E+02  0.25500000000E-02 0. -1.
   -5000001    1    1    2    0    0 -0.27171325544E+03 -0.85489771499E+02  0.13626535356E+04  0.14143766303E+04  0.25000000000E+03 0.  0.
    5000001    1    1    2    0    0  0.27171325544E+03  0.85489771499E+02  0.54448839432E+03  0.66340350147E+03  0.25000000000E+03 0.  0.
<mgrwt>
<rscale>  0 0.82460896E+03</rscale>
<asrwt>0</asrwt>
<pdfrwt beam="1">  1        2 0.30653246E+00 0.82460896E+03</pdfrwt>
<pdfrwt beam="2">  1       -2 0.13126016E-01 0.82460896E+03</pdfrwt>
<totfact> 0.30101165E+02</totfact>
</mgrwt>
</event>
<event>
 4    1  0.6705655E-006  0.6117323E+03  0.7818608E-02  0.9881360E-01
         -2   -1    0    0    0  501 -0.00000000000E+00  0.00000000000E+00  0.63361258468E+02  0.63361258519E+02  0.25500000000E-02 0. -1.
          2   -1    0    0  501    0  0.00000000000E+00 -0.00000000000E+00 -0.14765190581E+04  0.14765190581E+04  0.25500000000E-02 0.  1.
   -5000001    1    1    2    0    0 -0.82998700919E+02  0.15537294962E+03 -0.69410192104E+03  0.75848995684E+03  0.25000000000E+03 0.  0.
    5000001    1    1    2    0    0  0.82998700919E+02 -0.15537294962E+03 -0.71905587858E+03  0.78139035977E+03  0.25000000000E+03 0.  0.
<mgrwt>
<rscale>  0 0.61173231E+03</rscale>
<asrwt>0</asrwt>
<pdfrwt beam="1">  1        2 0.22715675E+00 0.61173231E+03</pdfrwt>
<pdfrwt beam="2">  1       -2 0.97478870E-02 0.61173231E+03</pdfrwt>
<totfact> 0.95314235E+02</totfact>
</mgrwt>
</event>
<event>
 4    1  0.6705655E-006  0.5917248E+03  0.7818608E-02  0.9922725E-01
         -2   -1    0    0    0  501 -0.00000000000E+00  0.00000000000E+00  0.10016096284E+03  0.10016096287E+03  0.25500000000E-02 0. -1.
          2   -1    0    0  501    0  0.00000000000E+00 -0.00000000000E+00 -0.87393898073E+03  0.87393898074E+03  0.25500000000E-02 0.  1.
   -5000001    1    1    2    0    0  0.99816156315E+02 -0.21537980606E+02 -0.18792685142E+03  0.32900402909E+03  0.25000000000E+03 0.  0.
    5000001    1    1    2    0    0 -0.99816156315E+02  0.21537980606E+02 -0.58585116647E+03  0.64509591452E+03  0.25000000000E+03 0.  0.
<mgrwt>
<rscale>  0 0.59172483E+03</rscale>
<asrwt>0</asrwt>
<pdfrwt beam="1">  1        2 0.13445215E+00 0.59172483E+03</pdfrwt>
<pdfrwt beam="2">  1       -2 0.15409379E-01 0.59172483E+03</pdfrwt>
<totfact> 0.10287551E+03</totfact>
</mgrwt>
</event>
<event>
 4    1  0.6705655E-006  0.7007073E+03  0.7818608E-02  0.9716023E-01
         -2   -1    0    0    0  501 -0.00000000000E+00  0.00000000000E+00  0.52875509000E+02  0.52875509061E+02  0.25500000000E-02 0. -1.
          2   -1    0    0  501    0  0.00000000000E+00 -0.00000000000E+00 -0.23214467104E+04  0.23214467104E+04  0.25500000000E-02 0.  1.
   -5000001    1    1    2    0    0  0.94092785426E+02  0.22331696264E+03 -0.12665555179E+04  0.13135397969E+04  0.25000000000E+03 0.  0.
    5000001    1    1    2    0    0 -0.94092785426E+02 -0.22331696264E+03 -0.10020156835E+04  0.10607824225E+04  0.25000000000E+03 0.  0.
<mgrwt>
<rscale>  0 0.70070729E+03</rscale>
<asrwt>0</asrwt>
<pdfrwt beam="1">  1        2 0.35714557E+00 0.70070729E+03</pdfrwt>
<pdfrwt beam="2">  1       -2 0.81346955E-02 0.70070729E+03</pdfrwt>
<totfact> 0.43778359E+02</totfact>
</mgrwt>
</event>
<event>
 4    1  0.6705655E-006  0.7353994E+03  0.7818608E-02  0.9658539E-01
          2   -1    0    0  501    0  0.00000000000E+00  0.00000000000E+00  0.35867721844E+04  0.35867721844E+04  0.25500000000E-02 0.  1.
         -2   -1    0    0    0  501 -0.00000000000E+00 -0.00000000000E+00 -0.37694913201E+02  0.37694913287E+02  0.25500000000E-02 0. -1.
   -5000001    1    1    2    0    0 -0.26652671042E+03 -0.34901915034E+02  0.18789074580E+04  0.19144314736E+04  0.25000000000E+03 0.  0.
    5000001    1    1    2    0    0  0.26652671042E+03  0.34901915034E+02  0.16701698132E+04  0.17100356242E+04  0.25000000000E+03 0.  0.
<mgrwt>
<rscale>  0 0.73539939E+03</rscale>
<asrwt>0</asrwt>
<pdfrwt beam="1">  1        2 0.55181102E+00 0.73539939E+03</pdfrwt>
<pdfrwt beam="2">  1       -2 0.57992183E-02 0.73539939E+03</pdfrwt>
<totfact> 0.12510906E+02</totfact>
</mgrwt>
</event>
<event>
 4    1  0.6705655E-006  0.8745531E+03  0.7818608E-02  0.9457962E-01
         -2   -1    0    0    0  501 -0.00000000000E+00  0.00000000000E+00  0.22391010123E+03  0.22391010124E+03  0.25500000000E-02 0. -1.
          2   -1    0    0  501    0  0.00000000000E+00 -0.00000000000E+00 -0.85396234288E+03  0.85396234288E+03  0.25500000000E-02 0.  1.
   -5000001    1    1    2    0    0  0.31175111146E+03  0.29795247299E+02 -0.53074344580E+03  0.66503016287E+03  0.25000000000E+03 0.  0.
    5000001    1    1    2    0    0 -0.31175111146E+03 -0.29795247299E+02 -0.99308795844E+02  0.41284228126E+03  0.25000000000E+03 0.  0.
<mgrwt>
<rscale>  0 0.87455313E+03</rscale>
<asrwt>0</asrwt>
<pdfrwt beam="1">  1        2 0.13137882E+00 0.87455313E+03</pdfrwt>
<pdfrwt beam="2">  1       -2 0.34447708E-01 0.87455313E+03</pdfrwt>
<totfact> 0.24970460E+02</totfact>
</mgrwt>
</event>
<event>
 4    1  0.6705655E-006  0.5669809E+03  0.7818608E-02  0.9976382E-01
         -2   -1    0    0    0  501 -0.00000000000E+00  0.00000000000E+00  0.63912179898E+02  0.63912179948E+02  0.25500000000E-02 0. -1.
          2   -1    0    0  501    0  0.00000000000E+00 -0.00000000000E+00 -0.12574574760E+04  0.12574574760E+04  0.25500000000E-02 0.  1.
   -5000001    1    1    2    0    0 -0.12040560645E+03  0.26125789601E+02 -0.71757406831E+03  0.76980037052E+03  0.25000000000E+03 0.  0.
    5000001    1    1    2    0    0  0.12040560645E+03 -0.26125789601E+02 -0.47597122783E+03  0.55156928547E+03  0.25000000000E+03 0.  0.
<mgrwt>
<rscale>  0 0.56698095E+03</rscale>
<asrwt>0</asrwt>
<pdfrwt beam="1">  1        2 0.19345498E+00 0.56698095E+03</pdfrwt>
<pdfrwt beam="2">  1       -2 0.98326440E-02 0.56698095E+03</pdfrwt>
<totfact> 0.12516756E+03</totfact>
</mgrwt>
</event>
<event>
 4    1  0.6705655E-006  0.7369129E+03  0.7818608E-02  0.9656109E-01
         -2   -1    0    0    0  501 -0.00000000000E+00  0.00000000000E+00  0.11635060365E+04  0.11635060365E+04  0.25500000000E-02 0. -1.
          2   -1    0    0  501    0  0.00000000000E+00 -0.00000000000E+00 -0.11668195235E+03  0.11668195238E+03  0.25500000000E-02 0.  1.
   -5000001    1    1    2    0    0 -0.24064166049E+03 -0.12587721659E+02  0.73754503845E+03  0.81519294848E+03  0.25000000000E+03 0.  0.
    5000001    1    1    2    0    0  0.24064166049E+03  0.12587721659E+02  0.30927904569E+03  0.46499504041E+03  0.25000000000E+03 0.  0.
<mgrwt>
<rscale>  0 0.73691290E+03</rscale>
<asrwt>0</asrwt>
<pdfrwt beam="1">  1        2 0.17951069E-01 0.73691290E+03</pdfrwt>
<pdfrwt beam="2">  1       -2 0.17900093E+00 0.73691290E+03</pdfrwt>
<totfact> 0.60381780E+01</totfact>
</mgrwt>
</event>
<event>
 4    1  0.6705655E-006  0.8066299E+03  0.7818608E-02  0.9550470E-01
         -2   -1    0    0    0  501 -0.00000000000E+00  0.00000000000E+00  0.46420557761E+03  0.46420557762E+03  0.25500000000E-02 0.  1.
          2   -1    0    0  501    0  0.00000000000E+00 -0.00000000000E+00 -0.35041148950E+03  0.35041148950E+03  0.25500000000E-02 0. -1.
   -5000001    1    1    2    0    0  0.15635113915E+03 -0.23279684463E+03  0.20505662527E+03  0.42800498729E+03  0.25000000000E+03 0.  0.
    5000001    1    1    2    0    0 -0.15635113915E+03  0.23279684463E+03 -0.91262537155E+02  0.38661207983E+03  0.25000000000E+03 0.  0.
<mgrwt>
<rscale>  0 0.80662995E+03</rscale>
<asrwt>0</asrwt>
<pdfrwt beam="1">  1        2 0.53909460E-01 0.80662995E+03</pdfrwt>
<pdfrwt beam="2">  1       -2 0.71416243E-01 0.80662995E+03</pdfrwt>
<totfact> 0.16542556E+02</totfact>
</mgrwt>
</event>
<event>
 4    1  0.6705655E-006  0.6117223E+03  0.7818608E-02  0.9881380E-01
          2   -1    0    0  501    0  0.00000000000E+00  0.00000000000E+00  0.35859528354E+03  0.35859528355E+03  0.25500000000E-02 0.  1.
         -2   -1    0    0    0  501 -0.00000000000E+00 -0.00000000000E+00 -0.26088200630E+03  0.26088200631E+03  0.25500000000E-02 0. -1.
   -5000001    1    1    2    0    0 -0.85356508978E+02  0.15405633055E+03  0.43130719497E+02  0.30883546683E+03  0.25000000000E+03 0.  0.
    5000001    1    1    2    0    0  0.85356508978E+02 -0.15405633055E+03  0.54582557741E+02  0.31064182303E+03  0.25000000000E+03 0.  0.
<mgrwt>
<rscale>  0 0.61172235E+03</rscale>
<asrwt>0</asrwt>
<pdfrwt beam="1">  1        2 0.55168505E-01 0.61172235E+03</pdfrwt>
<pdfrwt beam="2">  1       -2 0.40135694E-01 0.61172235E+03</pdfrwt>
<totfact> 0.53244771E+02</totfact>
</mgrwt>
</event>
<event>
 4    1  0.6705655E-006  0.1451003E+04  0.7818608E-02  0.8917706E-01
         -2   -1    0    0    0  501 -0.00000000000E+00  0.00000000000E+00  0.67431852743E+03  0.67431852743E+03  0.25500000000E-02 0. -1.
          2   -1    0    0  501    0  0.00000000000E+00 -0.00000000000E+00 -0.78056908628E+03  0.78056908628E+03  0.25500000000E-02 0.  1.
   -5000001    1    1    2    0    0  0.14570352560E+03  0.66373542792E+03 -0.74185710687E+01  0.72410584229E+03  0.25000000000E+03 0.  0.
    5000001    1    1    2    0    0 -0.14570352560E+03 -0.66373542792E+03 -0.98831987780E+02  0.73078177143E+03  0.25000000000E+03 0.  0.
<mgrwt>
<rscale>  0 0.14510027E+04</rscale>
<asrwt>0</asrwt>
<pdfrwt beam="1">  1        2 0.12008755E+00 0.14510027E+04</pdfrwt>
<pdfrwt beam="2">  1       -2 0.10374131E+00 0.14510027E+04</pdfrwt>
<totfact> 0.26117365E+01</totfact>
</mgrwt>
</event>
<event>
 4    1  0.6705655E-006  0.7746340E+03  0.7818608E-02  0.9597477E-01
         -2   -1    0    0    0  501 -0.00000000000E+00  0.00000000000E+00  0.22434127783E+03  0.22434127784E+03  0.25500000000E-02 0. -1.
          2   -1    0    0  501    0  0.00000000000E+00 -0.00000000000E+00 -0.66868863620E+03  0.66868863621E+03  0.25500000000E-02 0.  1.
   -5000001    1    1    2    0    0  0.15892399605E+03  0.24786614266E+03 -0.25518606262E+03  0.46294101974E+03  0.25000000000E+03 0.  0.
    5000001    1    1    2    0    0 -0.15892399605E+03 -0.24786614266E+03 -0.18916129575E+03  0.43008889431E+03  0.25000000000E+03 0.  0.
<mgrwt>
<rscale>  0 0.77463401E+03</rscale>
<asrwt>0</asrwt>
<pdfrwt beam="1">  1        2 0.10287517E+00 0.77463401E+03</pdfrwt>
<pdfrwt beam="2">  1       -2 0.34514043E-01 0.77463401E+03</pdfrwt>
<totfact> 0.34347069E+02</totfact>
</mgrwt>
</event>
<event>
 4    1  0.6705655E-006  0.7545323E+03  0.7818608E-02  0.9628267E-01
         -2   -1    0    0    0  501 -0.00000000000E+00  0.00000000000E+00  0.12380071833E+03  0.12380071836E+03  0.25500000000E-02 0. -1.
          2   -1    0    0  501    0  0.00000000000E+00 -0.00000000000E+00 -0.11496682531E+04  0.11496682531E+04  0.25500000000E-02 0.  1.
   -5000001    1    1    2    0    0 -0.26585995681E+02  0.22510112321E+03 -0.79762242332E+03  0.86607093302E+03  0.25000000000E+03 0.  0.
    5000001    1    1    2    0    0  0.26585995681E+02 -0.22510112321E+03 -0.22824511147E+03  0.40739803847E+03  0.25000000000E+03 0.  0.
<mgrwt>
<rscale>  0 0.75453232E+03</rscale>
<asrwt>0</asrwt>
<pdfrwt beam="1">  1        2 0.17687203E+00 0.75453232E+03</pdfrwt>
<pdfrwt beam="2">  1       -2 0.19046265E-01 0.75453232E+03</pdfrwt>
<totfact> 0.47550451E+02</totfact>
</mgrwt>
</event>
<event>
 4    1  0.6705655E-006  0.6613081E+03  0.7818608E-02  0.9785789E-01
         -2   -1    0    0    0  501 -0.00000000000E+00  0.00000000000E+00  0.12502895991E+04  0.12502895991E+04  0.25500000000E-02 0. -1.
          2   -1    0    0  501    0  0.00000000000E+00 -0.00000000000E+00 -0.87445427418E+02  0.87445427455E+02  0.25500000000E-02 0.  1.
   -5000001    1    1    2    0    0  0.13136769925E+03  0.17084315565E+03  0.62122942744E+03  0.70347058059E+03  0.25000000000E+03 0.  0.
    5000001    1    1    2    0    0 -0.13136769925E+03 -0.17084315565E+03  0.54161474424E+03  0.63426444597E+03  0.25000000000E+03 0.  0.
<mgrwt>
<rscale>  0 0.66130812E+03</rscale>
<asrwt>0</asrwt>
<pdfrwt beam="1">  1        2 0.13453144E-01 0.66130812E+03</pdfrwt>
<pdfrwt beam="2">  1       -2 0.19235223E+00 0.66130812E+03</pdfrwt>
<totfact> 0.69933241E+01</totfact>
</mgrwt>
</event>
<event>
 4    1  0.6705655E-006  0.1243912E+04  0.7818608E-02  0.9075266E-01
          2   -1    0    0  501    0  0.00000000000E+00  0.00000000000E+00  0.30572594972E+04  0.30572594972E+04  0.25500000000E-02 0.  1.
         -2   -1    0    0    0  501 -0.00000000000E+00 -0.00000000000E+00 -0.12652801952E+03  0.12652801954E+03  0.25500000000E-02 0. -1.
   -5000001    1    1    2    0    0  0.30700653987E+03  0.46967831528E+03  0.12161825468E+04  0.13625163201E+04  0.25000000000E+03 0.  0.
    5000001    1    1    2    0    0 -0.30700653987E+03 -0.46967831528E+03  0.17145489309E+04  0.18212711967E+04  0.25000000000E+03 0.  0.
<mgrwt>
<rscale>  0 0.12439116E+04</rscale>
<asrwt>0</asrwt>
<pdfrwt beam="1">  1        2 0.47034756E+00 0.12439116E+04</pdfrwt>
<pdfrwt beam="2">  1       -2 0.19465852E-01 0.12439116E+04</pdfrwt>
<totfact> 0.35836766E+01</totfact>
</mgrwt>
</event>
<event>
 4    1  0.6705655E-006  0.6030356E+03  0.7818608E-02  0.9899128E-01
          2   -1    0    0  501    0  0.00000000000E+00  0.00000000000E+00  0.43470316173E+03  0.43470316174E+03  0.25500000000E-02 0.  1.
         -2   -1    0    0    0  501 -0.00000000000E+00 -0.00000000000E+00 -0.20913811182E+03  0.20913811184E+03  0.25500000000E-02 0. -1.
   -5000001    1    1    2    0    0  0.11027956919E+03 -0.12605811503E+03  0.13306164268E+03  0.32902527638E+03  0.25000000000E+03 0.  0.
    5000001    1    1    2    0    0 -0.11027956919E+03  0.12605811503E+03  0.92503407230E+02  0.31481599720E+03  0.25000000000E+03 0.  0.
<mgrwt>
<rscale>  0 0.60303565E+03</rscale>
<asrwt>0</asrwt>
<pdfrwt beam="1">  1        2 0.66877409E-01 0.60303565E+03</pdfrwt>
<pdfrwt beam="2">  1       -2 0.32175095E-01 0.60303565E+03</pdfrwt>
<totfact> 0.65438462E+02</totfact>
</mgrwt>
</event>
<event>
 4    1  0.6705655E-006  0.7349058E+03  0.7818608E-02  0.9659333E-01
          2   -1    0    0  501    0  0.00000000000E+00  0.00000000000E+00  0.14245319515E+03  0.14245319517E+03  0.25500000000E-02 0.  1.
         -2   -1    0    0    0  501 -0.00000000000E+00 -0.00000000000E+00 -0.94783143536E+03  0.94783143536E+03  0.25500000000E-02 0. -1.
   -5000001    1    1    2    0    0  0.21952966149E+03 -0.97817319441E+02 -0.22244830993E+03  0.41200091122E+03  0.25000000000E+03 0.  0.
    5000001    1    1    2    0    0 -0.21952966149E+03  0.97817319441E+02 -0.58292993029E+03  0.67828371931E+03  0.25000000000E+03 0.  0.
<mgrwt>
<rscale>  0 0.73490575E+03</rscale>
<asrwt>0</asrwt>
<pdfrwt beam="1">  1        2 0.21915877E-01 0.73490575E+03</pdfrwt>
<pdfrwt beam="2">  1       -2 0.14582022E+00 0.73490575E+03</pdfrwt>
<totfact> 0.83340649E+01</totfact>
</mgrwt>
</event>
<event>
 4    1  0.6705655E-006  0.6355985E+03  0.7818608E-02  0.9834184E-01
         -2   -1    0    0    0  501 -0.00000000000E+00  0.00000000000E+00  0.36392133854E+03  0.36392133855E+03  0.25500000000E-02 0. -1.
          2   -1    0    0  501    0  0.00000000000E+00 -0.00000000000E+00 -0.27752248444E+03  0.27752248445E+03  0.25500000000E-02 0.  1.
   -5000001    1    1    2    0    0  0.17631403269E+03  0.62895242949E+02 -0.16110984037E+02  0.31273313466E+03  0.25000000000E+03 0.  0.
    5000001    1    1    2    0    0 -0.17631403269E+03 -0.62895242949E+02  0.10250983814E+03  0.32871068834E+03  0.25000000000E+03 0.  0.
<mgrwt>
<rscale>  0 0.63559847E+03</rscale>
<asrwt>0</asrwt>
<pdfrwt beam="1">  1        2 0.42695767E-01 0.63559847E+03</pdfrwt>
<pdfrwt beam="2">  1       -2 0.55987898E-01 0.63559847E+03</pdfrwt>
<totfact> 0.36224041E+02</totfact>
</mgrwt>
</event>
<event>
 4    1  0.6705655E-006  0.9625116E+03  0.7818608E-02  0.9350645E-01
         -2   -1    0    0    0  501 -0.00000000000E+00  0.00000000000E+00  0.22651030858E+03  0.22651030859E+03  0.25500000000E-02 0. -1.
          2   -1    0    0  501    0  0.00000000000E+00 -0.00000000000E+00 -0.10225015407E+04  0.10225015408E+04  0.25500000000E-02 0.  1.
   -5000001    1    1    2    0    0  0.38343418669E+03 -0.13613413013E+03 -0.32064748965E+03  0.57521221260E+03  0.25000000000E+03 0.  0.
    5000001    1    1    2    0    0 -0.38343418669E+03  0.13613413013E+03 -0.47534374253E+03  0.67379963674E+03  0.25000000000E+03 0.  0.
<mgrwt>
<rscale>  0 0.96251159E+03</rscale>
<asrwt>0</asrwt>
<pdfrwt beam="1">  1        2 0.15730793E+00 0.96251159E+03</pdfrwt>
<pdfrwt beam="2">  1       -2 0.34847741E-01 0.96251159E+03</pdfrwt>
<totfact> 0.18802164E+02</totfact>
</mgrwt>
</event>
<event>
 4    1  0.6705655E-006  0.1077356E+04  0.7818608E-02  0.9227548E-01
         -2   -1    0    0    0  501 -0.00000000000E+00  0.00000000000E+00  0.40567943404E+03  0.40567943405E+03  0.25500000000E-02 0. -1.
          2   -1    0    0  501    0  0.00000000000E+00 -0.00000000000E+00 -0.71527871824E+03  0.71527871825E+03  0.25500000000E-02 0.  1.
   -5000001    1    1    2    0    0  0.39470754522E+03 -0.56866084496E+02 -0.42740732343E+03  0.63577104207E+03  0.25000000000E+03 0.  0.
    5000001    1    1    2    0    0 -0.39470754522E+03  0.56866084496E+02  0.11780803922E+03  0.48518711022E+03  0.25000000000E+03 0.  0.
<mgrwt>
<rscale>  0 0.10773558E+04</rscale>
<asrwt>0</asrwt>
<pdfrwt beam="1">  1        2 0.11004288E+00 0.10773558E+04</pdfrwt>
<pdfrwt beam="2">  1       -2 0.62412221E-01 0.10773558E+04</pdfrwt>
<totfact> 0.94436515E+01</totfact>
</mgrwt>
</event>
<event>
 4    1  0.6705655E-006  0.7108455E+03  0.7818608E-02  0.9698863E-01
         -2   -1    0    0    0  501 -0.00000000000E+00  0.00000000000E+00  0.15549220348E+03  0.15549220350E+03  0.25500000000E-02 0. -1.
          2   -1    0    0  501    0  0.00000000000E+00 -0.00000000000E+00 -0.81242224750E+03  0.81242224751E+03  0.25500000000E-02 0.  1.
   -5000001    1    1    2    0    0  0.15305323248E+03  0.16890424321E+03 -0.18010648116E+03  0.38326528659E+03  0.25000000000E+03 0.  0.
    5000001    1    1    2    0    0 -0.15305323248E+03 -0.16890424321E+03 -0.47682356287E+03  0.58464916442E+03  0.25000000000E+03 0.  0.
<mgrwt>
<rscale>  0 0.71084548E+03</rscale>
<asrwt>0</asrwt>
<pdfrwt beam="1">  1        2 0.12498804E+00 0.71084548E+03</pdfrwt>
<pdfrwt beam="2">  1       -2 0.23921878E-01 0.71084548E+03</pdfrwt>
<totfact> 0.52682572E+02</totfact>
</mgrwt>
</event>
<event>
 4    1  0.6705655E-006  0.8614180E+03  0.7818608E-02  0.9475139E-01
          2   -1    0    0  501    0  0.00000000000E+00  0.00000000000E+00  0.37672811238E+03  0.37672811239E+03  0.25500000000E-02 0.  1.
         -2   -1    0    0    0  501 -0.00000000000E+00 -0.00000000000E+00 -0.49242472436E+03  0.49242472437E+03  0.25500000000E-02 0. -1.
   -5000001    1    1    2    0    0 -0.22219990819E+03 -0.16849468794E+03  0.15677506150E+03  0.40600699374E+03  0.25000000000E+03 0.  0.
    5000001    1    1    2    0    0  0.22219990819E+03  0.16849468794E+03 -0.27247167347E+03  0.46314584302E+03  0.25000000000E+03 0.  0.
<mgrwt>
<rscale>  0 0.86141799E+03</rscale>
<asrwt>0</asrwt>
<pdfrwt beam="1">  1        2 0.57958171E-01 0.86141799E+03</pdfrwt>
<pdfrwt beam="2">  1       -2 0.75757651E-01 0.86141799E+03</pdfrwt>
<totfact> 0.13359574E+02</totfact>
</mgrwt>
</event>
<event>
 4    1  0.6705655E-006  0.6880885E+03  0.7818608E-02  0.9737822E-01
          2   -1    0    0  501    0  0.00000000000E+00  0.00000000000E+00  0.23951901484E+04  0.23951901484E+04  0.25500000000E-02 0.  1.
         -2   -1    0    0    0  501 -0.00000000000E+00 -0.00000000000E+00 -0.49418388855E+02  0.49418388921E+02  0.25500000000E-02 0. -1.
   -5000001    1    1    2    0    0 -0.13819100997E+03  0.68153747069E+02  0.18096592828E+04  0.18333325962E+04  0.25000000000E+03 0.  0.
    5000001    1    1    2    0    0  0.13819100997E+03 -0.68153747069E+02  0.53611247679E+03  0.61127594117E+03  0.25000000000E+03 0.  0.
<mgrwt>
<rscale>  0 0.68808848E+03</rscale>
<asrwt>0</asrwt>
<pdfrwt beam="1">  1        2 0.36849071E+00 0.68808848E+03</pdfrwt>
<pdfrwt beam="2">  1       -2 0.76028307E-02 0.68808848E+03</pdfrwt>
<totfact> 0.44416964E+02</totfact>
</mgrwt>
</event>
<event>
 4    1  0.6705655E-006  0.5413855E+03  0.7818608E-02  0.1003508E+00
          2   -1    0    0  501    0  0.00000000000E+00  0.00000000000E+00  0.96529165849E+03  0.96529165849E+03  0.25500000000E-02 0.  1.
         -2   -1    0    0    0  501 -0.00000000000E+00 -0.00000000000E+00 -0.75909257814E+02  0.75909257857E+02  0.25500000000E-02 0. -1.
   -5000001    1    1    2    0    0 -0.43407810720E+02 -0.94288500341E+02  0.44491929431E+03  0.52079529354E+03  0.25000000000E+03 0.  0.
    5000001    1    1    2    0    0  0.43407810720E+02  0.94288500341E+02  0.44446310637E+03  0.52040562281E+03  0.25000000000E+03 0.  0.
<mgrwt>
<rscale>  0 0.54138553E+03</rscale>
<asrwt>0</asrwt>
<pdfrwt beam="1">  1        2 0.14850642E+00 0.54138553E+03</pdfrwt>
<pdfrwt beam="2">  1       -2 0.11678347E-01 0.54138553E+03</pdfrwt>
<totfact> 0.14217728E+03</totfact>
</mgrwt>
</event>
<event>
 4    1  0.6705655E-006  0.5281568E+03  0.7818608E-02  0.1006680E+00
         -2   -1    0    0    0  501 -0.00000000000E+00  0.00000000000E+00  0.58740212549E+02  0.58740212604E+02  0.25500000000E-02 0. -1.
          2   -1    0    0  501    0  0.00000000000E+00 -0.00000000000E+00 -0.11872173475E+04  0.11872173475E+04  0.25500000000E-02 0.  1.
   -5000001    1    1    2    0    0  0.52556283302E+02 -0.65499771861E+02 -0.53215036259E+03  0.59391614849E+03  0.25000000000E+03 0.  0.
    5000001    1    1    2    0    0 -0.52556283302E+02  0.65499771861E+02 -0.59632677231E+03  0.65204141157E+03  0.25000000000E+03 0.  0.
<mgrwt>
<rscale>  0 0.52815679E+03</rscale>
<asrwt>0</asrwt>
<pdfrwt beam="1">  1        2 0.18264880E+00 0.52815679E+03</pdfrwt>
<pdfrwt beam="2">  1       -2 0.90369567E-02 0.52815679E+03</pdfrwt>
<totfact> 0.15770766E+03</totfact>
</mgrwt>
</event>
<event>
 4    1  0.6705655E-006  0.1104680E+04  0.7818608E-02  0.9200642E-01
         -2   -1    0    0    0  501 -0.00000000000E+00  0.00000000000E+00  0.14513400550E+03  0.14513400552E+03  0.25500000000E-02 0. -1.
          2   -1    0    0  501    0  0.00000000000E+00 -0.00000000000E+00 -0.21020541092E+04  0.21020541092E+04  0.25500000000E-02 0.  1.
   -5000001    1    1    2    0    0 -0.44048927000E+03 -0.21996550694E+03 -0.95241606041E+03  0.11009141535E+04  0.25000000000E+03 0.  0.
    5000001    1    1    2    0    0  0.44048927000E+03  0.21996550694E+03 -0.10045040433E+04  0.11462739612E+04  0.25000000000E+03 0.  0.
<mgrwt>
<rscale>  0 0.11046801E+04</rscale>
<asrwt>0</asrwt>
<pdfrwt beam="1">  1        2 0.32339292E+00 0.11046801E+04</pdfrwt>
<pdfrwt beam="2">  1       -2 0.22328310E-01 0.11046801E+04</pdfrwt>
<totfact> 0.10261271E+02</totfact>
</mgrwt>
</event>
<event>
 4    1  0.6705655E-006  0.9950112E+03  0.7818608E-02  0.9314033E-01
          2   -1    0    0  501    0  0.00000000000E+00  0.00000000000E+00  0.91394584984E+03  0.91394584984E+03  0.25500000000E-02 0.  1.
         -2   -1    0    0    0  501 -0.00000000000E+00 -0.00000000000E+00 -0.27081670796E+03  0.27081670797E+03  0.25500000000E-02 0. -1.
   -5000001    1    1    2    0    0  0.20680024107E+03 -0.34424514564E+03  0.50502844032E+03  0.69197166527E+03  0.25000000000E+03 0.  0.
    5000001    1    1    2    0    0 -0.20680024107E+03  0.34424514564E+03  0.13810070156E+03  0.49279089254E+03  0.25000000000E+03 0.  0.
<mgrwt>
<rscale>  0 0.99501117E+03</rscale>
<asrwt>0</asrwt>
<pdfrwt beam="1">  1        2 0.14060705E+00 0.99501117E+03</pdfrwt>
<pdfrwt beam="2">  1       -2 0.41664109E-01 0.99501117E+03</pdfrwt>
<totfact> 0.15629571E+02</totfact>
</mgrwt>
</event>
<event>
 4    1  0.6705655E-006  0.8403800E+03  0.7818608E-02  0.9503340E-01
         -2   -1    0    0    0  501 -0.00000000000E+00  0.00000000000E+00  0.67164832307E+02  0.67164832356E+02  0.25500000000E-02 0. -1.
          2   -1    0    0  501    0  0.00000000000E+00 -0.00000000000E+00 -0.26287509284E+04  0.26287509284E+04  0.25500000000E-02 0.  1.
   -5000001    1    1    2    0    0  0.20413019476E+03 -0.24577139538E+03 -0.92956913360E+03  0.10142344351E+04  0.25000000000E+03 0.  0.
    5000001    1    1    2    0    0 -0.20413019476E+03  0.24577139538E+03 -0.16320169625E+04  0.16816813257E+04  0.25000000000E+03 0.  0.
<mgrwt>
<rscale>  0 0.84037995E+03</rscale>
<asrwt>0</asrwt>
<pdfrwt beam="1">  1        2 0.40442314E+00 0.84037995E+03</pdfrwt>
<pdfrwt beam="2">  1       -2 0.10333053E-01 0.84037995E+03</pdfrwt>
<totfact> 0.19668624E+02</totfact>
</mgrwt>
</event>
<event>
 4    1  0.6705655E-006  0.6513074E+03  0.7818608E-02  0.9804329E-01
          2   -1    0    0  501    0  0.00000000000E+00  0.00000000000E+00  0.10102525530E+04  0.10102525530E+04  0.25500000000E-02 0.  1.
         -2   -1    0    0    0  501 -0.00000000000E+00 -0.00000000000E+00 -0.10497409114E+03  0.10497409117E+03  0.25500000000E-02 0. -1.
   -5000001    1    1    2    0    0 -0.17851977482E+03  0.79342353913E+02  0.32697745347E+03  0.45560813667E+03  0.25000000000E+03 0.  0.
    5000001    1    1    2    0    0  0.17851977482E+03 -0.79342353913E+02  0.57830100843E+03  0.65961850753E+03  0.25000000000E+03 0.  0.
<mgrwt>
<rscale>  0 0.65130743E+03</rscale>
<asrwt>0</asrwt>
<pdfrwt beam="1">  1        2 0.15542346E+00 0.65130743E+03</pdfrwt>
<pdfrwt beam="2">  1       -2 0.16149861E-01 0.65130743E+03</pdfrwt>
<totfact> 0.77259466E+02</totfact>
</mgrwt>
</event>
<event>
 4    1  0.6705655E-006  0.8172734E+03  0.7818608E-02  0.9535346E-01
         -2   -1    0    0    0  501 -0.00000000000E+00  0.00000000000E+00  0.54514326971E+02  0.54514327031E+02  0.25500000000E-02 0. -1.
          2   -1    0    0  501    0  0.00000000000E+00 -0.00000000000E+00 -0.30631203782E+04  0.30631203782E+04  0.25500000000E-02 0.  1.
   -5000001    1    1    2    0    0  0.64541089532E+02 -0.31490068025E+03 -0.13746064861E+04  0.14336565077E+04  0.25000000000E+03 0.  0.
    5000001    1    1    2    0    0 -0.64541089532E+02  0.31490068025E+03 -0.16339995651E+04  0.16839781975E+04  0.25000000000E+03 0.  0.
<mgrwt>
<rscale>  0 0.81727338E+03</rscale>
<asrwt>0</asrwt>
<pdfrwt beam="1">  1        2 0.47124916E+00 0.81727338E+03</pdfrwt>
<pdfrwt beam="2">  1       -2 0.83868219E-02 0.81727338E+03</pdfrwt>
<totfact> 0.15208816E+02</totfact>
</mgrwt>
</event>
<event>
 4    1  0.6705655E-006  0.1680692E+04  0.7818608E-02  0.8772453E-01
         -2   -1    0    0    0  501 -0.00000000000E+00  0.00000000000E+00  0.27714862504E+03  0.27714862505E+03  0.25500000000E-02 0. -1.
          2   -1    0    0  501    0  0.00000000000E+00 -0.00000000000E+00 -0.25480253839E+04  0.25480253839E+04  0.25500000000E-02 0.  1.
   -5000001    1    1    2    0    0  0.78622433978E+03  0.15801495793E+03 -0.10955074846E+04  0.13804905245E+04  0.25000000000E+03 0.  0.
    5000001    1    1    2    0    0 -0.78622433978E+03 -0.15801495793E+03 -0.11753692742E+04  0.14446834844E+04  0.25000000000E+03 0.  0.
<mgrwt>
<rscale>  0 0.16806924E+04</rscale>
<asrwt>0</asrwt>
<pdfrwt beam="1">  1        2 0.39200389E+00 0.16806924E+04</pdfrwt>
<pdfrwt beam="2">  1       -2 0.42638252E-01 0.16806924E+04</pdfrwt>
<totfact> 0.16252468E+01</totfact>
</mgrwt>
</event>
<event>
 4    1  0.6705655E-006  0.7589684E+03  0.7818608E-02  0.9621385E-01
         -2   -1    0    0    0  501 -0.00000000000E+00  0.00000000000E+00  0.13461494005E+03  0.13461494008E+03  0.25500000000E-02 0. -1.
          2   -1    0    0  501    0  0.00000000000E+00 -0.00000000000E+00 -0.10697790319E+04  0.10697790319E+04  0.25500000000E-02 0.  1.
   -5000001    1    1    2    0    0  0.18105709471E+03 -0.16907476726E+02 -0.11832101014E+03  0.33100966112E+03  0.25000000000E+03 0.  0.
    5000001    1    1    2    0    0 -0.18105709471E+03  0.16907476726E+02 -0.81684308169E+03  0.87338431084E+03  0.25000000000E+03 0.  0.
<mgrwt>
<rscale>  0 0.75896835E+03</rscale>
<asrwt>0</asrwt>
<pdfrwt beam="1">  1        2 0.16458138E+00 0.75896835E+03</pdfrwt>
<pdfrwt beam="2">  1       -2 0.20709992E-01 0.75896835E+03</pdfrwt>
<totfact> 0.45940092E+02</totfact>
</mgrwt>
</event>
<event>
 4    1  0.6705655E-006  0.6750302E+03  0.7818608E-02  0.9760913E-01
         -2   -1    0    0    0  501 -0.00000000000E+00  0.00000000000E+00  0.46508165791E+02  0.46508165860E+02  0.25500000000E-02 0. -1.
          2   -1    0    0  501    0  0.00000000000E+00 -0.00000000000E+00 -0.24493854938E+04  0.24493854938E+04  0.25500000000E-02 0.  1.
   -5000001    1    1    2    0    0 -0.10081306641E+03  0.20292721794E+03 -0.11696972279E+04  0.12173883255E+04  0.25000000000E+03 0.  0.
    5000001    1    1    2    0    0  0.10081306641E+03 -0.20292721794E+03 -0.12331801001E+04  0.12785053341E+04  0.25000000000E+03 0.  0.
<mgrwt>
<rscale>  0 0.67503015E+03</rscale>
<asrwt>0</asrwt>
<pdfrwt beam="1">  1        2 0.37682844E+00 0.67503015E+03</pdfrwt>
<pdfrwt beam="2">  1       -2 0.71551043E-02 0.67503015E+03</pdfrwt>
<totfact> 0.45665306E+02</totfact>
</mgrwt>
</event>
<event>
 4    1  0.6705655E-006  0.7912140E+03  0.7818608E-02  0.9572822E-01
          2   -1    0    0  501    0  0.00000000000E+00  0.00000000000E+00  0.12322011532E+04  0.12322011532E+04  0.25500000000E-02 0.  1.
         -2   -1    0    0    0  501 -0.00000000000E+00 -0.00000000000E+00 -0.12701245385E+03  0.12701245388E+03  0.25500000000E-02 0. -1.
   -5000001    1    1    2    0    0  0.28234236903E+03  0.87793737291E+02  0.69194361249E+03  0.79291293124E+03  0.25000000000E+03 0.  0.
    5000001    1    1    2    0    0 -0.28234236903E+03 -0.87793737291E+02  0.41324508690E+03  0.56630067589E+03  0.25000000000E+03 0.  0.
<mgrwt>
<rscale>  0 0.79121398E+03</rscale>
<asrwt>0</asrwt>
<pdfrwt beam="1">  1        2 0.18956941E+00 0.79121398E+03</pdfrwt>
<pdfrwt beam="2">  1       -2 0.19540378E-01 0.79121398E+03</pdfrwt>
<totfact> 0.40548492E+02</totfact>
</mgrwt>
</event>
<event>
 4    1  0.6705655E-006  0.1297469E+04  0.7818608E-02  0.9031574E-01
          2   -1    0    0  501    0  0.00000000000E+00  0.00000000000E+00  0.18803943557E+04  0.18803943557E+04  0.25500000000E-02 0.  1.
         -2   -1    0    0    0  501 -0.00000000000E+00 -0.00000000000E+00 -0.22381300635E+03  0.22381300637E+03  0.25500000000E-02 0. -1.
   -5000001    1    1    2    0    0 -0.25556146185E+03  0.49713800730E+03  0.11757406899E+04  0.13256409880E+04  0.25000000000E+03 0.  0.
    5000001    1    1    2    0    0  0.25556146185E+03 -0.49713800730E+03  0.48084065941E+03  0.77856637407E+03  0.25000000000E+03 0.  0.
<mgrwt>
<rscale>  0 0.12974694E+04</rscale>
<asrwt>0</asrwt>
<pdfrwt beam="1">  1        2 0.28929144E+00 0.12974694E+04</pdfrwt>
<pdfrwt beam="2">  1       -2 0.34432770E-01 0.12974694E+04</pdfrwt>
<totfact> 0.60354936E+01</totfact>
</mgrwt>
</event>
<event>
 4    1  0.6705655E-006  0.1359742E+04  0.7818608E-02  0.8983486E-01
          2   -1    0    0  501    0  0.00000000000E+00  0.00000000000E+00  0.23323047282E+04  0.23323047282E+04  0.25500000000E-02 0.  1.
         -2   -1    0    0    0  501 -0.00000000000E+00 -0.00000000000E+00 -0.19818366441E+03  0.19818366443E+03  0.25500000000E-02 0. -1.
   -5000001    1    1    2    0    0  0.20978116634E+03 -0.38238091322E+03  0.19188676051E+04  0.19836270281E+04  0.25000000000E+03 0.  0.
    5000001    1    1    2    0    0 -0.20978116634E+03  0.38238091322E+03  0.21525345863E+03  0.54686136451E+03  0.25000000000E+03 0.  0.
<mgrwt>
<rscale>  0 0.13597422E+04</rscale>
<asrwt>0</asrwt>
<pdfrwt beam="1">  1        2 0.35881611E+00 0.13597422E+04</pdfrwt>
<pdfrwt beam="2">  1       -2 0.30489795E-01 0.13597422E+04</pdfrwt>
<totfact> 0.42314365E+01</totfact>
</mgrwt>
</event>
<event>
 4    1  0.6705655E-006  0.5876584E+03  0.7818608E-02  0.9931347E-01
         -2   -1    0    0    0  501 -0.00000000000E+00  0.00000000000E+00  0.69897463615E+02  0.69897463662E+02  0.25500000000E-02 0. -1.
          2   -1    0    0  501    0  0.00000000000E+00 -0.00000000000E+00 -0.12351748353E+04  0.12351748353E+04  0.25500000000E-02 0.  1.
   -5000001    1    1    2    0    0 -0.12869519736E+03 -0.69538571935E+02 -0.69228243115E+03  0.75043522791E+03  0.25000000000E+03 0.  0.
    5000001    1    1    2    0    0  0.12869519736E+03  0.69538571935E+02 -0.47299494051E+03  0.55463707103E+03  0.25000000000E+03 0.  0.
<mgrwt>
<rscale>  0 0.58765836E+03</rscale>
<asrwt>0</asrwt>
<pdfrwt beam="1">  1        2 0.19002688E+00 0.58765836E+03</pdfrwt>
<pdfrwt beam="2">  1       -2 0.10753457E-01 0.58765836E+03</pdfrwt>
<totfact> 0.11141761E+03</totfact>
</mgrwt>
</event>
<event>
 4    1  0.6705655E-006  0.8925948E+03  0.7818608E-02  0.9434886E-01
         -2   -1    0    0    0  501 -0.00000000000E+00  0.00000000000E+00  0.64513099924E+02  0.64513099974E+02  0.25500000000E-02 0. -1.
          2   -1    0    0  501    0  0.00000000000E+00 -0.00000000000E+00 -0.30874564799E+04  0.30874564799E+04  0.25500000000E-02 0.  1.
   -5000001    1    1    2    0    0  0.77065523198E+02 -0.97468421176E+02 -0.27410453440E+04  0.27552257196E+04  0.25000000000E+03 0.  0.
    5000001    1    1    2    0    0 -0.77065523198E+02  0.97468421176E+02 -0.28189803598E+03  0.39674386030E+03  0.25000000000E+03 0.  0.
<mgrwt>
<rscale>  0 0.89259484E+03</rscale>
<asrwt>0</asrwt>
<pdfrwt beam="1">  1        2 0.47499319E+00 0.89259484E+03</pdfrwt>
<pdfrwt beam="2">  1       -2 0.99250947E-02 0.89259484E+03</pdfrwt>
<totfact> 0.11088126E+02</totfact>
</mgrwt>
</event>
<event>
 4    1  0.6705655E-006  0.7007047E+03  0.7818608E-02  0.9716028E-01
         -2   -1    0    0    0  501 -0.00000000000E+00  0.00000000000E+00  0.22245744085E+03  0.22245744086E+03  0.25500000000E-02 0. -1.
          2   -1    0    0  501    0  0.00000000000E+00 -0.00000000000E+00 -0.55177648829E+03  0.55177648830E+03  0.25500000000E-02 0.  1.
   -5000001    1    1    2    0    0 -0.15718476663E+03 -0.12709035056E+03 -0.31851081755E+03  0.45255734329E+03  0.25000000000E+03 0.  0.
    5000001    1    1    2    0    0  0.15718476663E+03  0.12709035056E+03 -0.10808229895E+02  0.32167658587E+03  0.25000000000E+03 0.  0.
<mgrwt>
<rscale>  0 0.70070475E+03</rscale>
<asrwt>0</asrwt>
<pdfrwt beam="1">  1        2 0.84888690E-01 0.70070475E+03</pdfrwt>
<pdfrwt beam="2">  1       -2 0.34224222E-01 0.70070475E+03</pdfrwt>
<totfact> 0.44154353E+02</totfact>
</mgrwt>
</event>
<event>
 4    1  0.6705655E-006  0.9245684E+03  0.7818608E-02  0.9395380E-01
         -2   -1    0    0    0  501 -0.00000000000E+00  0.00000000000E+00  0.42079173965E+03  0.42079173965E+03  0.25500000000E-02 0. -1.
          2   -1    0    0  501    0  0.00000000000E+00 -0.00000000000E+00 -0.50786809026E+03  0.50786809027E+03  0.25500000000E-02 0.  1.
   -5000001    1    1    2    0    0 -0.16387548975E+03  0.32827643388E+03 -0.17289513236E+03  0.47645914828E+03  0.25000000000E+03 0.  0.
    5000001    1    1    2    0    0  0.16387548975E+03 -0.32827643388E+03  0.85818781743E+02  0.45220068165E+03  0.25000000000E+03 0.  0.
<mgrwt>
<rscale>  0 0.92456843E+03</rscale>
<asrwt>0</asrwt>
<pdfrwt beam="1">  1        2 0.78133552E-01 0.92456843E+03</pdfrwt>
<pdfrwt beam="2">  1       -2 0.64737191E-01 0.92456843E+03</pdfrwt>
<totfact> 0.13355075E+02</totfact>
</mgrwt>
</event>
<event>
 4    1  0.6705655E-006  0.5866847E+03  0.7818608E-02  0.9933423E-01
          2   -1    0    0  501    0  0.00000000000E+00  0.00000000000E+00  0.90106482882E+03  0.90106482882E+03  0.25500000000E-02 0.  1.
         -2   -1    0    0    0  501 -0.00000000000E+00 -0.00000000000E+00 -0.95497817959E+02  0.95497817993E+02  0.25500000000E-02 0. -1.
   -5000001    1    1    2    0    0 -0.11887113307E+03 -0.46328367290E+02  0.54764684216E+03  0.61538096137E+03  0.25000000000E+03 0.  0.
    5000001    1    1    2    0    0  0.11887113307E+03  0.46328367290E+02  0.25792016870E+03  0.38118168544E+03  0.25000000000E+03 0.  0.
<mgrwt>
<rscale>  0 0.58668467E+03</rscale>
<asrwt>0</asrwt>
<pdfrwt beam="1">  1        2 0.13862536E+00 0.58668467E+03</pdfrwt>
<pdfrwt beam="2">  1       -2 0.14691972E-01 0.58668467E+03</pdfrwt>
<totfact> 0.10690578E+03</totfact>
</mgrwt>
</event>
<event>
 4    1  0.6705655E-006  0.5432019E+03  0.7818608E-02  0.1003080E+00
         -2   -1    0    0    0  501 -0.00000000000E+00  0.00000000000E+00  0.25986595139E+02  0.25986595264E+02  0.25500000000E-02 0. -1.
          2   -1    0    0  501    0  0.00000000000E+00 -0.00000000000E+00 -0.28386588189E+04  0.28386588189E+04  0.25500000000E-02 0.  1.
   -5000001    1    1    2    0    0 -0.30771606443E+02 -0.10150059138E+03 -0.13840767545E+04  0.14104672006E+04  0.25000000000E+03 0.  0.
    5000001    1    1    2    0    0  0.30771606443E+02  0.10150059138E+03 -0.14285954693E+04  0.14541782135E+04  0.25000000000E+03 0.  0.
<mgrwt>
<rscale>  0 0.54320191E+03</rscale>
<asrwt>0</asrwt>
<pdfrwt beam="1">  1        2 0.43671650E+00 0.54320191E+03</pdfrwt>
<pdfrwt beam="2">  1       -2 0.39979400E-02 0.54320191E+03</pdfrwt>
<totfact> 0.68448306E+02</totfact>
</mgrwt>
</event>
<event>
 4    1  0.6705655E-006  0.7693878E+03  0.7818608E-02  0.9605416E-01
         -2   -1    0    0    0  501 -0.00000000000E+00  0.00000000000E+00  0.33157897349E+03  0.33157897350E+03  0.25500000000E-02 0. -1.
          2   -1    0    0  501    0  0.00000000000E+00 -0.00000000000E+00 -0.44631719316E+03  0.44631719317E+03  0.25500000000E-02 0.  1.
   -5000001    1    1    2    0    0  0.16809965836E+03 -0.23713558291E+03 -0.25418746498E+02  0.38423546491E+03  0.25000000000E+03 0.  0.
    5000001    1    1    2    0    0 -0.16809965836E+03  0.23713558291E+03 -0.89319473169E+02  0.39366070176E+03  0.25000000000E+03 0.  0.
<mgrwt>
<rscale>  0 0.76938780E+03</rscale>
<asrwt>0</asrwt>
<pdfrwt beam="1">  1        2 0.68664184E-01 0.76938780E+03</pdfrwt>
<pdfrwt beam="2">  1       -2 0.51012150E-01 0.76938780E+03</pdfrwt>
<totfact> 0.25704081E+02</totfact>
</mgrwt>
</event>
<event>
 4    1  0.6705655E-006  0.8458248E+03  0.7818608E-02  0.9495958E-01
         -2   -1    0    0    0  501 -0.00000000000E+00  0.00000000000E+00  0.86122741391E+02  0.86122741429E+02  0.25500000000E-02 0. -1.
          2   -1    0    0  501    0  0.00000000000E+00 -0.00000000000E+00 -0.20767440430E+04  0.20767440430E+04  0.25500000000E-02 0.  1.
   -5000001    1    1    2    0    0  0.31282344772E+03 -0.66729855674E+02 -0.12983417180E+04  0.13603317976E+04  0.25000000000E+03 0.  0.
    5000001    1    1    2    0    0 -0.31282344772E+03  0.66729855674E+02 -0.69227958363E+03  0.80253498677E+03  0.25000000000E+03 0.  0.
<mgrwt>
<rscale>  0 0.84582478E+03</rscale>
<asrwt>0</asrwt>
<pdfrwt beam="1">  1        2 0.31949905E+00 0.84582478E+03</pdfrwt>
<pdfrwt beam="2">  1       -2 0.13249654E-01 0.84582478E+03</pdfrwt>
<totfact> 0.26599274E+02</totfact>
</mgrwt>
</event>
<event>
 4    1  0.6705655E-006  0.6317468E+03  0.7818608E-02  0.9841646E-01
         -2   -1    0    0    0  501 -0.00000000000E+00  0.00000000000E+00  0.49172589035E+03  0.49172589035E+03  0.25500000000E-02 0. -1.
          2   -1    0    0  501    0  0.00000000000E+00 -0.00000000000E+00 -0.20290977633E+03  0.20290977635E+03  0.25500000000E-02 0.  1.
   -5000001    1    1    2    0    0 -0.15540261842E+03  0.44377776801E+02  0.28268392891E+02  0.29902920079E+03  0.25000000000E+03 0.  0.
    5000001    1    1    2    0    0  0.15540261842E+03 -0.44377776801E+02  0.26054772112E+03  0.39560646591E+03  0.25000000000E+03 0.  0.
<mgrwt>
<rscale>  0 0.63174675E+03</rscale>
<asrwt>0</asrwt>
<pdfrwt beam="1">  1        2 0.31216889E-01 0.63174675E+03</pdfrwt>
<pdfrwt beam="2">  1       -2 0.75650136E-01 0.63174675E+03</pdfrwt>
<totfact> 0.26936685E+02</totfact>
</mgrwt>
</event>
<event>
 4    1  0.6705655E-006  0.6790594E+03  0.7818608E-02  0.9753729E-01
          2   -1    0    0  501    0  0.00000000000E+00  0.00000000000E+00  0.18543181952E+04  0.18543181952E+04  0.25500000000E-02 0.  1.
         -2   -1    0    0    0  501 -0.00000000000E+00 -0.00000000000E+00 -0.62168627723E+02  0.62168627775E+02  0.25500000000E-02 0. -1.
   -5000001    1    1    2    0    0  0.16822249294E+03 -0.15633829912E+03  0.87823709582E+03  0.94156299172E+03  0.25000000000E+03 0.  0.
    5000001    1    1    2    0    0 -0.16822249294E+03  0.15633829912E+03  0.91391247166E+03  0.97492383126E+03  0.25000000000E+03 0.  0.
<mgrwt>
<rscale>  0 0.67905940E+03</rscale>
<asrwt>0</asrwt>
<pdfrwt beam="1">  1        2 0.28527970E+00 0.67905940E+03</pdfrwt>
<pdfrwt beam="2">  1       -2 0.95644050E-02 0.67905940E+03</pdfrwt>
<totfact> 0.60861656E+02</totfact>
</mgrwt>
</event>
<event>
 4    1  0.6705655E-006  0.5339163E+03  0.7818608E-02  0.1005287E+00
         -2   -1    0    0    0  501 -0.00000000000E+00  0.00000000000E+00  0.59737157641E+02  0.59737157695E+02  0.25500000000E-02 0. -1.
          2   -1    0    0  501    0  0.00000000000E+00 -0.00000000000E+00 -0.11930039574E+04  0.11930039574E+04  0.25500000000E-02 0.  1.
   -5000001    1    1    2    0    0 -0.88085722360E+02  0.31324212542E+02 -0.55458582082E+03  0.61547195991E+03  0.25000000000E+03 0.  0.
    5000001    1    1    2    0    0  0.88085722360E+02 -0.31324212542E+02 -0.57868097895E+03  0.63726915520E+03  0.25000000000E+03 0.  0.
<mgrwt>
<rscale>  0 0.53391634E+03</rscale>
<asrwt>0</asrwt>
<pdfrwt beam="1">  1        2 0.18353905E+00 0.53391634E+03</pdfrwt>
<pdfrwt beam="2">  1       -2 0.91903329E-02 0.53391634E+03</pdfrwt>
<totfact> 0.15228716E+03</totfact>
</mgrwt>
</event>
<event>
 4    1  0.6705655E-006  0.6483314E+03  0.7818608E-02  0.9809915E-01
         -2   -1    0    0    0  501 -0.00000000000E+00  0.00000000000E+00  0.12202535031E+03  0.12202535033E+03  0.25500000000E-02 0. -1.
          2   -1    0    0  501    0  0.00000000000E+00 -0.00000000000E+00 -0.86116040031E+03  0.86116040031E+03  0.25500000000E-02 0.  1.
   -5000001    1    1    2    0    0 -0.14013334283E+03  0.15080474072E+03 -0.39122600596E+03  0.50787519267E+03  0.25000000000E+03 0.  0.
    5000001    1    1    2    0    0  0.14013334283E+03 -0.15080474072E+03 -0.34790904405E+03  0.47531055798E+03  0.25000000000E+03 0.  0.
<mgrwt>
<rscale>  0 0.64833140E+03</rscale>
<asrwt>0</asrwt>
<pdfrwt beam="1">  1        2 0.13248621E+00 0.64833140E+03</pdfrwt>
<pdfrwt beam="2">  1       -2 0.18773131E-01 0.64833140E+03</pdfrwt>
<totfact> 0.74782673E+02</totfact>
</mgrwt>
</event>
<event>
 4    1  0.6705655E-006  0.6847573E+03  0.7818608E-02  0.9743660E-01
         -2   -1    0    0    0  501 -0.00000000000E+00  0.00000000000E+00  0.10428367216E+03  0.10428367219E+03  0.25500000000E-02 0. -1.
          2   -1    0    0  501    0  0.00000000000E+00 -0.00000000000E+00 -0.11240796779E+04  0.11240796779E+04  0.25500000000E-02 0.  1.
   -5000001    1    1    2    0    0  0.17911893041E+03  0.32018627642E+02 -0.77362917703E+03  0.83313317501E+03  0.25000000000E+03 0.  0.
    5000001    1    1    2    0    0 -0.17911893041E+03 -0.32018627642E+02 -0.24616682874E+03  0.39523017512E+03  0.25000000000E+03 0.  0.
<mgrwt>
<rscale>  0 0.68475735E+03</rscale>
<asrwt>0</asrwt>
<pdfrwt beam="1">  1        2 0.17293533E+00 0.68475735E+03</pdfrwt>
<pdfrwt beam="2">  1       -2 0.16043643E-01 0.68475735E+03</pdfrwt>
<totfact> 0.66374091E+02</totfact>
</mgrwt>
</event>
<event>
 4    1  0.6705655E-006  0.5357923E+03  0.7818608E-02  0.1004837E+00
         -2   -1    0    0    0  501 -0.00000000000E+00  0.00000000000E+00  0.10766111730E+03  0.10766111733E+03  0.25500000000E-02 0. -1.
          2   -1    0    0  501    0  0.00000000000E+00 -0.00000000000E+00 -0.66661346897E+03  0.66661346897E+03  0.25500000000E-02 0.  1.
   -5000001    1    1    2    0    0 -0.61407757189E+02 -0.35984978457E+02 -0.37315758141E+03  0.45476632668E+03  0.25000000000E+03 0.  0.
    5000001    1    1    2    0    0  0.61407757189E+02  0.35984978457E+02 -0.18579477026E+03  0.31950825963E+03  0.25000000000E+03 0.  0.
<mgrwt>
<rscale>  0 0.53579231E+03</rscale>
<asrwt>0</asrwt>
<pdfrwt beam="1">  1        2 0.10255592E+00 0.53579231E+03</pdfrwt>
<pdfrwt beam="2">  1       -2 0.16563249E-01 0.53579231E+03</pdfrwt>
<totfact> 0.12924451E+03</totfact>
</mgrwt>
</event>
<event>
 4    1  0.6705655E-006  0.8280324E+03  0.7818608E-02  0.9520305E-01
         -2   -1    0    0    0  501 -0.00000000000E+00  0.00000000000E+00  0.38925105481E+03  0.38925105482E+03  0.25500000000E-02 0. -1.
          2   -1    0    0  501    0  0.00000000000E+00 -0.00000000000E+00 -0.44035695635E+03  0.44035695636E+03  0.25500000000E-02 0.  1.
   -5000001    1    1    2    0    0  0.18551903817E+03  0.26605664774E+03  0.35439455338E+02  0.41104672280E+03  0.25000000000E+03 0.  0.
    5000001    1    1    2    0    0 -0.18551903817E+03 -0.26605664774E+03 -0.86545356878E+02  0.41856128838E+03  0.25000000000E+03 0.  0.
<mgrwt>
<rscale>  0 0.82803239E+03</rscale>
<asrwt>0</asrwt>
<pdfrwt beam="1">  1        2 0.67747224E-01 0.82803239E+03</pdfrwt>
<pdfrwt beam="2">  1       -2 0.59884778E-01 0.82803239E+03</pdfrwt>
<totfact> 0.18664463E+02</totfact>
</mgrwt>
</event>
<event>
 4    1  0.6705655E-006  0.1442394E+04  0.7818608E-02  0.8923691E-01
         -2   -1    0    0    0  501 -0.00000000000E+00  0.00000000000E+00  0.59074325483E+03  0.59074325484E+03  0.25500000000E-02 0. -1.
          2   -1    0    0  501    0  0.00000000000E+00 -0.00000000000E+00 -0.88045862684E+03  0.88045862685E+03  0.25500000000E-02 0.  1.
   -5000001    1    1    2    0    0  0.31236950450E+03  0.56223795731E+03 -0.35865997303E+03  0.77770380238E+03  0.25000000000E+03 0.  0.
    5000001    1    1    2    0    0 -0.31236950450E+03 -0.56223795731E+03  0.68944601021E+02  0.69349807930E+03  0.25000000000E+03 0.  0.
<mgrwt>
<rscale>  0 0.14423938E+04</rscale>
<asrwt>0</asrwt>
<pdfrwt beam="1">  1        2 0.13545517E+00 0.14423938E+04</pdfrwt>
<pdfrwt beam="2">  1       -2 0.90883578E-01 0.14423938E+04</pdfrwt>
<totfact> 0.30320229E+01</totfact>
</mgrwt>
</event>
<event>
 4    1  0.6705655E-006  0.8802641E+03  0.7818608E-02  0.9450594E-01
          2   -1    0    0  501    0  0.00000000000E+00  0.00000000000E+00  0.20716819861E+04  0.20716819861E+04  0.25500000000E-02 0.  1.
         -2   -1    0    0    0  501 -0.00000000000E+00 -0.00000000000E+00 -0.93506744680E+02  0.93506744715E+02  0.25500000000E-02 0. -1.
   -5000001    1    1    2    0    0  0.26187071676E+03 -0.19767457403E+03  0.61150328080E+03  0.73762305546E+03  0.25000000000E+03 0.  0.
    5000001    1    1    2    0    0 -0.26187071676E+03  0.19767457403E+03  0.13666719606E+04  0.14275656754E+04  0.25000000000E+03 0.  0.
<mgrwt>
<rscale>  0 0.88026414E+03</rscale>
<asrwt>0</asrwt>
<pdfrwt beam="1">  1        2 0.31872028E+00 0.88026414E+03</pdfrwt>
<pdfrwt beam="2">  1       -2 0.14385654E-01 0.88026414E+03</pdfrwt>
<totfact> 0.23252131E+02</totfact>
</mgrwt>
</event>
<event>
 4    1  0.6705655E-006  0.7391526E+03  0.7818608E-02  0.9652524E-01
          2   -1    0    0  501    0  0.00000000000E+00  0.00000000000E+00  0.12883836242E+04  0.12883836242E+04  0.25500000000E-02 0.  1.
         -2   -1    0    0    0  501 -0.00000000000E+00 -0.00000000000E+00 -0.10601394588E+03  0.10601394591E+03  0.25500000000E-02 0. -1.
   -5000001    1    1    2    0    0  0.25596758050E+03 -0.91888707776E+02  0.57020372654E+03  0.67940799719E+03  0.25000000000E+03 0.  0.
    5000001    1    1    2    0    0 -0.25596758050E+03  0.91888707776E+02  0.61216595182E+03  0.71498957297E+03  0.25000000000E+03 0.  0.
<mgrwt>
<rscale>  0 0.73915257E+03</rscale>
<asrwt>0</asrwt>
<pdfrwt beam="1">  1        2 0.19821287E+00 0.73915257E+03</pdfrwt>
<pdfrwt beam="2">  1       -2 0.16309837E-01 0.73915257E+03</pdfrwt>
<totfact> 0.51498998E+02</totfact>
</mgrwt>
</event>
<event>
 4    1  0.6705655E-006  0.6855872E+03  0.7818608E-02  0.9742203E-01
         -2   -1    0    0    0  501 -0.00000000000E+00  0.00000000000E+00  0.34607248338E+02  0.34607248432E+02  0.25500000000E-02 0. -1.
          2   -1    0    0  501    0  0.00000000000E+00 -0.00000000000E+00 -0.33954575450E+04  0.33954575450E+04  0.25500000000E-02 0.  1.
   -5000001    1    1    2    0    0  0.16261911570E+03 -0.15496953356E+03 -0.13430618788E+04  0.13844767039E+04  0.25000000000E+03 0.  0.
    5000001    1    1    2    0    0 -0.16261911570E+03  0.15496953356E+03 -0.20177884178E+04  0.20455880895E+04  0.25000000000E+03 0.  0.
<mgrwt>
<rscale>  0 0.68558717E+03</rscale>
<asrwt>0</asrwt>
<pdfrwt beam="1">  1        2 0.52237782E+00 0.68558717E+03</pdfrwt>
<pdfrwt beam="2">  1       -2 0.53241948E-02 0.68558717E+03</pdfrwt>
<totfact> 0.19425333E+02</totfact>
</mgrwt>
</event>
<event>
 4    1  0.6705655E-006  0.5928372E+03  0.7818608E-02  0.9920379E-01
          2   -1    0    0  501    0  0.00000000000E+00  0.00000000000E+00  0.10242234420E+04  0.10242234420E+04  0.25500000000E-02 0.  1.
         -2   -1    0    0    0  501 -0.00000000000E+00 -0.00000000000E+00 -0.85785951958E+02  0.85785951996E+02  0.25500000000E-02 0. -1.
   -5000001    1    1    2    0    0  0.12552379698E+03  0.97983791940E+02  0.47414984017E+03  0.55917360276E+03  0.25000000000E+03 0.  0.
    5000001    1    1    2    0    0 -0.12552379698E+03 -0.97983791940E+02  0.46428764989E+03  0.55083579126E+03  0.25000000000E+03 0.  0.
<mgrwt>
<rscale>  0 0.59283719E+03</rscale>
<asrwt>0</asrwt>
<pdfrwt beam="1">  1        2 0.15757284E+00 0.59283719E+03</pdfrwt>
<pdfrwt beam="2">  1       -2 0.13197838E-01 0.59283719E+03</pdfrwt>
<totfact> 0.10649423E+03</totfact>
</mgrwt>
</event>
<event>
 4    1  0.6705655E-006  0.6859464E+03  0.7818608E-02  0.9741572E-01
         -2   -1    0    0    0  501 -0.00000000000E+00  0.00000000000E+00  0.64701980688E+02  0.64701980738E+02  0.25500000000E-02 0. -1.
          2   -1    0    0  501    0  0.00000000000E+00 -0.00000000000E+00 -0.18180372810E+04  0.18180372810E+04  0.25500000000E-02 0.  1.
   -5000001    1    1    2    0    0  0.68095486812E+02  0.22242315614E+03 -0.78894103219E+03  0.85967261675E+03  0.25000000000E+03 0.  0.
    5000001    1    1    2    0    0 -0.68095486812E+02 -0.22242315614E+03 -0.96439426816E+03  0.10230666450E+04  0.25000000000E+03 0.  0.
<mgrwt>
<rscale>  0 0.68594639E+03</rscale>
<asrwt>0</asrwt>
<pdfrwt beam="1">  1        2 0.27969800E+00 0.68594639E+03</pdfrwt>
<pdfrwt beam="2">  1       -2 0.99541523E-02 0.68594639E+03</pdfrwt>
<totfact> 0.59664511E+02</totfact>
</mgrwt>
</event>
<event>
 4    1  0.6705655E-006  0.6321919E+03  0.7818608E-02  0.9840781E-01
         -2   -1    0    0    0  501 -0.00000000000E+00  0.00000000000E+00  0.77326274011E+03  0.77326274011E+03  0.25500000000E-02 0. -1.
          2   -1    0    0  501    0  0.00000000000E+00 -0.00000000000E+00 -0.12921436899E+03  0.12921436902E+03  0.25500000000E-02 0.  1.
   -5000001    1    1    2    0    0  0.54553754610E+02  0.17588355037E+03  0.40654498108E+03  0.51155640654E+03  0.25000000000E+03 0.  0.
    5000001    1    1    2    0    0 -0.54553754610E+02 -0.17588355037E+03  0.23750339003E+03  0.39092070259E+03  0.25000000000E+03 0.  0.
<mgrwt>
<rscale>  0 0.63219192E+03</rscale>
<asrwt>0</asrwt>
<pdfrwt beam="1">  1        2 0.19879134E-01 0.63219192E+03</pdfrwt>
<pdfrwt beam="2">  1       -2 0.11896350E+00 0.63219192E+03</pdfrwt>
<totfact> 0.15726658E+02</totfact>
</mgrwt>
</event>
<event>
 4    1  0.6705655E-006  0.7086282E+03  0.7818608E-02  0.9702589E-01
          2   -1    0    0  501    0  0.00000000000E+00  0.00000000000E+00  0.62137827146E+03  0.62137827146E+03  0.25500000000E-02 0.  1.
         -2   -1    0    0    0  501 -0.00000000000E+00 -0.00000000000E+00 -0.20203232085E+03  0.20203232087E+03  0.25500000000E-02 0. -1.
   -5000001    1    1    2    0    0 -0.11536104196E+03  0.20933700595E+03  0.29898929476E+03  0.45719224671E+03  0.25000000000E+03 0.  0.
    5000001    1    1    2    0    0  0.11536104196E+03 -0.20933700595E+03  0.12035665585E+03  0.36621834562E+03  0.25000000000E+03 0.  0.
<mgrwt>
<rscale>  0 0.70862824E+03</rscale>
<asrwt>0</asrwt>
<pdfrwt beam="1">  1        2 0.95596658E-01 0.70862824E+03</pdfrwt>
<pdfrwt beam="2">  1       -2 0.31081895E-01 0.70862824E+03</pdfrwt>
<totfact> 0.45886545E+02</totfact>
</mgrwt>
</event>
<event>
 4    1  0.6705655E-006  0.6706710E+03  0.7818608E-02  0.9768746E-01
          2   -1    0    0  501    0  0.00000000000E+00  0.00000000000E+00  0.42519207440E+03  0.42519207441E+03  0.25500000000E-02 0.  1.
         -2   -1    0    0    0  501 -0.00000000000E+00 -0.00000000000E+00 -0.26446849562E+03  0.26446849563E+03  0.25500000000E-02 0. -1.
   -5000001    1    1    2    0    0  0.13871678536E+03 -0.17506885944E+03  0.72499643766E+02  0.34299803270E+03  0.25000000000E+03 0.  0.
    5000001    1    1    2    0    0 -0.13871678536E+03  0.17506885944E+03  0.88223935018E+02  0.34666253734E+03  0.25000000000E+03 0.  0.
<mgrwt>
<rscale>  0 0.67067103E+03</rscale>
<asrwt>0</asrwt>
<pdfrwt beam="1">  1        2 0.65414165E-01 0.67067103E+03</pdfrwt>
<pdfrwt beam="2">  1       -2 0.40687461E-01 0.67067103E+03</pdfrwt>
<totfact> 0.42789414E+02</totfact>
</mgrwt>
</event>
<event>
 4    1  0.6705655E-006  0.7661792E+03  0.7818608E-02  0.9610304E-01
         -2   -1    0    0    0  501 -0.00000000000E+00  0.00000000000E+00  0.12940173617E+03  0.12940173619E+03  0.25500000000E-02 0. -1.
          2   -1    0    0  501    0  0.00000000000E+00 -0.00000000000E+00 -0.11341242261E+04  0.11341242261E+04  0.25500000000E-02 0.  1.
   -5000001    1    1    2    0    0  0.10614333144E+03 -0.19525880589E+03 -0.19443258472E+03  0.38690623940E+03  0.25000000000E+03 0.  0.
    5000001    1    1    2    0    0 -0.10614333144E+03  0.19525880589E+03 -0.81028990524E+03  0.87661972292E+03  0.25000000000E+03 0.  0.
<mgrwt>
<rscale>  0 0.76617921E+03</rscale>
<asrwt>0</asrwt>
<pdfrwt beam="1">  1        2 0.17448064E+00 0.76617921E+03</pdfrwt>
<pdfrwt beam="2">  1       -2 0.19907960E-01 0.76617921E+03</pdfrwt>
<totfact> 0.44954398E+02</totfact>
</mgrwt>
</event>
<event>
 4    1  0.6705655E-006  0.6615267E+03  0.7818608E-02  0.9785387E-01
         -2   -1    0    0    0  501 -0.00000000000E+00  0.00000000000E+00  0.74167576198E+02  0.74167576242E+02  0.25500000000E-02 0. -1.
          2   -1    0    0  501    0  0.00000000000E+00 -0.00000000000E+00 -0.14750974583E+04  0.14750974583E+04  0.25500000000E-02 0.  1.
   -5000001    1    1    2    0    0  0.15433836871E+03 -0.14193518510E+03 -0.57351302057E+03  0.65983567165E+03  0.25000000000E+03 0.  0.
    5000001    1    1    2    0    0 -0.15433836871E+03  0.14193518510E+03 -0.82741686157E+03  0.88942936292E+03  0.25000000000E+03 0.  0.
<mgrwt>
<rscale>  0 0.66152673E+03</rscale>
<asrwt>0</asrwt>
<pdfrwt beam="1">  1        2 0.22693805E+00 0.66152673E+03</pdfrwt>
<pdfrwt beam="2">  1       -2 0.11410397E-01 0.66152673E+03</pdfrwt>
<totfact> 0.73685356E+02</totfact>
</mgrwt>
</event>
<event>
 4    1  0.6705655E-006  0.9648886E+03  0.7818608E-02  0.9347915E-01
          2   -1    0    0  501    0  0.00000000000E+00  0.00000000000E+00  0.28394927483E+04  0.28394927483E+04  0.25500000000E-02 0.  1.
         -2   -1    0    0    0  501 -0.00000000000E+00 -0.00000000000E+00 -0.81969754933E+02  0.81969754973E+02  0.25500000000E-02 0. -1.
   -5000001    1    1    2    0    0 -0.40883393850E+03 -0.52804589226E+02  0.14328401484E+04  0.15117752494E+04  0.25000000000E+03 0.  0.
    5000001    1    1    2    0    0  0.40883393850E+03  0.52804589226E+02  0.13246828450E+04  0.14096872538E+04  0.25000000000E+03 0.  0.
<mgrwt>
<rscale>  0 0.96488865E+03</rscale>
<asrwt>0</asrwt>
<pdfrwt beam="1">  1        2 0.43684497E+00 0.96488865E+03</pdfrwt>
<pdfrwt beam="2">  1       -2 0.12610733E-01 0.96488865E+03</pdfrwt>
<totfact> 0.10513465E+02</totfact>
</mgrwt>
</event>
<event>
 4    1  0.6705655E-006  0.6861370E+03  0.7818608E-02  0.9741238E-01
         -2   -1    0    0    0  501 -0.00000000000E+00  0.00000000000E+00  0.29826317423E+02  0.29826317532E+02  0.25500000000E-02 0. -1.
          2   -1    0    0  501    0  0.00000000000E+00 -0.00000000000E+00 -0.39460450580E+04  0.39460450580E+04  0.25500000000E-02 0.  1.
   -5000001    1    1    2    0    0 -0.70920635901E+02  0.93207044056E+02 -0.31382508529E+04  0.31503707251E+04  0.25000000000E+03 0.  0.
    5000001    1    1    2    0    0  0.70920635901E+02 -0.93207044056E+02 -0.77796788770E+03  0.82550065049E+03  0.25000000000E+03 0.  0.
<mgrwt>
<rscale>  0 0.68613699E+03</rscale>
<asrwt>0</asrwt>
<pdfrwt beam="1">  1        2 0.60708344E+00 0.68613699E+03</pdfrwt>
<pdfrwt beam="2">  1       -2 0.45886674E-02 0.68613699E+03</pdfrwt>
<totfact> 0.98983692E+01</totfact>
</mgrwt>
</event>
<event>
 4    1  0.6705655E-006  0.7138150E+03  0.7818608E-02  0.9693894E-01
          2   -1    0    0  501    0  0.00000000000E+00  0.00000000000E+00  0.11048602581E+04  0.11048602581E+04  0.25500000000E-02 0.  1.
         -2   -1    0    0    0  501 -0.00000000000E+00 -0.00000000000E+00 -0.11529329075E+03  0.11529329078E+03  0.25500000000E-02 0. -1.
   -5000001    1    1    2    0    0  0.23964656654E+03 -0.93268071339E+01  0.34808346313E+03  0.49110035990E+03  0.25000000000E+03 0.  0.
    5000001    1    1    2    0    0 -0.23964656654E+03  0.93268071339E+01  0.64148350419E+03  0.72905318896E+03  0.25000000000E+03 0.  0.
<mgrwt>
<rscale>  0 0.71381503E+03</rscale>
<asrwt>0</asrwt>
<pdfrwt beam="1">  1        2 0.16997850E+00 0.71381503E+03</pdfrwt>
<pdfrwt beam="2">  1       -2 0.17737430E-01 0.71381503E+03</pdfrwt>
<totfact> 0.57353057E+02</totfact>
</mgrwt>
</event>
<event>
 4    1  0.6705655E-006  0.5908223E+03  0.7818608E-02  0.9924632E-01
          2   -1    0    0  501    0  0.00000000000E+00  0.00000000000E+00  0.24805939521E+03  0.24805939522E+03  0.25500000000E-02 0.  1.
         -2   -1    0    0    0  501 -0.00000000000E+00 -0.00000000000E+00 -0.35180177298E+03  0.35180177299E+03  0.25500000000E-02 0. -1.
   -5000001    1    1    2    0    0  0.86842506466E+02  0.12619542529E+03 -0.88489976793E+02  0.30626358302E+03  0.25000000000E+03 0.  0.
    5000001    1    1    2    0    0 -0.86842506466E+02 -0.12619542529E+03 -0.15252400984E+02  0.29359758519E+03  0.25000000000E+03 0.  0.
<mgrwt>
<rscale>  0 0.59082226E+03</rscale>
<asrwt>0</asrwt>
<pdfrwt beam="1">  1        2 0.38162984E-01 0.59082226E+03</pdfrwt>
<pdfrwt beam="2">  1       -2 0.54123350E-01 0.59082226E+03</pdfrwt>
<totfact> 0.44035625E+02</totfact>
</mgrwt>
</event>
<event>
 4    1  0.6705655E-006  0.7560127E+03  0.7818608E-02  0.9625964E-01
         -2   -1    0    0    0  501 -0.00000000000E+00  0.00000000000E+00  0.13993458710E+03  0.13993458712E+03  0.25500000000E-02 0. -1.
          2   -1    0    0  501    0  0.00000000000E+00 -0.00000000000E+00 -0.10211112550E+04  0.10211112550E+04  0.25500000000E-02 0.  1.
   -5000001    1    1    2    0    0  0.22699406693E+03 -0.15845987118E+03 -0.34650636757E+03  0.50911933764E+03  0.25000000000E+03 0.  0.
    5000001    1    1    2    0    0 -0.22699406693E+03  0.15845987118E+03 -0.53467030035E+03  0.65192650450E+03  0.25000000000E+03 0.  0.
<mgrwt>
<rscale>  0 0.75601265E+03</rscale>
<asrwt>0</asrwt>
<pdfrwt beam="1">  1        2 0.15709403E+00 0.75601265E+03</pdfrwt>
<pdfrwt beam="2">  1       -2 0.21528399E-01 0.75601265E+03</pdfrwt>
<totfact> 0.46027551E+02</totfact>
</mgrwt>
</event>
<event>
 4    1  0.6705655E-006  0.6929259E+03  0.7818608E-02  0.9729407E-01
          2   -1    0    0  501    0  0.00000000000E+00  0.00000000000E+00  0.12008594961E+04  0.12008594961E+04  0.25500000000E-02 0.  1.
         -2   -1    0    0    0  501 -0.00000000000E+00 -0.00000000000E+00 -0.99958897447E+02  0.99958897480E+02  0.25500000000E-02 0. -1.
   -5000001    1    1    2    0    0  0.16972357798E+03  0.16518610908E+03  0.62178824758E+03  0.71078348910E+03  0.25000000000E+03 0.  0.
    5000001    1    1    2    0    0 -0.16972357798E+03 -0.16518610908E+03  0.47911235109E+03  0.59003490450E+03  0.25000000000E+03 0.  0.
<mgrwt>
<rscale>  0 0.69292594E+03</rscale>
<asrwt>0</asrwt>
<pdfrwt beam="1">  1        2 0.18474761E+00 0.69292594E+03</pdfrwt>
<pdfrwt beam="2">  1       -2 0.15378292E-01 0.69292594E+03</pdfrwt>
<totfact> 0.64155270E+02</totfact>
</mgrwt>
</event>
<event>
 4    1  0.6705655E-006  0.1283155E+04  0.7818608E-02  0.9043031E-01
          2   -1    0    0  501    0  0.00000000000E+00  0.00000000000E+00  0.25913526659E+03  0.25913526660E+03  0.25500000000E-02 0.  1.
         -2   -1    0    0    0  501 -0.00000000000E+00 -0.00000000000E+00 -0.15884442011E+04  0.15884442011E+04  0.25500000000E-02 0. -1.
   -5000001    1    1    2    0    0  0.70562891317E+01 -0.38675374078E+03 -0.21539758072E+02  0.46107722607E+03  0.25000000000E+03 0.  0.
    5000001    1    1    2    0    0 -0.70562891317E+01  0.38675374078E+03 -0.13077691765E+04  0.13865022417E+04  0.25000000000E+03 0.  0.
<mgrwt>
<rscale>  0 0.12831553E+04</rscale>
<asrwt>0</asrwt>
<pdfrwt beam="1">  1        2 0.39866965E-01 0.12831553E+04</pdfrwt>
<pdfrwt beam="2">  1       -2 0.24437602E+00 0.12831553E+04</pdfrwt>
<totfact> 0.88440306E+00</totfact>
</mgrwt>
</event>
<event>
 4    1  0.6705655E-006  0.6442044E+03  0.7818608E-02  0.9817715E-01
          2   -1    0    0  501    0  0.00000000000E+00  0.00000000000E+00  0.21571997737E+04  0.21571997737E+04  0.25500000000E-02 0.  1.
         -2   -1    0    0    0  501 -0.00000000000E+00 -0.00000000000E+00 -0.48094676909E+02  0.48094676977E+02  0.25500000000E-02 0. -1.
   -5000001    1    1    2    0    0  0.11595527691E+01  0.19873239978E+03  0.91118622006E+03  0.96553417284E+03  0.25000000000E+03 0.  0.
    5000001    1    1    2    0    0 -0.11595527691E+01 -0.19873239978E+03  0.11979188767E+04  0.12397602778E+04  0.25000000000E+03 0.  0.
<mgrwt>
<rscale>  0 0.64420440E+03</rscale>
<asrwt>0</asrwt>
<pdfrwt beam="1">  1        2 0.33187691E+00 0.64420440E+03</pdfrwt>
<pdfrwt beam="2">  1       -2 0.73991806E-02 0.64420440E+03</pdfrwt>
<totfact> 0.63002968E+02</totfact>
</mgrwt>
</event>
<event>
 4    1  0.6705655E-006  0.7923130E+03  0.7818608E-02  0.9571211E-01
          2   -1    0    0  501    0  0.00000000000E+00  0.00000000000E+00  0.74647793756E+03  0.74647793757E+03  0.25500000000E-02 0.  1.
         -2   -1    0    0    0  501 -0.00000000000E+00 -0.00000000000E+00 -0.21024060086E+03  0.21024060087E+03  0.25500000000E-02 0. -1.
   -5000001    1    1    2    0    0 -0.21627149076E+03 -0.19381501063E+03  0.14675220303E+03  0.41033379724E+03  0.25000000000E+03 0.  0.
    5000001    1    1    2    0    0  0.21627149076E+03  0.19381501063E+03  0.38948513368E+03  0.54638474120E+03  0.25000000000E+03 0.  0.
<mgrwt>
<rscale>  0 0.79231299E+03</rscale>
<asrwt>0</asrwt>
<pdfrwt beam="1">  1        2 0.11484276E+00 0.79231299E+03</pdfrwt>
<pdfrwt beam="2">  1       -2 0.32344708E-01 0.79231299E+03</pdfrwt>
<totfact> 0.33751015E+02</totfact>
</mgrwt>
</event>
<event>
 4    1  0.6705655E-006  0.9879343E+03  0.7818608E-02  0.9321878E-01
          2   -1    0    0  501    0  0.00000000000E+00  0.00000000000E+00  0.19348488899E+04  0.19348488899E+04  0.25500000000E-02 0.  1.
         -2   -1    0    0    0  501 -0.00000000000E+00 -0.00000000000E+00 -0.12610988427E+03  0.12610988430E+03  0.25500000000E-02 0. -1.
   -5000001    1    1    2    0    0  0.30347780904E+03 -0.24816296647E+03  0.55641757734E+03  0.72510975643E+03  0.25000000000E+03 0.  0.
    5000001    1    1    2    0    0 -0.30347780904E+03  0.24816296647E+03  0.12523214283E+04  0.13358490178E+04  0.25000000000E+03 0.  0.
<mgrwt>
<rscale>  0 0.98793435E+03</rscale>
<asrwt>0</asrwt>
<pdfrwt beam="1">  1        2 0.29766904E+00 0.98793435E+03</pdfrwt>
<pdfrwt beam="2">  1       -2 0.19401522E-01 0.98793435E+03</pdfrwt>
<totfact> 0.16408015E+02</totfact>
</mgrwt>
</event>
<event>
 4    1  0.6705655E-006  0.5652882E+03  0.7818608E-02  0.9980160E-01
         -2   -1    0    0    0  501 -0.00000000000E+00  0.00000000000E+00  0.24238155703E+02  0.24238155837E+02  0.25500000000E-02 0. -1.
          2   -1    0    0  501    0  0.00000000000E+00 -0.00000000000E+00 -0.32959474453E+04  0.32959474454E+04  0.25500000000E-02 0.  1.
   -5000001    1    1    2    0    0  0.10540053332E+03 -0.30170811806E+02 -0.12055220444E+04  0.12360432637E+04  0.25000000000E+03 0.  0.
    5000001    1    1    2    0    0 -0.10540053332E+03  0.30170811806E+02 -0.20661872453E+04  0.20841423375E+04  0.25000000000E+03 0.  0.
<mgrwt>
<rscale>  0 0.56528820E+03</rscale>
<asrwt>0</asrwt>
<pdfrwt beam="1">  1        2 0.50706848E+00 0.56528820E+03</pdfrwt>
<pdfrwt beam="2">  1       -2 0.37289496E-02 0.56528820E+03</pdfrwt>
<totfact> 0.39739739E+02</totfact>
</mgrwt>
</event>
<event>
 4    1  0.6705655E-006  0.5888885E+03  0.7818608E-02  0.9928731E-01
         -2   -1    0    0    0  501 -0.00000000000E+00  0.00000000000E+00  0.67778186295E+03  0.67778186295E+03  0.25500000000E-02 0. -1.
          2   -1    0    0  501    0  0.00000000000E+00 -0.00000000000E+00 -0.12791346896E+03  0.12791346899E+03  0.25500000000E-02 0.  1.
   -5000001    1    1    2    0    0  0.11015493733E+03 -0.10796587178E+03  0.24734308005E+03  0.38401736801E+03  0.25000000000E+03 0.  0.
    5000001    1    1    2    0    0 -0.11015493733E+03  0.10796587178E+03  0.30252531394E+03  0.42167796393E+03  0.25000000000E+03 0.  0.
<mgrwt>
<rscale>  0 0.58888854E+03</rscale>
<asrwt>0</asrwt>
<pdfrwt beam="1">  1        2 0.19678995E-01 0.58888854E+03</pdfrwt>
<pdfrwt beam="2">  1       -2 0.10427413E+00 0.58888854E+03</pdfrwt>
<totfact> 0.21918398E+02</totfact>
</mgrwt>
</event>
<event>
 4    1  0.6705655E-006  0.1191014E+04  0.7818608E-02  0.9120759E-01
         -2   -1    0    0    0  501 -0.00000000000E+00  0.00000000000E+00  0.13634536170E+03  0.13634536172E+03  0.25500000000E-02 0. -1.
          2   -1    0    0  501    0  0.00000000000E+00 -0.00000000000E+00 -0.26009574592E+04  0.26009574592E+04  0.25500000000E-02 0.  1.
   -5000001    1    1    2    0    0  0.45501755209E+03  0.15026223006E+03 -0.18069204879E+04  0.18860226298E+04  0.25000000000E+03 0.  0.
    5000001    1    1    2    0    0 -0.45501755209E+03 -0.15026223006E+03 -0.65769160967E+03  0.85128019120E+03  0.25000000000E+03 0.  0.
<mgrwt>
<rscale>  0 0.11910138E+04</rscale>
<asrwt>0</asrwt>
<pdfrwt beam="1">  1        2 0.40014726E+00 0.11910138E+04</pdfrwt>
<pdfrwt beam="2">  1       -2 0.20976212E-01 0.11910138E+04</pdfrwt>
<totfact> 0.59441328E+01</totfact>
</mgrwt>
</event>
<event>
 4    1  0.6705655E-006  0.1379406E+04  0.7818608E-02  0.8968862E-01
         -2   -1    0    0    0  501 -0.00000000000E+00  0.00000000000E+00  0.16286690292E+03  0.16286690294E+03  0.25500000000E-02 0. -1.
          2   -1    0    0  501    0  0.00000000000E+00 -0.00000000000E+00 -0.29207315464E+04  0.29207315464E+04  0.25500000000E-02 0.  1.
   -5000001    1    1    2    0    0 -0.61311286349E+03 -0.14709224232E+03 -0.16585605348E+04  0.17918891034E+04  0.25000000000E+03 0.  0.
    5000001    1    1    2    0    0  0.61311286349E+03  0.14709224232E+03 -0.10993041087E+04  0.12917093460E+04  0.25000000000E+03 0.  0.
<mgrwt>
<rscale>  0 0.13794064E+04</rscale>
<asrwt>0</asrwt>
<pdfrwt beam="1">  1        2 0.44934327E+00 0.13794064E+04</pdfrwt>
<pdfrwt beam="2">  1       -2 0.25056449E-01 0.13794064E+04</pdfrwt>
<totfact> 0.27399325E+01</totfact>
</mgrwt>
</event>
<event>
 4    1  0.6705655E-006  0.9457794E+03  0.7818608E-02  0.9370097E-01
         -2   -1    0    0    0  501 -0.00000000000E+00  0.00000000000E+00  0.13169262406E+03  0.13169262408E+03  0.25500000000E-02 0. -1.
          2   -1    0    0  501    0  0.00000000000E+00 -0.00000000000E+00 -0.16980802750E+04  0.16980802750E+04  0.25500000000E-02 0.  1.
   -5000001    1    1    2    0    0  0.13124652181E+03 -0.11130600805E+03 -0.14847891739E+04  0.15154911969E+04  0.25000000000E+03 0.  0.
    5000001    1    1    2    0    0 -0.13124652181E+03  0.11130600805E+03 -0.81598477117E+02  0.31428170227E+03  0.25000000000E+03 0.  0.
<mgrwt>
<rscale>  0 0.94577936E+03</rscale>
<asrwt>0</asrwt>
<pdfrwt beam="1">  1        2 0.26124310E+00 0.94577936E+03</pdfrwt>
<pdfrwt beam="2">  1       -2 0.20260405E-01 0.94577936E+03</pdfrwt>
<totfact> 0.20582271E+02</totfact>
</mgrwt>
</event>
<event>
 4    1  0.6705655E-006  0.8284269E+03  0.7818608E-02  0.9519758E-01
         -2   -1    0    0    0  501 -0.00000000000E+00  0.00000000000E+00  0.16797283775E+03  0.16797283777E+03  0.25500000000E-02 0. -1.
          2   -1    0    0  501    0  0.00000000000E+00 -0.00000000000E+00 -0.10214317242E+04  0.10214317242E+04  0.25500000000E-02 0.  1.
   -5000001    1    1    2    0    0  0.20073546332E+03  0.15615510549E+03 -0.72923669598E+03  0.81176677807E+03  0.25000000000E+03 0.  0.
    5000001    1    1    2    0    0 -0.20073546332E+03 -0.15615510549E+03 -0.12422219043E+03  0.37763778386E+03  0.25000000000E+03 0.  0.
<mgrwt>
<rscale>  0 0.82842691E+03</rscale>
<asrwt>0</asrwt>
<pdfrwt beam="1">  1        2 0.15714334E+00 0.82842691E+03</pdfrwt>
<pdfrwt beam="2">  1       -2 0.25841976E-01 0.82842691E+03</pdfrwt>
<totfact> 0.33066505E+02</totfact>
</mgrwt>
</event>
<event>
 4    1  0.6705655E-006  0.6188615E+03  0.7818608E-02  0.9867029E-01
          2   -1    0    0  501    0  0.00000000000E+00  0.00000000000E+00  0.27502831322E+04  0.27502831322E+04  0.25500000000E-02 0.  1.
         -2   -1    0    0    0  501 -0.00000000000E+00 -0.00000000000E+00 -0.34813651050E+02  0.34813651143E+02  0.25500000000E-02 0. -1.
   -5000001    1    1    2    0    0  0.83335314687E+02 -0.16208465433E+03  0.13828673376E+04  0.14170526748E+04  0.25000000000E+03 0.  0.
    5000001    1    1    2    0    0 -0.83335314687E+02  0.16208465433E+03  0.13326021435E+04  0.13680441085E+04  0.25000000000E+03 0.  0.
<mgrwt>
<rscale>  0 0.61886153E+03</rscale>
<asrwt>0</asrwt>
<pdfrwt beam="1">  1        2 0.42312066E+00 0.61886153E+03</pdfrwt>
<pdfrwt beam="2">  1       -2 0.53559440E-02 0.61886153E+03</pdfrwt>
<totfact> 0.48698714E+02</totfact>
</mgrwt>
</event>
<event>
 4    1  0.6705655E-006  0.7161166E+03  0.7818608E-02  0.9690061E-01
         -2   -1    0    0    0  501 -0.00000000000E+00  0.00000000000E+00  0.49245706260E+03  0.49245706261E+03  0.25500000000E-02 0. -1.
          2   -1    0    0  501    0  0.00000000000E+00 -0.00000000000E+00 -0.26033893572E+03  0.26033893574E+03  0.25500000000E-02 0.  1.
   -5000001    1    1    2    0    0 -0.20839746528E+03 -0.12083695435E+03  0.23966716445E+02  0.34800212150E+03  0.25000000000E+03 0.  0.
    5000001    1    1    2    0    0  0.20839746528E+03  0.12083695435E+03  0.20815141043E+03  0.40479387685E+03  0.25000000000E+03 0.  0.
<mgrwt>
<rscale>  0 0.71611660E+03</rscale>
<asrwt>0</asrwt>
<pdfrwt beam="1">  1        2 0.40052144E-01 0.71611660E+03</pdfrwt>
<pdfrwt beam="2">  1       -2 0.75762625E-01 0.71611660E+03</pdfrwt>
<totfact> 0.20274570E+02</totfact>
</mgrwt>
</event>
<event>
 4    1  0.6705655E-006  0.8880218E+03  0.7818608E-02  0.9440680E-01
         -2   -1    0    0    0  501 -0.00000000000E+00  0.00000000000E+00  0.48483967866E+03  0.48483967867E+03  0.25500000000E-02 0. -1.
          2   -1    0    0  501    0  0.00000000000E+00 -0.00000000000E+00 -0.40662030579E+03  0.40662030580E+03  0.25500000000E-02 0.  1.
   -5000001    1    1    2    0    0 -0.33670820284E+03 -0.13257777868E+03  0.10014292107E+03  0.45108523130E+03  0.25000000000E+03 0.  0.
    5000001    1    1    2    0    0  0.33670820284E+03  0.13257777868E+03 -0.21923548205E+02  0.44037475317E+03  0.25000000000E+03 0.  0.
<mgrwt>
<rscale>  0 0.88802175E+03</rscale>
<asrwt>0</asrwt>
<pdfrwt beam="1">  1        2 0.62556970E-01 0.88802175E+03</pdfrwt>
<pdfrwt beam="2">  1       -2 0.74590720E-01 0.88802175E+03</pdfrwt>
<totfact> 0.12673493E+02</totfact>
</mgrwt>
</event>
<event>
 4    1  0.6705655E-006  0.6124168E+03  0.7818608E-02  0.9879975E-01
         -2   -1    0    0    0  501 -0.00000000000E+00  0.00000000000E+00  0.13409293763E+03  0.13409293765E+03  0.25500000000E-02 0. -1.
          2   -1    0    0  501    0  0.00000000000E+00 -0.00000000000E+00 -0.69924331488E+03  0.69924331489E+03  0.25500000000E-02 0.  1.
   -5000001    1    1    2    0    0  0.18318214321E+02  0.17566825033E+03 -0.29385361726E+03  0.42431690931E+03  0.25000000000E+03 0.  0.
    5000001    1    1    2    0    0 -0.18318214321E+02 -0.17566825033E+03 -0.27129676000E+03  0.40901934323E+03  0.25000000000E+03 0.  0.
<mgrwt>
<rscale>  0 0.61241682E+03</rscale>
<asrwt>0</asrwt>
<pdfrwt beam="1">  1        2 0.10757589E+00 0.61241682E+03</pdfrwt>
<pdfrwt beam="2">  1       -2 0.20629683E-01 0.61241682E+03</pdfrwt>
<totfact> 0.83327120E+02</totfact>
</mgrwt>
</event>
<event>
 4    1  0.6705655E-006  0.8763523E+03  0.7818608E-02  0.9455635E-01
          2   -1    0    0  501    0  0.00000000000E+00  0.00000000000E+00  0.83468340733E+03  0.83468340733E+03  0.25500000000E-02 0.  1.
         -2   -1    0    0    0  501 -0.00000000000E+00 -0.00000000000E+00 -0.23002532070E+03  0.23002532071E+03  0.25500000000E-02 0. -1.
   -5000001    1    1    2    0    0 -0.24598025312E+03 -0.13062335654E+03  0.57918857422E+03  0.68958549195E+03  0.25000000000E+03 0.  0.
    5000001    1    1    2    0    0  0.24598025312E+03  0.13062335654E+03  0.25469512407E+02  0.37512323610E+03  0.25000000000E+03 0.  0.
<mgrwt>
<rscale>  0 0.87635225E+03</rscale>
<asrwt>0</asrwt>
<pdfrwt beam="1">  1        2 0.12841283E+00 0.87635225E+03</pdfrwt>
<pdfrwt beam="2">  1       -2 0.35388511E-01 0.87635225E+03</pdfrwt>
<totfact> 0.24466390E+02</totfact>
</mgrwt>
</event>
<event>
 4    1  0.6705655E-006  0.8013045E+03  0.7818608E-02  0.9558131E-01
         -2   -1    0    0    0  501 -0.00000000000E+00  0.00000000000E+00  0.23842965971E+03  0.23842965973E+03  0.25500000000E-02 0. -1.
          2   -1    0    0  501    0  0.00000000000E+00 -0.00000000000E+00 -0.67324764626E+03  0.67324764627E+03  0.25500000000E-02 0.  1.
   -5000001    1    1    2    0    0 -0.26935384277E+03  0.47290339943E+02 -0.39083281076E+03  0.53855190542E+03  0.25000000000E+03 0.  0.
    5000001    1    1    2    0    0  0.26935384277E+03 -0.47290339943E+02 -0.43985175790E+02  0.37312540058E+03  0.25000000000E+03 0.  0.
<mgrwt>
<rscale>  0 0.80130445E+03</rscale>
<asrwt>0</asrwt>
<pdfrwt beam="1">  1        2 0.10357656E+00 0.80130445E+03</pdfrwt>
<pdfrwt beam="2">  1       -2 0.36681486E-01 0.80130445E+03</pdfrwt>
<totfact> 0.30285743E+02</totfact>
</mgrwt>
</event>
<event>
 4    1  0.6705655E-006  0.9814108E+03  0.7818608E-02  0.9329171E-01
          2   -1    0    0  501    0  0.00000000000E+00  0.00000000000E+00  0.14930127433E+04  0.14930127433E+04  0.25500000000E-02 0.  1.
         -2   -1    0    0    0  501 -0.00000000000E+00 -0.00000000000E+00 -0.16127912105E+03  0.16127912107E+03  0.25500000000E-02 0. -1.
   -5000001    1    1    2    0    0  0.21634152348E+03  0.36224271401E+03  0.63825419635E+03  0.80491729873E+03  0.25000000000E+03 0.  0.
    5000001    1    1    2    0    0 -0.21634152348E+03 -0.36224271401E+03  0.69347942592E+03  0.84937456568E+03  0.25000000000E+03 0.  0.
<mgrwt>
<rscale>  0 0.98141079E+03</rscale>
<asrwt>0</asrwt>
<pdfrwt beam="1">  1        2 0.22969426E+00 0.98141079E+03</pdfrwt>
<pdfrwt beam="2">  1       -2 0.24812173E-01 0.98141079E+03</pdfrwt>
<totfact> 0.18602028E+02</totfact>
</mgrwt>
</event>
<event>
 4    1  0.6705655E-006  0.5431964E+03  0.7818608E-02  0.1003081E+00
         -2   -1    0    0    0  501 -0.00000000000E+00  0.00000000000E+00  0.20455007316E+03  0.20455007318E+03  0.25500000000E-02 0. -1.
          2   -1    0    0  501    0  0.00000000000E+00 -0.00000000000E+00 -0.36062353178E+03  0.36062353179E+03  0.25500000000E-02 0.  1.
   -5000001    1    1    2    0    0  0.89175003547E+02 -0.57480823365E+02 -0.81217115897E+02  0.28346507056E+03  0.25000000000E+03 0.  0.
    5000001    1    1    2    0    0 -0.89175003547E+02  0.57480823365E+02 -0.74856342723E+02  0.28170853441E+03  0.25000000000E+03 0.  0.
<mgrwt>
<rscale>  0 0.54319635E+03</rscale>
<asrwt>0</asrwt>
<pdfrwt beam="1">  1        2 0.55480543E-01 0.54319635E+03</pdfrwt>
<pdfrwt beam="2">  1       -2 0.31469242E-01 0.54319635E+03</pdfrwt>
<totfact> 0.84088656E+02</totfact>
</mgrwt>
</event>
<event>
 4    1  0.6705655E-006  0.6721448E+03  0.7818608E-02  0.9766091E-01
          2   -1    0    0  501    0  0.00000000000E+00  0.00000000000E+00  0.97382202241E+03  0.97382202241E+03  0.25500000000E-02 0.  1.
         -2   -1    0    0    0  501 -0.00000000000E+00 -0.00000000000E+00 -0.11598081113E+03  0.11598081116E+03  0.25500000000E-02 0. -1.
   -5000001    1    1    2    0    0  0.13082353745E+03  0.77070373894E+02  0.69725806606E+03  0.75612396547E+03  0.25000000000E+03 0.  0.
    5000001    1    1    2    0    0 -0.13082353745E+03 -0.77070373894E+02  0.16058314522E+03  0.33367886810E+03  0.25000000000E+03 0.  0.
<mgrwt>
<rscale>  0 0.67214483E+03</rscale>
<asrwt>0</asrwt>
<pdfrwt beam="1">  1        2 0.14981878E+00 0.67214483E+03</pdfrwt>
<pdfrwt beam="2">  1       -2 0.17843201E-01 0.67214483E+03</pdfrwt>
<totfact> 0.68673270E+02</totfact>
</mgrwt>
</event>
<event>
 4    1  0.6705655E-006  0.8233575E+03  0.7818608E-02  0.9526810E-01
          2   -1    0    0  501    0  0.00000000000E+00  0.00000000000E+00  0.56193444239E+03  0.56193444239E+03  0.25500000000E-02 0.  1.
         -2   -1    0    0    0  501 -0.00000000000E+00 -0.00000000000E+00 -0.30159992722E+03  0.30159992723E+03  0.25500000000E-02 0. -1.
   -5000001    1    1    2    0    0 -0.30477759570E+03  0.11321616998E+03  0.16757420929E+03  0.44304446685E+03  0.25000000000E+03 0.  0.
    5000001    1    1    2    0    0  0.30477759570E+03 -0.11321616998E+03  0.92760305879E+02  0.42048990277E+03  0.25000000000E+03 0.  0.
<mgrwt>
<rscale>  0 0.82335748E+03</rscale>
<asrwt>0</asrwt>
<pdfrwt beam="1">  1        2 0.86451451E-01 0.82335748E+03</pdfrwt>
<pdfrwt beam="2">  1       -2 0.46399990E-01 0.82335748E+03</pdfrwt>
<totfact> 0.23772943E+02</totfact>
</mgrwt>
</event>
<event>
 4    1  0.6705655E-006  0.6624293E+03  0.7818608E-02  0.9783732E-01
         -2   -1    0    0    0  501 -0.00000000000E+00  0.00000000000E+00  0.93073514351E+02  0.93073514386E+02  0.25500000000E-02 0. -1.
          2   -1    0    0  501    0  0.00000000000E+00 -0.00000000000E+00 -0.11786719921E+04  0.11786719921E+04  0.25500000000E-02 0.  1.
   -5000001    1    1    2    0    0 -0.13763514238E+03 -0.13456220782E+03 -0.34935670309E+03  0.47074465072E+03  0.25000000000E+03 0.  0.
    5000001    1    1    2    0    0  0.13763514238E+03  0.13456220782E+03 -0.73624177468E+03  0.80100085579E+03  0.25000000000E+03 0.  0.
<mgrwt>
<rscale>  0 0.66242930E+03</rscale>
<asrwt>0</asrwt>
<pdfrwt beam="1">  1        2 0.18133414E+00 0.66242930E+03</pdfrwt>
<pdfrwt beam="2">  1       -2 0.14319003E-01 0.66242930E+03</pdfrwt>
<totfact> 0.74676209E+02</totfact>
</mgrwt>
</event>
<event>
 4    1  0.6705655E-006  0.7064985E+03  0.7818608E-02  0.9706183E-01
         -2   -1    0    0    0  501 -0.00000000000E+00  0.00000000000E+00  0.73338321858E+02  0.73338321902E+02  0.25500000000E-02 0. -1.
          2   -1    0    0  501    0  0.00000000000E+00 -0.00000000000E+00 -0.17014984029E+04  0.17014984029E+04  0.25500000000E-02 0.  1.
   -5000001    1    1    2    0    0  0.15978248262E+03  0.18262587613E+03 -0.66754587613E+03  0.75299412290E+03  0.25000000000E+03 0.  0.
    5000001    1    1    2    0    0 -0.15978248262E+03 -0.18262587613E+03 -0.96061420490E+03  0.10218426019E+04  0.25000000000E+03 0.  0.
<mgrwt>
<rscale>  0 0.70649851E+03</rscale>
<asrwt>0</asrwt>
<pdfrwt beam="1">  1        2 0.26176896E+00 0.70649851E+03</pdfrwt>
<pdfrwt beam="2">  1       -2 0.11282820E-01 0.70649851E+03</pdfrwt>
<totfact> 0.56197110E+02</totfact>
</mgrwt>
</event>
<event>
 4    1  0.6705655E-006  0.6891233E+03  0.7818608E-02  0.9736016E-01
          2   -1    0    0  501    0  0.00000000000E+00  0.00000000000E+00  0.28463713009E+04  0.28463713009E+04  0.25500000000E-02 0.  1.
         -2   -1    0    0    0  501 -0.00000000000E+00 -0.00000000000E+00 -0.41710209161E+02  0.41710209239E+02  0.25500000000E-02 0. -1.
   -5000001    1    1    2    0    0 -0.20529205915E+03  0.11135827228E+03  0.15739676350E+04  0.16107202148E+04  0.25000000000E+03 0.  0.
    5000001    1    1    2    0    0  0.20529205915E+03 -0.11135827228E+03  0.12306934567E+04  0.12773612953E+04  0.25000000000E+03 0.  0.
<mgrwt>
<rscale>  0 0.68912333E+03</rscale>
<asrwt>0</asrwt>
<pdfrwt beam="1">  1        2 0.43790327E+00 0.68912333E+03</pdfrwt>
<pdfrwt beam="2">  1       -2 0.64169553E-02 0.68912333E+03</pdfrwt>
<totfact> 0.31974532E+02</totfact>
</mgrwt>
</event>
<event>
 4    1  0.6705655E-006  0.7306677E+03  0.7818608E-02  0.9666178E-01
         -2   -1    0    0    0  501 -0.00000000000E+00  0.00000000000E+00  0.12331698739E+03  0.12331698741E+03  0.25500000000E-02 0. -1.
          2   -1    0    0  501    0  0.00000000000E+00 -0.00000000000E+00 -0.10823230218E+04  0.10823230218E+04  0.25500000000E-02 0.  1.
   -5000001    1    1    2    0    0 -0.13248103684E+03 -0.20738461506E+03 -0.64785051101E+03  0.73672918247E+03  0.25000000000E+03 0.  0.
    5000001    1    1    2    0    0  0.13248103684E+03  0.20738461506E+03 -0.31115552337E+03  0.46891082672E+03  0.25000000000E+03 0.  0.
<mgrwt>
<rscale>  0 0.73066768E+03</rscale>
<asrwt>0</asrwt>
<pdfrwt beam="1">  1        2 0.16651123E+00 0.73066768E+03</pdfrwt>
<pdfrwt beam="2">  1       -2 0.18971845E-01 0.73066768E+03</pdfrwt>
<totfact> 0.52664796E+02</totfact>
</mgrwt>
</event>
<event>
 4    1  0.6705655E-006  0.7968350E+03  0.7818608E-02  0.9564610E-01
         -2   -1    0    0    0  501 -0.00000000000E+00  0.00000000000E+00  0.12781736921E+03  0.12781736924E+03  0.25500000000E-02 0. -1.
          2   -1    0    0  501    0  0.00000000000E+00 -0.00000000000E+00 -0.12419008957E+04  0.12419008957E+04  0.25500000000E-02 0.  1.
   -5000001    1    1    2    0    0  0.16617663301E+03  0.11964919111E+03 -0.15646443658E+03  0.35904278604E+03  0.25000000000E+03 0.  0.
    5000001    1    1    2    0    0 -0.16617663301E+03 -0.11964919111E+03 -0.95761908990E+03  0.10106754789E+04  0.25000000000E+03 0.  0.
<mgrwt>
<rscale>  0 0.79683500E+03</rscale>
<asrwt>0</asrwt>
<pdfrwt beam="1">  1        2 0.19106167E+00 0.79683500E+03</pdfrwt>
<pdfrwt beam="2">  1       -2 0.19664211E-01 0.79683500E+03</pdfrwt>
<totfact> 0.39570135E+02</totfact>
</mgrwt>
</event>
<event>
 4    1  0.6705655E-006  0.7689030E+03  0.7818608E-02  0.9606153E-01
         -2   -1    0    0    0  501 -0.00000000000E+00  0.00000000000E+00  0.59283561747E+02  0.59283561802E+02  0.25500000000E-02 0. -1.
          2   -1    0    0  501    0  0.00000000000E+00 -0.00000000000E+00 -0.24931522255E+04  0.24931522255E+04  0.25500000000E-02 0.  1.
   -5000001    1    1    2    0    0 -0.19261133798E+03 -0.20233313467E+03 -0.14998810464E+04  0.15460210149E+04  0.25000000000E+03 0.  0.
    5000001    1    1    2    0    0  0.19261133798E+03  0.20233313467E+03 -0.93398761732E+03  0.10064147725E+04  0.25000000000E+03 0.  0.
<mgrwt>
<rscale>  0 0.76890297E+03</rscale>
<asrwt>0</asrwt>
<pdfrwt beam="1">  1        2 0.38356180E+00 0.76890297E+03</pdfrwt>
<pdfrwt beam="2">  1       -2 0.91205499E-02 0.76890297E+03</pdfrwt>
<totfact> 0.29002689E+02</totfact>
</mgrwt>
</event>
<event>
 4    1  0.6705655E-006  0.7303588E+03  0.7818608E-02  0.9666678E-01
          2   -1    0    0  501    0  0.00000000000E+00  0.00000000000E+00  0.26950749748E+03  0.26950749750E+03  0.25500000000E-02 0.  1.
         -2   -1    0    0    0  501 -0.00000000000E+00 -0.00000000000E+00 -0.49481373584E+03  0.49481373585E+03  0.25500000000E-02 0. -1.
   -5000001    1    1    2    0    0  0.77523405139E+02 -0.25222640993E+03 -0.75981189156E+02  0.37135048312E+03  0.25000000000E+03 0.  0.
    5000001    1    1    2    0    0 -0.77523405139E+02  0.25222640993E+03 -0.14932504920E+03  0.39297075022E+03  0.25000000000E+03 0.  0.
<mgrwt>
<rscale>  0 0.73035885E+03</rscale>
<asrwt>0</asrwt>
<pdfrwt beam="1">  1        2 0.41462692E-01 0.73035885E+03</pdfrwt>
<pdfrwt beam="2">  1       -2 0.76125190E-01 0.73035885E+03</pdfrwt>
<totfact> 0.19294835E+02</totfact>
</mgrwt>
</event>
<event>
 4    1  0.6705655E-006  0.9072563E+03  0.7818608E-02  0.9416556E-01
          2   -1    0    0  501    0  0.00000000000E+00  0.00000000000E+00  0.88025673943E+03  0.88025673943E+03  0.25500000000E-02 0.  1.
         -2   -1    0    0    0  501 -0.00000000000E+00 -0.00000000000E+00 -0.23377098987E+03  0.23377098989E+03  0.25500000000E-02 0. -1.
   -5000001    1    1    2    0    0 -0.11732175906E+03 -0.31140104001E+03  0.54475528219E+03  0.68556058838E+03  0.25000000000E+03 0.  0.
    5000001    1    1    2    0    0  0.11732175906E+03  0.31140104001E+03  0.10173046736E+03  0.42846714094E+03  0.25000000000E+03 0.  0.
<mgrwt>
<rscale>  0 0.90725628E+03</rscale>
<asrwt>0</asrwt>
<pdfrwt beam="1">  1        2 0.13542411E+00 0.90725628E+03</pdfrwt>
<pdfrwt beam="2">  1       -2 0.35964768E-01 0.90725628E+03</pdfrwt>
<totfact> 0.22022901E+02</totfact>
</mgrwt>
</event>
<event>
 4    1  0.6705655E-006  0.7210493E+03  0.7818608E-02  0.9681897E-01
         -2   -1    0    0    0  501 -0.00000000000E+00  0.00000000000E+00  0.15028552919E+03  0.15028552922E+03  0.25500000000E-02 0. -1.
          2   -1    0    0  501    0  0.00000000000E+00 -0.00000000000E+00 -0.86487373220E+03  0.86487373220E+03  0.25500000000E-02 0.  1.
   -5000001    1    1    2    0    0  0.26794479582E+02 -0.24566352800E+03 -0.47000894243E+03  0.58692156127E+03  0.25000000000E+03 0.  0.
    5000001    1    1    2    0    0 -0.26794479582E+02  0.24566352800E+03 -0.24457926058E+03  0.42823770015E+03  0.25000000000E+03 0.  0.
<mgrwt>
<rscale>  0 0.72104925E+03</rscale>
<asrwt>0</asrwt>
<pdfrwt beam="1">  1        2 0.13305749E+00 0.72104925E+03</pdfrwt>
<pdfrwt beam="2">  1       -2 0.23120851E-01 0.72104925E+03</pdfrwt>
<totfact> 0.51439482E+02</totfact>
</mgrwt>
</event>
<event>
 4    1  0.6705655E-006  0.9677364E+03  0.7818608E-02  0.9344656E-01
          2   -1    0    0  501    0  0.00000000000E+00  0.00000000000E+00  0.77391780824E+03  0.77391780824E+03  0.25500000000E-02 0.  1.
         -2   -1    0    0    0  501 -0.00000000000E+00 -0.00000000000E+00 -0.30252365767E+03  0.30252365768E+03  0.25500000000E-02 0. -1.
   -5000001    1    1    2    0    0  0.20321498084E+03  0.25998376801E+03 -0.42919866233E+02  0.41620908566E+03  0.25000000000E+03 0.  0.
    5000001    1    1    2    0    0 -0.20321498084E+03 -0.25998376801E+03  0.51431401680E+03  0.66023238026E+03  0.25000000000E+03 0.  0.
<mgrwt>
<rscale>  0 0.96773642E+03</rscale>
<asrwt>0</asrwt>
<pdfrwt beam="1">  1        2 0.11906428E+00 0.96773642E+03</pdfrwt>
<pdfrwt beam="2">  1       -2 0.46542102E-01 0.96773642E+03</pdfrwt>
<totfact> 0.15749227E+02</totfact>
</mgrwt>
</event>
<event>
 4    1  0.6705655E-006  0.1382908E+04  0.7818608E-02  0.8966284E-01
         -2   -1    0    0    0  501 -0.00000000000E+00  0.00000000000E+00  0.29885284404E+03  0.29885284405E+03  0.25500000000E-02 0. -1.
          2   -1    0    0  501    0  0.00000000000E+00 -0.00000000000E+00 -0.15998139243E+04  0.15998139243E+04  0.25500000000E-02 0.  1.
   -5000001    1    1    2    0    0 -0.75986624961E+02  0.52514440013E+03 -0.11531728346E+04  0.12937767174E+04  0.25000000000E+03 0.  0.
    5000001    1    1    2    0    0  0.75986624961E+02 -0.52514440013E+03 -0.14778824571E+03  0.60489005094E+03  0.25000000000E+03 0.  0.
<mgrwt>
<rscale>  0 0.13829084E+04</rscale>
<asrwt>0</asrwt>
<pdfrwt beam="1">  1        2 0.24612521E+00 0.13829084E+04</pdfrwt>
<pdfrwt beam="2">  1       -2 0.45977361E-01 0.13829084E+04</pdfrwt>
<totfact> 0.48747353E+01</totfact>
</mgrwt>
</event>
<event>
 4    1  0.6705655E-006  0.9340252E+03  0.7818608E-02  0.9384020E-01
         -2   -1    0    0    0  501 -0.00000000000E+00  0.00000000000E+00  0.23250731569E+03  0.23250731571E+03  0.25500000000E-02 0. -1.
          2   -1    0    0  501    0  0.00000000000E+00 -0.00000000000E+00 -0.93803824839E+03  0.93803824839E+03  0.25500000000E-02 0.  1.
   -5000001    1    1    2    0    0 -0.86304117437E+02 -0.38406339372E+03 -0.38465914752E+03  0.60449627861E+03  0.25000000000E+03 0.  0.
    5000001    1    1    2    0    0  0.86304117437E+02  0.38406339372E+03 -0.32087178518E+03  0.56604928549E+03  0.25000000000E+03 0.  0.
<mgrwt>
<rscale>  0 0.93402517E+03</rscale>
<asrwt>0</asrwt>
<pdfrwt beam="1">  1        2 0.14431357E+00 0.93402517E+03</pdfrwt>
<pdfrwt beam="2">  1       -2 0.35770357E-01 0.93402517E+03</pdfrwt>
<totfact> 0.20320094E+02</totfact>
</mgrwt>
</event>
<event>
 4    1  0.6705655E-006  0.7783660E+03  0.7818608E-02  0.9591870E-01
         -2   -1    0    0    0  501 -0.00000000000E+00  0.00000000000E+00  0.47834266554E+03  0.47834266555E+03  0.25500000000E-02 0. -1.
          2   -1    0    0  501    0  0.00000000000E+00 -0.00000000000E+00 -0.31664205153E+03  0.31664205154E+03  0.25500000000E-02 0.  1.
   -5000001    1    1    2    0    0 -0.26231805781E+03  0.12638592798E+03  0.14687758818E+03  0.41092236755E+03  0.25000000000E+03 0.  0.
    5000001    1    1    2    0    0  0.26231805781E+03 -0.12638592798E+03  0.14823025840E+02  0.38406234954E+03  0.25000000000E+03 0.  0.
<mgrwt>
<rscale>  0 0.77836599E+03</rscale>
<asrwt>0</asrwt>
<pdfrwt beam="1">  1        2 0.48714162E-01 0.77836599E+03</pdfrwt>
<pdfrwt beam="2">  1       -2 0.73591180E-01 0.77836599E+03</pdfrwt>
<totfact> 0.17357098E+02</totfact>
</mgrwt>
</event>
<event>
 4    1  0.6705655E-006  0.7964661E+03  0.7818608E-02  0.9565146E-01
          2   -1    0    0  501    0  0.00000000000E+00  0.00000000000E+00  0.29635635821E+03  0.29635635822E+03  0.25500000000E-02 0.  1.
         -2   -1    0    0    0  501 -0.00000000000E+00 -0.00000000000E+00 -0.53513134840E+03  0.53513134841E+03  0.25500000000E-02 0. -1.
   -5000001    1    1    2    0    0  0.28888001257E+03  0.52130227194E+02 -0.22336804981E+03  0.44560353222E+03  0.25000000000E+03 0.  0.
    5000001    1    1    2    0    0 -0.28888001257E+03 -0.52130227194E+02 -0.15406940389E+02  0.38588417441E+03  0.25000000000E+03 0.  0.
<mgrwt>
<rscale>  0 0.79646614E+03</rscale>
<asrwt>0</asrwt>
<pdfrwt beam="1">  1        2 0.45593286E-01 0.79646614E+03</pdfrwt>
<pdfrwt beam="2">  1       -2 0.82327900E-01 0.79646614E+03</pdfrwt>
<totfact> 0.14530085E+02</totfact>
</mgrwt>
</event>
<event>
 4    1  0.6705655E-006  0.6899720E+03  0.7818608E-02  0.9734537E-01
          2   -1    0    0  501    0  0.00000000000E+00  0.00000000000E+00  0.61371715113E+03  0.61371715114E+03  0.25500000000E-02 0.  1.
         -2   -1    0    0    0  501 -0.00000000000E+00 -0.00000000000E+00 -0.19392537755E+03  0.19392537757E+03  0.25500000000E-02 0. -1.
   -5000001    1    1    2    0    0 -0.17569065582E+03 -0.14848462679E+03  0.13965896352E+03  0.36731392164E+03  0.25000000000E+03 0.  0.
    5000001    1    1    2    0    0  0.17569065582E+03  0.14848462679E+03  0.28013281006E+03  0.44032860707E+03  0.25000000000E+03 0.  0.
<mgrwt>
<rscale>  0 0.68997197E+03</rscale>
<asrwt>0</asrwt>
<pdfrwt beam="1">  1        2 0.94418022E-01 0.68997197E+03</pdfrwt>
<pdfrwt beam="2">  1       -2 0.29834674E-01 0.68997197E+03</pdfrwt>
<totfact> 0.50292954E+02</totfact>
</mgrwt>
</event>
<event>
 4    1  0.6705655E-006  0.5959221E+03  0.7818608E-02  0.9913903E-01
          2   -1    0    0  501    0  0.00000000000E+00  0.00000000000E+00  0.23377626200E+04  0.23377626200E+04  0.25500000000E-02 0.  1.
         -2   -1    0    0    0  501 -0.00000000000E+00 -0.00000000000E+00 -0.37976816328E+02  0.37976816413E+02  0.25500000000E-02 0. -1.
   -5000001    1    1    2    0    0 -0.96427419192E+02 -0.12903261770E+03  0.10771302582E+04  0.11174333344E+04  0.25000000000E+03 0.  0.
    5000001    1    1    2    0    0  0.96427419192E+02  0.12903261770E+03  0.12226555455E+04  0.12583061021E+04  0.25000000000E+03 0.  0.
<mgrwt>
<rscale>  0 0.59592208E+03</rscale>
<asrwt>0</asrwt>
<pdfrwt beam="1">  1        2 0.35965575E+00 0.59592208E+03</pdfrwt>
<pdfrwt beam="2">  1       -2 0.58425877E-02 0.59592208E+03</pdfrwt>
<totfact> 0.73006212E+02</totfact>
</mgrwt>
</event>
<event>
 4    1  0.6705655E-006  0.5225014E+03  0.7818608E-02  0.1008067E+00
          2   -1    0    0  501    0  0.00000000000E+00  0.00000000000E+00  0.61627383774E+03  0.61627383774E+03  0.25500000000E-02 0.  1.
         -2   -1    0    0    0  501 -0.00000000000E+00 -0.00000000000E+00 -0.11074935158E+03  0.11074935161E+03  0.25500000000E-02 0. -1.
   -5000001    1    1    2    0    0  0.44583574249E+02 -0.58375464529E+02  0.22648899840E+03  0.34524289471E+03  0.25000000000E+03 0.  0.
    5000001    1    1    2    0    0 -0.44583574249E+02  0.58375464529E+02  0.27903548775E+03  0.38178029464E+03  0.25000000000E+03 0.  0.
<mgrwt>
<rscale>  0 0.52250140E+03</rscale>
<asrwt>0</asrwt>
<pdfrwt beam="1">  1        2 0.94811360E-01 0.52250140E+03</pdfrwt>
<pdfrwt beam="2">  1       -2 0.17038362E-01 0.52250140E+03</pdfrwt>
<totfact> 0.13551229E+03</totfact>
</mgrwt>
</event>
<event>
 4    1  0.6705655E-006  0.6524942E+03  0.7818608E-02  0.9802110E-01
         -2   -1    0    0    0  501 -0.00000000000E+00  0.00000000000E+00  0.12833501039E+03  0.12833501042E+03  0.25500000000E-02 0. -1.
          2   -1    0    0  501    0  0.00000000000E+00 -0.00000000000E+00 -0.82936978367E+03  0.82936978368E+03  0.25500000000E-02 0.  1.
   -5000001    1    1    2    0    0 -0.46627377704E+02 -0.15423771284E+03 -0.15374013830E+03  0.33481250654E+03  0.25000000000E+03 0.  0.
    5000001    1    1    2    0    0  0.46627377704E+02  0.15423771284E+03 -0.54729463498E+03  0.62289228755E+03  0.25000000000E+03 0.  0.
<mgrwt>
<rscale>  0 0.65249423E+03</rscale>
<asrwt>0</asrwt>
<pdfrwt beam="1">  1        2 0.12759535E+00 0.65249423E+03</pdfrwt>
<pdfrwt beam="2">  1       -2 0.19743848E-01 0.65249423E+03</pdfrwt>
<totfact> 0.72069000E+02</totfact>
</mgrwt>
</event>
<event>
 4    1  0.6705655E-006  0.5857950E+03  0.7818608E-02  0.9935323E-01
          2   -1    0    0  501    0  0.00000000000E+00  0.00000000000E+00  0.64891470722E+03  0.64891470722E+03  0.25500000000E-02 0.  1.
         -2   -1    0    0    0  501 -0.00000000000E+00 -0.00000000000E+00 -0.13220371496E+03  0.13220371499E+03  0.25500000000E-02 0. -1.
   -5000001    1    1    2    0    0 -0.10198897205E+03 -0.26028758818E+02  0.11101452261E+03  0.29309293908E+03  0.25000000000E+03 0.  0.
    5000001    1    1    2    0    0  0.10198897205E+03  0.26028758818E+02  0.40569646965E+03  0.48802548313E+03  0.25000000000E+03 0.  0.
<mgrwt>
<rscale>  0 0.58579496E+03</rscale>
<asrwt>0</asrwt>
<pdfrwt beam="1">  1        2 0.99833033E-01 0.58579496E+03</pdfrwt>
<pdfrwt beam="2">  1       -2 0.20339033E-01 0.58579496E+03</pdfrwt>
<totfact> 0.93743733E+02</totfact>
</mgrwt>
</event>
<event>
 4    1  0.6705655E-006  0.8181712E+03  0.7818608E-02  0.9534081E-01
          2   -1    0    0  501    0  0.00000000000E+00  0.00000000000E+00  0.17185363610E+03  0.17185363612E+03  0.25500000000E-02 0.  1.
         -2   -1    0    0    0  501 -0.00000000000E+00 -0.00000000000E+00 -0.97379986178E+03  0.97379986178E+03  0.25500000000E-02 0. -1.
   -5000001    1    1    2    0    0 -0.31240973420E+03  0.80517657519E+01 -0.28226948704E+03  0.48973537372E+03  0.25000000000E+03 0.  0.
    5000001    1    1    2    0    0  0.31240973420E+03 -0.80517657519E+01 -0.51967673864E+03  0.65591812419E+03  0.25000000000E+03 0.  0.
<mgrwt>
<rscale>  0 0.81817125E+03</rscale>
<asrwt>0</asrwt>
<pdfrwt beam="1">  1        2 0.26439021E-01 0.81817125E+03</pdfrwt>
<pdfrwt beam="2">  1       -2 0.14981536E+00 0.81817125E+03</pdfrwt>
<totfact> 0.62238514E+01</totfact>
</mgrwt>
</event>
<event>
 4    1  0.6705655E-006  0.1207918E+04  0.7818608E-02  0.9105954E-01
          2   -1    0    0  501    0  0.00000000000E+00  0.00000000000E+00  0.22051424200E+04  0.22051424200E+04  0.25500000000E-02 0.  1.
         -2   -1    0    0    0  501 -0.00000000000E+00 -0.00000000000E+00 -0.16541624085E+03  0.16541624087E+03  0.25500000000E-02 0. -1.
   -5000001    1    1    2    0    0  0.43931332249E+03  0.19193518105E+03  0.15480355320E+04  0.16397406250E+04  0.25000000000E+03 0.  0.
    5000001    1    1    2    0    0 -0.43931332249E+03 -0.19193518105E+03  0.49169064718E+03  0.73081803588E+03  0.25000000000E+03 0.  0.
<mgrwt>
<rscale>  0 0.12079178E+04</rscale>
<asrwt>0</asrwt>
<pdfrwt beam="1">  1        2 0.33925268E+00 0.12079178E+04</pdfrwt>
<pdfrwt beam="2">  1       -2 0.25448652E-01 0.12079178E+04</pdfrwt>
<totfact> 0.70473814E+01</totfact>
</mgrwt>
</event>
<event>
 4    1  0.6705655E-006  0.5677558E+03  0.7818608E-02  0.9974657E-01
          2   -1    0    0  501    0  0.00000000000E+00  0.00000000000E+00  0.59435588614E+03  0.59435588615E+03  0.25500000000E-02 0.  1.
         -2   -1    0    0    0  501 -0.00000000000E+00 -0.00000000000E+00 -0.13558656108E+03  0.13558656110E+03  0.25500000000E-02 0. -1.
   -5000001    1    1    2    0    0  0.79877765456E+02 -0.97043367021E+02  0.29089254354E+03  0.40362896871E+03  0.25000000000E+03 0.  0.
    5000001    1    1    2    0    0 -0.79877765456E+02  0.97043367021E+02  0.16787678152E+03  0.32631347853E+03  0.25000000000E+03 0.  0.
<mgrwt>
<rscale>  0 0.56775583E+03</rscale>
<asrwt>0</asrwt>
<pdfrwt beam="1">  1        2 0.91439367E-01 0.56775583E+03</pdfrwt>
<pdfrwt beam="2">  1       -2 0.20859471E-01 0.56775583E+03</pdfrwt>
<totfact> 0.99755926E+02</totfact>
</mgrwt>
</event>
<event>
 4    1  0.6705655E-006  0.9264208E+03  0.7818608E-02  0.9393144E-01
         -2   -1    0    0    0  501 -0.00000000000E+00  0.00000000000E+00  0.87325787592E+02  0.87325787629E+02  0.25500000000E-02 0. -1.
          2   -1    0    0  501    0  0.00000000000E+00 -0.00000000000E+00 -0.24570507281E+04  0.24570507281E+04  0.25500000000E-02 0.  1.
   -5000001    1    1    2    0    0 -0.13416360934E+01 -0.25414178352E+03 -0.37256955045E+03  0.51565290268E+03  0.25000000000E+03 0.  0.
    5000001    1    1    2    0    0  0.13416360934E+01  0.25414178352E+03 -0.19971553901E+04  0.20287236131E+04  0.25000000000E+03 0.  0.
<mgrwt>
<rscale>  0 0.92642083E+03</rscale>
<asrwt>0</asrwt>
<pdfrwt beam="1">  1        2 0.37800775E+00 0.92642083E+03</pdfrwt>
<pdfrwt beam="2">  1       -2 0.13434738E-01 0.92642083E+03</pdfrwt>
<totfact> 0.15847584E+02</totfact>
</mgrwt>
</event>
<event>
 4    1  0.6705655E-006  0.1189447E+04  0.7818608E-02  0.9122144E-01
          2   -1    0    0  501    0  0.00000000000E+00  0.00000000000E+00  0.69938034906E+03  0.69938034907E+03  0.25500000000E-02 0.  1.
         -2   -1    0    0    0  501 -0.00000000000E+00 -0.00000000000E+00 -0.50572766499E+03  0.50572766500E+03  0.25500000000E-02 0. -1.
   -5000001    1    1    2    0    0 -0.64260228791E+02  0.51418057013E+03 -0.55772020384E+02  0.57803248521E+03  0.25000000000E+03 0.  0.
    5000001    1    1    2    0    0  0.64260228791E+02 -0.51418057013E+03  0.24942470445E+03  0.62707552886E+03  0.25000000000E+03 0.  0.
<mgrwt>
<rscale>  0 0.11894469E+04</rscale>
<asrwt>0</asrwt>
<pdfrwt beam="1">  1        2 0.10759698E+00 0.11894469E+04</pdfrwt>
<pdfrwt beam="2">  1       -2 0.77804256E-01 0.11894469E+04</pdfrwt>
<totfact> 0.59626801E+01</totfact>
</mgrwt>
</event>
<event>
 4    1  0.6705655E-006  0.8064056E+03  0.7818608E-02  0.9550791E-01
          2   -1    0    0  501    0  0.00000000000E+00  0.00000000000E+00  0.62773533040E+03  0.62773533041E+03  0.25500000000E-02 0.  1.
         -2   -1    0    0    0  501 -0.00000000000E+00 -0.00000000000E+00 -0.25898256297E+03  0.25898256298E+03  0.25500000000E-02 0. -1.
   -5000001    1    1    2    0    0 -0.32590619421E+02 -0.30858882668E+03  0.25201066472E+03  0.47148551150E+03  0.25000000000E+03 0.  0.
    5000001    1    1    2    0    0  0.32590619421E+02  0.30858882668E+03  0.11674210271E+03  0.41523238189E+03  0.25000000000E+03 0.  0.
<mgrwt>
<rscale>  0 0.80640562E+03</rscale>
<asrwt>0</asrwt>
<pdfrwt beam="1">  1        2 0.96574665E-01 0.80640562E+03</pdfrwt>
<pdfrwt beam="2">  1       -2 0.39843472E-01 0.80640562E+03</pdfrwt>
<totfact> 0.28133714E+02</totfact>
</mgrwt>
</event>
<event>
 4    1  0.6705655E-006  0.8659890E+03  0.7818608E-02  0.9469125E-01
          2   -1    0    0  501    0  0.00000000000E+00  0.00000000000E+00  0.21162969906E+04  0.21162969906E+04  0.25500000000E-02 0.  1.
         -2   -1    0    0    0  501 -0.00000000000E+00 -0.00000000000E+00 -0.88590699056E+02  0.88590699092E+02  0.25500000000E-02 0. -1.
   -5000001    1    1    2    0    0  0.15502950295E+03 -0.14307965408E+03  0.17361462867E+04  0.17666946151E+04  0.25000000000E+03 0.  0.
    5000001    1    1    2    0    0 -0.15502950295E+03  0.14307965408E+03  0.29156000485E+03  0.43819307460E+03  0.25000000000E+03 0.  0.
<mgrwt>
<rscale>  0 0.86598898E+03</rscale>
<asrwt>0</asrwt>
<pdfrwt beam="1">  1        2 0.32558414E+00 0.86598898E+03</pdfrwt>
<pdfrwt beam="2">  1       -2 0.13629339E-01 0.86598898E+03</pdfrwt>
<totfact> 0.24091683E+02</totfact>
</mgrwt>
</event>
<event>
 4    1  0.6705655E-006  0.6546736E+03  0.7818608E-02  0.9798049E-01
          2   -1    0    0  501    0  0.00000000000E+00  0.00000000000E+00  0.13274069923E+04  0.13274069923E+04  0.25500000000E-02 0.  1.
         -2   -1    0    0    0  501 -0.00000000000E+00 -0.00000000000E+00 -0.80720831728E+02  0.80720831768E+02  0.25500000000E-02 0. -1.
   -5000001    1    1    2    0    0  0.13179068771E+03 -0.14132783924E+03  0.80720354256E+03  0.86684479731E+03  0.25000000000E+03 0.  0.
    5000001    1    1    2    0    0 -0.13179068771E+03  0.14132783924E+03  0.43948261796E+03  0.54128302671E+03  0.25000000000E+03 0.  0.
<mgrwt>
<rscale>  0 0.65467365E+03</rscale>
<asrwt>0</asrwt>
<pdfrwt beam="1">  1        2 0.20421647E+00 0.65467365E+03</pdfrwt>
<pdfrwt beam="2">  1       -2 0.12418589E-01 0.65467365E+03</pdfrwt>
<totfact> 0.77627730E+02</totfact>
</mgrwt>
</event>
<event>
 4    1  0.6705655E-006  0.6273875E+03  0.7818608E-02  0.9850160E-01
         -2   -1    0    0    0  501 -0.00000000000E+00  0.00000000000E+00  0.46610628616E+02  0.46610628686E+02  0.25500000000E-02 0. -1.
          2   -1    0    0  501    0  0.00000000000E+00 -0.00000000000E+00 -0.21111874085E+04  0.21111874085E+04  0.25500000000E-02 0.  1.
   -5000001    1    1    2    0    0  0.64281635017E+02 -0.16711034203E+03 -0.12455766690E+04  0.12829728108E+04  0.25000000000E+03 0.  0.
    5000001    1    1    2    0    0 -0.64281635017E+02  0.16711034203E+03 -0.81900011089E+03  0.87482522635E+03  0.25000000000E+03 0.  0.
<mgrwt>
<rscale>  0 0.62738751E+03</rscale>
<asrwt>0</asrwt>
<pdfrwt beam="1">  1        2 0.32479799E+00 0.62738751E+03</pdfrwt>
<pdfrwt beam="2">  1       -2 0.71708676E-02 0.62738751E+03</pdfrwt>
<totfact> 0.70246150E+02</totfact>
</mgrwt>
</event>
<event>
 4    1  0.6705655E-006  0.7069185E+03  0.7818608E-02  0.9705473E-01
          2   -1    0    0  501    0  0.00000000000E+00  0.00000000000E+00  0.13682515510E+04  0.13682515510E+04  0.25500000000E-02 0.  1.
         -2   -1    0    0    0  501 -0.00000000000E+00 -0.00000000000E+00 -0.91308817588E+02  0.91308817624E+02  0.25500000000E-02 0. -1.
   -5000001    1    1    2    0    0 -0.11177457816E+03  0.22184618700E+03  0.58291097587E+03  0.68117141220E+03  0.25000000000E+03 0.  0.
    5000001    1    1    2    0    0  0.11177457816E+03 -0.22184618700E+03  0.69403175754E+03  0.77838895643E+03  0.25000000000E+03 0.  0.
<mgrwt>
<rscale>  0 0.70691847E+03</rscale>
<asrwt>0</asrwt>
<pdfrwt beam="1">  1        2 0.21050025E+00 0.70691847E+03</pdfrwt>
<pdfrwt beam="2">  1       -2 0.14047510E-01 0.70691847E+03</pdfrwt>
<totfact> 0.59772593E+02</totfact>
</mgrwt>
</event>
<event>
 4    1  0.6705655E-006  0.9669463E+03  0.7818608E-02  0.9345559E-01
          2   -1    0    0  501    0  0.00000000000E+00  0.00000000000E+00  0.13074749563E+04  0.13074749563E+04  0.25500000000E-02 0.  1.
         -2   -1    0    0    0  501 -0.00000000000E+00 -0.00000000000E+00 -0.17877688217E+03  0.17877688219E+03  0.25500000000E-02 0. -1.
   -5000001    1    1    2    0    0 -0.74077539742E+02  0.40678027483E+03  0.53823614316E+03  0.72329511245E+03  0.25000000000E+03 0.  0.
    5000001    1    1    2    0    0  0.74077539742E+02 -0.40678027483E+03  0.59046193094E+03  0.76295672602E+03  0.25000000000E+03 0.  0.
<mgrwt>
<rscale>  0 0.96694632E+03</rscale>
<asrwt>0</asrwt>
<pdfrwt beam="1">  1        2 0.20115000E+00 0.96694632E+03</pdfrwt>
<pdfrwt beam="2">  1       -2 0.27504135E-01 0.96694632E+03</pdfrwt>
<totfact> 0.19688794E+02</totfact>
</mgrwt>
</event>
<event>
 4    1  0.6705655E-006  0.5507106E+03  0.7818608E-02  0.1001330E+00
         -2   -1    0    0    0  501 -0.00000000000E+00  0.00000000000E+00  0.56811083254E+02  0.56811083312E+02  0.25500000000E-02 0. -1.
          2   -1    0    0  501    0  0.00000000000E+00 -0.00000000000E+00 -0.13346081127E+04  0.13346081127E+04  0.25500000000E-02 0.  1.
   -5000001    1    1    2    0    0 -0.45053324188E+02  0.10316815971E+03 -0.70316837296E+03  0.75473123158E+03  0.25000000000E+03 0.  0.
    5000001    1    1    2    0    0  0.45053324188E+02 -0.10316815971E+03 -0.57462865653E+03  0.63668796447E+03  0.25000000000E+03 0.  0.
<mgrwt>
<rscale>  0 0.55071057E+03</rscale>
<asrwt>0</asrwt>
<pdfrwt beam="1">  1        2 0.20532430E+00 0.55071057E+03</pdfrwt>
<pdfrwt beam="2">  1       -2 0.87401676E-02 0.55071057E+03</pdfrwt>
<totfact> 0.13676874E+03</totfact>
</mgrwt>
</event>
<event>
 4    1  0.6705655E-006  0.5105276E+03  0.7818608E-02  0.1011067E+00
         -2   -1    0    0    0  501 -0.00000000000E+00  0.00000000000E+00  0.36675586885E+02  0.36675586973E+02  0.25500000000E-02 0. -1.
          2   -1    0    0  501    0  0.00000000000E+00 -0.00000000000E+00 -0.17766481362E+04  0.17766481362E+04  0.25500000000E-02 0.  1.
   -5000001    1    1    2    0    0 -0.12607690043E+02 -0.49972497209E+02 -0.87654409296E+03  0.91295440807E+03  0.25000000000E+03 0.  0.
    5000001    1    1    2    0    0  0.12607690043E+02  0.49972497209E+02 -0.86342845636E+03  0.90036931510E+03  0.25000000000E+03 0.  0.
<mgrwt>
<rscale>  0 0.51052762E+03</rscale>
<asrwt>0</asrwt>
<pdfrwt beam="1">  1        2 0.27333041E+00 0.51052762E+03</pdfrwt>
<pdfrwt beam="2">  1       -2 0.56423994E-02 0.51052762E+03</pdfrwt>
<totfact> 0.15632958E+03</totfact>
</mgrwt>
</event>
<event>
 4    1  0.6705655E-006  0.6463162E+03  0.7818608E-02  0.9813716E-01
          2   -1    0    0  501    0  0.00000000000E+00  0.00000000000E+00  0.49890333408E+03  0.49890333409E+03  0.25500000000E-02 0.  1.
         -2   -1    0    0    0  501 -0.00000000000E+00 -0.00000000000E+00 -0.20932143977E+03  0.20932143979E+03  0.25500000000E-02 0. -1.
   -5000001    1    1    2    0    0 -0.19085540926E+03  0.24869501770E+02  0.68188593909E+02  0.32279089780E+03  0.25000000000E+03 0.  0.
    5000001    1    1    2    0    0  0.19085540926E+03 -0.24869501770E+02  0.22139330040E+03  0.38543387607E+03  0.25000000000E+03 0.  0.
<mgrwt>
<rscale>  0 0.64631622E+03</rscale>
<asrwt>0</asrwt>
<pdfrwt beam="1">  1        2 0.76754358E-01 0.64631622E+03</pdfrwt>
<pdfrwt beam="2">  1       -2 0.32203299E-01 0.64631622E+03</pdfrwt>
<totfact> 0.55776255E+02</totfact>
</mgrwt>
</event>
<event>
 4    1  0.6705655E-006  0.5548247E+03  0.7818608E-02  0.1000383E+00
          2   -1    0    0  501    0  0.00000000000E+00  0.00000000000E+00  0.15089269375E+04  0.15089269375E+04  0.25500000000E-02 0.  1.
         -2   -1    0    0    0  501 -0.00000000000E+00 -0.00000000000E+00 -0.51001541899E+02  0.51001541963E+02  0.25500000000E-02 0. -1.
   -5000001    1    1    2    0    0  0.10476499905E+03 -0.57185540454E+02  0.68805368342E+03  0.74173024903E+03  0.25000000000E+03 0.  0.
    5000001    1    1    2    0    0 -0.10476499905E+03  0.57185540454E+02  0.76987171215E+03  0.81819823040E+03  0.25000000000E+03 0.  0.
<mgrwt>
<rscale>  0 0.55482466E+03</rscale>
<asrwt>0</asrwt>
<pdfrwt beam="1">  1        2 0.23214260E+00 0.55482466E+03</pdfrwt>
<pdfrwt beam="2">  1       -2 0.78463911E-02 0.55482466E+03</pdfrwt>
<totfact> 0.12986509E+03</totfact>
</mgrwt>
</event>
<event>
 4    1  0.6705655E-006  0.5229759E+03  0.7818608E-02  0.1007950E+00
         -2   -1    0    0    0  501 -0.00000000000E+00  0.00000000000E+00  0.89596235385E+02  0.89596235422E+02  0.25500000000E-02 0. -1.
          2   -1    0    0  501    0  0.00000000000E+00 -0.00000000000E+00 -0.76315653883E+03  0.76315653884E+03  0.25500000000E-02 0.  1.
   -5000001    1    1    2    0    0 -0.45974453411E+02 -0.26528619058E+02 -0.42695764742E+03  0.49760451232E+03  0.25000000000E+03 0.  0.
    5000001    1    1    2    0    0  0.45974453411E+02  0.26528619058E+02 -0.24660265603E+03  0.35514826194E+03  0.25000000000E+03 0.  0.
<mgrwt>
<rscale>  0 0.52297592E+03</rscale>
<asrwt>0</asrwt>
<pdfrwt beam="1">  1        2 0.11740869E+00 0.52297592E+03</pdfrwt>
<pdfrwt beam="2">  1       -2 0.13784037E-01 0.52297592E+03</pdfrwt>
<totfact> 0.14853459E+03</totfact>
</mgrwt>
</event>
<event>
 4    1  0.6705655E-006  0.8217031E+03  0.7818608E-02  0.9529123E-01
         -2   -1    0    0    0  501 -0.00000000000E+00  0.00000000000E+00  0.14505478867E+03  0.14505478869E+03  0.25500000000E-02 0.  1.
          2   -1    0    0  501    0  0.00000000000E+00 -0.00000000000E+00 -0.11636912785E+04  0.11636912785E+04  0.25500000000E-02 0. -1.
   -5000001    1    1    2    0    0  0.94934749233E+01  0.32569330591E+03 -0.49096823420E+03  0.64009066746E+03  0.25000000000E+03 0.  0.
    5000001    1    1    2    0    0 -0.94934749233E+01 -0.32569330591E+03 -0.52766825561E+03  0.66865539971E+03  0.25000000000E+03 0.  0.
<mgrwt>
<rscale>  0 0.82170309E+03</rscale>
<asrwt>0</asrwt>
<pdfrwt beam="1">  1        2 0.17902942E+00 0.82170309E+03</pdfrwt>
<pdfrwt beam="2">  1       -2 0.22316122E-01 0.82170309E+03</pdfrwt>
<totfact> 0.35184480E+02</totfact>
</mgrwt>
</event>
<event>
 4    1  0.6705655E-006  0.1295213E+04  0.7818608E-02  0.9033370E-01
         -2   -1    0    0    0  501 -0.00000000000E+00  0.00000000000E+00  0.32649076821E+03  0.32649076822E+03  0.25500000000E-02 0. -1.
          2   -1    0    0  501    0  0.00000000000E+00 -0.00000000000E+00 -0.12845517531E+04  0.12845517531E+04  0.25500000000E-02 0.  1.
   -5000001    1    1    2    0    0  0.38639714956E+03  0.45508434462E+03 -0.50655770236E+03  0.82189124811E+03  0.25000000000E+03 0.  0.
    5000001    1    1    2    0    0 -0.38639714956E+03 -0.45508434462E+03 -0.45150328256E+03  0.78915127325E+03  0.25000000000E+03 0.  0.
<mgrwt>
<rscale>  0 0.12952132E+04</rscale>
<asrwt>0</asrwt>
<pdfrwt beam="1">  1        2 0.19762334E+00 0.12952132E+04</pdfrwt>
<pdfrwt beam="2">  1       -2 0.50229350E-01 0.12952132E+04</pdfrwt>
<totfact> 0.62029064E+01</totfact>
</mgrwt>
</event>
<event>
 4    1  0.6705655E-006  0.6699235E+03  0.7818608E-02  0.9770096E-01
          2   -1    0    0  501    0  0.00000000000E+00  0.00000000000E+00  0.75414824487E+03  0.75414824488E+03  0.25500000000E-02 0.  1.
         -2   -1    0    0    0  501 -0.00000000000E+00 -0.00000000000E+00 -0.14877626265E+03  0.14877626267E+03  0.25500000000E-02 0. -1.
   -5000001    1    1    2    0    0  0.19220516822E+03 -0.77454698983E+02  0.41347913087E+03  0.52574428076E+03  0.25000000000E+03 0.  0.
    5000001    1    1    2    0    0 -0.19220516822E+03  0.77454698983E+02  0.19189285134E+03  0.37718022679E+03  0.25000000000E+03 0.  0.
<mgrwt>
<rscale>  0 0.66992345E+03</rscale>
<asrwt>0</asrwt>
<pdfrwt beam="1">  1        2 0.11602281E+00 0.66992345E+03</pdfrwt>
<pdfrwt beam="2">  1       -2 0.22888655E-01 0.66992345E+03</pdfrwt>
<totfact> 0.62920955E+02</totfact>
</mgrwt>
</event>
<event>
 4    1  0.6705655E-006  0.5795644E+03  0.7818608E-02  0.9948735E-01
         -2   -1    0    0    0  501 -0.00000000000E+00  0.00000000000E+00  0.37415361735E+03  0.37415361736E+03  0.25500000000E-02 0. -1.
          2   -1    0    0  501    0  0.00000000000E+00 -0.00000000000E+00 -0.22443647286E+03  0.22443647287E+03  0.25500000000E-02 0.  1.
   -5000001    1    1    2    0    0  0.33193984296E+02  0.11468487406E+03 -0.12896877151E+02  0.27734597594E+03  0.25000000000E+03 0.  0.
    5000001    1    1    2    0    0 -0.33193984296E+02 -0.11468487406E+03  0.16261402164E+03  0.32124411429E+03  0.25000000000E+03 0.  0.
<mgrwt>
<rscale>  0 0.57956438E+03</rscale>
<asrwt>0</asrwt>
<pdfrwt beam="1">  1        2 0.34528688E-01 0.57956438E+03</pdfrwt>
<pdfrwt beam="2">  1       -2 0.57562094E-01 0.57956438E+03</pdfrwt>
<totfact> 0.43325639E+02</totfact>
</mgrwt>
</event>
<event>
 4    1  0.6705655E-006  0.6951600E+03  0.7818608E-02  0.9725545E-01
          2   -1    0    0  501    0  0.00000000000E+00  0.00000000000E+00  0.33376725142E+04  0.33376725142E+04  0.25500000000E-02 0.  1.
         -2   -1    0    0    0  501 -0.00000000000E+00 -0.00000000000E+00 -0.36196437116E+02  0.36196437206E+02  0.25500000000E-02 0. -1.
   -5000001    1    1    2    0    0 -0.21847394081E+03 -0.10011925928E+03  0.15361815788E+04  0.15748360461E+04  0.25000000000E+03 0.  0.
    5000001    1    1    2    0    0  0.21847394081E+03  0.10011925928E+03  0.17652944982E+04  0.17990329053E+04  0.25000000000E+03 0.  0.
<mgrwt>
<rscale>  0 0.69515999E+03</rscale>
<asrwt>0</asrwt>
<pdfrwt beam="1">  1        2 0.51348803E+00 0.69515999E+03</pdfrwt>
<pdfrwt beam="2">  1       -2 0.55686831E-02 0.69515999E+03</pdfrwt>
<totfact> 0.19744501E+02</totfact>
</mgrwt>
</event>
<event>
 4    1  0.6705655E-006  0.1296317E+04  0.7818608E-02  0.9032491E-01
          2   -1    0    0  501    0  0.00000000000E+00  0.00000000000E+00  0.22691841829E+04  0.22691841829E+04  0.25500000000E-02 0.  1.
         -2   -1    0    0    0  501 -0.00000000000E+00 -0.00000000000E+00 -0.18513667813E+03  0.18513667815E+03  0.25500000000E-02 0. -1.
   -5000001    1    1    2    0    0  0.21394320685E+03  0.53668482754E+03  0.74989664473E+03  0.97910534553E+03  0.25000000000E+03 0.  0.
    5000001    1    1    2    0    0 -0.21394320685E+03 -0.53668482754E+03  0.13341508600E+04  0.14752155155E+04  0.25000000000E+03 0.  0.
<mgrwt>
<rscale>  0 0.12963167E+04</rscale>
<asrwt>0</asrwt>
<pdfrwt beam="1">  1        2 0.34910528E+00 0.12963167E+04</pdfrwt>
<pdfrwt beam="2">  1       -2 0.28482564E-01 0.12963167E+04</pdfrwt>
<totfact> 0.52401300E+01</totfact>
</mgrwt>
</event>
<event>
 4    1  0.6705655E-006  0.8118233E+03  0.7818608E-02  0.9543059E-01
         -2   -1    0    0    0  501 -0.00000000000E+00  0.00000000000E+00  0.10632506768E+03  0.10632506771E+03  0.25500000000E-02 0. -1.
          2   -1    0    0  501    0  0.00000000000E+00 -0.00000000000E+00 -0.15496278051E+04  0.15496278051E+04  0.25500000000E-02 0.  1.
   -5000001    1    1    2    0    0  0.14219227763E+03 -0.20661520896E+03 -0.31699090358E+03  0.47528067638E+03  0.25000000000E+03 0.  0.
    5000001    1    1    2    0    0 -0.14219227763E+03  0.20661520896E+03 -0.11263118338E+04  0.11806721964E+04  0.25000000000E+03 0.  0.
<mgrwt>
<rscale>  0 0.81182333E+03</rscale>
<asrwt>0</asrwt>
<pdfrwt beam="1">  1        2 0.23840426E+00 0.81182333E+03</pdfrwt>
<pdfrwt beam="2">  1       -2 0.16357704E-01 0.81182333E+03</pdfrwt>
<totfact> 0.36336213E+02</totfact>
</mgrwt>
</event>
<event>
 4    1  0.6705655E-006  0.9457379E+03  0.7818608E-02  0.9370146E-01
         -2   -1    0    0    0  501 -0.00000000000E+00  0.00000000000E+00  0.40337530494E+03  0.40337530495E+03  0.25500000000E-02 0. -1.
          2   -1    0    0  501    0  0.00000000000E+00 -0.00000000000E+00 -0.55433496609E+03  0.55433496609E+03  0.25500000000E-02 0.  1.
   -5000001    1    1    2    0    0 -0.16716929982E+03 -0.33595258934E+03  0.68785275413E+02  0.45611526087E+03  0.25000000000E+03 0.  0.
    5000001    1    1    2    0    0  0.16716929982E+03  0.33595258934E+03 -0.21974493656E+03  0.50159501017E+03  0.25000000000E+03 0.  0.
<mgrwt>
<rscale>  0 0.94573788E+03</rscale>
<asrwt>0</asrwt>
<pdfrwt beam="1">  1        2 0.85282302E-01 0.94573788E+03</pdfrwt>
<pdfrwt beam="2">  1       -2 0.62057739E-01 0.94573788E+03</pdfrwt>
<totfact> 0.13172916E+02</totfact>
</mgrwt>
</event>
<event>
 4    1  0.6705655E-006  0.6620455E+03  0.7818608E-02  0.9784436E-01
         -2   -1    0    0    0  501 -0.00000000000E+00  0.00000000000E+00  0.10567852311E+03  0.10567852314E+03  0.25500000000E-02 0. -1.
          2   -1    0    0  501    0  0.00000000000E+00 -0.00000000000E+00 -0.10368811391E+04  0.10368811391E+04  0.25500000000E-02 0.  1.
   -5000001    1    1    2    0    0 -0.12905758710E+03  0.16836769410E+03 -0.38703414795E+03  0.50724646167E+03  0.25000000000E+03 0.  0.
    5000001    1    1    2    0    0  0.12905758710E+03 -0.16836769410E+03 -0.54416846804E+03  0.63531320057E+03  0.25000000000E+03 0.  0.
<mgrwt>
<rscale>  0 0.66204552E+03</rscale>
<asrwt>0</asrwt>
<pdfrwt beam="1">  1        2 0.15952017E+00 0.66204552E+03</pdfrwt>
<pdfrwt beam="2">  1       -2 0.16258235E-01 0.66204552E+03</pdfrwt>
<totfact> 0.73471087E+02</totfact>
</mgrwt>
</event>
<event>
 4    1  0.6705655E-006  0.8589374E+03  0.7818608E-02  0.9478419E-01
         -2   -1    0    0    0  501 -0.00000000000E+00  0.00000000000E+00  0.63135421785E+02  0.63135421836E+02  0.25500000000E-02 0. -1.
          2   -1    0    0  501    0  0.00000000000E+00 -0.00000000000E+00 -0.29213930750E+04  0.29213930750E+04  0.25500000000E-02 0.  1.
   -5000001    1    1    2    0    0  0.47743923477E+02 -0.34475227184E+03 -0.15280059473E+04  0.15869580291E+04  0.25000000000E+03 0.  0.
    5000001    1    1    2    0    0 -0.47743923477E+02  0.34475227184E+03 -0.13302517059E+04  0.13975704677E+04  0.25000000000E+03 0.  0.
<mgrwt>
<rscale>  0 0.85893745E+03</rscale>
<asrwt>0</asrwt>
<pdfrwt beam="1">  1        2 0.44944498E+00 0.85893745E+03</pdfrwt>
<pdfrwt beam="2">  1       -2 0.97131441E-02 0.85893745E+03</pdfrwt>
<totfact> 0.14581831E+02</totfact>
</mgrwt>
</event>
<event>
 4    1  0.6705655E-006  0.1178779E+04  0.7818608E-02  0.9131637E-01
          2   -1    0    0  501    0  0.00000000000E+00  0.00000000000E+00  0.10199080277E+04  0.10199080277E+04  0.25500000000E-02 0.  1.
         -2   -1    0    0    0  501 -0.00000000000E+00 -0.00000000000E+00 -0.34059917229E+03  0.34059917230E+03  0.25500000000E-02 0. -1.
   -5000001    1    1    2    0    0 -0.22370869240E+03  0.33887327195E+03 -0.60159249110E+02  0.48062439467E+03  0.25000000000E+03 0.  0.
    5000001    1    1    2    0    0  0.22370869240E+03 -0.33887327195E+03  0.73946810453E+03  0.87988280534E+03  0.25000000000E+03 0.  0.
<mgrwt>
<rscale>  0 0.11787787E+04</rscale>
<asrwt>0</asrwt>
<pdfrwt beam="1">  1        2 0.15690893E+00 0.11787787E+04</pdfrwt>
<pdfrwt beam="2">  1       -2 0.52399873E-01 0.11787787E+04</pdfrwt>
<totfact> 0.83058529E+01</totfact>
</mgrwt>
</event>
<event>
 4    1  0.6705655E-006  0.7367069E+03  0.7818608E-02  0.9656439E-01
          2   -1    0    0  501    0  0.00000000000E+00  0.00000000000E+00  0.84578636743E+03  0.84578636744E+03  0.25500000000E-02 0.  1.
         -2   -1    0    0    0  501 -0.00000000000E+00 -0.00000000000E+00 -0.16042380299E+03  0.16042380301E+03  0.25500000000E-02 0. -1.
   -5000001    1    1    2    0    0 -0.22790390044E+03  0.11420784245E+02  0.54114245550E+03  0.63828346312E+03  0.25000000000E+03 0.  0.
    5000001    1    1    2    0    0  0.22790390044E+03 -0.11420784245E+02  0.14422010894E+03  0.36792670733E+03  0.25000000000E+03 0.  0.
<mgrwt>
<rscale>  0 0.73670690E+03</rscale>
<asrwt>0</asrwt>
<pdfrwt beam="1">  1        2 0.13012098E+00 0.73670690E+03</pdfrwt>
<pdfrwt beam="2">  1       -2 0.24680585E-01 0.73670690E+03</pdfrwt>
<totfact> 0.47146543E+02</totfact>
</mgrwt>
</event>
<event>
 4    1  0.6705655E-006  0.5880262E+03  0.7818608E-02  0.9930564E-01
          2   -1    0    0  501    0  0.00000000000E+00  0.00000000000E+00  0.88581381178E+03  0.88581381179E+03  0.25500000000E-02 0.  1.
         -2   -1    0    0    0  501 -0.00000000000E+00 -0.00000000000E+00 -0.97586773734E+02  0.97586773767E+02  0.25500000000E-02 0. -1.
   -5000001    1    1    2    0    0  0.31289497485E+02  0.11555333516E+03  0.23015158163E+03  0.36027955318E+03  0.25000000000E+03 0.  0.
    5000001    1    1    2    0    0 -0.31289497485E+02 -0.11555333516E+03  0.55807545642E+03  0.62312103237E+03  0.25000000000E+03 0.  0.
<mgrwt>
<rscale>  0 0.58802623E+03</rscale>
<asrwt>0</asrwt>
<pdfrwt beam="1">  1        2 0.13627905E+00 0.58802623E+03</pdfrwt>
<pdfrwt beam="2">  1       -2 0.15013350E-01 0.58802623E+03</pdfrwt>
<totfact> 0.10553484E+03</totfact>
</mgrwt>
</event>
<event>
 4    1  0.6705655E-006  0.6339942E+03  0.7818608E-02  0.9837285E-01
          2   -1    0    0  501    0  0.00000000000E+00  0.00000000000E+00  0.16985868456E+03  0.16985868458E+03  0.25500000000E-02 0.  1.
         -2   -1    0    0    0  501 -0.00000000000E+00 -0.00000000000E+00 -0.59159280701E+03  0.59159280702E+03  0.25500000000E-02 0. -1.
   -5000001    1    1    2    0    0 -0.11586849737E+03  0.12896298619E+03 -0.10391247290E+03  0.32148835517E+03  0.25000000000E+03 0.  0.
    5000001    1    1    2    0    0  0.11586849737E+03 -0.12896298619E+03 -0.31782164955E+03  0.43996313642E+03  0.25000000000E+03 0.  0.
<mgrwt>
<rscale>  0 0.63399425E+03</rscale>
<asrwt>0</asrwt>
<pdfrwt beam="1">  1        2 0.26132106E-01 0.63399425E+03</pdfrwt>
<pdfrwt beam="2">  1       -2 0.91014277E-01 0.63399425E+03</pdfrwt>
<totfact> 0.21690118E+02</totfact>
</mgrwt>
</event>
<event>
 4    1  0.6705655E-006  0.6192857E+03  0.7818608E-02  0.9866183E-01
         -2   -1    0    0    0  501 -0.00000000000E+00  0.00000000000E+00  0.12737257734E+03  0.12737257737E+03  0.25500000000E-02 0. -1.
          2   -1    0    0  501    0  0.00000000000E+00 -0.00000000000E+00 -0.75274214329E+03  0.75274214330E+03  0.25500000000E-02 0.  1.
   -5000001    1    1    2    0    0  0.96489216712E+02  0.14915700329E+03 -0.37332636724E+03  0.48314651716E+03  0.25000000000E+03 0.  0.
    5000001    1    1    2    0    0 -0.96489216712E+02 -0.14915700329E+03 -0.25204319871E+03  0.39696820350E+03  0.25000000000E+03 0.  0.
<mgrwt>
<rscale>  0 0.61928574E+03</rscale>
<asrwt>0</asrwt>
<pdfrwt beam="1">  1        2 0.11580648E+00 0.61928574E+03</pdfrwt>
<pdfrwt beam="2">  1       -2 0.19595782E-01 0.61928574E+03</pdfrwt>
<totfact> 0.82992910E+02</totfact>
</mgrwt>
</event>
<event>
 4    1  0.6705655E-006  0.7141816E+03  0.7818608E-02  0.9693283E-01
          2   -1    0    0  501    0  0.00000000000E+00  0.00000000000E+00  0.11119855710E+04  0.11119855710E+04  0.25500000000E-02 0.  1.
         -2   -1    0    0    0  501 -0.00000000000E+00 -0.00000000000E+00 -0.11467219986E+03  0.11467219989E+03  0.25500000000E-02 0. -1.
   -5000001    1    1    2    0    0 -0.58704134441E+02  0.13940861494E+03  0.14610287114E+03  0.32669096449E+03  0.25000000000E+03 0.  0.
    5000001    1    1    2    0    0  0.58704134441E+02 -0.13940861494E+03  0.85121049997E+03  0.89996680637E+03  0.25000000000E+03 0.  0.
<mgrwt>
<rscale>  0 0.71418158E+03</rscale>
<asrwt>0</asrwt>
<pdfrwt beam="1">  1        2 0.17107469E+00 0.71418158E+03</pdfrwt>
<pdfrwt beam="2">  1       -2 0.17641878E-01 0.71418158E+03</pdfrwt>
<totfact> 0.57312546E+02</totfact>
</mgrwt>
</event>
<event>
 4    1  0.6705655E-006  0.1044980E+04  0.7818608E-02  0.9260543E-01
          2   -1    0    0  501    0  0.00000000000E+00  0.00000000000E+00  0.11616616274E+04  0.11616616274E+04  0.25500000000E-02 0.  1.
         -2   -1    0    0    0  501 -0.00000000000E+00 -0.00000000000E+00 -0.23500446060E+03  0.23500446062E+03  0.25500000000E-02 0. -1.
   -5000001    1    1    2    0    0 -0.31831760980E+03  0.20085862419E+02  0.90411838639E+03  0.99078736326E+03  0.25000000000E+03 0.  0.
    5000001    1    1    2    0    0  0.31831760980E+03 -0.20085862419E+02  0.22538780385E+02  0.40587872474E+03  0.25000000000E+03 0.  0.
<mgrwt>
<rscale>  0 0.10449797E+04</rscale>
<asrwt>0</asrwt>
<pdfrwt beam="1">  1        2 0.17871717E+00 0.10449797E+04</pdfrwt>
<pdfrwt beam="2">  1       -2 0.36154533E-01 0.10449797E+04</pdfrwt>
<totfact> 0.14303762E+02</totfact>
</mgrwt>
</event>
<event>
 4    1  0.6705655E-006  0.1173307E+04  0.7818608E-02  0.9136548E-01
          2   -1    0    0  501    0  0.00000000000E+00  0.00000000000E+00  0.20886378418E+04  0.20886378418E+04  0.25500000000E-02 0.  1.
         -2   -1    0    0    0  501 -0.00000000000E+00 -0.00000000000E+00 -0.16477823896E+03  0.16477823898E+03  0.25500000000E-02 0. -1.
   -5000001    1    1    2    0    0 -0.39492313758E+03  0.27412137386E+03  0.53009957411E+03  0.75803190610E+03  0.25000000000E+03 0.  0.
    5000001    1    1    2    0    0  0.39492313758E+03 -0.27412137386E+03  0.13937600288E+04  0.14953841747E+04  0.25000000000E+03 0.  0.
<mgrwt>
<rscale>  0 0.11733066E+04</rscale>
<asrwt>0</asrwt>
<pdfrwt beam="1">  1        2 0.32132892E+00 0.11733066E+04</pdfrwt>
<pdfrwt beam="2">  1       -2 0.25350497E-01 0.11733066E+04</pdfrwt>
<totfact> 0.82621395E+01</totfact>
</mgrwt>
</event>
<event>
 4    1  0.6705655E-006  0.8080345E+03  0.7818608E-02  0.9548460E-01
          2   -1    0    0  501    0  0.00000000000E+00  0.00000000000E+00  0.18047146200E+04  0.18047146200E+04  0.25500000000E-02 0.  1.
         -2   -1    0    0    0  501 -0.00000000000E+00 -0.00000000000E+00 -0.90446392169E+02  0.90446392205E+02  0.25500000000E-02 0. -1.
   -5000001    1    1    2    0    0  0.28148869360E+03 -0.14583834087E+03  0.82193597317E+03  0.91574202169E+03  0.25000000000E+03 0.  0.
    5000001    1    1    2    0    0 -0.28148869360E+03  0.14583834087E+03  0.89233225469E+03  0.97941899055E+03  0.25000000000E+03 0.  0.
<mgrwt>
<rscale>  0 0.80803447E+03</rscale>
<asrwt>0</asrwt>
<pdfrwt beam="1">  1        2 0.27764840E+00 0.80803447E+03</pdfrwt>
<pdfrwt beam="2">  1       -2 0.13914830E-01 0.80803447E+03</pdfrwt>
<totfact> 0.34612179E+02</totfact>
</mgrwt>
</event>
<event>
 4    1  0.6705655E-006  0.1027291E+04  0.7818608E-02  0.9279109E-01
          2   -1    0    0  501    0  0.00000000000E+00  0.00000000000E+00  0.24394724019E+04  0.24394724019E+04  0.25500000000E-02 0.  1.
         -2   -1    0    0    0  501 -0.00000000000E+00 -0.00000000000E+00 -0.10815115036E+03  0.10815115039E+03  0.25500000000E-02 0. -1.
   -5000001    1    1    2    0    0  0.44911718225E+02  0.43422064586E+03  0.14229912100E+04  0.15092940785E+04  0.25000000000E+03 0.  0.
    5000001    1    1    2    0    0 -0.44911718225E+02 -0.43422064586E+03  0.90833004154E+03  0.10383294738E+04  0.25000000000E+03 0.  0.
<mgrwt>
<rscale>  0 0.10272911E+04</rscale>
<asrwt>0</asrwt>
<pdfrwt beam="1">  1        2 0.37530342E+00 0.10272911E+04</pdfrwt>
<pdfrwt beam="2">  1       -2 0.16638640E-01 0.10272911E+04</pdfrwt>
<totfact> 0.11180488E+02</totfact>
</mgrwt>
</event>
<event>
 4    1  0.6705655E-006  0.7169136E+03  0.7818608E-02  0.9688737E-01
          2   -1    0    0  501    0  0.00000000000E+00  0.00000000000E+00  0.62026548146E+03  0.62026548147E+03  0.25500000000E-02 0.  1.
         -2   -1    0    0    0  501 -0.00000000000E+00 -0.00000000000E+00 -0.20715530397E+03  0.20715530399E+03  0.25500000000E-02 0. -1.
   -5000001    1    1    2    0    0 -0.21359094792E+03 -0.11322731600E+03  0.30683786495E+03  0.46377903519E+03  0.25000000000E+03 0.  0.
    5000001    1    1    2    0    0  0.21359094792E+03  0.11322731600E+03  0.10627231254E+03  0.36364175026E+03  0.25000000000E+03 0.  0.
<mgrwt>
<rscale>  0 0.71691362E+03</rscale>
<asrwt>0</asrwt>
<pdfrwt beam="1">  1        2 0.95425460E-01 0.71691362E+03</pdfrwt>
<pdfrwt beam="2">  1       -2 0.31870046E-01 0.71691362E+03</pdfrwt>
<totfact> 0.43873377E+02</totfact>
</mgrwt>
</event>
<event>
 4    1  0.6705655E-006  0.6604878E+03  0.7818608E-02  0.9787296E-01
          2   -1    0    0  501    0  0.00000000000E+00  0.00000000000E+00  0.12361275305E+04  0.12361275305E+04  0.25500000000E-02 0.  1.
         -2   -1    0    0    0  501 -0.00000000000E+00 -0.00000000000E+00 -0.88227981769E+02  0.88227981806E+02  0.25500000000E-02 0. -1.
   -5000001    1    1    2    0    0  0.15349843119E+03 -0.56336401135E+02  0.85627625732E+03  0.90688730685E+03  0.25000000000E+03 0.  0.
    5000001    1    1    2    0    0 -0.15349843119E+03  0.56336401135E+02  0.29162329138E+03  0.41746820543E+03  0.25000000000E+03 0.  0.
<mgrwt>
<rscale>  0 0.66048781E+03</rscale>
<asrwt>0</asrwt>
<pdfrwt beam="1">  1        2 0.19017348E+00 0.66048781E+03</pdfrwt>
<pdfrwt beam="2">  1       -2 0.13573534E-01 0.66048781E+03</pdfrwt>
<totfact> 0.75565394E+02</totfact>
</mgrwt>
</event>
<event>
 4    1  0.6705655E-006  0.1227870E+04  0.7818608E-02  0.9088806E-01
         -2   -1    0    0    0  501 -0.00000000000E+00  0.00000000000E+00  0.36818219375E+03  0.36818219376E+03  0.25500000000E-02 0. -1.
          2   -1    0    0  501    0  0.00000000000E+00 -0.00000000000E+00 -0.10237213227E+04  0.10237213227E+04  0.25500000000E-02 0.  1.
   -5000001    1    1    2    0    0 -0.21800098955E+03 -0.51093009618E+03 -0.24112597227E+03  0.65514557858E+03  0.25000000000E+03 0.  0.
    5000001    1    1    2    0    0  0.21800098955E+03  0.51093009618E+03 -0.41441315672E+03  0.73675793792E+03  0.25000000000E+03 0.  0.
<mgrwt>
<rscale>  0 0.12278696E+04</rscale>
<asrwt>0</asrwt>
<pdfrwt beam="1">  1        2 0.15749559E+00 0.12278696E+04</pdfrwt>
<pdfrwt beam="2">  1       -2 0.56643415E-01 0.12278696E+04</pdfrwt>
<totfact> 0.70042350E+01</totfact>
</mgrwt>
</event>
<event>
 4    1  0.6705655E-006  0.7850834E+03  0.7818608E-02  0.9581863E-01
         -2   -1    0    0    0  501 -0.00000000000E+00  0.00000000000E+00  0.69671460443E+02  0.69671460490E+02  0.25500000000E-02 0. -1.
          2   -1    0    0  501    0  0.00000000000E+00 -0.00000000000E+00 -0.22116511958E+04  0.22116511958E+04  0.25500000000E-02 0.  1.
   -5000001    1    1    2    0    0  0.17491537852E+02  0.25179108679E+03 -0.15562230957E+04  0.15962565674E+04  0.25000000000E+03 0.  0.
    5000001    1    1    2    0    0 -0.17491537852E+02 -0.25179108679E+03 -0.58575663965E+03  0.68506608892E+03  0.25000000000E+03 0.  0.
<mgrwt>
<rscale>  0 0.78508336E+03</rscale>
<asrwt>0</asrwt>
<pdfrwt beam="1">  1        2 0.34025398E+00 0.78508336E+03</pdfrwt>
<pdfrwt beam="2">  1       -2 0.10718688E-01 0.78508336E+03</pdfrwt>
<totfact> 0.31992515E+02</totfact>
</mgrwt>
</event>
<event>
 4    1  0.6705655E-006  0.9414260E+03  0.7818608E-02  0.9375229E-01
         -2   -1    0    0    0  501 -0.00000000000E+00  0.00000000000E+00  0.84109218592E+03  0.84109218592E+03  0.25500000000E-02 0. -1.
          2   -1    0    0  501    0  0.00000000000E+00 -0.00000000000E+00 -0.26343216389E+03  0.26343216390E+03  0.25500000000E-02 0.  1.
   -5000001    1    1    2    0    0 -0.19044317714E+03 -0.33347892611E+03  0.41515944855E+03  0.61833176014E+03  0.25000000000E+03 0.  0.
    5000001    1    1    2    0    0  0.19044317714E+03  0.33347892611E+03  0.16250057347E+03  0.48619258968E+03  0.25000000000E+03 0.  0.
<mgrwt>
<rscale>  0 0.94142601E+03</rscale>
<asrwt>0</asrwt>
<pdfrwt beam="1">  1        2 0.40528025E-01 0.94142601E+03</pdfrwt>
<pdfrwt beam="2">  1       -2 0.12939880E+00 0.94142601E+03</pdfrwt>
<totfact> 0.55816868E+01</totfact>
</mgrwt>
</event>
<event>
 4    1  0.6705655E-006  0.7882158E+03  0.7818608E-02  0.9577233E-01
         -2   -1    0    0    0  501 -0.00000000000E+00  0.00000000000E+00  0.32088599513E+03  0.32088599514E+03  0.25500000000E-02 0. -1.
          2   -1    0    0  501    0  0.00000000000E+00 -0.00000000000E+00 -0.48403812321E+03  0.48403812322E+03  0.25500000000E-02 0.  1.
   -5000001    1    1    2    0    0  0.30238854456E+03 -0.12149234386E+02 -0.45694094639E+02  0.39518905104E+03  0.25000000000E+03 0.  0.
    5000001    1    1    2    0    0 -0.30238854456E+03  0.12149234386E+02 -0.11745803344E+03  0.40973506732E+03  0.25000000000E+03 0.  0.
<mgrwt>
<rscale>  0 0.78821585E+03</rscale>
<asrwt>0</asrwt>
<pdfrwt beam="1">  1        2 0.74467403E-01 0.78821585E+03</pdfrwt>
<pdfrwt beam="2">  1       -2 0.49367076E-01 0.78821585E+03</pdfrwt>
<totfact> 0.25018868E+02</totfact>
</mgrwt>
</event>
<event>
 4    1  0.6705655E-006  0.9218258E+03  0.7818608E-02  0.9398702E-01
          2   -1    0    0  501    0  0.00000000000E+00  0.00000000000E+00  0.12608283739E+04  0.12608283739E+04  0.25500000000E-02 0.  1.
         -2   -1    0    0    0  501 -0.00000000000E+00 -0.00000000000E+00 -0.16849295270E+03  0.16849295272E+03  0.25500000000E-02 0. -1.
   -5000001    1    1    2    0    0  0.29120297718E+03 -0.14867110010E+02  0.94123576861E+03  0.10165849581E+04  0.25000000000E+03 0.  0.
    5000001    1    1    2    0    0 -0.29120297718E+03  0.14867110010E+02  0.15109965255E+03  0.41273636850E+03  0.25000000000E+03 0.  0.
<mgrwt>
<rscale>  0 0.92182579E+03</rscale>
<asrwt>0</asrwt>
<pdfrwt beam="1">  1        2 0.19397360E+00 0.92182579E+03</pdfrwt>
<pdfrwt beam="2">  1       -2 0.25921993E-01 0.92182579E+03</pdfrwt>
<totfact> 0.23417311E+02</totfact>
</mgrwt>
</event>
<event>
 4    1  0.6705655E-006  0.1591748E+04  0.7818608E-02  0.8825634E-01
         -2   -1    0    0    0  501 -0.00000000000E+00  0.00000000000E+00  0.92747501066E+03  0.92747501067E+03  0.25500000000E-02 0. -1.
          2   -1    0    0  501    0  0.00000000000E+00 -0.00000000000E+00 -0.68294579713E+03  0.68294579714E+03  0.25500000000E-02 0.  1.
   -5000001    1    1    2    0    0  0.54592844807E+03  0.45229327736E+03 -0.14215959023E+03  0.76505975470E+03  0.25000000000E+03 0.  0.
    5000001    1    1    2    0    0 -0.54592844807E+03 -0.45229327736E+03  0.38668880376E+03  0.84536105311E+03  0.25000000000E+03 0.  0.
<mgrwt>
<rscale>  0 0.15917477E+04</rscale>
<asrwt>0</asrwt>
<pdfrwt beam="1">  1        2 0.10506858E+00 0.15917477E+04</pdfrwt>
<pdfrwt beam="2">  1       -2 0.14268846E+00 0.15917477E+04</pdfrwt>
<totfact> 0.13855369E+01</totfact>
</mgrwt>
</event>
<event>
 4    1  0.6705655E-006  0.1004068E+04  0.7818608E-02  0.9304094E-01
          2   -1    0    0  501    0  0.00000000000E+00  0.00000000000E+00  0.12161093823E+04  0.12161093823E+04  0.25500000000E-02 0.  1.
         -2   -1    0    0    0  501 -0.00000000000E+00 -0.00000000000E+00 -0.20724975947E+03  0.20724975948E+03  0.25500000000E-02 0. -1.
   -5000001    1    1    2    0    0 -0.36613713590E+03 -0.22496880549E+03  0.60336726494E+03  0.78180523286E+03  0.25000000000E+03 0.  0.
    5000001    1    1    2    0    0  0.36613713590E+03  0.22496880549E+03  0.40549235786E+03  0.64155390889E+03  0.25000000000E+03 0.  0.
<mgrwt>
<rscale>  0 0.10040685E+04</rscale>
<asrwt>0</asrwt>
<pdfrwt beam="1">  1        2 0.18709375E+00 0.10040685E+04</pdfrwt>
<pdfrwt beam="2">  1       -2 0.31884579E-01 0.10040685E+04</pdfrwt>
<totfact> 0.16889538E+02</totfact>
</mgrwt>
</event>
<event>
 4    1  0.6705655E-006  0.1015605E+04  0.7818608E-02  0.9291593E-01
         -2   -1    0    0    0  501 -0.00000000000E+00  0.00000000000E+00  0.13921199114E+03  0.13921199117E+03  0.25500000000E-02 0. -1.
          2   -1    0    0  501    0  0.00000000000E+00 -0.00000000000E+00 -0.18523067204E+04  0.18523067204E+04  0.25500000000E-02 0.  1.
   -5000001    1    1    2    0    0  0.33632178170E+03  0.10533842001E+03 -0.33347512529E+03  0.54581515439E+03  0.25000000000E+03 0.  0.
    5000001    1    1    2    0    0 -0.33632178170E+03 -0.10533842001E+03 -0.13796196039E+04  0.14457035572E+04  0.25000000000E+03 0.  0.
<mgrwt>
<rscale>  0 0.10156049E+04</rscale>
<asrwt>0</asrwt>
<pdfrwt beam="1">  1        2 0.28497025E+00 0.10156049E+04</pdfrwt>
<pdfrwt beam="2">  1       -2 0.21417231E-01 0.10156049E+04</pdfrwt>
<totfact> 0.15273831E+02</totfact>
</mgrwt>
</event>
<event>
 4    1  0.6705655E-006  0.7058148E+03  0.7818608E-02  0.9707340E-01
          2   -1    0    0  501    0  0.00000000000E+00  0.00000000000E+00  0.20630004159E+04  0.20630004159E+04  0.25500000000E-02 0.  1.
         -2   -1    0    0    0  501 -0.00000000000E+00 -0.00000000000E+00 -0.60370135906E+02  0.60370135960E+02  0.25500000000E-02 0. -1.
   -5000001    1    1    2    0    0 -0.22738544248E+03 -0.76054885095E+02  0.12043569486E+04  0.12531816088E+04  0.25000000000E+03 0.  0.
    5000001    1    1    2    0    0  0.22738544248E+03  0.76054885095E+02  0.79827333134E+03  0.87018894301E+03  0.25000000000E+03 0.  0.
<mgrwt>
<rscale>  0 0.70581475E+03</rscale>
<asrwt>0</asrwt>
<pdfrwt beam="1">  1        2 0.31738462E+00 0.70581475E+03</pdfrwt>
<pdfrwt beam="2">  1       -2 0.92877148E-02 0.70581475E+03</pdfrwt>
<totfact> 0.49048475E+02</totfact>
</mgrwt>
</event>
<event>
 4    1  0.6705655E-006  0.5609225E+03  0.7818608E-02  0.9989970E-01
         -2   -1    0    0    0  501 -0.00000000000E+00  0.00000000000E+00  0.42554316439E+03  0.42554316440E+03  0.25500000000E-02 0. -1.
          2   -1    0    0  501    0  0.00000000000E+00 -0.00000000000E+00 -0.18484261077E+03  0.18484261079E+03  0.25500000000E-02 0.  1.
   -5000001    1    1    2    0    0 -0.27663038795E+01 -0.99068567877E+02  0.33730194373E+02  0.27103497854E+03  0.25000000000E+03 0.  0.
    5000001    1    1    2    0    0  0.27663038795E+01  0.99068567877E+02  0.20697035925E+03  0.33935079665E+03  0.25000000000E+03 0.  0.
<mgrwt>
<rscale>  0 0.56092249E+03</rscale>
<asrwt>0</asrwt>
<pdfrwt beam="1">  1        2 0.28437325E-01 0.56092249E+03</pdfrwt>
<pdfrwt beam="2">  1       -2 0.65468178E-01 0.56092249E+03</pdfrwt>
<totfact> 0.41044870E+02</totfact>
</mgrwt>
</event>
<event>
 4    1  0.6705655E-006  0.5902002E+03  0.7818608E-02  0.9925949E-01
          2   -1    0    0  501    0  0.00000000000E+00  0.00000000000E+00  0.70405558124E+03  0.70405558124E+03  0.25500000000E-02 0.  1.
         -2   -1    0    0    0  501 -0.00000000000E+00 -0.00000000000E+00 -0.12368921210E+03  0.12368921213E+03  0.25500000000E-02 0. -1.
   -5000001    1    1    2    0    0 -0.10891714557E+03 -0.54000579355E+02  0.15130868964E+03  0.31650170099E+03  0.25000000000E+03 0.  0.
    5000001    1    1    2    0    0  0.10891714557E+03  0.54000579355E+02  0.42905767950E+03  0.51124309238E+03  0.25000000000E+03 0.  0.
<mgrwt>
<rscale>  0 0.59020024E+03</rscale>
<asrwt>0</asrwt>
<pdfrwt beam="1">  1        2 0.10831624E+00 0.59020024E+03</pdfrwt>
<pdfrwt beam="2">  1       -2 0.19029110E-01 0.59020024E+03</pdfrwt>
<totfact> 0.95127139E+02</totfact>
</mgrwt>
</event>
<event>
 4    1  0.6705655E-006  0.9784232E+03  0.7818608E-02  0.9332532E-01
          2   -1    0    0  501    0  0.00000000000E+00  0.00000000000E+00  0.28650780372E+04  0.28650780372E+04  0.25500000000E-02 0.  1.
         -2   -1    0    0    0  501 -0.00000000000E+00 -0.00000000000E+00 -0.83532796662E+02  0.83532796701E+02  0.25500000000E-02 0. -1.
   -5000001    1    1    2    0    0 -0.15108618522E+03  0.34158161858E+03  0.80856395213E+03  0.92508415953E+03  0.25000000000E+03 0.  0.
    5000001    1    1    2    0    0  0.15108618522E+03 -0.34158161858E+03  0.19729812884E+04  0.20235266744E+04  0.25000000000E+03 0.  0.
<mgrwt>
<rscale>  0 0.97842318E+03</rscale>
<asrwt>0</asrwt>
<pdfrwt beam="1">  1        2 0.44078122E+00 0.97842318E+03</pdfrwt>
<pdfrwt beam="2">  1       -2 0.12851200E-01 0.97842318E+03</pdfrwt>
<totfact> 0.98200133E+01</totfact>
</mgrwt>
</event>
<event>
 4    1  0.6705655E-006  0.6259782E+03  0.7818608E-02  0.9852929E-01
          2   -1    0    0  501    0  0.00000000000E+00  0.00000000000E+00  0.28888461727E+03  0.28888461729E+03  0.25500000000E-02 0.  1.
         -2   -1    0    0    0  501 -0.00000000000E+00 -0.00000000000E+00 -0.33910490723E+03  0.33910490724E+03  0.25500000000E-02 0. -1.
   -5000001    1    1    2    0    0  0.99069196116E+02 -0.15792227589E+03 -0.51804670725E+02  0.31612952211E+03  0.25000000000E+03 0.  0.
    5000001    1    1    2    0    0 -0.99069196116E+02  0.15792227589E+03  0.15843807692E+01  0.31186000241E+03  0.25000000000E+03 0.  0.
<mgrwt>
<rscale>  0 0.62597825E+03</rscale>
<asrwt>0</asrwt>
<pdfrwt beam="1">  1        2 0.44443787E-01 0.62597825E+03</pdfrwt>
<pdfrwt beam="2">  1       -2 0.52169986E-01 0.62597825E+03</pdfrwt>
<totfact> 0.40090839E+02</totfact>
</mgrwt>
</event>
<event>
 4    1  0.6705655E-006  0.9835724E+03  0.7818608E-02  0.9326748E-01
          2   -1    0    0  501    0  0.00000000000E+00  0.00000000000E+00  0.57837334162E+03  0.57837334162E+03  0.25500000000E-02 0.  1.
         -2   -1    0    0    0  501 -0.00000000000E+00 -0.00000000000E+00 -0.41816182110E+03  0.41816182111E+03  0.25500000000E-02 0. -1.
   -5000001    1    1    2    0    0  0.29792756889E+03 -0.29388917012E+03  0.14272731069E+02  0.48768370023E+03  0.25000000000E+03 0.  0.
    5000001    1    1    2    0    0 -0.29792756889E+03  0.29388917012E+03  0.14593878945E+03  0.50885146250E+03  0.25000000000E+03 0.  0.
<mgrwt>
<rscale>  0 0.98357237E+03</rscale>
<asrwt>0</asrwt>
<pdfrwt beam="1">  1        2 0.88980513E-01 0.98357237E+03</pdfrwt>
<pdfrwt beam="2">  1       -2 0.64332588E-01 0.98357237E+03</pdfrwt>
<totfact> 0.11571474E+02</totfact>
</mgrwt>
</event>
<event>
 4    1  0.6705655E-006  0.9549066E+03  0.7818608E-02  0.9359434E-01
         -2   -1    0    0    0  501 -0.00000000000E+00  0.00000000000E+00  0.28920046763E+03  0.28920046764E+03  0.25500000000E-02 0. -1.
          2   -1    0    0  501    0  0.00000000000E+00 -0.00000000000E+00 -0.78824782662E+03  0.78824782662E+03  0.25500000000E-02 0.  1.
   -5000001    1    1    2    0    0 -0.26144938441E+03  0.20766360496E+03  0.12631704110E+02  0.41730026765E+03  0.25000000000E+03 0.  0.
    5000001    1    1    2    0    0  0.26144938441E+03 -0.20766360496E+03 -0.51167906310E+03  0.66014802662E+03  0.25000000000E+03 0.  0.
<mgrwt>
<rscale>  0 0.95490657E+03</rscale>
<asrwt>0</asrwt>
<pdfrwt beam="1">  1        2 0.12126890E+00 0.95490657E+03</pdfrwt>
<pdfrwt beam="2">  1       -2 0.44492380E-01 0.95490657E+03</pdfrwt>
<totfact> 0.16834091E+02</totfact>
</mgrwt>
</event>
<event>
 4    1  0.6705655E-006  0.6196498E+03  0.7818608E-02  0.9865457E-01
         -2   -1    0    0    0  501 -0.00000000000E+00  0.00000000000E+00  0.27694890600E+03  0.27694890601E+03  0.25500000000E-02 0. -1.
          2   -1    0    0  501    0  0.00000000000E+00 -0.00000000000E+00 -0.34660347481E+03  0.34660347482E+03  0.25500000000E-02 0.  1.
   -5000001    1    1    2    0    0 -0.10922664900E+03 -0.71123121735E+02 -0.16409838701E+03  0.32621655371E+03  0.25000000000E+03 0.  0.
    5000001    1    1    2    0    0  0.10922664900E+03  0.71123121735E+02  0.94443818196E+02  0.29733582713E+03  0.25000000000E+03 0.  0.
<mgrwt>
<rscale>  0 0.61964975E+03</rscale>
<asrwt>0</asrwt>
<pdfrwt beam="1">  1        2 0.53323611E-01 0.61964975E+03</pdfrwt>
<pdfrwt beam="2">  1       -2 0.42607524E-01 0.61964975E+03</pdfrwt>
<totfact> 0.49189289E+02</totfact>
</mgrwt>
</event>
<event>
 4    1  0.6705655E-006  0.7919316E+03  0.7818608E-02  0.9571770E-01
          2   -1    0    0  501    0  0.00000000000E+00  0.00000000000E+00  0.68430661014E+03  0.68430661014E+03  0.25500000000E-02 0.  1.
         -2   -1    0    0    0  501 -0.00000000000E+00 -0.00000000000E+00 -0.22912082903E+03  0.22912082905E+03  0.25500000000E-02 0. -1.
   -5000001    1    1    2    0    0  0.27859103868E+03 -0.30074027778E+00  0.78646401209E+02  0.38248962561E+03  0.25000000000E+03 0.  0.
    5000001    1    1    2    0    0 -0.27859103868E+03  0.30074027778E+00  0.37653937989E+03  0.53093781358E+03  0.25000000000E+03 0.  0.
<mgrwt>
<rscale>  0 0.79193156E+03</rscale>
<asrwt>0</asrwt>
<pdfrwt beam="1">  1        2 0.10527794E+00 0.79193156E+03</pdfrwt>
<pdfrwt beam="2">  1       -2 0.35249358E-01 0.79193156E+03</pdfrwt>
<totfact> 0.32036508E+02</totfact>
</mgrwt>
</event>
<event>
 4    1  0.6705655E-006  0.9958056E+03  0.7818608E-02  0.9313157E-01
         -2   -1    0    0    0  501 -0.00000000000E+00  0.00000000000E+00  0.71669695890E+02  0.71669695935E+02  0.25500000000E-02 0. -1.
          2   -1    0    0  501    0  0.00000000000E+00 -0.00000000000E+00 -0.34590243049E+04  0.34590243049E+04  0.25500000000E-02 0.  1.
   -5000001    1    1    2    0    0 -0.24567773284E+03  0.35213063726E+03 -0.15785863753E+04  0.16549285418E+04  0.25000000000E+03 0.  0.
    5000001    1    1    2    0    0  0.24567773284E+03 -0.35213063726E+03 -0.18087682336E+04  0.18757654590E+04  0.25000000000E+03 0.  0.
<mgrwt>
<rscale>  0 0.99580564E+03</rscale>
<asrwt>0</asrwt>
<pdfrwt beam="1">  1        2 0.53215745E+00 0.99580564E+03</pdfrwt>
<pdfrwt beam="2">  1       -2 0.11026110E-01 0.99580564E+03</pdfrwt>
<totfact> 0.52832264E+01</totfact>
</mgrwt>
</event>
<event>
 4    1  0.6705655E-006  0.5317975E+03  0.7818608E-02  0.1005797E+00
         -2   -1    0    0    0  501 -0.00000000000E+00  0.00000000000E+00  0.66638162186E+02  0.66638162234E+02  0.25500000000E-02 0. -1.
          2   -1    0    0  501    0  0.00000000000E+00 -0.00000000000E+00 -0.10609859919E+04  0.10609859919E+04  0.25500000000E-02 0.  1.
   -5000001    1    1    2    0    0 -0.59480053356E+02 -0.22717689740E+02 -0.36060647171E+03  0.44338583380E+03  0.25000000000E+03 0.  0.
    5000001    1    1    2    0    0  0.59480053356E+02  0.22717689740E+02 -0.63374135800E+03  0.68423832034E+03  0.25000000000E+03 0.  0.
<mgrwt>
<rscale>  0 0.53179754E+03</rscale>
<asrwt>0</asrwt>
<pdfrwt beam="1">  1        2 0.16322860E+00 0.53179754E+03</pdfrwt>
<pdfrwt beam="2">  1       -2 0.10252026E-01 0.53179754E+03</pdfrwt>
<totfact> 0.15315225E+03</totfact>
</mgrwt>
</event>
<event>
 4    1  0.6705655E-006  0.7721611E+03  0.7818608E-02  0.9601211E-01
         -2   -1    0    0    0  501 -0.00000000000E+00  0.00000000000E+00  0.45661469849E+03  0.45661469850E+03  0.25500000000E-02 0. -1.
          2   -1    0    0  501    0  0.00000000000E+00 -0.00000000000E+00 -0.32644194315E+03  0.32644194316E+03  0.25500000000E-02 0.  1.
   -5000001    1    1    2    0    0  0.72046802454E+02 -0.28412125028E+03  0.90792884553E+02  0.39580168581E+03  0.25000000000E+03 0.  0.
    5000001    1    1    2    0    0 -0.72046802454E+02  0.28412125028E+03  0.39379870790E+02  0.38725495585E+03  0.25000000000E+03 0.  0.
<mgrwt>
<rscale>  0 0.77216110E+03</rscale>
<asrwt>0</asrwt>
<pdfrwt beam="1">  1        2 0.50221837E-01 0.77216110E+03</pdfrwt>
<pdfrwt beam="2">  1       -2 0.70248415E-01 0.77216110E+03</pdfrwt>
<totfact> 0.18585221E+02</totfact>
</mgrwt>
</event>
<event>
 4    1  0.6705655E-006  0.7691122E+03  0.7818608E-02  0.9605834E-01
         -2   -1    0    0    0  501 -0.00000000000E+00  0.00000000000E+00  0.15269479317E+03  0.15269479319E+03  0.25500000000E-02 0. -1.
          2   -1    0    0  501    0  0.00000000000E+00 -0.00000000000E+00 -0.96849014013E+03  0.96849014014E+03  0.25500000000E-02 0.  1.
   -5000001    1    1    2    0    0 -0.21371806906E+03 -0.17743702033E+03 -0.54009769710E+03  0.65678370232E+03  0.25000000000E+03 0.  0.
    5000001    1    1    2    0    0  0.21371806906E+03  0.17743702033E+03 -0.27569764986E+03  0.46440123101E+03  0.25000000000E+03 0.  0.
<mgrwt>
<rscale>  0 0.76911222E+03</rscale>
<asrwt>0</asrwt>
<pdfrwt beam="1">  1        2 0.14899848E+00 0.76911222E+03</pdfrwt>
<pdfrwt beam="2">  1       -2 0.23491507E-01 0.76911222E+03</pdfrwt>
<totfact> 0.42567594E+02</totfact>
</mgrwt>
</event>
<event>
 4    1  0.6705655E-006  0.7020882E+03  0.7818608E-02  0.9713668E-01
          2   -1    0    0  501    0  0.00000000000E+00  0.00000000000E+00  0.12624172340E+04  0.12624172340E+04  0.25500000000E-02 0.  1.
         -2   -1    0    0    0  501 -0.00000000000E+00 -0.00000000000E+00 -0.97615878616E+02  0.97615878649E+02  0.25500000000E-02 0. -1.
   -5000001    1    1    2    0    0  0.64606831832E+02  0.15439306649E+03  0.93280473560E+03  0.98012036835E+03  0.25000000000E+03 0.  0.
    5000001    1    1    2    0    0 -0.64606831832E+02 -0.15439306649E+03  0.23199661982E+03  0.37991274434E+03  0.25000000000E+03 0.  0.
<mgrwt>
<rscale>  0 0.70208822E+03</rscale>
<asrwt>0</asrwt>
<pdfrwt beam="1">  1        2 0.19421803E+00 0.70208822E+03</pdfrwt>
<pdfrwt beam="2">  1       -2 0.15017828E-01 0.70208822E+03</pdfrwt>
<totfact> 0.61441350E+02</totfact>
</mgrwt>
</event>
<event>
 4    1  0.6705655E-006  0.9034117E+03  0.7818608E-02  0.9421327E-01
         -2   -1    0    0    0  501 -0.00000000000E+00  0.00000000000E+00  0.11671199078E+04  0.11671199078E+04  0.25500000000E-02 0. -1.
          2   -1    0    0  501    0  0.00000000000E+00 -0.00000000000E+00 -0.17482195147E+03  0.17482195149E+03  0.25500000000E-02 0.  1.
   -5000001    1    1    2    0    0 -0.36942292915E+03 -0.65671894601E+02  0.45541278368E+03  0.64084857951E+03  0.25000000000E+03 0.  0.
    5000001    1    1    2    0    0  0.36942292915E+03  0.65671894601E+02  0.53688517262E+03  0.70109327974E+03  0.25000000000E+03 0.  0.
<mgrwt>
<rscale>  0 0.90341171E+03</rscale>
<asrwt>0</asrwt>
<pdfrwt beam="1">  1        2 0.26895686E-01 0.90341171E+03</pdfrwt>
<pdfrwt beam="2">  1       -2 0.17955690E+00 0.90341171E+03</pdfrwt>
<totfact> 0.36973391E+01</totfact>
</mgrwt>
</event>
<event>
 4    1  0.6705655E-006  0.7867558E+03  0.7818608E-02  0.9579388E-01
          2   -1    0    0  501    0  0.00000000000E+00  0.00000000000E+00  0.16824573028E+03  0.16824573030E+03  0.25500000000E-02 0.  1.
         -2   -1    0    0    0  501 -0.00000000000E+00 -0.00000000000E+00 -0.91976293907E+03  0.91976293908E+03  0.25500000000E-02 0. -1.
   -5000001    1    1    2    0    0 -0.22416204279E+03 -0.15617490721E+03 -0.55925799375E+03  0.67075235866E+03  0.25000000000E+03 0.  0.
    5000001    1    1    2    0    0  0.22416204279E+03  0.15617490721E+03 -0.19225921504E+03  0.41725631072E+03  0.25000000000E+03 0.  0.
<mgrwt>
<rscale>  0 0.78675584E+03</rscale>
<asrwt>0</asrwt>
<pdfrwt beam="1">  1        2 0.25883959E-01 0.78675584E+03</pdfrwt>
<pdfrwt beam="2">  1       -2 0.14150199E+00 0.78675584E+03</pdfrwt>
<totfact> 0.74185295E+01</totfact>
</mgrwt>
</event>
<event>
 4    1  0.6705655E-006  0.6721264E+03  0.7818608E-02  0.9766124E-01
         -2   -1    0    0    0  501 -0.00000000000E+00  0.00000000000E+00  0.22145176747E+03  0.22145176749E+03  0.25500000000E-02 0. -1.
          2   -1    0    0  501    0  0.00000000000E+00 -0.00000000000E+00 -0.50999131158E+03  0.50999131159E+03  0.25500000000E-02 0.  1.
   -5000001    1    1    2    0    0  0.35423814443E+02  0.21980778541E+03 -0.17633479178E+03  0.37837054318E+03  0.25000000000E+03 0.  0.
    5000001    1    1    2    0    0 -0.35423814443E+02 -0.21980778541E+03 -0.11220475233E+03  0.35307253590E+03  0.25000000000E+03 0.  0.
<mgrwt>
<rscale>  0 0.67212641E+03</rscale>
<asrwt>0</asrwt>
<pdfrwt beam="1">  1        2 0.78460201E-01 0.67212641E+03</pdfrwt>
<pdfrwt beam="2">  1       -2 0.34069503E-01 0.67212641E+03</pdfrwt>
<totfact> 0.48873812E+02</totfact>
</mgrwt>
</event>
<event>
 4    1  0.6705655E-006  0.1121921E+04  0.7818608E-02  0.9184086E-01
         -2   -1    0    0    0  501 -0.00000000000E+00  0.00000000000E+00  0.26743861434E+03  0.26743861435E+03  0.25500000000E-02 0. -1.
          2   -1    0    0  501    0  0.00000000000E+00 -0.00000000000E+00 -0.11766305112E+04  0.11766305112E+04  0.25500000000E-02 0.  1.
   -5000001    1    1    2    0    0  0.13501120095E+03  0.43707669551E+03 -0.72123093500E+03  0.88990905363E+03  0.25000000000E+03 0.  0.
    5000001    1    1    2    0    0 -0.13501120095E+03 -0.43707669551E+03 -0.18796096189E+03  0.55416007194E+03  0.25000000000E+03 0.  0.
<mgrwt>
<rscale>  0 0.11219206E+04</rscale>
<asrwt>0</asrwt>
<pdfrwt beam="1">  1        2 0.18102008E+00 0.11219206E+04</pdfrwt>
<pdfrwt beam="2">  1       -2 0.41144403E-01 0.11219206E+04</pdfrwt>
<totfact> 0.10846069E+02</totfact>
</mgrwt>
</event>
<event>
 4    1  0.6705655E-006  0.7519919E+03  0.7818608E-02  0.9632231E-01
          2   -1    0    0  501    0  0.00000000000E+00  0.00000000000E+00  0.76154909626E+03  0.76154909627E+03  0.25500000000E-02 0.  1.
         -2   -1    0    0    0  501 -0.00000000000E+00 -0.00000000000E+00 -0.18563865714E+03  0.18563865716E+03  0.25500000000E-02 0. -1.
   -5000001    1    1    2    0    0 -0.24008523524E+03 -0.14549777188E+03  0.29790741363E+03  0.47964502385E+03  0.25000000000E+03 0.  0.
    5000001    1    1    2    0    0  0.24008523524E+03  0.14549777188E+03  0.27800302549E+03  0.46754272958E+03  0.25000000000E+03 0.  0.
<mgrwt>
<rscale>  0 0.75199189E+03</rscale>
<asrwt>0</asrwt>
<pdfrwt beam="1">  1        2 0.11716140E+00 0.75199189E+03</pdfrwt>
<pdfrwt beam="2">  1       -2 0.28559794E-01 0.75199189E+03</pdfrwt>
<totfact> 0.41519731E+02</totfact>
</mgrwt>
</event>
<event>
 4    1  0.6705655E-006  0.6154716E+03  0.7818608E-02  0.9873817E-01
          2   -1    0    0  501    0  0.00000000000E+00  0.00000000000E+00  0.32003629462E+03  0.32003629463E+03  0.25500000000E-02 0.  1.
         -2   -1    0    0    0  501 -0.00000000000E+00 -0.00000000000E+00 -0.29590803219E+03  0.29590803220E+03  0.25500000000E-02 0. -1.
   -5000001    1    1    2    0    0 -0.14270550894E+03  0.57472753227E+02 -0.80382854250E+02  0.30435075637E+03  0.25000000000E+03 0.  0.
    5000001    1    1    2    0    0  0.14270550894E+03 -0.57472753227E+02  0.10451111667E+03  0.31159357046E+03  0.25000000000E+03 0.  0.
<mgrwt>
<rscale>  0 0.61547156E+03</rscale>
<asrwt>0</asrwt>
<pdfrwt beam="1">  1        2 0.49236353E-01 0.61547156E+03</pdfrwt>
<pdfrwt beam="2">  1       -2 0.45524313E-01 0.61547156E+03</pdfrwt>
<totfact> 0.47140419E+02</totfact>
</mgrwt>
</event>
<event>
 4    1  0.6705655E-006  0.8351014E+03  0.7818608E-02  0.9510554E-01
         -2   -1    0    0    0  501 -0.00000000000E+00  0.00000000000E+00  0.10605899445E+03  0.10605899448E+03  0.25500000000E-02 0. -1.
          2   -1    0    0  501    0  0.00000000000E+00 -0.00000000000E+00 -0.16438831529E+04  0.16438831529E+04  0.25500000000E-02 0.  1.
   -5000001    1    1    2    0    0 -0.67210649052E+02 -0.30924309802E+03 -0.54225048267E+03  0.67578410086E+03  0.25000000000E+03 0.  0.
    5000001    1    1    2    0    0  0.67210649052E+02  0.30924309802E+03 -0.99557367581E+03  0.10741580466E+04  0.25000000000E+03 0.  0.
<mgrwt>
<rscale>  0 0.83510142E+03</rscale>
<asrwt>0</asrwt>
<pdfrwt beam="1">  1        2 0.25290508E+00 0.83510142E+03</pdfrwt>
<pdfrwt beam="2">  1       -2 0.16316770E-01 0.83510142E+03</pdfrwt>
<totfact> 0.32319076E+02</totfact>
</mgrwt>
</event>
<event>
 4    1  0.6705655E-006  0.8973392E+03  0.7818608E-02  0.9428914E-01
          2   -1    0    0  501    0  0.00000000000E+00  0.00000000000E+00  0.14998694516E+04  0.14998694516E+04  0.25500000000E-02 0.  1.
         -2   -1    0    0    0  501 -0.00000000000E+00 -0.00000000000E+00 -0.13421461270E+03  0.13421461273E+03  0.25500000000E-02 0. -1.
   -5000001    1    1    2    0    0 -0.23932842568E+03  0.20565034997E+03  0.32212391079E+03  0.51559089954E+03  0.25000000000E+03 0.  0.
    5000001    1    1    2    0    0  0.23932842568E+03 -0.20565034997E+03  0.10435309281E+04  0.11184931648E+04  0.25000000000E+03 0.  0.
<mgrwt>
<rscale>  0 0.89733917E+03</rscale>
<asrwt>0</asrwt>
<pdfrwt beam="1">  1        2 0.23074913E+00 0.89733917E+03</pdfrwt>
<pdfrwt beam="2">  1       -2 0.20648403E-01 0.89733917E+03</pdfrwt>
<totfact> 0.25723800E+02</totfact>
</mgrwt>
</event>
<event>
 4    1  0.6705655E-006  0.7039200E+03  0.7818608E-02  0.9710552E-01
         -2   -1    0    0    0  501 -0.00000000000E+00  0.00000000000E+00  0.35486407096E+02  0.35486407188E+02  0.25500000000E-02 0. -1.
          2   -1    0    0  501    0  0.00000000000E+00 -0.00000000000E+00 -0.34907972025E+04  0.34907972025E+04  0.25500000000E-02 0.  1.
   -5000001    1    1    2    0    0 -0.22481379652E+03  0.86034586970E+01 -0.22473065840E+04  0.22723340742E+04  0.25000000000E+03 0.  0.
    5000001    1    1    2    0    0  0.22481379652E+03 -0.86034586970E+01 -0.12080042114E+04  0.12539495354E+04  0.25000000000E+03 0.  0.
<mgrwt>
<rscale>  0 0.70392003E+03</rscale>
<asrwt>0</asrwt>
<pdfrwt beam="1">  1        2 0.53704545E+00 0.70392003E+03</pdfrwt>
<pdfrwt beam="2">  1       -2 0.54594500E-02 0.70392003E+03</pdfrwt>
<totfact> 0.16079440E+02</totfact>
</mgrwt>
</event>
<event>
 4    1  0.6705655E-006  0.1073999E+04  0.7818608E-02  0.9230911E-01
         -2   -1    0    0    0  501 -0.00000000000E+00  0.00000000000E+00  0.22004045970E+03  0.22004045972E+03  0.25500000000E-02 0.  1.
          2   -1    0    0  501    0  0.00000000000E+00 -0.00000000000E+00 -0.13105258008E+04  0.13105258008E+04  0.25500000000E-02 0. -1.
   -5000001    1    1    2    0    0  0.44752560813E+03 -0.92800811947E+02 -0.73093135932E+03  0.89758108974E+03  0.25000000000E+03 0.  0.
    5000001    1    1    2    0    0 -0.44752560813E+03  0.92800811947E+02 -0.35955398180E+03  0.63298517080E+03  0.25000000000E+03 0.  0.
<mgrwt>
<rscale>  0 0.10739994E+04</rscale>
<asrwt>0</asrwt>
<pdfrwt beam="1">  1        2 0.20161935E+00 0.10739994E+04</pdfrwt>
<pdfrwt beam="2">  1       -2 0.33852379E-01 0.10739994E+04</pdfrwt>
<totfact> 0.13218690E+02</totfact>
</mgrwt>
</event>
<event>
 4    1  0.6705655E-006  0.5505718E+03  0.7818608E-02  0.1001362E+00
          2   -1    0    0  501    0  0.00000000000E+00  0.00000000000E+00  0.16596054406E+04  0.16596054406E+04  0.25500000000E-02 0.  1.
         -2   -1    0    0    0  501 -0.00000000000E+00 -0.00000000000E+00 -0.45662849485E+02  0.45662849556E+02  0.25500000000E-02 0. -1.
   -5000001    1    1    2    0    0 -0.79118659732E+02  0.79834016893E+02  0.72806199104E+03  0.77795083094E+03  0.25000000000E+03 0.  0.
    5000001    1    1    2    0    0  0.79118659732E+02 -0.79834016893E+02  0.88588060006E+03  0.92731745919E+03  0.25000000000E+03 0.  0.
<mgrwt>
<rscale>  0 0.55057175E+03</rscale>
<asrwt>0</asrwt>
<pdfrwt beam="1">  1        2 0.25532395E+00 0.55057175E+03</pdfrwt>
<pdfrwt beam="2">  1       -2 0.70250527E-02 0.55057175E+03</pdfrwt>
<totfact> 0.12803866E+03</totfact>
</mgrwt>
</event>
<event>
 4    1  0.6705655E-006  0.1393123E+04  0.7818608E-02  0.8958811E-01
          2   -1    0    0  501    0  0.00000000000E+00  0.00000000000E+00  0.21094960844E+04  0.21094960844E+04  0.25500000000E-02 0.  1.
         -2   -1    0    0    0  501 -0.00000000000E+00 -0.00000000000E+00 -0.23000664612E+03  0.23000664614E+03  0.25500000000E-02 0. -1.
   -5000001    1    1    2    0    0  0.70065770168E+02 -0.34191802876E+03  0.18592578381E+02  0.42972413769E+03  0.25000000000E+03 0.  0.
    5000001    1    1    2    0    0 -0.70065770168E+02  0.34191802876E+03  0.18608968599E+04  0.19097785929E+04  0.25000000000E+03 0.  0.
<mgrwt>
<rscale>  0 0.13931233E+04</rscale>
<asrwt>0</asrwt>
<pdfrwt beam="1">  1        2 0.32453785E+00 0.13931233E+04</pdfrwt>
<pdfrwt beam="2">  1       -2 0.35385639E-01 0.13931233E+04</pdfrwt>
<totfact> 0.42447495E+01</totfact>
</mgrwt>
</event>
<event>
 4    1  0.6705655E-006  0.7457999E+03  0.7818608E-02  0.9641963E-01
         -2   -1    0    0    0  501 -0.00000000000E+00  0.00000000000E+00  0.16929837154E+03  0.16929837156E+03  0.25500000000E-02 0. -1.
          2   -1    0    0  501    0  0.00000000000E+00 -0.00000000000E+00 -0.82135684933E+03  0.82135684934E+03  0.25500000000E-02 0.  1.
   -5000001    1    1    2    0    0  0.55461290653E+02 -0.24294466118E+03 -0.48573809165E+03  0.60044946235E+03  0.25000000000E+03 0.  0.
    5000001    1    1    2    0    0 -0.55461290653E+02  0.24294466118E+03 -0.16632038615E+03  0.39020575855E+03  0.25000000000E+03 0.  0.
<mgrwt>
<rscale>  0 0.74579991E+03</rscale>
<asrwt>0</asrwt>
<pdfrwt beam="1">  1        2 0.12636259E+00 0.74579991E+03</pdfrwt>
<pdfrwt beam="2">  1       -2 0.26045904E-01 0.74579991E+03</pdfrwt>
<totfact> 0.44482288E+02</totfact>
</mgrwt>
</event>
<event>
 4    1  0.6705655E-006  0.5717744E+03  0.7818608E-02  0.9965760E-01
         -2   -1    0    0    0  501 -0.00000000000E+00  0.00000000000E+00  0.12777636043E+03  0.12777636045E+03  0.25500000000E-02 0. -1.
          2   -1    0    0  501    0  0.00000000000E+00 -0.00000000000E+00 -0.63964482064E+03  0.63964482065E+03  0.25500000000E-02 0.  1.
   -5000001    1    1    2    0    0 -0.56977574681E+02  0.12155176536E+03 -0.30262593370E+03  0.41485386756E+03  0.25000000000E+03 0.  0.
    5000001    1    1    2    0    0  0.56977574681E+02 -0.12155176536E+03 -0.20924252651E+03  0.35256731354E+03  0.25000000000E+03 0.  0.
<mgrwt>
<rscale>  0 0.57177439E+03</rscale>
<asrwt>0</asrwt>
<pdfrwt beam="1">  1        2 0.98406893E-01 0.57177439E+03</pdfrwt>
<pdfrwt beam="2">  1       -2 0.19657902E-01 0.57177439E+03</pdfrwt>
<totfact> 0.10125535E+03</totfact>
</mgrwt>
</event>
<event>
 4    1  0.6705655E-006  0.6885867E+03  0.7818608E-02  0.9736952E-01
         -2   -1    0    0    0  501 -0.00000000000E+00  0.00000000000E+00  0.16719839527E+03  0.16719839529E+03  0.25500000000E-02 0. -1.
          2   -1    0    0  501    0  0.00000000000E+00 -0.00000000000E+00 -0.70896560669E+03  0.70896560669E+03  0.25500000000E-02 0.  1.
   -5000001    1    1    2    0    0  0.19091632618E+02 -0.21282950989E+03 -0.40050095107E+03  0.51822958476E+03  0.25000000000E+03 0.  0.
    5000001    1    1    2    0    0 -0.19091632618E+02  0.21282950989E+03 -0.14126626035E+03  0.35793441722E+03  0.25000000000E+03 0.  0.
<mgrwt>
<rscale>  0 0.68858670E+03</rscale>
<asrwt>0</asrwt>
<pdfrwt beam="1">  1        2 0.10907163E+00 0.68858670E+03</pdfrwt>
<pdfrwt beam="2">  1       -2 0.25722830E-01 0.68858670E+03</pdfrwt>
<totfact> 0.55195859E+02</totfact>
</mgrwt>
</event>
<event>
 4    1  0.6705655E-006  0.8824813E+03  0.7818608E-02  0.9447749E-01
         -2   -1    0    0    0  501 -0.00000000000E+00  0.00000000000E+00  0.14074601108E+03  0.14074601110E+03  0.25500000000E-02 0. -1.
          2   -1    0    0  501    0  0.00000000000E+00 -0.00000000000E+00 -0.13832955549E+04  0.13832955549E+04  0.25500000000E-02 0.  1.
   -5000001    1    1    2    0    0 -0.28197500280E+03  0.19234113286E+03 -0.83758620209E+03  0.93837927275E+03  0.25000000000E+03 0.  0.
    5000001    1    1    2    0    0  0.28197500280E+03 -0.19234113286E+03 -0.40496334173E+03  0.58566229325E+03  0.25000000000E+03 0.  0.
<mgrwt>
<rscale>  0 0.88248135E+03</rscale>
<asrwt>0</asrwt>
<pdfrwt beam="1">  1        2 0.21281469E+00 0.88248135E+03</pdfrwt>
<pdfrwt beam="2">  1       -2 0.21653233E-01 0.88248135E+03</pdfrwt>
<totfact> 0.27546691E+02</totfact>
</mgrwt>
</event>
<event>
 4    1  0.6705655E-006  0.8191959E+03  0.7818608E-02  0.9532640E-01
          2   -1    0    0  501    0  0.00000000000E+00  0.00000000000E+00  0.55643537673E+03  0.55643537674E+03  0.25500000000E-02 0.  1.
         -2   -1    0    0    0  501 -0.00000000000E+00 -0.00000000000E+00 -0.30150935701E+03  0.30150935702E+03  0.25500000000E-02 0. -1.
   -5000001    1    1    2    0    0 -0.17631421857E+03 -0.21068555935E+03 -0.53315125011E+02  0.37525672698E+03  0.25000000000E+03 0.  0.
    5000001    1    1    2    0    0  0.17631421857E+03  0.21068555935E+03  0.30824114473E+03  0.48268800678E+03  0.25000000000E+03 0.  0.
<mgrwt>
<rscale>  0 0.81919588E+03</rscale>
<asrwt>0</asrwt>
<pdfrwt beam="1">  1        2 0.85605443E-01 0.81919588E+03</pdfrwt>
<pdfrwt beam="2">  1       -2 0.46386055E-01 0.81919588E+03</pdfrwt>
<totfact> 0.24071003E+02</totfact>
</mgrwt>
</event>
<event>
 4    1  0.6705655E-006  0.6980148E+03  0.7818608E-02  0.9720633E-01
          2   -1    0    0  501    0  0.00000000000E+00  0.00000000000E+00  0.75907478843E+03  0.75907478843E+03  0.25500000000E-02 0.  1.
         -2   -1    0    0    0  501 -0.00000000000E+00 -0.00000000000E+00 -0.16046664019E+03  0.16046664021E+03  0.25500000000E-02 0. -1.
   -5000001    1    1    2    0    0  0.35167869198E+02  0.21049616674E+03  0.14476868782E+03  0.35917041667E+03  0.25000000000E+03 0.  0.
    5000001    1    1    2    0    0 -0.35167869198E+02 -0.21049616674E+03  0.45383946042E+03  0.56037101198E+03  0.25000000000E+03 0.  0.
<mgrwt>
<rscale>  0 0.69801485E+03</rscale>
<asrwt>0</asrwt>
<pdfrwt beam="1">  1        2 0.11678074E+00 0.69801485E+03</pdfrwt>
<pdfrwt beam="2">  1       -2 0.24687175E-01 0.69801485E+03</pdfrwt>
<totfact> 0.54453763E+02</totfact>
</mgrwt>
</event>
<event>
 4    1  0.6705655E-006  0.7774886E+03  0.7818608E-02  0.9593185E-01
          2   -1    0    0  501    0  0.00000000000E+00  0.00000000000E+00  0.40186278686E+04  0.40186278686E+04  0.25500000000E-02 0.  1.
         -2   -1    0    0    0  501 -0.00000000000E+00 -0.00000000000E+00 -0.37605404802E+02  0.37605404888E+02  0.25500000000E-02 0. -1.
   -5000001    1    1    2    0    0 -0.21887490573E+03 -0.19766150639E+03  0.22021629064E+04  0.22358438590E+04  0.25000000000E+03 0.  0.
    5000001    1    1    2    0    0  0.21887490573E+03  0.19766150639E+03  0.17788595574E+04  0.18203894145E+04  0.25000000000E+03 0.  0.
<mgrwt>
<rscale>  0 0.77748859E+03</rscale>
<asrwt>0</asrwt>
<pdfrwt beam="1">  1        2 0.61825040E+00 0.77748859E+03</pdfrwt>
<pdfrwt beam="2">  1       -2 0.57854473E-02 0.77748859E+03</pdfrwt>
<totfact> 0.59636913E+01</totfact>
</mgrwt>
</event>
<event>
 4    1  0.6705655E-006  0.6948158E+03  0.7818608E-02  0.9726139E-01
         -2   -1    0    0    0  501 -0.00000000000E+00  0.00000000000E+00  0.40406342610E+03  0.40406342611E+03  0.25500000000E-02 0. -1.
          2   -1    0    0  501    0  0.00000000000E+00 -0.00000000000E+00 -0.29869625374E+03  0.29869625375E+03  0.25500000000E-02 0.  1.
   -5000001    1    1    2    0    0  0.23019849312E+03 -0.70264464908E+02  0.36256268061E+02  0.34891683571E+03  0.25000000000E+03 0.  0.
    5000001    1    1    2    0    0 -0.23019849312E+03  0.70264464908E+02  0.69110904294E+02  0.35384284415E+03  0.25000000000E+03 0.  0.
<mgrwt>
<rscale>  0 0.69481575E+03</rscale>
<asrwt>0</asrwt>
<pdfrwt beam="1">  1        2 0.45953270E-01 0.69481575E+03</pdfrwt>
<pdfrwt beam="2">  1       -2 0.62163604E-01 0.69481575E+03</pdfrwt>
<totfact> 0.26762194E+02</totfact>
</mgrwt>
</event>
<event>
 4    1  0.6705655E-006  0.6913159E+03  0.7818608E-02  0.9732199E-01
          2   -1    0    0  501    0  0.00000000000E+00  0.00000000000E+00  0.67809480988E+03  0.67809480989E+03  0.25500000000E-02 0.  1.
         -2   -1    0    0    0  501 -0.00000000000E+00 -0.00000000000E+00 -0.17619869185E+03  0.17619869187E+03  0.25500000000E-02 0. -1.
   -5000001    1    1    2    0    0  0.12863063893E+03 -0.16701053390E+03  0.38933581224E+03  0.50844934300E+03  0.25000000000E+03 0.  0.
    5000001    1    1    2    0    0 -0.12863063893E+03  0.16701053390E+03  0.11256030579E+03  0.34584415875E+03  0.25000000000E+03 0.  0.
<mgrwt>
<rscale>  0 0.69131590E+03</rscale>
<asrwt>0</asrwt>
<pdfrwt beam="1">  1        2 0.10432228E+00 0.69131590E+03</pdfrwt>
<pdfrwt beam="2">  1       -2 0.27107490E-01 0.69131590E+03</pdfrwt>
<totfact> 0.53062641E+02</totfact>
</mgrwt>
</event>
<event>
 4    1  0.6705655E-006  0.6247789E+03  0.7818608E-02  0.9855291E-01
          2   -1    0    0  501    0  0.00000000000E+00  0.00000000000E+00  0.29608948236E+03  0.29608948237E+03  0.25500000000E-02 0.  1.
         -2   -1    0    0    0  501 -0.00000000000E+00 -0.00000000000E+00 -0.32958677776E+03  0.32958677777E+03  0.25500000000E-02 0. -1.
   -5000001    1    1    2    0    0 -0.87780525584E+02  0.10340078897E+03  0.11262681592E+03  0.30591165963E+03  0.25000000000E+03 0.  0.
    5000001    1    1    2    0    0  0.87780525584E+02 -0.10340078897E+03 -0.14612411132E+03  0.31976460051E+03  0.25000000000E+03 0.  0.
<mgrwt>
<rscale>  0 0.62477893E+03</rscale>
<asrwt>0</asrwt>
<pdfrwt beam="1">  1        2 0.45552228E-01 0.62477893E+03</pdfrwt>
<pdfrwt beam="2">  1       -2 0.50705658E-01 0.62477893E+03</pdfrwt>
<totfact> 0.41347873E+02</totfact>
</mgrwt>
</event>
<event>
 4    1  0.6705655E-006  0.6034980E+03  0.7818608E-02  0.9898175E-01
         -2   -1    0    0    0  501 -0.00000000000E+00  0.00000000000E+00  0.11961325769E+03  0.11961325771E+03  0.25500000000E-02 0. -1.
          2   -1    0    0  501    0  0.00000000000E+00 -0.00000000000E+00 -0.76122389664E+03  0.76122389664E+03  0.25500000000E-02 0.  1.
   -5000001    1    1    2    0    0 -0.13162242503E+03 -0.10430612540E+03 -0.34804229069E+03  0.46025826084E+03  0.25000000000E+03 0.  0.
    5000001    1    1    2    0    0  0.13162242503E+03  0.10430612540E+03 -0.29356834826E+03  0.42057889351E+03  0.25000000000E+03 0.  0.
<mgrwt>
<rscale>  0 0.60349804E+03</rscale>
<asrwt>0</asrwt>
<pdfrwt beam="1">  1        2 0.11711137E+00 0.60349804E+03</pdfrwt>
<pdfrwt beam="2">  1       -2 0.18402040E-01 0.60349804E+03</pdfrwt>
<totfact> 0.91244226E+02</totfact>
</mgrwt>
</event>
<event>
 4    1  0.6705655E-006  0.9415044E+03  0.7818608E-02  0.9375136E-01
         -2   -1    0    0    0  501 -0.00000000000E+00  0.00000000000E+00  0.92035221603E+02  0.92035221638E+02  0.25500000000E-02 0. -1.
          2   -1    0    0  501    0  0.00000000000E+00 -0.00000000000E+00 -0.24078566462E+04  0.24078566462E+04  0.25500000000E-02 0.  1.
   -5000001    1    1    2    0    0 -0.37093076593E+03  0.11410365321E+03 -0.14026851255E+04  0.14766972737E+04  0.25000000000E+03 0.  0.
    5000001    1    1    2    0    0  0.37093076593E+03 -0.11410365321E+03 -0.91313629908E+03  0.10231945941E+04  0.25000000000E+03 0.  0.
<mgrwt>
<rscale>  0 0.94150437E+03</rscale>
<asrwt>0</asrwt>
<pdfrwt beam="1">  1        2 0.37043944E+00 0.94150437E+03</pdfrwt>
<pdfrwt beam="2">  1       -2 0.14159267E-01 0.94150437E+03</pdfrwt>
<totfact> 0.15448154E+02</totfact>
</mgrwt>
</event>
<event>
 4    1  0.6705655E-006  0.7093087E+03  0.7818608E-02  0.9701444E-01
         -2   -1    0    0    0  501 -0.00000000000E+00  0.00000000000E+00  0.11520021012E+03  0.11520021015E+03  0.25500000000E-02 0. -1.
          2   -1    0    0  501    0  0.00000000000E+00 -0.00000000000E+00 -0.10918356474E+04  0.10918356474E+04  0.25500000000E-02 0.  1.
   -5000001    1    1    2    0    0 -0.12383095673E+03  0.42842064025E+02 -0.85373001931E+03  0.89917990089E+03  0.25000000000E+03 0.  0.
    5000001    1    1    2    0    0  0.12383095673E+03 -0.42842064025E+02 -0.12290541800E+03  0.30785595669E+03  0.25000000000E+03 0.  0.
<mgrwt>
<rscale>  0 0.70930867E+03</rscale>
<asrwt>0</asrwt>
<pdfrwt beam="1">  1        2 0.16797471E+00 0.70930867E+03</pdfrwt>
<pdfrwt beam="2">  1       -2 0.17723110E-01 0.70930867E+03</pdfrwt>
<totfact> 0.58505982E+02</totfact>
</mgrwt>
</event>
<event>
 4    1  0.6705655E-006  0.1126026E+04  0.7818608E-02  0.9180190E-01
         -2   -1    0    0    0  501 -0.00000000000E+00  0.00000000000E+00  0.10673911017E+04  0.10673911017E+04  0.25500000000E-02 0. -1.
          2   -1    0    0  501    0  0.00000000000E+00 -0.00000000000E+00 -0.29697026701E+03  0.29697026702E+03  0.25500000000E-02 0.  1.
   -5000001    1    1    2    0    0  0.36985942328E+03  0.22506780609E+03  0.71505055071E+02  0.50503909079E+03  0.25000000000E+03 0.  0.
    5000001    1    1    2    0    0 -0.36985942328E+03 -0.22506780609E+03  0.69891577958E+03  0.85932227789E+03  0.25000000000E+03 0.  0.
<mgrwt>
<rscale>  0 0.11260256E+04</rscale>
<asrwt>0</asrwt>
<pdfrwt beam="1">  1        2 0.45687734E-01 0.11260256E+04</pdfrwt>
<pdfrwt beam="2">  1       -2 0.16421401E+00 0.11260256E+04</pdfrwt>
<totfact> 0.25792966E+01</totfact>
</mgrwt>
</event>
<event>
 4    1  0.6705655E-006  0.5762414E+03  0.7818608E-02  0.9955962E-01
          2   -1    0    0  501    0  0.00000000000E+00  0.00000000000E+00  0.19903654927E+04  0.19903654927E+04  0.25500000000E-02 0.  1.
         -2   -1    0    0    0  501 -0.00000000000E+00 -0.00000000000E+00 -0.41707681665E+02  0.41707681742E+02  0.25500000000E-02 0. -1.
   -5000001    1    1    2    0    0  0.81176221809E+02 -0.83023129557E+02  0.67863192147E+03  0.73247778388E+03  0.25000000000E+03 0.  0.
    5000001    1    1    2    0    0 -0.81176221809E+02  0.83023129557E+02  0.12700258896E+04  0.12995953906E+04  0.25000000000E+03 0.  0.
<mgrwt>
<rscale>  0 0.57624137E+03</rscale>
<asrwt>0</asrwt>
<pdfrwt beam="1">  1        2 0.30621003E+00 0.57624137E+03</pdfrwt>
<pdfrwt beam="2">  1       -2 0.64165673E-02 0.57624137E+03</pdfrwt>
<totfact> 0.97703159E+02</totfact>
</mgrwt>
</event>
<event>
 4    1  0.6705655E-006  0.7075371E+03  0.7818608E-02  0.9704429E-01
         -2   -1    0    0    0  501 -0.00000000000E+00  0.00000000000E+00  0.18030301272E+03  0.18030301273E+03  0.25500000000E-02 0. -1.
          2   -1    0    0  501    0  0.00000000000E+00 -0.00000000000E+00 -0.69412137482E+03  0.69412137483E+03  0.25500000000E-02 0.  1.
   -5000001    1    1    2    0    0 -0.12479206414E+03  0.18371459360E+03 -0.39958704478E+03  0.52105078210E+03  0.25000000000E+03 0.  0.
    5000001    1    1    2    0    0  0.12479206414E+03 -0.18371459360E+03 -0.11423131732E+03  0.35337360545E+03  0.25000000000E+03 0.  0.
<mgrwt>
<rscale>  0 0.70753707E+03</rscale>
<asrwt>0</asrwt>
<pdfrwt beam="1">  1        2 0.10678790E+00 0.70753707E+03</pdfrwt>
<pdfrwt beam="2">  1       -2 0.27738925E-01 0.70753707E+03</pdfrwt>
<totfact> 0.49386148E+02</totfact>
</mgrwt>
</event>
<event>
 4    1  0.6705655E-006  0.6360222E+03  0.7818608E-02  0.9833367E-01
          2   -1    0    0  501    0  0.00000000000E+00  0.00000000000E+00  0.70876383949E+03  0.70876383950E+03  0.25500000000E-02 0.  1.
         -2   -1    0    0    0  501 -0.00000000000E+00 -0.00000000000E+00 -0.14268654171E+03  0.14268654174E+03  0.25500000000E-02 0. -1.
   -5000001    1    1    2    0    0 -0.16411255844E+03  0.36635680046E+02  0.41927160186E+03  0.51629815128E+03  0.25000000000E+03 0.  0.
    5000001    1    1    2    0    0  0.16411255844E+03 -0.36635680046E+02  0.14680569592E+03  0.33515222996E+03  0.25000000000E+03 0.  0.
<mgrwt>
<rscale>  0 0.63602220E+03</rscale>
<asrwt>0</asrwt>
<pdfrwt beam="1">  1        2 0.10904059E+00 0.63602220E+03</pdfrwt>
<pdfrwt beam="2">  1       -2 0.21951776E-01 0.63602220E+03</pdfrwt>
<totfact> 0.73405579E+02</totfact>
</mgrwt>
</event>
<event>
 4    1  0.6705655E-006  0.6124430E+03  0.7818608E-02  0.9879922E-01
          2   -1    0    0  501    0  0.00000000000E+00  0.00000000000E+00  0.30157736323E+03  0.30157736324E+03  0.25500000000E-02 0.  1.
         -2   -1    0    0    0  501 -0.00000000000E+00 -0.00000000000E+00 -0.31093719221E+03  0.31093719222E+03  0.25500000000E-02 0. -1.
   -5000001    1    1    2    0    0  0.25160809020E+02  0.10790430185E+03 -0.14251913415E+03  0.30836359751E+03  0.25000000000E+03 0.  0.
    5000001    1    1    2    0    0 -0.25160809020E+02 -0.10790430185E+03  0.13315930517E+03  0.30415095795E+03  0.25000000000E+03 0.  0.
<mgrwt>
<rscale>  0 0.61244304E+03</rscale>
<asrwt>0</asrwt>
<pdfrwt beam="1">  1        2 0.46396517E-01 0.61244304E+03</pdfrwt>
<pdfrwt beam="2">  1       -2 0.47836491E-01 0.61244304E+03</pdfrwt>
<totfact> 0.45594144E+02</totfact>
</mgrwt>
</event>
<event>
 4    1  0.6705655E-006  0.1102040E+04  0.7818608E-02  0.9203205E-01
         -2   -1    0    0    0  501 -0.00000000000E+00  0.00000000000E+00  0.31778713250E+03  0.31778713251E+03  0.25500000000E-02 0. -1.
          2   -1    0    0  501    0  0.00000000000E+00 -0.00000000000E+00 -0.95542978586E+03  0.95542978586E+03  0.25500000000E-02 0.  1.
   -5000001    1    1    2    0    0 -0.27692919598E+02 -0.39186444451E+03 -0.65919922419E+03  0.80707388624E+03  0.25000000000E+03 0.  0.
    5000001    1    1    2    0    0  0.27692919598E+02  0.39186444451E+03  0.21556570837E+02  0.46614303214E+03  0.25000000000E+03 0.  0.
<mgrwt>
<rscale>  0 0.11020405E+04</rscale>
<asrwt>0</asrwt>
<pdfrwt beam="1">  1        2 0.14698920E+00 0.11020405E+04</pdfrwt>
<pdfrwt beam="2">  1       -2 0.48890329E-01 0.11020405E+04</pdfrwt>
<totfact> 0.10587381E+02</totfact>
</mgrwt>
</event>
<event>
 4    1  0.6705655E-006  0.7023666E+03  0.7818608E-02  0.9713194E-01
          2   -1    0    0  501    0  0.00000000000E+00  0.00000000000E+00  0.30934474791E+04  0.30934474791E+04  0.25500000000E-02 0.  1.
         -2   -1    0    0    0  501 -0.00000000000E+00 -0.00000000000E+00 -0.39868047073E+02  0.39868047154E+02  0.25500000000E-02 0. -1.
   -5000001    1    1    2    0    0  0.24158563683E+03  0.21156119778E+02  0.17272164147E+04  0.17619840364E+04  0.25000000000E+03 0.  0.
    5000001    1    1    2    0    0 -0.24158563683E+03 -0.21156119778E+02  0.13263630173E+04  0.13713314898E+04  0.25000000000E+03 0.  0.
<mgrwt>
<rscale>  0 0.70236660E+03</rscale>
<asrwt>0</asrwt>
<pdfrwt beam="1">  1        2 0.47591506E+00 0.70236660E+03</pdfrwt>
<pdfrwt beam="2">  1       -2 0.61335449E-02 0.70236660E+03</pdfrwt>
<totfact> 0.24265289E+02</totfact>
</mgrwt>
</event>
<event>
 4    1  0.6705655E-006  0.9713964E+03  0.7818608E-02  0.9340485E-01
          2   -1    0    0  501    0  0.00000000000E+00  0.00000000000E+00  0.64050828410E+03  0.64050828411E+03  0.25500000000E-02 0.  1.
         -2   -1    0    0    0  501 -0.00000000000E+00 -0.00000000000E+00 -0.36830549824E+03  0.36830549825E+03  0.25500000000E-02 0. -1.
   -5000001    1    1    2    0    0 -0.23123569524E+03 -0.19678700577E+03  0.43204775577E+03  0.58426050325E+03  0.25000000000E+03 0.  0.
    5000001    1    1    2    0    0  0.23123569524E+03  0.19678700577E+03 -0.15984496991E+03  0.42455327910E+03  0.25000000000E+03 0.  0.
<mgrwt>
<rscale>  0 0.97139636E+03</rscale>
<asrwt>0</asrwt>
<pdfrwt beam="1">  1        2 0.98539735E-01 0.97139636E+03</pdfrwt>
<pdfrwt beam="2">  1       -2 0.56662385E-01 0.97139636E+03</pdfrwt>
<totfact> 0.13381636E+02</totfact>
</mgrwt>
</event>
<event>
 4    1  0.6705655E-006  0.7699049E+03  0.7818608E-02  0.9604630E-01
          2   -1    0    0  501    0  0.00000000000E+00  0.00000000000E+00  0.24908371632E+04  0.24908371632E+04  0.25500000000E-02 0.  1.
         -2   -1    0    0    0  501 -0.00000000000E+00 -0.00000000000E+00 -0.59493408954E+02  0.59493409008E+02  0.25500000000E-02 0. -1.
   -5000001    1    1    2    0    0  0.18023607963E+03 -0.20624731150E+03  0.87357596750E+03  0.94903001475E+03  0.25000000000E+03 0.  0.
    5000001    1    1    2    0    0 -0.18023607963E+03  0.20624731150E+03  0.15577677867E+04  0.16013005574E+04  0.25000000000E+03 0.  0.
<mgrwt>
<rscale>  0 0.76990491E+03</rscale>
<asrwt>0</asrwt>
<pdfrwt beam="1">  1        2 0.38320573E+00 0.76990491E+03</pdfrwt>
<pdfrwt beam="2">  1       -2 0.91528319E-02 0.76990491E+03</pdfrwt>
<totfact> 0.28922029E+02</totfact>
</mgrwt>
</event>
<event>
 4    1  0.6705655E-006  0.1173186E+04  0.7818608E-02  0.9136656E-01
         -2   -1    0    0    0  501 -0.00000000000E+00  0.00000000000E+00  0.14777438401E+03  0.14777438403E+03  0.25500000000E-02 0. -1.
          2   -1    0    0  501    0  0.00000000000E+00 -0.00000000000E+00 -0.23284927950E+04  0.23284927950E+04  0.25500000000E-02 0.  1.
   -5000001    1    1    2    0    0  0.23304760710E+03  0.47646851482E+03 -0.10564458052E+04  0.12082678395E+04  0.25000000000E+03 0.  0.
    5000001    1    1    2    0    0 -0.23304760710E+03 -0.47646851482E+03 -0.11242726058E+04  0.12679993395E+04  0.25000000000E+03 0.  0.
<mgrwt>
<rscale>  0 0.11731864E+04</rscale>
<asrwt>0</asrwt>
<pdfrwt beam="1">  1        2 0.35822963E+00 0.11731864E+04</pdfrwt>
<pdfrwt beam="2">  1       -2 0.22734522E-01 0.11731864E+04</pdfrwt>
<totfact> 0.73853903E+01</totfact>
</mgrwt>
</event>
<event>
 4    1  0.6705655E-006  0.8320111E+03  0.7818608E-02  0.9514804E-01
         -2   -1    0    0    0  501 -0.00000000000E+00  0.00000000000E+00  0.18887766599E+03  0.18887766600E+03  0.25500000000E-02 0. -1.
          2   -1    0    0  501    0  0.00000000000E+00 -0.00000000000E+00 -0.91625762249E+03  0.91625762249E+03  0.25500000000E-02 0.  1.
   -5000001    1    1    2    0    0 -0.25782559344E+03  0.12300375076E+03 -0.13766291392E+03  0.40380073948E+03  0.25000000000E+03 0.  0.
    5000001    1    1    2    0    0  0.25782559344E+03 -0.12300375076E+03 -0.58971704258E+03  0.70133454902E+03  0.25000000000E+03 0.  0.
<mgrwt>
<rscale>  0 0.83201106E+03</rscale>
<asrwt>0</asrwt>
<pdfrwt beam="1">  1        2 0.14096271E+00 0.83201106E+03</pdfrwt>
<pdfrwt beam="2">  1       -2 0.29058103E-01 0.83201106E+03</pdfrwt>
<totfact> 0.31216002E+02</totfact>
</mgrwt>
</event>
<event>
 4    1  0.6705655E-006  0.1062954E+04  0.7818608E-02  0.9242071E-01
          2   -1    0    0  501    0  0.00000000000E+00  0.00000000000E+00  0.49431315503E+03  0.49431315503E+03  0.25500000000E-02 0.  1.
         -2   -1    0    0    0  501 -0.00000000000E+00 -0.00000000000E+00 -0.57143506221E+03  0.57143506222E+03  0.25500000000E-02 0. -1.
   -5000001    1    1    2    0    0 -0.38680043394E+03  0.19074953859E+03  0.14622735164E+03  0.51950206981E+03  0.25000000000E+03 0.  0.
    5000001    1    1    2    0    0  0.38680043394E+03 -0.19074953859E+03 -0.22334925883E+03  0.54624614744E+03  0.25000000000E+03 0.  0.
<mgrwt>
<rscale>  0 0.10629541E+04</rscale>
<asrwt>0</asrwt>
<pdfrwt beam="1">  1        2 0.76048177E-01 0.10629541E+04</pdfrwt>
<pdfrwt beam="2">  1       -2 0.87913087E-01 0.10629541E+04</pdfrwt>
<totfact> 0.69302017E+01</totfact>
</mgrwt>
</event>
<event>
 4    1  0.6705655E-006  0.6341583E+03  0.7818608E-02  0.9836968E-01
         -2   -1    0    0    0  501 -0.00000000000E+00  0.00000000000E+00  0.33249699150E+03  0.33249699151E+03  0.25500000000E-02 0. -1.
          2   -1    0    0  501    0  0.00000000000E+00 -0.00000000000E+00 -0.30237623110E+03  0.30237623111E+03  0.25500000000E-02 0.  1.
   -5000001    1    1    2    0    0 -0.95458536868E+01  0.15277171613E+03  0.13606378504E+03  0.32317746545E+03  0.25000000000E+03 0.  0.
    5000001    1    1    2    0    0  0.95458536868E+01 -0.15277171613E+03 -0.10594302463E+03  0.31169575718E+03  0.25000000000E+03 0.  0.
<mgrwt>
<rscale>  0 0.63415830E+03</rscale>
<asrwt>0</asrwt>
<pdfrwt beam="1">  1        2 0.46519420E-01 0.63415830E+03</pdfrwt>
<pdfrwt beam="2">  1       -2 0.51153383E-01 0.63415830E+03</pdfrwt>
<totfact> 0.39672748E+02</totfact>
</mgrwt>
</event>
<event>
 4    1  0.6705655E-006  0.8493364E+03  0.7818608E-02  0.9491228E-01
         -2   -1    0    0    0  501 -0.00000000000E+00  0.00000000000E+00  0.30860414429E+03  0.30860414430E+03  0.25500000000E-02 0. -1.
          2   -1    0    0  501    0  0.00000000000E+00 -0.00000000000E+00 -0.58438326459E+03  0.58438326460E+03  0.25500000000E-02 0.  1.
   -5000001    1    1    2    0    0  0.30612188535E+03  0.15519924369E+03 -0.13078324140E+03  0.44429907739E+03  0.25000000000E+03 0.  0.
    5000001    1    1    2    0    0 -0.30612188535E+03 -0.15519924369E+03 -0.14499587890E+03  0.44868833151E+03  0.25000000000E+03 0.  0.
<mgrwt>
<rscale>  0 0.84933644E+03</rscale>
<asrwt>0</asrwt>
<pdfrwt beam="1">  1        2 0.89905118E-01 0.84933644E+03</pdfrwt>
<pdfrwt beam="2">  1       -2 0.47477561E-01 0.84933644E+03</pdfrwt>
<totfact> 0.21637887E+02</totfact>
</mgrwt>
</event>
<event>
 4    1  0.6705655E-006  0.7616839E+03  0.7818608E-02  0.9617196E-01
          2   -1    0    0  501    0  0.00000000000E+00  0.00000000000E+00  0.13710949707E+04  0.13710949707E+04  0.25500000000E-02 0.  1.
         -2   -1    0    0    0  501 -0.00000000000E+00 -0.00000000000E+00 -0.10578448868E+03  0.10578448871E+03  0.25500000000E-02 0. -1.
   -5000001    1    1    2    0    0 -0.28615640774E+03  0.18258259948E+02  0.66743397985E+03  0.76823627304E+03  0.25000000000E+03 0.  0.
    5000001    1    1    2    0    0  0.28615640774E+03 -0.18258259948E+02  0.59787650218E+03  0.70864318638E+03  0.25000000000E+03 0.  0.
<mgrwt>
<rscale>  0 0.76168387E+03</rscale>
<asrwt>0</asrwt>
<pdfrwt beam="1">  1        2 0.21093767E+00 0.76168387E+03</pdfrwt>
<pdfrwt beam="2">  1       -2 0.16274538E-01 0.76168387E+03</pdfrwt>
<totfact> 0.46293200E+02</totfact>
</mgrwt>
</event>
<event>
 4    1  0.6705655E-006  0.6892574E+03  0.7818608E-02  0.9735782E-01
          2   -1    0    0  501    0  0.00000000000E+00  0.00000000000E+00  0.38898640573E+03  0.38898640574E+03  0.25500000000E-02 0.  1.
         -2   -1    0    0    0  501 -0.00000000000E+00 -0.00000000000E+00 -0.30532932518E+03  0.30532932519E+03  0.25500000000E-02 0. -1.
   -5000001    1    1    2    0    0  0.10275432647E+03 -0.21073061724E+03  0.54649772046E+01  0.34277647327E+03  0.25000000000E+03 0.  0.
    5000001    1    1    2    0    0 -0.10275432647E+03  0.21073061724E+03  0.78192103347E+02  0.35153925766E+03  0.25000000000E+03 0.  0.
<mgrwt>
<rscale>  0 0.68925745E+03</rscale>
<asrwt>0</asrwt>
<pdfrwt beam="1">  1        2 0.59844062E-01 0.68925745E+03</pdfrwt>
<pdfrwt beam="2">  1       -2 0.46973743E-01 0.68925745E+03</pdfrwt>
<totfact> 0.35571274E+02</totfact>
</mgrwt>
</event>
<event>
 4    1  0.6705655E-006  0.9057341E+03  0.7818608E-02  0.9418442E-01
          2   -1    0    0  501    0  0.00000000000E+00  0.00000000000E+00  0.62627458806E+03  0.62627458806E+03  0.25500000000E-02 0.  1.
         -2   -1    0    0    0  501 -0.00000000000E+00 -0.00000000000E+00 -0.32747384122E+03  0.32747384123E+03  0.25500000000E-02 0. -1.
   -5000001    1    1    2    0    0  0.37039505950E+03  0.48266479987E+01  0.22658510336E+03  0.50105549164E+03  0.25000000000E+03 0.  0.
    5000001    1    1    2    0    0 -0.37039505950E+03 -0.48266479987E+01  0.72215643480E+02  0.45269293765E+03  0.25000000000E+03 0.  0.
<mgrwt>
<rscale>  0 0.90573406E+03</rscale>
<asrwt>0</asrwt>
<pdfrwt beam="1">  1        2 0.96349936E-01 0.90573406E+03</pdfrwt>
<pdfrwt beam="2">  1       -2 0.50380591E-01 0.90573406E+03</pdfrwt>
<totfact> 0.17593232E+02</totfact>
</mgrwt>
</event>
<event>
 4    1  0.6705655E-006  0.8720532E+03  0.7818608E-02  0.9461207E-01
         -2   -1    0    0    0  501 -0.00000000000E+00  0.00000000000E+00  0.17074552815E+03  0.17074552817E+03  0.25500000000E-02 0.  1.
          2   -1    0    0  501    0  0.00000000000E+00 -0.00000000000E+00 -0.11134650298E+04  0.11134650298E+04  0.25500000000E-02 0. -1.
   -5000001    1    1    2    0    0  0.34084611536E+03  0.20424135171E+01 -0.62886170936E+03  0.75772507897E+03  0.25000000000E+03 0.  0.
    5000001    1    1    2    0    0 -0.34084611536E+03 -0.20424135171E+01 -0.31385779227E+03  0.52648547898E+03  0.25000000000E+03 0.  0.
<mgrwt>
<rscale>  0 0.87205315E+03</rscale>
<asrwt>0</asrwt>
<pdfrwt beam="1">  1        2 0.17130231E+00 0.87205315E+03</pdfrwt>
<pdfrwt beam="2">  1       -2 0.26268543E-01 0.87205315E+03</pdfrwt>
<totfact> 0.28072515E+02</totfact>
</mgrwt>
</event>
<event>
 4    1  0.6705655E-006  0.5295277E+03  0.7818608E-02  0.1006347E+00
         -2   -1    0    0    0  501 -0.00000000000E+00  0.00000000000E+00  0.12800667351E+03  0.12800667354E+03  0.25500000000E-02 0. -1.
          2   -1    0    0  501    0  0.00000000000E+00 -0.00000000000E+00 -0.54762697294E+03  0.54762697294E+03  0.25500000000E-02 0.  1.
   -5000001    1    1    2    0    0  0.83376895544E+02 -0.24444066466E+02 -0.20072618734E+03  0.33217498608E+03  0.25000000000E+03 0.  0.
    5000001    1    1    2    0    0 -0.83376895544E+02  0.24444066466E+02 -0.21889411209E+03  0.34345866040E+03  0.25000000000E+03 0.  0.
<mgrwt>
<rscale>  0 0.52952774E+03</rscale>
<asrwt>0</asrwt>
<pdfrwt beam="1">  1        2 0.84250302E-01 0.52952774E+03</pdfrwt>
<pdfrwt beam="2">  1       -2 0.19693335E-01 0.52952774E+03</pdfrwt>
<totfact> 0.12150579E+03</totfact>
</mgrwt>
</event>
<event>
 4    1  0.6705655E-006  0.6214828E+03  0.7818608E-02  0.9861812E-01
          2   -1    0    0  501    0  0.00000000000E+00  0.00000000000E+00  0.17800833803E+04  0.17800833803E+04  0.25500000000E-02 0. -1.
         -2   -1    0    0    0  501 -0.00000000000E+00 -0.00000000000E+00 -0.54244769763E+02  0.54244769823E+02  0.25500000000E-02 0.  1.
   -5000001    1    1    2    0    0  0.68410920483E+02 -0.77560205290E+02  0.13140754305E+04  0.13416370137E+04  0.25000000000E+03 0.  0.
    5000001    1    1    2    0    0 -0.68410920483E+02  0.77560205290E+02  0.41176318009E+03  0.49269113648E+03  0.25000000000E+03 0.  0.
<mgrwt>
<rscale>  0 0.62148279E+03</rscale>
<asrwt>0</asrwt>
<pdfrwt beam="1">  1        2 0.27385898E+00 0.62148279E+03</pdfrwt>
<pdfrwt beam="2">  1       -2 0.83453493E-02 0.62148279E+03</pdfrwt>
<totfact> 0.83465597E+02</totfact>
</mgrwt>
</event>
<event>
 4    1  0.6705655E-006  0.6164425E+03  0.7818608E-02  0.9871868E-01
          2   -1    0    0  501    0  0.00000000000E+00  0.00000000000E+00  0.17866499537E+04  0.17866499537E+04  0.25500000000E-02 0.  1.
         -2   -1    0    0    0  501 -0.00000000000E+00 -0.00000000000E+00 -0.53172329913E+02  0.53172329975E+02  0.25500000000E-02 0. -1.
   -5000001    1    1    2    0    0  0.12495734929E+03  0.12885705632E+03  0.91684606375E+03  0.96712211468E+03  0.25000000000E+03 0.  0.
    5000001    1    1    2    0    0 -0.12495734929E+03 -0.12885705632E+03  0.81663156005E+03  0.87270016900E+03  0.25000000000E+03 0.  0.
<mgrwt>
<rscale>  0 0.61644251E+03</rscale>
<asrwt>0</asrwt>
<pdfrwt beam="1">  1        2 0.27486919E+00 0.61644251E+03</pdfrwt>
<pdfrwt beam="2">  1       -2 0.81803595E-02 0.61644251E+03</pdfrwt>
<totfact> 0.85495593E+02</totfact>
</mgrwt>
</event>
<event>
 4    1  0.6705655E-006  0.6648335E+03  0.7818608E-02  0.9779337E-01
          2   -1    0    0  501    0  0.00000000000E+00  0.00000000000E+00  0.24236858334E+03  0.24236858335E+03  0.25500000000E-02 0.  1.
         -2   -1    0    0    0  501 -0.00000000000E+00 -0.00000000000E+00 -0.45592082991E+03  0.45592082991E+03  0.25500000000E-02 0. -1.
   -5000001    1    1    2    0    0 -0.10880717980E+03  0.19005622886E+03 -0.10009082720E+03  0.34710019619E+03  0.25000000000E+03 0.  0.
    5000001    1    1    2    0    0  0.10880717980E+03 -0.19005622886E+03 -0.11346141937E+03  0.35118921707E+03  0.25000000000E+03 0.  0.
<mgrwt>
<rscale>  0 0.66483347E+03</rscale>
<asrwt>0</asrwt>
<pdfrwt beam="1">  1        2 0.37287474E-01 0.66483347E+03</pdfrwt>
<pdfrwt beam="2">  1       -2 0.70141666E-01 0.66483347E+03</pdfrwt>
<totfact> 0.26049583E+02</totfact>
</mgrwt>
</event>
<event>
 4    1  0.6705655E-006  0.8681329E+03  0.7818608E-02  0.9466318E-01
         -2   -1    0    0    0  501 -0.00000000000E+00  0.00000000000E+00  0.82208225832E+02  0.82208225872E+02  0.25500000000E-02 0. -1.
          2   -1    0    0  501    0  0.00000000000E+00 -0.00000000000E+00 -0.22919081223E+04  0.22919081223E+04  0.25500000000E-02 0.  1.
   -5000001    1    1    2    0    0  0.27230836233E+03 -0.18023129891E+03 -0.72513929656E+03  0.83364390762E+03  0.25000000000E+03 0.  0.
    5000001    1    1    2    0    0 -0.27230836233E+03  0.18023129891E+03 -0.14845606000E+04  0.15404724406E+04  0.25000000000E+03 0.  0.
<mgrwt>
<rscale>  0 0.86813294E+03</rscale>
<asrwt>0</asrwt>
<pdfrwt beam="1">  1        2 0.35260120E+00 0.86813294E+03</pdfrwt>
<pdfrwt beam="2">  1       -2 0.12647421E-01 0.86813294E+03</pdfrwt>
<totfact> 0.21818395E+02</totfact>
</mgrwt>
</event>
<event>
 4    1  0.6705655E-006  0.7971303E+03  0.7818608E-02  0.9564180E-01
         -2   -1    0    0    0  501 -0.00000000000E+00  0.00000000000E+00  0.19295671213E+03  0.19295671215E+03  0.25500000000E-02 0. -1.
          2   -1    0    0  501    0  0.00000000000E+00 -0.00000000000E+00 -0.82326322267E+03  0.82326322268E+03  0.25500000000E-02 0.  1.
   -5000001    1    1    2    0    0  0.57945970534E+02  0.25029956824E+03 -0.53723512857E+03  0.64585539615E+03  0.25000000000E+03 0.  0.
    5000001    1    1    2    0    0 -0.57945970534E+02 -0.25029956824E+03 -0.93071381970E+02  0.37036453867E+03  0.25000000000E+03 0.  0.
<mgrwt>
<rscale>  0 0.79713026E+03</rscale>
<asrwt>0</asrwt>
<pdfrwt beam="1">  1        2 0.12665588E+00 0.79713026E+03</pdfrwt>
<pdfrwt beam="2">  1       -2 0.29685648E-01 0.79713026E+03</pdfrwt>
<totfact> 0.34815180E+02</totfact>
</mgrwt>
</event>
<event>
 4    1  0.6705655E-006  0.5778173E+03  0.7818608E-02  0.9952528E-01
         -2   -1    0    0    0  501 -0.00000000000E+00  0.00000000000E+00  0.41559708474E+02  0.41559708552E+02  0.25500000000E-02 0. -1.
          2   -1    0    0  501    0  0.00000000000E+00 -0.00000000000E+00 -0.20083927310E+04  0.20083927310E+04  0.25500000000E-02 0.  1.
   -5000001    1    1    2    0    0 -0.75230629728E+02 -0.10973431852E+03 -0.78063687250E+03  0.83041868658E+03  0.25000000000E+03 0.  0.
    5000001    1    1    2    0    0  0.75230629728E+02  0.10973431852E+03 -0.11861961500E+04  0.12195337530E+04  0.25000000000E+03 0.  0.
<mgrwt>
<rscale>  0 0.57781733E+03</rscale>
<asrwt>0</asrwt>
<pdfrwt beam="1">  1        2 0.30898342E+00 0.57781733E+03</pdfrwt>
<pdfrwt beam="2">  1       -2 0.63938028E-02 0.57781733E+03</pdfrwt>
<totfact> 0.96058330E+02</totfact>
</mgrwt>
</event>
<event>
 4    1  0.6705655E-006  0.8262550E+03  0.7818608E-02  0.9522773E-01
          2   -1    0    0  501    0  0.00000000000E+00  0.00000000000E+00  0.13897175951E+04  0.13897175951E+04  0.25500000000E-02 0.  1.
         -2   -1    0    0    0  501 -0.00000000000E+00 -0.00000000000E+00 -0.12281222733E+03  0.12281222735E+03  0.25500000000E-02 0. -1.
   -5000001    1    1    2    0    0  0.32334094969E+03 -0.19337661088E+01  0.74361076605E+03  0.84853407745E+03  0.25000000000E+03 0.  0.
    5000001    1    1    2    0    0 -0.32334094969E+03  0.19337661088E+01  0.52329460174E+03  0.66399574503E+03  0.25000000000E+03 0.  0.
<mgrwt>
<rscale>  0 0.82625496E+03</rscale>
<asrwt>0</asrwt>
<pdfrwt beam="1">  1        2 0.21380270E+00 0.82625496E+03</pdfrwt>
<pdfrwt beam="2">  1       -2 0.18894189E-01 0.82625496E+03</pdfrwt>
<totfact> 0.34813419E+02</totfact>
</mgrwt>
</event>
<event>
 4    1  0.6705655E-006  0.9027056E+03  0.7818608E-02  0.9422206E-01
          2   -1    0    0  501    0  0.00000000000E+00  0.00000000000E+00  0.10480578545E+04  0.10480578545E+04  0.25500000000E-02 0.  1.
         -2   -1    0    0    0  501 -0.00000000000E+00 -0.00000000000E+00 -0.19437796064E+03  0.19437796066E+03  0.25500000000E-02 0. -1.
   -5000001    1    1    2    0    0 -0.35429423662E+03 -0.16020538797E+02  0.25582764645E+03  0.50371504688E+03  0.25000000000E+03 0.  0.
    5000001    1    1    2    0    0  0.35429423662E+03  0.16020538797E+02  0.59785224745E+03  0.73872076832E+03  0.25000000000E+03 0.  0.
<mgrwt>
<rscale>  0 0.90270560E+03</rscale>
<asrwt>0</asrwt>
<pdfrwt beam="1">  1        2 0.16123967E+00 0.90270560E+03</pdfrwt>
<pdfrwt beam="2">  1       -2 0.29904302E-01 0.90270560E+03</pdfrwt>
<totfact> 0.24240198E+02</totfact>
</mgrwt>
</event>
<event>
 4    1  0.6705655E-006  0.5379445E+03  0.7818608E-02  0.1004323E+00
          2   -1    0    0  501    0  0.00000000000E+00  0.00000000000E+00  0.13278131301E+03  0.13278131303E+03  0.25500000000E-02 0.  1.
         -2   -1    0    0    0  501 -0.00000000000E+00 -0.00000000000E+00 -0.54485126998E+03  0.54485126999E+03  0.25500000000E-02 0. -1.
   -5000001    1    1    2    0    0 -0.70638424539E+02 -0.40273591911E+02 -0.27767375616E+03  0.38237999959E+03  0.25000000000E+03 0.  0.
    5000001    1    1    2    0    0  0.70638424539E+02  0.40273591911E+02 -0.13439620081E+03  0.29525258343E+03  0.25000000000E+03 0.  0.
<mgrwt>
<rscale>  0 0.53794448E+03</rscale>
<asrwt>0</asrwt>
<pdfrwt beam="1">  1        2 0.20427895E-01 0.53794448E+03</pdfrwt>
<pdfrwt beam="2">  1       -2 0.83823271E-01 0.53794448E+03</pdfrwt>
<totfact> 0.34844584E+02</totfact>
</mgrwt>
</event>
<event>
 4    1  0.6705655E-006  0.9931462E+03  0.7818608E-02  0.9316094E-01
          2   -1    0    0  501    0  0.00000000000E+00  0.00000000000E+00  0.53313143806E+03  0.53313143807E+03  0.25500000000E-02 0.  1.
         -2   -1    0    0    0  501 -0.00000000000E+00 -0.00000000000E+00 -0.46252171060E+03  0.46252171061E+03  0.25500000000E-02 0. -1.
   -5000001    1    1    2    0    0 -0.15626237288E+03 -0.39431013061E+03  0.10017101878E+03  0.50242675216E+03  0.25000000000E+03 0.  0.
    5000001    1    1    2    0    0  0.15626237288E+03  0.39431013061E+03 -0.29561291316E+02  0.49322639652E+03  0.25000000000E+03 0.  0.
<mgrwt>
<rscale>  0 0.99314624E+03</rscale>
<asrwt>0</asrwt>
<pdfrwt beam="1">  1        2 0.82020222E-01 0.99314624E+03</pdfrwt>
<pdfrwt beam="2">  1       -2 0.71157186E-01 0.99314624E+03</pdfrwt>
<totfact> 0.10238586E+02</totfact>
</mgrwt>
</event>
<event>
 4    1  0.6705655E-006  0.7102435E+03  0.7818608E-02  0.9699873E-01
         -2   -1    0    0    0  501 -0.00000000000E+00  0.00000000000E+00  0.56334023527E+02  0.56334023585E+02  0.25500000000E-02 0. -1.
          2   -1    0    0  501    0  0.00000000000E+00 -0.00000000000E+00 -0.22386373735E+04  0.22386373735E+04  0.25500000000E-02 0.  1.
   -5000001    1    1    2    0    0  0.90070167813E+02  0.23553278284E+03 -0.10756135759E+04  0.11327104182E+04  0.25000000000E+03 0.  0.
    5000001    1    1    2    0    0 -0.90070167813E+02 -0.23553278284E+03 -0.11066897741E+04  0.11622609789E+04  0.25000000000E+03 0.  0.
<mgrwt>
<rscale>  0 0.71024348E+03</rscale>
<asrwt>0</asrwt>
<pdfrwt beam="1">  1        2 0.34440568E+00 0.71024348E+03</pdfrwt>
<pdfrwt beam="2">  1       -2 0.86667746E-02 0.71024348E+03</pdfrwt>
<totfact> 0.43913093E+02</totfact>
</mgrwt>
</event>
<event>
 4    1  0.6705655E-006  0.8472541E+03  0.7818608E-02  0.9494030E-01
          2   -1    0    0  501    0  0.00000000000E+00  0.00000000000E+00  0.52063373810E+03  0.52063373811E+03  0.25500000000E-02 0.  1.
         -2   -1    0    0    0  501 -0.00000000000E+00 -0.00000000000E+00 -0.34469506173E+03  0.34469506174E+03  0.25500000000E-02 0. -1.
   -5000001    1    1    2    0    0  0.23200538497E+03 -0.10413785587E+02 -0.16843399925E+03  0.38053246601E+03  0.25000000000E+03 0.  0.
    5000001    1    1    2    0    0 -0.23200538497E+03  0.10413785587E+02  0.34437267563E+03  0.48479633384E+03  0.25000000000E+03 0.  0.
<mgrwt>
<rscale>  0 0.84725410E+03</rscale>
<asrwt>0</asrwt>
<pdfrwt beam="1">  1        2 0.80097498E-01 0.84725410E+03</pdfrwt>
<pdfrwt beam="2">  1       -2 0.53030010E-01 0.84725410E+03</pdfrwt>
<totfact> 0.19808060E+02</totfact>
</mgrwt>
</event>
<event>
 4    1  0.6705655E-006  0.1138196E+04  0.7818608E-02  0.9168742E-01
          2   -1    0    0  501    0  0.00000000000E+00  0.00000000000E+00  0.11731064225E+04  0.11731064225E+04  0.25500000000E-02 0.  1.
         -2   -1    0    0    0  501 -0.00000000000E+00 -0.00000000000E+00 -0.27608135677E+03  0.27608135678E+03  0.25500000000E-02 0. -1.
   -5000001    1    1    2    0    0 -0.45638772634E+03  0.23028008987E+03  0.45788063100E+03  0.73039259908E+03  0.25000000000E+03 0.  0.
    5000001    1    1    2    0    0  0.45638772634E+03 -0.23028008987E+03  0.43914443475E+03  0.71879518023E+03  0.25000000000E+03 0.  0.
<mgrwt>
<rscale>  0 0.11381965E+04</rscale>
<asrwt>0</asrwt>
<pdfrwt beam="1">  1        2 0.18047791E+00 0.11381965E+04</pdfrwt>
<pdfrwt beam="2">  1       -2 0.42474056E-01 0.11381965E+04</pdfrwt>
<totfact> 0.10226044E+02</totfact>
</mgrwt>
</event>
<event>
 4    1  0.6705655E-006  0.8420497E+03  0.7818608E-02  0.9501070E-01
          2   -1    0    0  501    0  0.00000000000E+00  0.00000000000E+00  0.15034343863E+03  0.15034343865E+03  0.25500000000E-02 0.  1.
         -2   -1    0    0    0  501 -0.00000000000E+00 -0.00000000000E+00 -0.11790467213E+04  0.11790467213E+04  0.25500000000E-02 0. -1.
   -5000001    1    1    2    0    0  0.15793493749E+03  0.25199800852E+03 -0.25824519467E+03  0.46651583182E+03  0.25000000000E+03 0.  0.
    5000001    1    1    2    0    0 -0.15793493749E+03 -0.25199800852E+03 -0.77045808803E+03  0.86287432815E+03  0.25000000000E+03 0.  0.
<mgrwt>
<rscale>  0 0.84204973E+03</rscale>
<asrwt>0</asrwt>
<pdfrwt beam="1">  1        2 0.23129761E-01 0.84204973E+03</pdfrwt>
<pdfrwt beam="2">  1       -2 0.18139180E+00 0.84204973E+03</pdfrwt>
<totfact> 0.42894795E+01</totfact>
</mgrwt>
</event>
<event>
 4    1  0.6705655E-006  0.7123776E+03  0.7818608E-02  0.9696296E-01
          2   -1    0    0  501    0  0.00000000000E+00  0.00000000000E+00  0.69368999950E+03  0.69368999951E+03  0.25500000000E-02 0.  1.
         -2   -1    0    0    0  501 -0.00000000000E+00 -0.00000000000E+00 -0.18289215355E+03  0.18289215357E+03  0.25500000000E-02 0. -1.
   -5000001    1    1    2    0    0  0.94761366165E+02  0.19223198700E+03  0.88315015512E+02  0.34092872468E+03  0.25000000000E+03 0.  0.
    5000001    1    1    2    0    0 -0.94761366165E+02 -0.19223198700E+03  0.42248283043E+03  0.53565342840E+03  0.25000000000E+03 0.  0.
<mgrwt>
<rscale>  0 0.71237759E+03</rscale>
<asrwt>0</asrwt>
<pdfrwt beam="1">  1        2 0.10672154E+00 0.71237759E+03</pdfrwt>
<pdfrwt beam="2">  1       -2 0.28137254E-01 0.71237759E+03</pdfrwt>
<totfact> 0.48142247E+02</totfact>
</mgrwt>
</event>
<event>
 4    1  0.6705655E-006  0.6741742E+03  0.7818608E-02  0.9762446E-01
         -2   -1    0    0    0  501 -0.00000000000E+00  0.00000000000E+00  0.33289593111E+03  0.33289593112E+03  0.25500000000E-02 0. -1.
          2   -1    0    0  501    0  0.00000000000E+00 -0.00000000000E+00 -0.34133103093E+03  0.34133103094E+03  0.25500000000E-02 0.  1.
   -5000001    1    1    2    0    0  0.20833563407E+03  0.53019602324E+01  0.83515390884E+02  0.33601587421E+03  0.25000000000E+03 0.  0.
    5000001    1    1    2    0    0 -0.20833563407E+03 -0.53019602324E+01 -0.91950490699E+02  0.33821108785E+03  0.25000000000E+03 0.  0.
<mgrwt>
<rscale>  0 0.67417420E+03</rscale>
<asrwt>0</asrwt>
<pdfrwt beam="1">  1        2 0.52512466E-01 0.67417420E+03</pdfrwt>
<pdfrwt beam="2">  1       -2 0.51214758E-01 0.67417420E+03</pdfrwt>
<totfact> 0.34565224E+02</totfact>
</mgrwt>
</event>
<event>
 4    1  0.6705655E-006  0.7092512E+03  0.7818608E-02  0.9701541E-01
         -2   -1    0    0    0  501 -0.00000000000E+00  0.00000000000E+00  0.15425581412E+03  0.15425581415E+03  0.25500000000E-02 0. -1.
          2   -1    0    0  501    0  0.00000000000E+00 -0.00000000000E+00 -0.81526458796E+03  0.81526458797E+03  0.25500000000E-02 0.  1.
   -5000001    1    1    2    0    0 -0.47427263136E+02  0.24011329089E+03 -0.40968880413E+03  0.53874730067E+03  0.25000000000E+03 0.  0.
    5000001    1    1    2    0    0  0.47427263136E+02 -0.24011329089E+03 -0.25131996971E+03  0.43077310144E+03  0.25000000000E+03 0.  0.
<mgrwt>
<rscale>  0 0.70925116E+03</rscale>
<asrwt>0</asrwt>
<pdfrwt beam="1">  1        2 0.12542532E+00 0.70925116E+03</pdfrwt>
<pdfrwt beam="2">  1       -2 0.23731664E-01 0.70925116E+03</pdfrwt>
<totfact> 0.53195624E+02</totfact>
</mgrwt>
</event>
<event>
 4    1  0.6705655E-006  0.8830791E+03  0.7818608E-02  0.9446984E-01
          2   -1    0    0  501    0  0.00000000000E+00  0.00000000000E+00  0.64774548346E+03  0.64774548346E+03  0.25500000000E-02 0.  1.
         -2   -1    0    0    0  501 -0.00000000000E+00 -0.00000000000E+00 -0.30097804627E+03  0.30097804628E+03  0.25500000000E-02 0. -1.
   -5000001    1    1    2    0    0 -0.21851198117E+03 -0.27695053447E+03  0.77243650663E+02  0.43922165933E+03  0.25000000000E+03 0.  0.
    5000001    1    1    2    0    0  0.21851198117E+03  0.27695053447E+03  0.26952378652E+03  0.50950187042E+03  0.25000000000E+03 0.  0.
<mgrwt>
<rscale>  0 0.88307909E+03</rscale>
<asrwt>0</asrwt>
<pdfrwt beam="1">  1        2 0.99653150E-01 0.88307909E+03</pdfrwt>
<pdfrwt beam="2">  1       -2 0.46304315E-01 0.88307909E+03</pdfrwt>
<totfact> 0.20042470E+02</totfact>
</mgrwt>
</event>
<event>
 4    1  0.6705655E-006  0.6386360E+03  0.7818608E-02  0.9828340E-01
          2   -1    0    0  501    0  0.00000000000E+00  0.00000000000E+00  0.36267107271E+03  0.36267107272E+03  0.25500000000E-02 0.  1.
         -2   -1    0    0    0  501 -0.00000000000E+00 -0.00000000000E+00 -0.28114725107E+03  0.28114725108E+03  0.25500000000E-02 0. -1.
   -5000001    1    1    2    0    0 -0.85491898594E+02 -0.17339131379E+03 -0.53317879090E+01  0.31607252393E+03  0.25000000000E+03 0.  0.
    5000001    1    1    2    0    0  0.85491898594E+02  0.17339131379E+03  0.86855609547E+02  0.32774579987E+03  0.25000000000E+03 0.  0.
<mgrwt>
<rscale>  0 0.63863597E+03</rscale>
<asrwt>0</asrwt>
<pdfrwt beam="1">  1        2 0.55795550E-01 0.63863597E+03</pdfrwt>
<pdfrwt beam="2">  1       -2 0.43253423E-01 0.63863597E+03</pdfrwt>
<totfact> 0.45387367E+02</totfact>
</mgrwt>
</event>
<event>
 4    1  0.6705655E-006  0.5258465E+03  0.7818608E-02  0.1007244E+00
          2   -1    0    0  501    0  0.00000000000E+00  0.00000000000E+00  0.68573735477E+03  0.68573735477E+03  0.25500000000E-02 0.  1.
         -2   -1    0    0    0  501 -0.00000000000E+00 -0.00000000000E+00 -0.10080919465E+03  0.10080919468E+03  0.25500000000E-02 0. -1.
   -5000001    1    1    2    0    0  0.45180761447E+02  0.25294752068E+02  0.19848595174E+03  0.32338490800E+03  0.25000000000E+03 0.  0.
    5000001    1    1    2    0    0 -0.45180761447E+02 -0.25294752068E+02  0.38644220838E+03  0.46316164145E+03  0.25000000000E+03 0.  0.
<mgrwt>
<rscale>  0 0.52584648E+03</rscale>
<asrwt>0</asrwt>
<pdfrwt beam="1">  1        2 0.10549805E+00 0.52584648E+03</pdfrwt>
<pdfrwt beam="2">  1       -2 0.15509107E-01 0.52584648E+03</pdfrwt>
<totfact> 0.13951248E+03</totfact>
</mgrwt>
</event>
<event>
 4    1  0.6705655E-006  0.1736123E+04  0.7818608E-02  0.8741026E-01
          2   -1    0    0  501    0  0.00000000000E+00  0.00000000000E+00  0.13795170465E+04  0.13795170465E+04  0.25500000000E-02 0.  1.
         -2   -1    0    0    0  501 -0.00000000000E+00 -0.00000000000E+00 -0.54622809456E+03  0.54622809457E+03  0.25500000000E-02 0. -1.
   -5000001    1    1    2    0    0 -0.74294671168E+03  0.31325292798E+03  0.64106318128E+03  0.10599807619E+04  0.25000000000E+03 0.  0.
    5000001    1    1    2    0    0  0.74294671168E+03 -0.31325292798E+03  0.19222577067E+03  0.86576437915E+03  0.25000000000E+03 0.  0.
<mgrwt>
<rscale>  0 0.17361232E+04</rscale>
<asrwt>0</asrwt>
<pdfrwt beam="1">  1        2 0.21223339E+00 0.17361232E+04</pdfrwt>
<pdfrwt beam="2">  1       -2 0.84035092E-01 0.17361232E+04</pdfrwt>
<totfact> 0.17446780E+01</totfact>
</mgrwt>
</event>
<event>
 4    1  0.6705655E-006  0.5384067E+03  0.7818608E-02  0.1004213E+00
         -2   -1    0    0    0  501 -0.00000000000E+00  0.00000000000E+00  0.36593912995E+02  0.36593913084E+02  0.25500000000E-02 0. -1.
          2   -1    0    0  501    0  0.00000000000E+00 -0.00000000000E+00 -0.19803963523E+04  0.19803963523E+04  0.25500000000E-02 0.  1.
   -5000001    1    1    2    0    0 -0.92032672419E+02  0.38007585098E+02 -0.94390149043E+03  0.98151139217E+03  0.25000000000E+03 0.  0.
    5000001    1    1    2    0    0  0.92032672419E+02 -0.38007585098E+02 -0.99990094883E+03  0.10354788732E+04  0.25000000000E+03 0.  0.
<mgrwt>
<rscale>  0 0.53840673E+03</rscale>
<asrwt>0</asrwt>
<pdfrwt beam="1">  1        2 0.30467628E+00 0.53840673E+03</pdfrwt>
<pdfrwt beam="2">  1       -2 0.56298343E-02 0.53840673E+03</pdfrwt>
<totfact> 0.12166960E+03</totfact>
</mgrwt>
</event>
<event>
 4    1  0.6705655E-006  0.1151802E+04  0.7818608E-02  0.9156123E-01
          2   -1    0    0  501    0  0.00000000000E+00  0.00000000000E+00  0.20975903226E+04  0.20975903226E+04  0.25500000000E-02 0.  1.
         -2   -1    0    0    0  501 -0.00000000000E+00 -0.00000000000E+00 -0.15811570052E+03  0.15811570054E+03  0.25500000000E-02 0. -1.
   -5000001    1    1    2    0    0  0.17936411190E+02 -0.39904056510E+03  0.16181082927E+04  0.16853277232E+04  0.25000000000E+03 0.  0.
    5000001    1    1    2    0    0 -0.17936411190E+02  0.39904056510E+03  0.32136632933E+03  0.57037829997E+03  0.25000000000E+03 0.  0.
<mgrwt>
<rscale>  0 0.11518020E+04</rscale>
<asrwt>0</asrwt>
<pdfrwt beam="1">  1        2 0.32270618E+00 0.11518020E+04</pdfrwt>
<pdfrwt beam="2">  1       -2 0.24325494E-01 0.11518020E+04</pdfrwt>
<totfact> 0.88169305E+01</totfact>
</mgrwt>
</event>
<event>
 4    1  0.6705655E-006  0.7922981E+03  0.7818608E-02  0.9571233E-01
         -2   -1    0    0    0  501 -0.00000000000E+00  0.00000000000E+00  0.61376776033E+02  0.61376776086E+02  0.25500000000E-02 0. -1.
          2   -1    0    0  501    0  0.00000000000E+00 -0.00000000000E+00 -0.25568968976E+04  0.25568968976E+04  0.25500000000E-02 0.  1.
   -5000001    1    1    2    0    0  0.25459068068E+03 -0.16977333243E+03 -0.11546010102E+04  0.12203453986E+04  0.25000000000E+03 0.  0.
    5000001    1    1    2    0    0 -0.25459068068E+03  0.16977333243E+03 -0.13409191114E+04  0.13979282751E+04  0.25000000000E+03 0.  0.
<mgrwt>
<rscale>  0 0.79229815E+03</rscale>
<asrwt>0</asrwt>
<pdfrwt beam="1">  1        2 0.39336867E+00 0.79229815E+03</pdfrwt>
<pdfrwt beam="2">  1       -2 0.94425829E-02 0.79229815E+03</pdfrwt>
<totfact> 0.25165529E+02</totfact>
</mgrwt>
</event>
<event>
 4    1  0.6705655E-006  0.1295056E+04  0.7818608E-02  0.9033495E-01
          2   -1    0    0  501    0  0.00000000000E+00  0.00000000000E+00  0.81446140285E+03  0.81446140286E+03  0.25500000000E-02 0.  1.
         -2   -1    0    0    0  501 -0.00000000000E+00 -0.00000000000E+00 -0.51480930677E+03  0.51480930677E+03  0.25500000000E-02 0. -1.
   -5000001    1    1    2    0    0  0.55721239540E+03 -0.21515264392E+03  0.14572082816E+03  0.66370993178E+03  0.25000000000E+03 0.  0.
    5000001    1    1    2    0    0 -0.55721239540E+03  0.21515264392E+03  0.15393126793E+03  0.66556077786E+03  0.25000000000E+03 0.  0.
<mgrwt>
<rscale>  0 0.12950557E+04</rscale>
<asrwt>0</asrwt>
<pdfrwt beam="1">  1        2 0.12530175E+00 0.12950557E+04</pdfrwt>
<pdfrwt beam="2">  1       -2 0.79201432E-01 0.12950557E+04</pdfrwt>
<totfact> 0.46639994E+01</totfact>
</mgrwt>
</event>
<event>
 4    1  0.6705655E-006  0.9787648E+03  0.7818608E-02  0.9332147E-01
         -2   -1    0    0    0  501 -0.00000000000E+00  0.00000000000E+00  0.33451940908E+03  0.33451940909E+03  0.25500000000E-02 0. -1.
          2   -1    0    0  501    0  0.00000000000E+00 -0.00000000000E+00 -0.71593796658E+03  0.71593796658E+03  0.25500000000E-02 0.  1.
   -5000001    1    1    2    0    0 -0.26146397254E+03  0.28191819418E+03 -0.74575096448E+01  0.45869040932E+03  0.25000000000E+03 0.  0.
    5000001    1    1    2    0    0  0.26146397254E+03 -0.28191819418E+03 -0.37396104785E+03  0.59176696635E+03  0.25000000000E+03 0.  0.
<mgrwt>
<rscale>  0 0.97876482E+03</rscale>
<asrwt>0</asrwt>
<pdfrwt beam="1">  1        2 0.11014430E+00 0.97876482E+03</pdfrwt>
<pdfrwt beam="2">  1       -2 0.51464525E-01 0.97876482E+03</pdfrwt>
<totfact> 0.14196468E+02</totfact>
</mgrwt>
</event>
<event>
 4    1  0.6705655E-006  0.7636691E+03  0.7818608E-02  0.9614146E-01
          2   -1    0    0  501    0  0.00000000000E+00  0.00000000000E+00  0.59068108959E+03  0.59068108960E+03  0.25500000000E-02 0.  1.
         -2   -1    0    0    0  501 -0.00000000000E+00 -0.00000000000E+00 -0.24682966537E+03  0.24682966538E+03  0.25500000000E-02 0. -1.
   -5000001    1    1    2    0    0  0.27704112203E+03  0.80158051041E+02  0.18396534921E+03  0.42369841415E+03  0.25000000000E+03 0.  0.
    5000001    1    1    2    0    0 -0.27704112203E+03 -0.80158051041E+02  0.15988607501E+03  0.41381234083E+03  0.25000000000E+03 0.  0.
<mgrwt>
<rscale>  0 0.76366908E+03</rscale>
<asrwt>0</asrwt>
<pdfrwt beam="1">  1        2 0.90874014E-01 0.76366908E+03</pdfrwt>
<pdfrwt beam="2">  1       -2 0.37973795E-01 0.76366908E+03</pdfrwt>
<totfact> 0.33302052E+02</totfact>
</mgrwt>
</event>
<event>
 4    1  0.6705655E-006  0.5500455E+03  0.7818608E-02  0.1001483E+00
          2   -1    0    0  501    0  0.00000000000E+00  0.00000000000E+00  0.37731803260E+04  0.37731803260E+04  0.25500000000E-02 0.  1.
         -2   -1    0    0    0  501 -0.00000000000E+00 -0.00000000000E+00 -0.20046086740E+02  0.20046086902E+02  0.25500000000E-02 0. -1.
   -5000001    1    1    2    0    0  0.53631635891E+02  0.34997381638E+02  0.25321177801E+04  0.25452350817E+04  0.25000000000E+03 0.  0.
    5000001    1    1    2    0    0 -0.53631635891E+02 -0.34997381638E+02  0.12210164592E+04  0.12479913312E+04  0.25000000000E+03 0.  0.
<mgrwt>
<rscale>  0 0.55004545E+03</rscale>
<asrwt>0</asrwt>
<pdfrwt beam="1">  1        2 0.58048907E+00 0.55004545E+03</pdfrwt>
<pdfrwt beam="2">  1       -2 0.30840145E-02 0.55004545E+03</pdfrwt>
<totfact> 0.25085276E+02</totfact>
</mgrwt>
</event>
<event>
 4    1  0.6705655E-006  0.7854383E+03  0.7818608E-02  0.9581337E-01
          2   -1    0    0  501    0  0.00000000000E+00  0.00000000000E+00  0.27609167979E+03  0.27609167981E+03  0.25500000000E-02 0.  1.
         -2   -1    0    0    0  501 -0.00000000000E+00 -0.00000000000E+00 -0.55861269843E+03  0.55861269844E+03  0.25500000000E-02 0. -1.
   -5000001    1    1    2    0    0  0.50614300470E+02  0.29852957651E+03 -0.14851532978E+03  0.41980771628E+03  0.25000000000E+03 0.  0.
    5000001    1    1    2    0    0 -0.50614300470E+02 -0.29852957651E+03 -0.13400568886E+03  0.41489666197E+03  0.25000000000E+03 0.  0.
<mgrwt>
<rscale>  0 0.78543827E+03</rscale>
<asrwt>0</asrwt>
<pdfrwt beam="1">  1        2 0.42475643E-01 0.78543827E+03</pdfrwt>
<pdfrwt beam="2">  1       -2 0.85940415E-01 0.78543827E+03</pdfrwt>
<totfact> 0.14265126E+02</totfact>
</mgrwt>
</event>
<event>
 4    1  0.6705655E-006  0.7901866E+03  0.7818608E-02  0.9574331E-01
          2   -1    0    0  501    0  0.00000000000E+00  0.00000000000E+00  0.22808690654E+04  0.22808690654E+04  0.25500000000E-02 0.  1.
         -2   -1    0    0    0  501 -0.00000000000E+00 -0.00000000000E+00 -0.68438268939E+02  0.68438268986E+02  0.25500000000E-02 0. -1.
   -5000001    1    1    2    0    0  0.17462006908E+03 -0.46391556907E+02  0.37218738948E+03  0.48339197135E+03  0.25000000000E+03 0.  0.
    5000001    1    1    2    0    0 -0.17462006908E+03  0.46391556907E+02  0.18402434069E+04  0.18659153630E+04  0.25000000000E+03 0.  0.
<mgrwt>
<rscale>  0 0.79018664E+03</rscale>
<asrwt>0</asrwt>
<pdfrwt beam="1">  1        2 0.35090297E+00 0.79018664E+03</pdfrwt>
<pdfrwt beam="2">  1       -2 0.10528963E-01 0.79018664E+03</pdfrwt>
<totfact> 0.30146140E+02</totfact>
</mgrwt>
</event>
<event>
 4    1  0.6705655E-006  0.6568816E+03  0.7818608E-02  0.9793951E-01
         -2   -1    0    0    0  501 -0.00000000000E+00  0.00000000000E+00  0.73736142753E+02  0.73736142797E+02  0.25500000000E-02 0. -1.
          2   -1    0    0  501    0  0.00000000000E+00 -0.00000000000E+00 -0.14629643860E+04  0.14629643860E+04  0.25500000000E-02 0.  1.
   -5000001    1    1    2    0    0  0.92569810785E+02  0.98017384398E+02 -0.10804129028E+04  0.11171251577E+04  0.25000000000E+03 0.  0.
    5000001    1    1    2    0    0 -0.92569810785E+02 -0.98017384398E+02 -0.30881534048E+03  0.41957537109E+03  0.25000000000E+03 0.  0.
<mgrwt>
<rscale>  0 0.65688157E+03</rscale>
<asrwt>0</asrwt>
<pdfrwt beam="1">  1        2 0.22507142E+00 0.65688157E+03</pdfrwt>
<pdfrwt beam="2">  1       -2 0.11344023E-01 0.65688157E+03</pdfrwt>
<totfact> 0.75578359E+02</totfact>
</mgrwt>
</event>
<event>
 4    1  0.6705655E-006  0.1038613E+04  0.7818608E-02  0.9267180E-01
         -2   -1    0    0    0  501 -0.00000000000E+00  0.00000000000E+00  0.12929599883E+03  0.12929599885E+03  0.25500000000E-02 0. -1.
          2   -1    0    0  501    0  0.00000000000E+00 -0.00000000000E+00 -0.20857524536E+04  0.20857524536E+04  0.25500000000E-02 0.  1.
   -5000001    1    1    2    0    0  0.34898436886E+02  0.11277469768E+03 -0.40705810836E+02  0.27945124149E+03  0.25000000000E+03 0.  0.
    5000001    1    1    2    0    0 -0.34898436886E+02 -0.11277469768E+03 -0.19157506439E+04  0.19355972109E+04  0.25000000000E+03 0.  0.
<mgrwt>
<rscale>  0 0.10386134E+04</rscale>
<asrwt>0</asrwt>
<pdfrwt beam="1">  1        2 0.32088497E+00 0.10386134E+04</pdfrwt>
<pdfrwt beam="2">  1       -2 0.19891694E-01 0.10386134E+04</pdfrwt>
<totfact> 0.12919738E+02</totfact>
</mgrwt>
</event>
<event>
 4    1  0.6705655E-006  0.7528888E+03  0.7818608E-02  0.9630829E-01
          2   -1    0    0  501    0  0.00000000000E+00  0.00000000000E+00  0.20973841407E+04  0.20973841407E+04  0.25500000000E-02 0.  1.
         -2   -1    0    0    0  501 -0.00000000000E+00 -0.00000000000E+00 -0.67565293841E+02  0.67565293890E+02  0.25500000000E-02 0. -1.
   -5000001    1    1    2    0    0 -0.12321697319E+03  0.15085924586E+03  0.43075020934E+03  0.53477722220E+03  0.25000000000E+03 0.  0.
    5000001    1    1    2    0    0  0.12321697319E+03 -0.15085924586E+03  0.15990686375E+04  0.16301722124E+04  0.25000000000E+03 0.  0.
<mgrwt>
<rscale>  0 0.75288877E+03</rscale>
<asrwt>0</asrwt>
<pdfrwt beam="1">  1        2 0.32267443E+00 0.75288877E+03</pdfrwt>
<pdfrwt beam="2">  1       -2 0.10394662E-01 0.75288877E+03</pdfrwt>
<totfact> 0.38976696E+02</totfact>
</mgrwt>
</event>
<event>
 4    1  0.6705655E-006  0.1044516E+04  0.7818608E-02  0.9261024E-01
         -2   -1    0    0    0  501 -0.00000000000E+00  0.00000000000E+00  0.32047501057E+03  0.32047501058E+03  0.25500000000E-02 0. -1.
          2   -1    0    0  501    0  0.00000000000E+00 -0.00000000000E+00 -0.85109171024E+03  0.85109171024E+03  0.25500000000E-02 0.  1.
   -5000001    1    1    2    0    0 -0.15913230813E+03  0.40798471062E+03 -0.41778070443E+03  0.65483992897E+03  0.25000000000E+03 0.  0.
    5000001    1    1    2    0    0  0.15913230813E+03 -0.40798471062E+03 -0.11283599524E+03  0.51672679184E+03  0.25000000000E+03 0.  0.
<mgrwt>
<rscale>  0 0.10445164E+04</rscale>
<asrwt>0</asrwt>
<pdfrwt beam="1">  1        2 0.13093719E+00 0.10445164E+04</pdfrwt>
<pdfrwt beam="2">  1       -2 0.49303848E-01 0.10445164E+04</pdfrwt>
<totfact> 0.12287156E+02</totfact>
</mgrwt>
</event>
<event>
 4    1  0.6705655E-006  0.5789835E+03  0.7818608E-02  0.9949994E-01
          2   -1    0    0  501    0  0.00000000000E+00  0.00000000000E+00  0.50190205030E+03  0.50190205031E+03  0.25500000000E-02 0.  1.
         -2   -1    0    0    0  501 -0.00000000000E+00 -0.00000000000E+00 -0.16697572758E+03  0.16697572760E+03  0.25500000000E-02 0. -1.
   -5000001    1    1    2    0    0 -0.21753291681E+02 -0.13391110464E+03  0.22967669712E+03  0.36559099393E+03  0.25000000000E+03 0.  0.
    5000001    1    1    2    0    0  0.21753291681E+02  0.13391110464E+03  0.10524962560E+03  0.30328678398E+03  0.25000000000E+03 0.  0.
<mgrwt>
<rscale>  0 0.57898345E+03</rscale>
<asrwt>0</asrwt>
<pdfrwt beam="1">  1        2 0.77215700E-01 0.57898345E+03</pdfrwt>
<pdfrwt beam="2">  1       -2 0.25688573E-01 0.57898345E+03</pdfrwt>
<totfact> 0.84004819E+02</totfact>
</mgrwt>
</event>
<event>
 4    1  0.6705655E-006  0.6538063E+03  0.7818608E-02  0.9799663E-01
         -2   -1    0    0    0  501 -0.00000000000E+00  0.00000000000E+00  0.11938682826E+03  0.11938682828E+03  0.25500000000E-02 0. -1.
          2   -1    0    0  501    0  0.00000000000E+00 -0.00000000000E+00 -0.89512100399E+03  0.89512100400E+03  0.25500000000E-02 0.  1.
   -5000001    1    1    2    0    0  0.16309074420E+03  0.13242730865E+03 -0.36433065023E+03  0.48925699342E+03  0.25000000000E+03 0.  0.
    5000001    1    1    2    0    0 -0.16309074420E+03 -0.13242730865E+03 -0.41140352551E+03  0.52525083886E+03  0.25000000000E+03 0.  0.
<mgrwt>
<rscale>  0 0.65380626E+03</rscale>
<asrwt>0</asrwt>
<pdfrwt beam="1">  1        2 0.13771092E+00 0.65380626E+03</pdfrwt>
<pdfrwt beam="2">  1       -2 0.18367205E-01 0.65380626E+03</pdfrwt>
<totfact> 0.73637143E+02</totfact>
</mgrwt>
</event>
<event>
 4    1  0.6705655E-006  0.1222701E+04  0.7818608E-02  0.9093215E-01
         -2   -1    0    0    0  501 -0.00000000000E+00  0.00000000000E+00  0.84906602399E+03  0.84906602400E+03  0.25500000000E-02 0. -1.
          2   -1    0    0  501    0  0.00000000000E+00 -0.00000000000E+00 -0.44018878848E+03  0.44018878849E+03  0.25500000000E-02 0.  1.
   -5000001    1    1    2    0    0  0.25514801122E+03  0.26083563779E+03 -0.24056864088E+03  0.50349678107E+03  0.25000000000E+03 0.  0.
    5000001    1    1    2    0    0 -0.25514801122E+03 -0.26083563779E+03  0.64944587639E+03  0.78575803142E+03  0.25000000000E+03 0.  0.
<mgrwt>
<rscale>  0 0.12227009E+04</rscale>
<asrwt>0</asrwt>
<pdfrwt beam="1">  1        2 0.67721352E-01 0.12227009E+04</pdfrwt>
<pdfrwt beam="2">  1       -2 0.13062554E+00 0.12227009E+04</pdfrwt>
<totfact> 0.30132432E+01</totfact>
</mgrwt>
</event>
<event>
 4    1  0.6705655E-006  0.9708990E+03  0.7818608E-02  0.9341051E-01
          2   -1    0    0  501    0  0.00000000000E+00  0.00000000000E+00  0.17833136748E+03  0.17833136750E+03  0.25500000000E-02 0.  1.
         -2   -1    0    0    0  501 -0.00000000000E+00 -0.00000000000E+00 -0.13214794379E+04  0.13214794379E+04  0.25500000000E-02 0. -1.
   -5000001    1    1    2    0    0 -0.22729089487E+03 -0.21413377152E+03 -0.14670241439E+03  0.42607044181E+03  0.25000000000E+03 0.  0.
    5000001    1    1    2    0    0  0.22729089487E+03  0.21413377152E+03 -0.99644565605E+03  0.10737403636E+04  0.25000000000E+03 0.  0.
<mgrwt>
<rscale>  0 0.97089904E+03</rscale>
<asrwt>0</asrwt>
<pdfrwt beam="1">  1        2 0.27435596E-01 0.97089904E+03</pdfrwt>
<pdfrwt beam="2">  1       -2 0.20330452E+00 0.97089904E+03</pdfrwt>
<totfact> 0.24987721E+01</totfact>
</mgrwt>
</event>
<event>
 4    1  0.6705655E-006  0.7823523E+03  0.7818608E-02  0.9585919E-01
         -2   -1    0    0    0  501 -0.00000000000E+00  0.00000000000E+00  0.90068904458E+02  0.90068904494E+02  0.25500000000E-02 0. -1.
          2   -1    0    0  501    0  0.00000000000E+00 -0.00000000000E+00 -0.16989079902E+04  0.16989079902E+04  0.25500000000E-02 0.  1.
   -5000001    1    1    2    0    0 -0.27473164075E+03  0.74741629474E+02 -0.58207163971E+03  0.69452946615E+03  0.25000000000E+03 0.  0.
    5000001    1    1    2    0    0  0.27473164075E+03 -0.74741629474E+02 -0.10267674460E+04  0.10944474285E+04  0.25000000000E+03 0.  0.
<mgrwt>
<rscale>  0 0.78235230E+03</rscale>
<asrwt>0</asrwt>
<pdfrwt beam="1">  1        2 0.26137044E+00 0.78235230E+03</pdfrwt>
<pdfrwt beam="2">  1       -2 0.13856756E-01 0.78235230E+03</pdfrwt>
<totfact> 0.39893607E+02</totfact>
</mgrwt>
</event>
<event>
 4    1  0.6705655E-006  0.8685689E+03  0.7818608E-02  0.9465748E-01
         -2   -1    0    0    0  501 -0.00000000000E+00  0.00000000000E+00  0.51106927011E+02  0.51106927075E+02  0.25500000000E-02 0. -1.
          2   -1    0    0  501    0  0.00000000000E+00 -0.00000000000E+00 -0.36903605268E+04  0.36903605268E+04  0.25500000000E-02 0.  1.
   -5000001    1    1    2    0    0  0.68740311793E+02  0.34188728590E+03 -0.21082966720E+04  0.21515173724E+04  0.25000000000E+03 0.  0.
    5000001    1    1    2    0    0 -0.68740311793E+02 -0.34188728590E+03 -0.15309569278E+04  0.15899500815E+04  0.25000000000E+03 0.  0.
<mgrwt>
<rscale>  0 0.86856891E+03</rscale>
<asrwt>0</asrwt>
<pdfrwt beam="1">  1        2 0.56774757E+00 0.86856891E+03</pdfrwt>
<pdfrwt beam="2">  1       -2 0.78626070E-02 0.86856891E+03</pdfrwt>
<totfact> 0.64041033E+01</totfact>
</mgrwt>
</event>
<event>
 4    1  0.6705655E-006  0.6744772E+03  0.7818608E-02  0.9761903E-01
          2   -1    0    0  501    0  0.00000000000E+00  0.00000000000E+00  0.10417112449E+04  0.10417112449E+04  0.25500000000E-02 0. -1.
         -2   -1    0    0    0  501 -0.00000000000E+00 -0.00000000000E+00 -0.10917600182E+03  0.10917600185E+03  0.25500000000E-02 0.  1.
   -5000001    1    1    2    0    0 -0.86104493019E+02  0.10272122243E+03  0.77747815382E+03  0.82760975884E+03  0.25000000000E+03 0.  0.
    5000001    1    1    2    0    0  0.86104493019E+02 -0.10272122243E+03  0.15505708923E+03  0.32327748789E+03  0.25000000000E+03 0.  0.
<mgrwt>
<rscale>  0 0.67447719E+03</rscale>
<asrwt>0</asrwt>
<pdfrwt beam="1">  1        2 0.16026328E+00 0.67447719E+03</pdfrwt>
<pdfrwt beam="2">  1       -2 0.16796307E-01 0.67447719E+03</pdfrwt>
<totfact> 0.68989514E+02</totfact>
</mgrwt>
</event>
<event>
 4    1  0.6705655E-006  0.1099483E+04  0.7818608E-02  0.9205696E-01
         -2   -1    0    0    0  501 -0.00000000000E+00  0.00000000000E+00  0.18119997867E+03  0.18119997869E+03  0.25500000000E-02 0. -1.
          2   -1    0    0  501    0  0.00000000000E+00 -0.00000000000E+00 -0.16678565723E+04  0.16678565723E+04  0.25500000000E-02 0.  1.
   -5000001    1    1    2    0    0 -0.35112600783E+03  0.27306856925E+03 -0.39924814846E+03  0.64788502138E+03  0.25000000000E+03 0.  0.
    5000001    1    1    2    0    0  0.35112600783E+03 -0.27306856925E+03 -0.10874084452E+04  0.12011715296E+04  0.25000000000E+03 0.  0.
<mgrwt>
<rscale>  0 0.10994827E+04</rscale>
<asrwt>0</asrwt>
<pdfrwt beam="1">  1        2 0.25659331E+00 0.10994827E+04</pdfrwt>
<pdfrwt beam="2">  1       -2 0.27876921E-01 0.10994827E+04</pdfrwt>
<totfact> 0.11923009E+02</totfact>
</mgrwt>
</event>
<event>
 4    1  0.6705655E-006  0.6957667E+03  0.7818608E-02  0.9724499E-01
         -2   -1    0    0    0  501 -0.00000000000E+00  0.00000000000E+00  0.30750490697E+03  0.30750490698E+03  0.25500000000E-02 0. -1.
          2   -1    0    0  501    0  0.00000000000E+00 -0.00000000000E+00 -0.39356385595E+03  0.39356385595E+03  0.25500000000E-02 0.  1.
   -5000001    1    1    2    0    0 -0.13960442799E+03  0.15113854175E+03  0.85182312094E+02  0.33479588022E+03  0.25000000000E+03 0.  0.
    5000001    1    1    2    0    0  0.13960442799E+03 -0.15113854175E+03 -0.17124126107E+03  0.36627288271E+03  0.25000000000E+03 0.  0.
<mgrwt>
<rscale>  0 0.69576668E+03</rscale>
<asrwt>0</asrwt>
<pdfrwt beam="1">  1        2 0.60548286E-01 0.69576668E+03</pdfrwt>
<pdfrwt beam="2">  1       -2 0.47308447E-01 0.69576668E+03</pdfrwt>
<totfact> 0.34604408E+02</totfact>
</mgrwt>
</event>
<event>
 4    1  0.6705655E-006  0.1070000E+04  0.7818608E-02  0.9234936E-01
          2   -1    0    0  501    0  0.00000000000E+00  0.00000000000E+00  0.37742727069E+04  0.37742727069E+04  0.25500000000E-02 0.  1.
         -2   -1    0    0    0  501 -0.00000000000E+00 -0.00000000000E+00 -0.75835790981E+02  0.75835791024E+02  0.25500000000E-02 0. -1.
   -5000001    1    1    2    0    0 -0.26978310722E+03  0.27004095649E+03  0.84415853695E+03  0.95958776494E+03  0.25000000000E+03 0.  0.
    5000001    1    1    2    0    0  0.26978310722E+03 -0.27004095649E+03  0.28542783790E+04  0.28905207330E+04  0.25000000000E+03 0.  0.
<mgrwt>
<rscale>  0 0.10699999E+04</rscale>
<asrwt>0</asrwt>
<pdfrwt beam="1">  1        2 0.58065722E+00 0.10699999E+04</pdfrwt>
<pdfrwt beam="2">  1       -2 0.11667047E-01 0.10699999E+04</pdfrwt>
<totfact> 0.28494348E+01</totfact>
</mgrwt>
</event>
<event>
 4    1  0.6705655E-006  0.1079411E+04  0.7818608E-02  0.9225495E-01
         -2   -1    0    0    0  501 -0.00000000000E+00  0.00000000000E+00  0.24474620793E+03  0.24474620795E+03  0.25500000000E-02 0. -1.
          2   -1    0    0  501    0  0.00000000000E+00 -0.00000000000E+00 -0.11901389164E+04  0.11901389164E+04  0.25500000000E-02 0.  1.
   -5000001    1    1    2    0    0  0.32018266847E+03  0.23715307520E+02 -0.13908571904E+01  0.40691681150E+03  0.25000000000E+03 0.  0.
    5000001    1    1    2    0    0 -0.32018266847E+03 -0.23715307520E+02 -0.94400185126E+03  0.10279683128E+04  0.25000000000E+03 0.  0.
<mgrwt>
<rscale>  0 0.10794109E+04</rscale>
<asrwt>0</asrwt>
<pdfrwt beam="1">  1        2 0.18309829E+00 0.10794109E+04</pdfrwt>
<pdfrwt beam="2">  1       -2 0.37653264E-01 0.10794109E+04</pdfrwt>
<totfact> 0.12688558E+02</totfact>
</mgrwt>
</event>
<event>
 4    1  0.6705655E-006  0.9026819E+03  0.7818608E-02  0.9422235E-01
          2   -1    0    0  501    0  0.00000000000E+00  0.00000000000E+00  0.69726790419E+03  0.69726790420E+03  0.25500000000E-02 0.  1.
         -2   -1    0    0    0  501 -0.00000000000E+00 -0.00000000000E+00 -0.29215260234E+03  0.29215260235E+03  0.25500000000E-02 0. -1.
   -5000001    1    1    2    0    0 -0.12229161958E+03  0.32846240033E+03  0.54014838853E+02  0.43388983794E+03  0.25000000000E+03 0.  0.
    5000001    1    1    2    0    0  0.12229161958E+03 -0.32846240033E+03  0.35110046300E+03  0.55553066861E+03  0.25000000000E+03 0.  0.
<mgrwt>
<rscale>  0 0.90268185E+03</rscale>
<asrwt>0</asrwt>
<pdfrwt beam="1">  1        2 0.10727198E+00 0.90268185E+03</pdfrwt>
<pdfrwt beam="2">  1       -2 0.44946554E-01 0.90268185E+03</pdfrwt>
<totfact> 0.19382527E+02</totfact>
</mgrwt>
</event>
<event>
 4    1  0.6705655E-006  0.8368441E+03  0.7818608E-02  0.9508166E-01
          2   -1    0    0  501    0  0.00000000000E+00  0.00000000000E+00  0.17242545990E+04  0.17242545990E+04  0.25500000000E-02 0.  1.
         -2   -1    0    0    0  501 -0.00000000000E+00 -0.00000000000E+00 -0.10153779335E+03  0.10153779338E+03  0.25500000000E-02 0. -1.
   -5000001    1    1    2    0    0  0.22580216422E+03 -0.21716022891E+03  0.54925813520E+03  0.67994829324E+03  0.25000000000E+03 0.  0.
    5000001    1    1    2    0    0 -0.22580216422E+03  0.21716022891E+03  0.10734586705E+04  0.11458440992E+04  0.25000000000E+03 0.  0.
<mgrwt>
<rscale>  0 0.83684409E+03</rscale>
<asrwt>0</asrwt>
<pdfrwt beam="1">  1        2 0.26526994E+00 0.83684409E+03</pdfrwt>
<pdfrwt beam="2">  1       -2 0.15621199E-01 0.83684409E+03</pdfrwt>
<totfact> 0.31441211E+02</totfact>
</mgrwt>
</event>
<event>
 4    1  0.6705655E-006  0.6480169E+03  0.7818608E-02  0.9810507E-01
         -2   -1    0    0    0  501 -0.00000000000E+00  0.00000000000E+00  0.19651516015E+03  0.19651516016E+03  0.25500000000E-02 0. -1.
          2   -1    0    0  501    0  0.00000000000E+00 -0.00000000000E+00 -0.53421563062E+03  0.53421563062E+03  0.25500000000E-02 0.  1.
   -5000001    1    1    2    0    0  0.71552993539E+02 -0.19062342427E+03 -0.20494092272E+03  0.38204437252E+03  0.25000000000E+03 0.  0.
    5000001    1    1    2    0    0 -0.71552993539E+02  0.19062342427E+03 -0.13275954775E+03  0.34868641827E+03  0.25000000000E+03 0.  0.
<mgrwt>
<rscale>  0 0.64801688E+03</rscale>
<asrwt>0</asrwt>
<pdfrwt beam="1">  1        2 0.82187019E-01 0.64801688E+03</pdfrwt>
<pdfrwt beam="2">  1       -2 0.30233102E-01 0.64801688E+03</pdfrwt>
<totfact> 0.57940057E+02</totfact>
</mgrwt>
</event>
<event>
 4    1  0.6705655E-006  0.6969903E+03  0.7818608E-02  0.9722393E-01
         -2   -1    0    0    0  501 -0.00000000000E+00  0.00000000000E+00  0.73691651832E+02  0.73691651877E+02  0.25500000000E-02 0. -1.
          2   -1    0    0  501    0  0.00000000000E+00 -0.00000000000E+00 -0.16480682567E+04  0.16480682567E+04  0.25500000000E-02 0.  1.
   -5000001    1    1    2    0    0  0.14324690024E+02 -0.14656492012E+03 -0.31033887889E+03  0.42484902295E+03  0.25000000000E+03 0.  0.
    5000001    1    1    2    0    0 -0.14324690024E+02  0.14656492012E+03 -0.12640377259E+04  0.12969108856E+04  0.25000000000E+03 0.  0.
<mgrwt>
<rscale>  0 0.69699031E+03</rscale>
<asrwt>0</asrwt>
<pdfrwt beam="1">  1        2 0.25354893E+00 0.69699031E+03</pdfrwt>
<pdfrwt beam="2">  1       -2 0.11337178E-01 0.69699031E+03</pdfrwt>
<totfact> 0.59669398E+02</totfact>
</mgrwt>
</event>
<event>
 4    1  0.6705655E-006  0.1293506E+04  0.7818608E-02  0.9034731E-01
          2   -1    0    0  501    0  0.00000000000E+00  0.00000000000E+00  0.51115942011E+03  0.51115942012E+03  0.25500000000E-02 0.  1.
         -2   -1    0    0    0  501 -0.00000000000E+00 -0.00000000000E+00 -0.81831443220E+03  0.81831443220E+03  0.25500000000E-02 0. -1.
   -5000001    1    1    2    0    0  0.24973338609E+03 -0.29451650858E+03 -0.62084250949E+03  0.77269150348E+03  0.25000000000E+03 0.  0.
    5000001    1    1    2    0    0 -0.24973338609E+03  0.29451650858E+03  0.31368749741E+03  0.55678234884E+03  0.25000000000E+03 0.  0.
<mgrwt>
<rscale>  0 0.12935055E+04</rscale>
<asrwt>0</asrwt>
<pdfrwt beam="1">  1        2 0.78639910E-01 0.12935055E+04</pdfrwt>
<pdfrwt beam="2">  1       -2 0.12589453E+00 0.12935055E+04</pdfrwt>
<totfact> 0.27704254E+01</totfact>
</mgrwt>
</event>
<event>
 4    1  0.6705655E-006  0.1091277E+04  0.7818608E-02  0.9213736E-01
         -2   -1    0    0    0  501 -0.00000000000E+00  0.00000000000E+00  0.41484756476E+03  0.41484756476E+03  0.25500000000E-02 0. -1.
          2   -1    0    0  501    0  0.00000000000E+00 -0.00000000000E+00 -0.71766412640E+03  0.71766412641E+03  0.25500000000E-02 0.  1.
   -5000001    1    1    2    0    0 -0.47568667800E+03 -0.90593713403E+02 -0.12325043611E+03  0.55872686219E+03  0.25000000000E+03 0.  0.
    5000001    1    1    2    0    0  0.47568667800E+03  0.90593713403E+02 -0.17956612554E+03  0.57378482898E+03  0.25000000000E+03 0.  0.
<mgrwt>
<rscale>  0 0.10912767E+04</rscale>
<asrwt>0</asrwt>
<pdfrwt beam="1">  1        2 0.11040987E+00 0.10912767E+04</pdfrwt>
<pdfrwt beam="2">  1       -2 0.63822702E-01 0.10912767E+04</pdfrwt>
<totfact> 0.89574260E+01</totfact>
</mgrwt>
</event>
<event>
 4    1  0.6705655E-006  0.7513516E+03  0.7818608E-02  0.9633232E-01
         -2   -1    0    0    0  501 -0.00000000000E+00  0.00000000000E+00  0.11058748241E+03  0.11058748244E+03  0.25500000000E-02 0.  1.
          2   -1    0    0  501    0  0.00000000000E+00 -0.00000000000E+00 -0.12762050125E+04  0.12762050125E+04  0.25500000000E-02 0. -1.
   -5000001    1    1    2    0    0 -0.25468967944E+03  0.25723636894E+02 -0.37152493478E+03  0.51580937901E+03  0.25000000000E+03 0.  0.
    5000001    1    1    2    0    0  0.25468967944E+03 -0.25723636894E+02 -0.79409259530E+03  0.87098311592E+03  0.25000000000E+03 0.  0.
<mgrwt>
<rscale>  0 0.75135158E+03</rscale>
<asrwt>0</asrwt>
<pdfrwt beam="1">  1        2 0.19633922E+00 0.75135158E+03</pdfrwt>
<pdfrwt beam="2">  1       -2 0.17013460E-01 0.75135158E+03</pdfrwt>
<totfact> 0.48664107E+02</totfact>
</mgrwt>
</event>
<event>
 4    1  0.6705655E-006  0.6810587E+03  0.7818608E-02  0.9750184E-01
          2   -1    0    0  501    0  0.00000000000E+00  0.00000000000E+00  0.42423094357E+04  0.42423094357E+04  0.25500000000E-02 0.  1.
         -2   -1    0    0    0  501 -0.00000000000E+00 -0.00000000000E+00 -0.27334224451E+02  0.27334224570E+02  0.25500000000E-02 0. -1.
   -5000001    1    1    2    0    0 -0.22772145680E+03  0.21417762489E+02  0.18954042146E+04  0.19254539515E+04  0.25000000000E+03 0.  0.
    5000001    1    1    2    0    0  0.22772145680E+03 -0.21417762489E+02  0.23195709966E+04  0.23441897088E+04  0.25000000000E+03 0.  0.
<mgrwt>
<rscale>  0 0.68105870E+03</rscale>
<asrwt>0</asrwt>
<pdfrwt beam="1">  1        2 0.65266282E+00 0.68105870E+03</pdfrwt>
<pdfrwt beam="2">  1       -2 0.42052664E-02 0.68105870E+03</pdfrwt>
<totfact> 0.65115663E+01</totfact>
</mgrwt>
</event>
<event>
 4    1  0.6705655E-006  0.6449714E+03  0.7818608E-02  0.9816261E-01
         -2   -1    0    0    0  501 -0.00000000000E+00  0.00000000000E+00  0.26494722101E+03  0.26494722102E+03  0.25500000000E-02 0. -1.
          2   -1    0    0  501    0  0.00000000000E+00 -0.00000000000E+00 -0.39251984071E+03  0.39251984072E+03  0.25500000000E-02 0.  1.
   -5000001    1    1    2    0    0 -0.11098746767E+03 -0.15002255916E+03 -0.14705146855E+03  0.34489001238E+03  0.25000000000E+03 0.  0.
    5000001    1    1    2    0    0  0.11098746767E+03  0.15002255916E+03  0.19478848848E+02  0.31257704936E+03  0.25000000000E+03 0.  0.
<mgrwt>
<rscale>  0 0.64497144E+03</rscale>
<asrwt>0</asrwt>
<pdfrwt beam="1">  1        2 0.60387668E-01 0.64497144E+03</pdfrwt>
<pdfrwt beam="2">  1       -2 0.40761111E-01 0.64497144E+03</pdfrwt>
<totfact> 0.46677816E+02</totfact>
</mgrwt>
</event>
<event>
 4    1  0.6705655E-006  0.6258572E+03  0.7818608E-02  0.9853167E-01
          2   -1    0    0  501    0  0.00000000000E+00  0.00000000000E+00  0.15921396948E+04  0.15921396948E+04  0.25500000000E-02 0.  1.
         -2   -1    0    0    0  501 -0.00000000000E+00 -0.00000000000E+00 -0.61504847791E+02  0.61504847844E+02  0.25500000000E-02 0. -1.
   -5000001    1    1    2    0    0  0.15470180717E+03 -0.96614251388E+02  0.64259415833E+03  0.71322802457E+03  0.25000000000E+03 0.  0.
    5000001    1    1    2    0    0 -0.15470180717E+03  0.96614251388E+02  0.88804068865E+03  0.94041651804E+03  0.25000000000E+03 0.  0.
<mgrwt>
<rscale>  0 0.62585720E+03</rscale>
<asrwt>0</asrwt>
<pdfrwt beam="1">  1        2 0.24494456E+00 0.62585720E+03</pdfrwt>
<pdfrwt beam="2">  1       -2 0.94622848E-02 0.62585720E+03</pdfrwt>
<totfact> 0.86303622E+02</totfact>
</mgrwt>
</event>
<event>
 4    1  0.6705655E-006  0.1209060E+04  0.7818608E-02  0.9104963E-01
         -2   -1    0    0    0  501 -0.00000000000E+00  0.00000000000E+00  0.65768046433E+03  0.65768046434E+03  0.25500000000E-02 0. -1.
          2   -1    0    0  501    0  0.00000000000E+00 -0.00000000000E+00 -0.55567458118E+03  0.55567458119E+03  0.25500000000E-02 0.  1.
   -5000001    1    1    2    0    0 -0.51429771789E+03 -0.19106900888E+03  0.95282339448E+02  0.61040005979E+03  0.25000000000E+03 0.  0.
    5000001    1    1    2    0    0  0.51429771789E+03  0.19106900888E+03  0.67235437020E+01  0.60295498573E+03  0.25000000000E+03 0.  0.
<mgrwt>
<rscale>  0 0.12090597E+04</rscale>
<asrwt>0</asrwt>
<pdfrwt beam="1">  1        2 0.85488397E-01 0.12090597E+04</pdfrwt>
<pdfrwt beam="2">  1       -2 0.10118161E+00 0.12090597E+04</pdfrwt>
<totfact> 0.43087974E+01</totfact>
</mgrwt>
</event>
<event>
 4    1  0.6705655E-006  0.6250671E+03  0.7818608E-02  0.9854722E-01
          2   -1    0    0  501    0  0.00000000000E+00  0.00000000000E+00  0.63126191368E+03  0.63126191369E+03  0.25500000000E-02 0.  1.
         -2   -1    0    0    0  501 -0.00000000000E+00 -0.00000000000E+00 -0.15473328332E+03  0.15473328334E+03  0.25500000000E-02 0. -1.
   -5000001    1    1    2    0    0 -0.10601104578E+03  0.15469192337E+03  0.24209812999E+03  0.39532194162E+03  0.25000000000E+03 0.  0.
    5000001    1    1    2    0    0  0.10601104578E+03 -0.15469192337E+03  0.23443050038E+03  0.39067325540E+03  0.25000000000E+03 0.  0.
<mgrwt>
<rscale>  0 0.62506713E+03</rscale>
<asrwt>0</asrwt>
<pdfrwt beam="1">  1        2 0.97117216E-01 0.62506713E+03</pdfrwt>
<pdfrwt beam="2">  1       -2 0.23805121E-01 0.62506713E+03</pdfrwt>
<totfact> 0.73380440E+02</totfact>
</mgrwt>
</event>
<event>
 4    1  0.6705655E-006  0.6715917E+03  0.7818608E-02  0.9767087E-01
         -2   -1    0    0    0  501 -0.00000000000E+00  0.00000000000E+00  0.10561548023E+03  0.10561548026E+03  0.25500000000E-02 0. -1.
          2   -1    0    0  501    0  0.00000000000E+00 -0.00000000000E+00 -0.10676356532E+04  0.10676356532E+04  0.25500000000E-02 0.  1.
   -5000001    1    1    2    0    0 -0.16942915711E+03  0.10552308450E+03 -0.30270355864E+03  0.44042116781E+03  0.25000000000E+03 0.  0.
    5000001    1    1    2    0    0  0.16942915711E+03 -0.10552308450E+03 -0.65931661434E+03  0.73282996567E+03  0.25000000000E+03 0.  0.
<mgrwt>
<rscale>  0 0.67159170E+03</rscale>
<asrwt>0</asrwt>
<pdfrwt beam="1">  1        2 0.16425163E+00 0.67159170E+03</pdfrwt>
<pdfrwt beam="2">  1       -2 0.16248536E-01 0.67159170E+03</pdfrwt>
<totfact> 0.70357522E+02</totfact>
</mgrwt>
</event>
<event>
 4    1  0.6705655E-006  0.8066895E+03  0.7818608E-02  0.9550384E-01
         -2   -1    0    0    0  501 -0.00000000000E+00  0.00000000000E+00  0.79982714108E+02  0.79982714149E+02  0.25500000000E-02 0. -1.
          2   -1    0    0  501    0  0.00000000000E+00 -0.00000000000E+00 -0.20340270396E+04  0.20340270396E+04  0.25500000000E-02 0.  1.
   -5000001    1    1    2    0    0  0.26859582184E+03  0.14606920674E+03 -0.11916406498E+04  0.12553833546E+04  0.25000000000E+03 0.  0.
    5000001    1    1    2    0    0 -0.26859582184E+03 -0.14606920674E+03 -0.76240367568E+03  0.85862639917E+03  0.25000000000E+03 0.  0.
<mgrwt>
<rscale>  0 0.80668954E+03</rscale>
<asrwt>0</asrwt>
<pdfrwt beam="1">  1        2 0.31292720E+00 0.80668954E+03</pdfrwt>
<pdfrwt beam="2">  1       -2 0.12305034E-01 0.80668954E+03</pdfrwt>
<totfact> 0.31850477E+02</totfact>
</mgrwt>
</event>
<event>
 4    1  0.6705655E-006  0.6389856E+03  0.7818608E-02  0.9827669E-01
          2   -1    0    0  501    0  0.00000000000E+00  0.00000000000E+00  0.33804311164E+04  0.33804311164E+04  0.25500000000E-02 0.  1.
         -2   -1    0    0    0  501 -0.00000000000E+00 -0.00000000000E+00 -0.30196041226E+02  0.30196041333E+02  0.25500000000E-02 0. -1.
   -5000001    1    1    2    0    0  0.79103164380E+02 -0.17804065898E+03  0.14602945808E+04  0.14942944989E+04  0.25000000000E+03 0.  0.
    5000001    1    1    2    0    0 -0.79103164380E+02  0.17804065898E+03  0.18899404944E+04  0.19163326588E+04  0.25000000000E+03 0.  0.
<mgrwt>
<rscale>  0 0.63898556E+03</rscale>
<asrwt>0</asrwt>
<pdfrwt beam="1">  1        2 0.52006575E+00 0.63898556E+03</pdfrwt>
<pdfrwt beam="2">  1       -2 0.46455500E-02 0.63898556E+03</pdfrwt>
<totfact> 0.24718202E+02</totfact>
</mgrwt>
</event>
<event>
 4    1  0.6705655E-006  0.7104967E+03  0.7818608E-02  0.9699448E-01
          2   -1    0    0  501    0  0.00000000000E+00  0.00000000000E+00  0.75323208070E+03  0.75323208071E+03  0.25500000000E-02 0.  1.
         -2   -1    0    0    0  501 -0.00000000000E+00 -0.00000000000E+00 -0.16754648422E+03  0.16754648424E+03  0.25500000000E-02 0. -1.
   -5000001    1    1    2    0    0 -0.18431175088E+03  0.16494328685E+03  0.22773069961E+03  0.41897300740E+03  0.25000000000E+03 0.  0.
    5000001    1    1    2    0    0  0.18431175088E+03 -0.16494328685E+03  0.35795489687E+03  0.50180555754E+03  0.25000000000E+03 0.  0.
<mgrwt>
<rscale>  0 0.71049669E+03</rscale>
<asrwt>0</asrwt>
<pdfrwt beam="1">  1        2 0.11588186E+00 0.71049669E+03</pdfrwt>
<pdfrwt beam="2">  1       -2 0.25776382E-01 0.71049669E+03</pdfrwt>
<totfact> 0.50858552E+02</totfact>
</mgrwt>
</event>
<event>
 4    1  0.6705655E-006  0.7280746E+03  0.7818608E-02  0.9670390E-01
          2   -1    0    0  501    0  0.00000000000E+00  0.00000000000E+00  0.11898090582E+04  0.11898090582E+04  0.25500000000E-02 0.  1.
         -2   -1    0    0    0  501 -0.00000000000E+00 -0.00000000000E+00 -0.11138187922E+03  0.11138187925E+03  0.25500000000E-02 0. -1.
   -5000001    1    1    2    0    0  0.21048618160E+03 -0.88098484527E+02  0.77870325341E+03  0.84908452612E+03  0.25000000000E+03 0.  0.
    5000001    1    1    2    0    0 -0.21048618160E+03  0.88098484527E+02  0.29972392558E+03  0.45210641136E+03  0.25000000000E+03 0.  0.
<mgrwt>
<rscale>  0 0.72807464E+03</rscale>
<asrwt>0</asrwt>
<pdfrwt beam="1">  1        2 0.18304755E+00 0.72807464E+03</pdfrwt>
<pdfrwt beam="2">  1       -2 0.17135673E-01 0.72807464E+03</pdfrwt>
<totfact> 0.54075007E+02</totfact>
</mgrwt>
</event>
<event>
 4    1  0.6705655E-006  0.7210173E+03  0.7818608E-02  0.9681950E-01
          2   -1    0    0  501    0  0.00000000000E+00  0.00000000000E+00  0.25895903707E+03  0.25895903708E+03  0.25500000000E-02 0. -1.
         -2   -1    0    0    0  501 -0.00000000000E+00 -0.00000000000E+00 -0.50188051401E+03  0.50188051402E+03  0.25500000000E-02 0.  1.
   -5000001    1    1    2    0    0  0.17265998400E+03 -0.19048872816E+03 -0.16050525524E+03  0.39288594094E+03  0.25000000000E+03 0.  0.
    5000001    1    1    2    0    0 -0.17265998400E+03  0.19048872816E+03 -0.82416221702E+02  0.36795361016E+03  0.25000000000E+03 0.  0.
<mgrwt>
<rscale>  0 0.72101732E+03</rscale>
<asrwt>0</asrwt>
<pdfrwt beam="1">  1        2 0.39839852E-01 0.72101732E+03</pdfrwt>
<pdfrwt beam="2">  1       -2 0.77212386E-01 0.72101732E+03</pdfrwt>
<totfact> 0.19549768E+02</totfact>
</mgrwt>
</event>
<event>
 4    1  0.6705655E-006  0.5247223E+03  0.7818608E-02  0.1007520E+00
          2   -1    0    0  501    0  0.00000000000E+00  0.00000000000E+00  0.13706176988E+04  0.13706176988E+04  0.25500000000E-02 0.  1.
         -2   -1    0    0    0  501 -0.00000000000E+00 -0.00000000000E+00 -0.50220698050E+02  0.50220698114E+02  0.25500000000E-02 0. -1.
   -5000001    1    1    2    0    0  0.75144017353E+01 -0.76004564817E+02  0.72075971880E+03  0.76669924505E+03  0.25000000000E+03 0.  0.
    5000001    1    1    2    0    0 -0.75144017353E+01  0.76004564817E+02  0.59963728194E+03  0.65413915186E+03  0.25000000000E+03 0.  0.
<mgrwt>
<rscale>  0 0.52472232E+03</rscale>
<asrwt>0</asrwt>
<pdfrwt beam="1">  1        2 0.21086429E+00 0.52472232E+03</pdfrwt>
<pdfrwt beam="2">  1       -2 0.77262602E-02 0.52472232E+03</pdfrwt>
<totfact> 0.15900150E+03</totfact>
</mgrwt>
</event>
<event>
 4    1  0.6705655E-006  0.2709150E+04  0.7818608E-02  0.8332042E-01
         -2   -1    0    0    0  501 -0.00000000000E+00  0.00000000000E+00  0.14293740825E+04  0.14293740825E+04  0.25500000000E-02 0. -1.
          2   -1    0    0  501    0  0.00000000000E+00 -0.00000000000E+00 -0.12836904305E+04  0.12836904305E+04  0.25500000000E-02 0.  1.
   -5000001    1    1    2    0    0  0.11470738127E+04  0.28610884370E+02  0.74892975930E+03  0.13928362068E+04  0.25000000000E+03 0.  0.
    5000001    1    1    2    0    0 -0.11470738127E+04 -0.28610884370E+02 -0.60324610733E+03  0.13202283062E+04  0.25000000000E+03 0.  0.
<mgrwt>
<rscale>  0 0.27091503E+04</rscale>
<asrwt>0</asrwt>
<pdfrwt beam="1">  1        2 0.19749084E+00 0.27091503E+04</pdfrwt>
<pdfrwt beam="2">  1       -2 0.21990371E+00 0.27091503E+04</pdfrwt>
<totfact> 0.14662308E+00</totfact>
</mgrwt>
</event>
<event>
 4    1  0.6705655E-006  0.8315606E+03  0.7818608E-02  0.9515425E-01
          2   -1    0    0  501    0  0.00000000000E+00  0.00000000000E+00  0.29659472317E+04  0.29659472317E+04  0.25500000000E-02 0.  1.
         -2   -1    0    0    0  501 -0.00000000000E+00 -0.00000000000E+00 -0.58286019686E+02  0.58286019742E+02  0.25500000000E-02 0. -1.
   -5000001    1    1    2    0    0  0.20713106423E+03 -0.75305964498E+02  0.54973974876E+03  0.64287483807E+03  0.25000000000E+03 0.  0.
    5000001    1    1    2    0    0 -0.20713106423E+03  0.75305964498E+02  0.23579214633E+04  0.23813584134E+04  0.25000000000E+03 0.  0.
<mgrwt>
<rscale>  0 0.83156060E+03</rscale>
<asrwt>0</asrwt>
<pdfrwt beam="1">  1        2 0.45629948E+00 0.83156060E+03</pdfrwt>
<pdfrwt beam="2">  1       -2 0.89670819E-02 0.83156060E+03</pdfrwt>
<totfact> 0.15643432E+02</totfact>
</mgrwt>
</event>
<event>
 4    1  0.6705655E-006  0.5891596E+03  0.7818608E-02  0.9928155E-01
          2   -1    0    0  501    0  0.00000000000E+00  0.00000000000E+00  0.53179280684E+03  0.53179280684E+03  0.25500000000E-02 0.  1.
         -2   -1    0    0    0  501 -0.00000000000E+00 -0.00000000000E+00 -0.16317868918E+03  0.16317868920E+03  0.25500000000E-02 0. -1.
   -5000001    1    1    2    0    0 -0.95985431960E+02 -0.11892305787E+03  0.22011240303E+03  0.36647696627E+03  0.25000000000E+03 0.  0.
    5000001    1    1    2    0    0  0.95985431960E+02  0.11892305787E+03  0.14850171463E+03  0.32849452977E+03  0.25000000000E+03 0.  0.
<mgrwt>
<rscale>  0 0.58915958E+03</rscale>
<asrwt>0</asrwt>
<pdfrwt beam="1">  1        2 0.81814276E-01 0.58915958E+03</pdfrwt>
<pdfrwt beam="2">  1       -2 0.25104414E-01 0.58915958E+03</pdfrwt>
<totfact> 0.81866728E+02</totfact>
</mgrwt>
</event>
<event>
 4    1  0.6705655E-006  0.1075589E+04  0.7818608E-02  0.9229317E-01
          2   -1    0    0  501    0  0.00000000000E+00  0.00000000000E+00  0.10543686306E+04  0.10543686306E+04  0.25500000000E-02 0. -1.
         -2   -1    0    0    0  501 -0.00000000000E+00 -0.00000000000E+00 -0.27430894636E+03  0.27430894638E+03  0.25500000000E-02 0.  1.
   -5000001    1    1    2    0    0 -0.37770685347E+03 -0.81654337170E+02  0.73368574380E+03  0.86609737824E+03  0.25000000000E+03 0.  0.
    5000001    1    1    2    0    0  0.37770685347E+03  0.81654337170E+02  0.46373940466E+02  0.46258019877E+03  0.25000000000E+03 0.  0.
<mgrwt>
<rscale>  0 0.10755887E+04</rscale>
<asrwt>0</asrwt>
<pdfrwt beam="1">  1        2 0.16221056E+00 0.10755887E+04</pdfrwt>
<pdfrwt beam="2">  1       -2 0.42201377E-01 0.10755887E+04</pdfrwt>
<totfact> 0.12299934E+02</totfact>
</mgrwt>
</event>
<event>
 4    1  0.6705655E-006  0.6269796E+03  0.7818608E-02  0.9850961E-01
          2   -1    0    0  501    0  0.00000000000E+00  0.00000000000E+00  0.16674478370E+04  0.16674478370E+04  0.25500000000E-02 0.  1.
         -2   -1    0    0    0  501 -0.00000000000E+00 -0.00000000000E+00 -0.58937891900E+02  0.58937891956E+02  0.25500000000E-02 0. -1.
   -5000001    1    1    2    0    0 -0.15250019566E+03  0.48044016649E+02  0.10824987274E+04  0.11224384313E+04  0.25000000000E+03 0.  0.
    5000001    1    1    2    0    0  0.15250019566E+03 -0.48044016649E+02  0.52601121767E+03  0.60394729764E+03  0.25000000000E+03 0.  0.
<mgrwt>
<rscale>  0 0.62697962E+03</rscale>
<asrwt>0</asrwt>
<pdfrwt beam="1">  1        2 0.25653046E+00 0.62697962E+03</pdfrwt>
<pdfrwt beam="2">  1       -2 0.90673670E-02 0.62697962E+03</pdfrwt>
<totfact> 0.84086447E+02</totfact>
</mgrwt>
</event>
<event>
 4    1  0.6705655E-006  0.9910642E+03  0.7818608E-02  0.9318400E-01
          2   -1    0    0  501    0  0.00000000000E+00  0.00000000000E+00  0.92466900596E+03  0.92466900597E+03  0.25500000000E-02 0.  1.
         -2   -1    0    0    0  501 -0.00000000000E+00 -0.00000000000E+00 -0.26555669608E+03  0.26555669609E+03  0.25500000000E-02 0. -1.
   -5000001    1    1    2    0    0 -0.39101373214E+03  0.12726230418E+03  0.18763667578E+03  0.51652197910E+03  0.25000000000E+03 0.  0.
    5000001    1    1    2    0    0  0.39101373214E+03 -0.12726230418E+03  0.47147563410E+03  0.67370372297E+03  0.25000000000E+03 0.  0.
<mgrwt>
<rscale>  0 0.99106417E+03</rscale>
<asrwt>0</asrwt>
<pdfrwt beam="1">  1        2 0.14225677E+00 0.99106417E+03</pdfrwt>
<pdfrwt beam="2">  1       -2 0.40854877E-01 0.99106417E+03</pdfrwt>
<totfact> 0.15981073E+02</totfact>
</mgrwt>
</event>
<event>
 4    1  0.6705655E-006  0.5867481E+03  0.7818608E-02  0.9933287E-01
          2   -1    0    0  501    0  0.00000000000E+00  0.00000000000E+00  0.14289860380E+04  0.14289860380E+04  0.25500000000E-02 0.  1.
         -2   -1    0    0    0  501 -0.00000000000E+00 -0.00000000000E+00 -0.60230358112E+02  0.60230358166E+02  0.25500000000E-02 0. -1.
   -5000001    1    1    2    0    0 -0.14061298088E+03 -0.51591690976E+02  0.76987128614E+03  0.82318619412E+03  0.25000000000E+03 0.  0.
    5000001    1    1    2    0    0  0.14061298088E+03  0.51591690976E+02  0.59888439379E+03  0.66603020209E+03  0.25000000000E+03 0.  0.
<mgrwt>
<rscale>  0 0.58674813E+03</rscale>
<asrwt>0</asrwt>
<pdfrwt beam="1">  1        2 0.21984400E+00 0.58674813E+03</pdfrwt>
<pdfrwt beam="2">  1       -2 0.92662090E-02 0.58674813E+03</pdfrwt>
<totfact> 0.11005679E+03</totfact>
</mgrwt>
</event>
<event>
 4    1  0.6705655E-006  0.9568419E+03  0.7818608E-02  0.9357189E-01
          2   -1    0    0  501    0  0.00000000000E+00  0.00000000000E+00  0.23948073441E+04  0.23948073441E+04  0.25500000000E-02 0.  1.
         -2   -1    0    0    0  501 -0.00000000000E+00 -0.00000000000E+00 -0.95576216082E+02  0.95576216116E+02  0.25500000000E-02 0. -1.
   -5000001    1    1    2    0    0  0.18938802470E+03  0.35890229032E+03  0.10420525040E+04  0.11458848542E+04  0.25000000000E+03 0.  0.
    5000001    1    1    2    0    0 -0.18938802470E+03 -0.35890229032E+03  0.12571786240E+04  0.13444987060E+04  0.25000000000E+03 0.  0.
<mgrwt>
<rscale>  0 0.95684194E+03</rscale>
<asrwt>0</asrwt>
<pdfrwt beam="1">  1        2 0.36843190E+00 0.95684194E+03</pdfrwt>
<pdfrwt beam="2">  1       -2 0.14704033E-01 0.95684194E+03</pdfrwt>
<totfact> 0.14721751E+02</totfact>
</mgrwt>
</event>
<event>
 4    1  0.6705655E-006  0.1110438E+04  0.7818608E-02  0.9195077E-01
          2   -1    0    0  501    0  0.00000000000E+00  0.00000000000E+00  0.61176811424E+03  0.61176811424E+03  0.25500000000E-02 0.  1.
         -2   -1    0    0    0  501 -0.00000000000E+00 -0.00000000000E+00 -0.50389746057E+03  0.50389746057E+03  0.25500000000E-02 0. -1.
   -5000001    1    1    2    0    0  0.11697896992E+03 -0.25307840655E+03  0.46578643180E+03  0.59765354455E+03  0.25000000000E+03 0.  0.
    5000001    1    1    2    0    0 -0.11697896992E+03  0.25307840655E+03 -0.35791577813E+03  0.51801203027E+03  0.25000000000E+03 0.  0.
<mgrwt>
<rscale>  0 0.11104385E+04</rscale>
<asrwt>0</asrwt>
<pdfrwt beam="1">  1        2 0.94118171E-01 0.11104385E+04</pdfrwt>
<pdfrwt beam="2">  1       -2 0.77522687E-01 0.11104385E+04</pdfrwt>
<totfact> 0.71341286E+01</totfact>
</mgrwt>
</event>
<event>
 4    1  0.6705655E-006  0.8354092E+03  0.7818608E-02  0.9510132E-01
         -2   -1    0    0    0  501 -0.00000000000E+00  0.00000000000E+00  0.26042286295E+03  0.26042286296E+03  0.25500000000E-02 0. -1.
          2   -1    0    0  501    0  0.00000000000E+00 -0.00000000000E+00 -0.66997632134E+03  0.66997632135E+03  0.25500000000E-02 0.  1.
   -5000001    1    1    2    0    0  0.30281002664E+03  0.91073073666E+02 -0.32672070261E+03  0.51887824631E+03  0.25000000000E+03 0.  0.
    5000001    1    1    2    0    0 -0.30281002664E+03 -0.91073073666E+02 -0.82832755790E+02  0.41152093800E+03  0.25000000000E+03 0.  0.
<mgrwt>
<rscale>  0 0.83540925E+03</rscale>
<asrwt>0</asrwt>
<pdfrwt beam="1">  1        2 0.10307328E+00 0.83540925E+03</pdfrwt>
<pdfrwt beam="2">  1       -2 0.40065056E-01 0.83540925E+03</pdfrwt>
<totfact> 0.25649328E+02</totfact>
</mgrwt>
</event>
<event>
 4    1  0.6705655E-006  0.7280762E+03  0.7818608E-02  0.9670387E-01
          2   -1    0    0  501    0  0.00000000000E+00  0.00000000000E+00  0.22816024848E+04  0.22816024848E+04  0.25500000000E-02 0.  1.
         -2   -1    0    0    0  501 -0.00000000000E+00 -0.00000000000E+00 -0.58083621478E+02  0.58083621533E+02  0.25500000000E-02 0. -1.
   -5000001    1    1    2    0    0 -0.17874377355E+03  0.10637690317E+03  0.16374261196E+04  0.16694099794E+04  0.25000000000E+03 0.  0.
    5000001    1    1    2    0    0  0.17874377355E+03 -0.10637690317E+03  0.58609274367E+03  0.67027612691E+03  0.25000000000E+03 0.  0.
<mgrwt>
<rscale>  0 0.72807619E+03</rscale>
<asrwt>0</asrwt>
<pdfrwt beam="1">  1        2 0.35101575E+00 0.72807619E+03</pdfrwt>
<pdfrwt beam="2">  1       -2 0.89359423E-02 0.72807619E+03</pdfrwt>
<totfact> 0.39519128E+02</totfact>
</mgrwt>
</event>
<event>
 4    1  0.6705655E-006  0.9081529E+03  0.7818608E-02  0.9415447E-01
          2   -1    0    0  501    0  0.00000000000E+00  0.00000000000E+00  0.70154255392E+03  0.70154255393E+03  0.25500000000E-02 0.  1.
         -2   -1    0    0    0  501 -0.00000000000E+00 -0.00000000000E+00 -0.29390295243E+03  0.29390295244E+03  0.25500000000E-02 0. -1.
   -5000001    1    1    2    0    0  0.13851853757E+03 -0.33430585744E+03  0.32752926685E+03  0.54838235950E+03  0.25000000000E+03 0.  0.
    5000001    1    1    2    0    0 -0.13851853757E+03  0.33430585744E+03  0.80110334642E+02  0.44706314687E+03  0.25000000000E+03 0.  0.
<mgrwt>
<rscale>  0 0.90815291E+03</rscale>
<asrwt>0</asrwt>
<pdfrwt beam="1">  1        2 0.10792962E+00 0.90815291E+03</pdfrwt>
<pdfrwt beam="2">  1       -2 0.45215839E-01 0.90815291E+03</pdfrwt>
<totfact> 0.18999984E+02</totfact>
</mgrwt>
</event>
<event>
 4    1  0.6705655E-006  0.1062325E+04  0.7818608E-02  0.9242711E-01
          2   -1    0    0  501    0  0.00000000000E+00  0.00000000000E+00  0.11832004593E+04  0.11832004593E+04  0.25500000000E-02 0.  1.
         -2   -1    0    0    0  501 -0.00000000000E+00 -0.00000000000E+00 -0.23844934577E+03  0.23844934578E+03  0.25500000000E-02 0. -1.
   -5000001    1    1    2    0    0 -0.42591499606E+03 -0.15628695821E+03  0.31514364986E+03  0.60633713165E+03  0.25000000000E+03 0.  0.
    5000001    1    1    2    0    0  0.42591499606E+03  0.15628695821E+03  0.62960746370E+03  0.81531267347E+03  0.25000000000E+03 0.  0.
<mgrwt>
<rscale>  0 0.10623246E+04</rscale>
<asrwt>0</asrwt>
<pdfrwt beam="1">  1        2 0.18203084E+00 0.10623246E+04</pdfrwt>
<pdfrwt beam="2">  1       -2 0.36684515E-01 0.10623246E+04</pdfrwt>
<totfact> 0.13485739E+02</totfact>
</mgrwt>
</event>
<event>
 4    1  0.6705655E-006  0.1094242E+04  0.7818608E-02  0.9210822E-01
         -2   -1    0    0    0  501 -0.00000000000E+00  0.00000000000E+00  0.20541097949E+03  0.20541097950E+03  0.25500000000E-02 0.  1.
          2   -1    0    0  501    0  0.00000000000E+00 -0.00000000000E+00 -0.14572810825E+04  0.14572810825E+04  0.25500000000E-02 0. -1.
   -5000001    1    1    2    0    0 -0.25869419763E+03 -0.40980233724E+03 -0.55830672595E+03  0.78042747500E+03  0.25000000000E+03 0.  0.
    5000001    1    1    2    0    0  0.25869419763E+03  0.40980233724E+03 -0.69356337711E+03  0.88226458705E+03  0.25000000000E+03 0.  0.
<mgrwt>
<rscale>  0 0.10942423E+04</rscale>
<asrwt>0</asrwt>
<pdfrwt beam="1">  1        2 0.22419708E+00 0.10942423E+04</pdfrwt>
<pdfrwt beam="2">  1       -2 0.31601690E-01 0.10942423E+04</pdfrwt>
<totfact> 0.12388005E+02</totfact>
</mgrwt>
</event>
<event>
 4    1  0.6705655E-006  0.8678787E+03  0.7818608E-02  0.9466650E-01
         -2   -1    0    0    0  501 -0.00000000000E+00  0.00000000000E+00  0.15539353760E+03  0.15539353762E+03  0.25500000000E-02 0. -1.
          2   -1    0    0  501    0  0.00000000000E+00 -0.00000000000E+00 -0.12117837109E+04  0.12117837109E+04  0.25500000000E-02 0.  1.
   -5000001    1    1    2    0    0 -0.29238116281E+03 -0.15008901418E+03 -0.73830791165E+03  0.84593854915E+03  0.25000000000E+03 0.  0.
    5000001    1    1    2    0    0  0.29238116281E+03  0.15008901418E+03 -0.31808226166E+03  0.52123869938E+03  0.25000000000E+03 0.  0.
<mgrwt>
<rscale>  0 0.86787870E+03</rscale>
<asrwt>0</asrwt>
<pdfrwt beam="1">  1        2 0.18642826E+00 0.86787870E+03</pdfrwt>
<pdfrwt beam="2">  1       -2 0.23906699E-01 0.86787870E+03</pdfrwt>
<totfact> 0.29054904E+02</totfact>
</mgrwt>
</event>
<event>
 4    1  0.6705655E-006  0.9688163E+03  0.7818608E-02  0.9343424E-01
         -2   -1    0    0    0  501 -0.00000000000E+00  0.00000000000E+00  0.15213192442E+03  0.15213192444E+03  0.25500000000E-02 0. -1.
          2   -1    0    0  501    0  0.00000000000E+00 -0.00000000000E+00 -0.15424195866E+04  0.15424195866E+04  0.25500000000E-02 0.  1.
   -5000001    1    1    2    0    0 -0.50315537899E+02 -0.37247946009E+03 -0.38778722918E+03  0.59510632383E+03  0.25000000000E+03 0.  0.
    5000001    1    1    2    0    0  0.50315537899E+02  0.37247946009E+03 -0.10025004330E+04  0.10994451872E+04  0.25000000000E+03 0.  0.
<mgrwt>
<rscale>  0 0.96881631E+03</rscale>
<asrwt>0</asrwt>
<pdfrwt beam="1">  1        2 0.23729531E+00 0.96881631E+03</pdfrwt>
<pdfrwt beam="2">  1       -2 0.23404913E-01 0.96881631E+03</pdfrwt>
<totfact> 0.19404028E+02</totfact>
</mgrwt>
</event>
<event>
 4    1  0.6705655E-006  0.8287707E+03  0.7818608E-02  0.9519282E-01
         -2   -1    0    0    0  501 -0.00000000000E+00  0.00000000000E+00  0.17586259742E+03  0.17586259744E+03  0.25500000000E-02 0. -1.
          2   -1    0    0  501    0  0.00000000000E+00 -0.00000000000E+00 -0.97641699687E+03  0.97641699688E+03  0.25500000000E-02 0.  1.
   -5000001    1    1    2    0    0 -0.32915696579E+03 -0.59494358853E+01 -0.36008856254E+03  0.54821845718E+03  0.25000000000E+03 0.  0.
    5000001    1    1    2    0    0  0.32915696579E+03  0.59494358853E+01 -0.44046583691E+03  0.60406113714E+03  0.25000000000E+03 0.  0.
<mgrwt>
<rscale>  0 0.82877073E+03</rscale>
<asrwt>0</asrwt>
<pdfrwt beam="1">  1        2 0.15021800E+00 0.82877073E+03</pdfrwt>
<pdfrwt beam="2">  1       -2 0.27055785E-01 0.82877073E+03</pdfrwt>
<totfact> 0.32500975E+02</totfact>
</mgrwt>
</event>
<event>
 4    1  0.6705655E-006  0.5887366E+03  0.7818608E-02  0.9929054E-01
         -2   -1    0    0    0  501 -0.00000000000E+00  0.00000000000E+00  0.35154088406E+03  0.35154088407E+03  0.25500000000E-02 0. -1.
          2   -1    0    0  501    0  0.00000000000E+00 -0.00000000000E+00 -0.24649393356E+03  0.24649393358E+03  0.25500000000E-02 0.  1.
   -5000001    1    1    2    0    0  0.50062673005E+02 -0.14702251356E+03  0.46885628589E+02  0.29802710093E+03  0.25000000000E+03 0.  0.
    5000001    1    1    2    0    0 -0.50062673005E+02  0.14702251356E+03  0.58161321912E+02  0.30000771672E+03  0.25000000000E+03 0.  0.
<mgrwt>
<rscale>  0 0.58873660E+03</rscale>
<asrwt>0</asrwt>
<pdfrwt beam="1">  1        2 0.37922144E-01 0.58873660E+03</pdfrwt>
<pdfrwt beam="2">  1       -2 0.54083213E-01 0.58873660E+03</pdfrwt>
<totfact> 0.44415324E+02</totfact>
</mgrwt>
</event>
<event>
 4    1  0.6705655E-006  0.7470774E+03  0.7818608E-02  0.9639947E-01
         -2   -1    0    0    0  501 -0.00000000000E+00  0.00000000000E+00  0.33999294052E+03  0.33999294053E+03  0.25500000000E-02 0. -1.
          2   -1    0    0  501    0  0.00000000000E+00 -0.00000000000E+00 -0.41039426061E+03  0.41039426062E+03  0.25500000000E-02 0.  1.
   -5000001    1    1    2    0    0  0.20199799719E+03  0.18532879007E+03 -0.78765621585E+02  0.37928086485E+03  0.25000000000E+03 0.  0.
    5000001    1    1    2    0    0 -0.20199799719E+03 -0.18532879007E+03  0.83643014932E+01  0.37110633630E+03  0.25000000000E+03 0.  0.
<mgrwt>
<rscale>  0 0.74707738E+03</rscale>
<asrwt>0</asrwt>
<pdfrwt beam="1">  1        2 0.63137578E-01 0.74707738E+03</pdfrwt>
<pdfrwt beam="2">  1       -2 0.52306606E-01 0.74707738E+03</pdfrwt>
<totfact> 0.26876917E+02</totfact>
</mgrwt>
</event>
<event>
 4    1  0.6705655E-006  0.6956908E+03  0.7818608E-02  0.9724630E-01
          2   -1    0    0  501    0  0.00000000000E+00  0.00000000000E+00  0.22636627700E+04  0.22636627700E+04  0.25500000000E-02 0.  1.
         -2   -1    0    0    0  501 -0.00000000000E+00 -0.00000000000E+00 -0.53451615700E+02  0.53451615760E+02  0.25500000000E-02 0. -1.
   -5000001    1    1    2    0    0  0.11447631002E+03 -0.15668718617E+03  0.62427986186E+03  0.69991502754E+03  0.25000000000E+03 0.  0.
    5000001    1    1    2    0    0 -0.11447631002E+03  0.15668718617E+03  0.15859312925E+04  0.16171993582E+04  0.25000000000E+03 0.  0.
<mgrwt>
<rscale>  0 0.69569083E+03</rscale>
<asrwt>0</asrwt>
<pdfrwt beam="1">  1        2 0.34825579E+00 0.69569083E+03</pdfrwt>
<pdfrwt beam="2">  1       -2 0.82233260E-02 0.69569083E+03</pdfrwt>
<totfact> 0.46335295E+02</totfact>
</mgrwt>
</event>
<event>
 4    1  0.6705655E-006  0.5578204E+03  0.7818608E-02  0.9996998E-01
          2   -1    0    0  501    0  0.00000000000E+00  0.00000000000E+00  0.42526493937E+02  0.42526494013E+02  0.25500000000E-02 0.  1.
         -2   -1    0    0    0  501 -0.00000000000E+00 -0.00000000000E+00 -0.18292339795E+04  0.18292339796E+04  0.25500000000E-02 0. -1.
   -5000001    1    1    2    0    0  0.33691008297E+02  0.11358910235E+03 -0.10121465753E+04  0.10492751107E+04  0.25000000000E+03 0.  0.
    5000001    1    1    2    0    0 -0.33691008297E+02 -0.11358910235E+03 -0.77456091036E+03  0.82248536283E+03  0.25000000000E+03 0.  0.
<mgrwt>
<rscale>  0 0.55782043E+03</rscale>
<asrwt>0</asrwt>
<pdfrwt beam="1">  1        2 0.65425389E-02 0.55782043E+03</pdfrwt>
<pdfrwt beam="2">  1       -2 0.28142055E+00 0.55782043E+03</pdfrwt>
<totfact> 0.50177313E+01</totfact>
</mgrwt>
</event>
<event>
 4    1  0.6705655E-006  0.6401245E+03  0.7818608E-02  0.9825488E-01
          2   -1    0    0  501    0  0.00000000000E+00  0.00000000000E+00  0.10465544639E+04  0.10465544639E+04  0.25500000000E-02 0.  1.
         -2   -1    0    0    0  501 -0.00000000000E+00 -0.00000000000E+00 -0.97882965639E+02  0.97882965672E+02  0.25500000000E-02 0. -1.
   -5000001    1    1    2    0    0 -0.54882496988E+02 -0.14716686767E+03  0.25341193228E+03  0.38908582965E+03  0.25000000000E+03 0.  0.
    5000001    1    1    2    0    0  0.54882496988E+02  0.14716686767E+03  0.69525956596E+03  0.75535159991E+03  0.25000000000E+03 0.  0.
<mgrwt>
<rscale>  0 0.64012453E+03</rscale>
<asrwt>0</asrwt>
<pdfrwt beam="1">  1        2 0.16100838E+00 0.64012453E+03</pdfrwt>
<pdfrwt beam="2">  1       -2 0.15058918E-01 0.64012453E+03</pdfrwt>
<totfact> 0.82570137E+02</totfact>
</mgrwt>
</event>
<event>
 4    1  0.6705655E-006  0.6121243E+03  0.7818608E-02  0.9880566E-01
         -2   -1    0    0    0  501 -0.00000000000E+00  0.00000000000E+00  0.27625584979E+03  0.27625584980E+03  0.25500000000E-02 0.  1.
          2   -1    0    0  501    0  0.00000000000E+00 -0.00000000000E+00 -0.33908434435E+03  0.33908434436E+03  0.25500000000E-02 0. -1.
   -5000001    1    1    2    0    0 -0.15929148012E+03  0.72242154971E+00  0.45141851976E+02  0.29985343809E+03  0.25000000000E+03 0.  0.
    5000001    1    1    2    0    0  0.15929148012E+03 -0.72242154971E+00 -0.10797034654E+03  0.31548675608E+03  0.25000000000E+03 0.  0.
<mgrwt>
<rscale>  0 0.61212428E+03</rscale>
<asrwt>0</asrwt>
<pdfrwt beam="1">  1        2 0.52166822E-01 0.61212428E+03</pdfrwt>
<pdfrwt beam="2">  1       -2 0.42500900E-01 0.61212428E+03</pdfrwt>
<totfact> 0.50657613E+02</totfact>
</mgrwt>
</event>
<event>
 4    1  0.6705655E-006  0.9879907E+03  0.7818608E-02  0.9321815E-01
          2   -1    0    0  501    0  0.00000000000E+00  0.00000000000E+00  0.22799387968E+04  0.22799387968E+04  0.25500000000E-02 0. -1.
         -2   -1    0    0    0  501 -0.00000000000E+00 -0.00000000000E+00 -0.10703419901E+03  0.10703419904E+03  0.25500000000E-02 0.  1.
   -5000001    1    1    2    0    0 -0.28937756142E+03 -0.30356504156E+03  0.12678978528E+04  0.13586596603E+04  0.25000000000E+03 0.  0.
    5000001    1    1    2    0    0  0.28937756142E+03  0.30356504156E+03  0.90500674504E+03  0.10283133356E+04  0.25000000000E+03 0.  0.
<mgrwt>
<rscale>  0 0.98799073E+03</rscale>
<asrwt>0</asrwt>
<pdfrwt beam="1">  1        2 0.35075980E+00 0.98799073E+03</pdfrwt>
<pdfrwt beam="2">  1       -2 0.16466801E-01 0.98799073E+03</pdfrwt>
<totfact> 0.14044992E+02</totfact>
</mgrwt>
</event>
<event>
 4    1  0.6705655E-006  0.7292611E+03  0.7818608E-02  0.9668460E-01
         -2   -1    0    0    0  501 -0.00000000000E+00  0.00000000000E+00  0.29172599760E+03  0.29172599761E+03  0.25500000000E-02 0. -1.
          2   -1    0    0  501    0  0.00000000000E+00 -0.00000000000E+00 -0.45575454281E+03  0.45575454282E+03  0.25500000000E-02 0.  1.
   -5000001    1    1    2    0    0 -0.56719694965E+02 -0.23450330957E+03  0.31414496884E+02  0.34884924625E+03  0.25000000000E+03 0.  0.
    5000001    1    1    2    0    0  0.56719694965E+02  0.23450330957E+03 -0.19544304209E+03  0.39863129418E+03  0.25000000000E+03 0.  0.
<mgrwt>
<rscale>  0 0.72926113E+03</rscale>
<asrwt>0</asrwt>
<pdfrwt beam="1">  1        2 0.70116083E-01 0.72926113E+03</pdfrwt>
<pdfrwt beam="2">  1       -2 0.44880923E-01 0.72926113E+03</pdfrwt>
<totfact> 0.32537287E+02</totfact>
</mgrwt>
</event>
<event>
 4    1  0.6705655E-006  0.9287953E+03  0.7818608E-02  0.9390285E-01
         -2   -1    0    0    0  501 -0.00000000000E+00  0.00000000000E+00  0.94710912940E+02  0.94710912975E+02  0.25500000000E-02 0. -1.
          2   -1    0    0  501    0  0.00000000000E+00 -0.00000000000E+00 -0.22770887563E+04  0.22770887563E+04  0.25500000000E-02 0.  1.
   -5000001    1    1    2    0    0 -0.37459978019E+03  0.11339215874E+02 -0.80327821408E+03  0.92098287842E+03  0.25000000000E+03 0.  0.
    5000001    1    1    2    0    0  0.37459978019E+03 -0.11339215874E+02 -0.13790996293E+04  0.14508167909E+04  0.25000000000E+03 0.  0.
<mgrwt>
<rscale>  0 0.92879525E+03</rscale>
<asrwt>0</asrwt>
<pdfrwt beam="1">  1        2 0.35032131E+00 0.92879525E+03</pdfrwt>
<pdfrwt beam="2">  1       -2 0.14570911E-01 0.92879525E+03</pdfrwt>
<totfact> 0.17446604E+02</totfact>
</mgrwt>
</event>
<event>
 4    1  0.6705655E-006  0.1005444E+04  0.7818608E-02  0.9302595E-01
         -2   -1    0    0    0  501 -0.00000000000E+00  0.00000000000E+00  0.19983061064E+03  0.19983061066E+03  0.25500000000E-02 0. -1.
          2   -1    0    0  501    0  0.00000000000E+00 -0.00000000000E+00 -0.12647169764E+04  0.12647169764E+04  0.25500000000E-02 0.  1.
   -5000001    1    1    2    0    0 -0.41552306595E+03  0.13155967050E+03 -0.50887473321E+03  0.71513695146E+03  0.25000000000E+03 0.  0.
    5000001    1    1    2    0    0  0.41552306595E+03 -0.13155967050E+03 -0.55601163259E+03  0.74941063564E+03  0.25000000000E+03 0.  0.
<mgrwt>
<rscale>  0 0.10054435E+04</rscale>
<asrwt>0</asrwt>
<pdfrwt beam="1">  1        2 0.19457184E+00 0.10054435E+04</pdfrwt>
<pdfrwt beam="2">  1       -2 0.30743172E-01 0.10054435E+04</pdfrwt>
<totfact> 0.16927172E+02</totfact>
</mgrwt>
</event>
<event>
 4    1  0.6705655E-006  0.7344486E+03  0.7818608E-02  0.9660069E-01
          2   -1    0    0  501    0  0.00000000000E+00  0.00000000000E+00  0.14409350191E+04  0.14409350191E+04  0.25500000000E-02 0.  1.
         -2   -1    0    0    0  501 -0.00000000000E+00 -0.00000000000E+00 -0.93587630169E+02  0.93587630204E+02  0.25500000000E-02 0. -1.
   -5000001    1    1    2    0    0 -0.23017332261E+02 -0.22262627790E+03  0.36193660474E+03  0.49354874434E+03  0.25000000000E+03 0.  0.
    5000001    1    1    2    0    0  0.23017332261E+02  0.22262627790E+03  0.98541078415E+03  0.10409739049E+04  0.25000000000E+03 0.  0.
<mgrwt>
<rscale>  0 0.73444862E+03</rscale>
<asrwt>0</asrwt>
<pdfrwt beam="1">  1        2 0.22168229E+00 0.73444862E+03</pdfrwt>
<pdfrwt beam="2">  1       -2 0.14398098E-01 0.73444862E+03</pdfrwt>
<totfact> 0.52106541E+02</totfact>
</mgrwt>
</event>
<event>
 4    1  0.6705655E-006  0.7487399E+03  0.7818608E-02  0.9637329E-01
          2   -1    0    0  501    0  0.00000000000E+00  0.00000000000E+00  0.55463457089E+03  0.55463457090E+03  0.25500000000E-02 0.  1.
         -2   -1    0    0    0  501 -0.00000000000E+00 -0.00000000000E+00 -0.25269407221E+03  0.25269407223E+03  0.25500000000E-02 0. -1.
   -5000001    1    1    2    0    0  0.15044047351E+03  0.19128968785E+03  0.29734553382E+03  0.45840860292E+03  0.25000000000E+03 0.  0.
    5000001    1    1    2    0    0 -0.15044047351E+03 -0.19128968785E+03  0.45949648556E+01  0.34892004020E+03  0.25000000000E+03 0.  0.
<mgrwt>
<rscale>  0 0.74873992E+03</rscale>
<asrwt>0</asrwt>
<pdfrwt beam="1">  1        2 0.85328395E-01 0.74873992E+03</pdfrwt>
<pdfrwt beam="2">  1       -2 0.38876011E-01 0.74873992E+03</pdfrwt>
<totfact> 0.34323393E+02</totfact>
</mgrwt>
</event>
<event>
 4    1  0.6705655E-006  0.7741418E+03  0.7818608E-02  0.9598219E-01
          2   -1    0    0  501    0  0.00000000000E+00  0.00000000000E+00  0.16303727756E+04  0.16303727756E+04  0.25500000000E-02 0.  1.
         -2   -1    0    0    0  501 -0.00000000000E+00 -0.00000000000E+00 -0.91895487343E+02  0.91895487378E+02  0.25500000000E-02 0. -1.
   -5000001    1    1    2    0    0 -0.14938451711E+03 -0.25215034984E+03  0.85332011427E+03  0.93624289065E+03  0.25000000000E+03 0.  0.
    5000001    1    1    2    0    0  0.14938451711E+03  0.25215034984E+03  0.68515717398E+03  0.78602537232E+03  0.25000000000E+03 0.  0.
<mgrwt>
<rscale>  0 0.77414185E+03</rscale>
<asrwt>0</asrwt>
<pdfrwt beam="1">  1        2 0.25082655E+00 0.77414185E+03</pdfrwt>
<pdfrwt beam="2">  1       -2 0.14137769E-01 0.77414185E+03</pdfrwt>
<totfact> 0.42082918E+02</totfact>
</mgrwt>
</event>
<event>
 4    1  0.6705655E-006  0.7425195E+03  0.7818608E-02  0.9647160E-01
          2   -1    0    0  501    0  0.00000000000E+00  0.00000000000E+00  0.27332217234E+04  0.27332217234E+04  0.25500000000E-02 0.  1.
         -2   -1    0    0    0  501 -0.00000000000E+00 -0.00000000000E+00 -0.50429053494E+02  0.50429053559E+02  0.25500000000E-02 0. -1.
   -5000001    1    1    2    0    0  0.30034958656E+02 -0.25605558534E+03  0.98837518067E+03  0.10515950073E+04  0.25000000000E+03 0.  0.
    5000001    1    1    2    0    0 -0.30034958656E+02  0.25605558534E+03  0.16944174892E+04  0.17320557697E+04  0.25000000000E+03 0.  0.
<mgrwt>
<rscale>  0 0.74251945E+03</rscale>
<asrwt>0</asrwt>
<pdfrwt beam="1">  1        2 0.42049577E+00 0.74251945E+03</pdfrwt>
<pdfrwt beam="2">  1       -2 0.77583138E-02 0.74251945E+03</pdfrwt>
<totfact> 0.27433332E+02</totfact>
</mgrwt>
</event>
<event>
 4    1  0.6705655E-006  0.7708620E+03  0.7818608E-02  0.9603178E-01
         -2   -1    0    0    0  501 -0.00000000000E+00  0.00000000000E+00  0.34756060553E+03  0.34756060554E+03  0.25500000000E-02 0.  1.
          2   -1    0    0  501    0  0.00000000000E+00 -0.00000000000E+00 -0.42742772191E+03  0.42742772192E+03  0.25500000000E-02 0. -1.
   -5000001    1    1    2    0    0 -0.13922456505E+03  0.23184784786E+03 -0.15420877539E+03  0.39927089862E+03  0.25000000000E+03 0.  0.
    5000001    1    1    2    0    0  0.13922456505E+03 -0.23184784786E+03  0.74341659012E+02  0.37571742884E+03  0.25000000000E+03 0.  0.
<mgrwt>
<rscale>  0 0.77086195E+03</rscale>
<asrwt>0</asrwt>
<pdfrwt beam="1">  1        2 0.65758111E-01 0.77086195E+03</pdfrwt>
<pdfrwt beam="2">  1       -2 0.53470863E-01 0.77086195E+03</pdfrwt>
<totfact> 0.24511430E+02</totfact>
</mgrwt>
</event>
<event>
 4    1  0.6705655E-006  0.9089332E+03  0.7818608E-02  0.9414483E-01
         -2   -1    0    0    0  501 -0.00000000000E+00  0.00000000000E+00  0.93026782079E+02  0.93026782114E+02  0.25500000000E-02 0. -1.
          2   -1    0    0  501    0  0.00000000000E+00 -0.00000000000E+00 -0.22202198724E+04  0.22202198724E+04  0.25500000000E-02 0.  1.
   -5000001    1    1    2    0    0  0.34036046814E+03  0.16544146966E+03 -0.99055059583E+03  0.10894524363E+04  0.25000000000E+03 0.  0.
    5000001    1    1    2    0    0 -0.34036046814E+03 -0.16544146966E+03 -0.11366424945E+04  0.12237942182E+04  0.25000000000E+03 0.  0.
<mgrwt>
<rscale>  0 0.90893324E+03</rscale>
<asrwt>0</asrwt>
<pdfrwt beam="1">  1        2 0.34157225E+00 0.90893324E+03</pdfrwt>
<pdfrwt beam="2">  1       -2 0.14311814E-01 0.90893324E+03</pdfrwt>
<totfact> 0.19374239E+02</totfact>
</mgrwt>
</event>
<event>
 4    1  0.6705655E-006  0.6171603E+03  0.7818608E-02  0.9870430E-01
         -2   -1    0    0    0  501 -0.00000000000E+00  0.00000000000E+00  0.64306587230E+02  0.64306587281E+02  0.25500000000E-02 0. -1.
          2   -1    0    0  501    0  0.00000000000E+00 -0.00000000000E+00 -0.14807457523E+04  0.14807457523E+04  0.25500000000E-02 0.  1.
   -5000001    1    1    2    0    0  0.47044065794E+02  0.17108775821E+03 -0.62015019356E+03  0.69178784877E+03  0.25000000000E+03 0.  0.
    5000001    1    1    2    0    0 -0.47044065794E+02 -0.17108775821E+03 -0.79628897156E+03  0.85326449086E+03  0.25000000000E+03 0.  0.
<mgrwt>
<rscale>  0 0.61716029E+03</rscale>
<asrwt>0</asrwt>
<pdfrwt beam="1">  1        2 0.22780701E+00 0.61716029E+03</pdfrwt>
<pdfrwt beam="2">  1       -2 0.98933222E-02 0.61716029E+03</pdfrwt>
<totfact> 0.92530357E+02</totfact>
</mgrwt>
</event>
<event>
 4    1  0.6705655E-006  0.6409440E+03  0.7818608E-02  0.9823922E-01
         -2   -1    0    0    0  501 -0.00000000000E+00  0.00000000000E+00  0.13689769234E+03  0.13689769236E+03  0.25500000000E-02 0. -1.
          2   -1    0    0  501    0  0.00000000000E+00 -0.00000000000E+00 -0.75021198638E+03  0.75021198638E+03  0.25500000000E-02 0.  1.
   -5000001    1    1    2    0    0  0.99051604236E+02 -0.14431753795E+03 -0.17130470655E+03  0.34997724861E+03  0.25000000000E+03 0.  0.
    5000001    1    1    2    0    0 -0.99051604236E+02  0.14431753795E+03 -0.44200958749E+03  0.53713243013E+03  0.25000000000E+03 0.  0.
<mgrwt>
<rscale>  0 0.64094396E+03</rscale>
<asrwt>0</asrwt>
<pdfrwt beam="1">  1        2 0.11541723E+00 0.64094396E+03</pdfrwt>
<pdfrwt beam="2">  1       -2 0.21061184E-01 0.64094396E+03</pdfrwt>
<totfact> 0.73440773E+02</totfact>
</mgrwt>
</event>
<event>
 4    1  0.6705655E-006  0.7096054E+03  0.7818608E-02  0.9700945E-01
          2   -1    0    0  501    0  0.00000000000E+00  0.00000000000E+00  0.56888538659E+03  0.56888538659E+03  0.25500000000E-02 0.  1.
         -2   -1    0    0    0  501 -0.00000000000E+00 -0.00000000000E+00 -0.22128351581E+03  0.22128351582E+03  0.25500000000E-02 0. -1.
   -5000001    1    1    2    0    0 -0.14828646455E+03 -0.55154981079E+02  0.39187720599E+03  0.49101801605E+03  0.25000000000E+03 0.  0.
    5000001    1    1    2    0    0  0.14828646455E+03  0.55154981079E+02 -0.44275335214E+02  0.29915088637E+03  0.25000000000E+03 0.  0.
<mgrwt>
<rscale>  0 0.70960541E+03</rscale>
<asrwt>0</asrwt>
<pdfrwt beam="1">  1        2 0.87520829E-01 0.70960541E+03</pdfrwt>
<pdfrwt beam="2">  1       -2 0.34043618E-01 0.70960541E+03</pdfrwt>
<totfact> 0.43002819E+02</totfact>
</mgrwt>
</event>
<event>
 4    1  0.6705655E-006  0.7397243E+03  0.7818608E-02  0.9651611E-01
          2   -1    0    0  501    0  0.00000000000E+00  0.00000000000E+00  0.20067876595E+04  0.20067876595E+04  0.25500000000E-02 0.  1.
         -2   -1    0    0    0  501 -0.00000000000E+00 -0.00000000000E+00 -0.68167650889E+02  0.68167650937E+02  0.25500000000E-02 0. -1.
   -5000001    1    1    2    0    0  0.62188939536E+01  0.24899861831E+03  0.12798851150E+04  0.13276463739E+04  0.25000000000E+03 0.  0.
    5000001    1    1    2    0    0 -0.62188939536E+01 -0.24899861831E+03  0.65873489366E+03  0.74730893658E+03  0.25000000000E+03 0.  0.
<mgrwt>
<rscale>  0 0.73972427E+03</rscale>
<asrwt>0</asrwt>
<pdfrwt beam="1">  1        2 0.30873658E+00 0.73972427E+03</pdfrwt>
<pdfrwt beam="2">  1       -2 0.10487330E-01 0.73972427E+03</pdfrwt>
<totfact> 0.43098236E+02</totfact>
</mgrwt>
</event>
<event>
 4    1  0.6705655E-006  0.9693179E+03  0.7818608E-02  0.9342852E-01
          2   -1    0    0  501    0  0.00000000000E+00  0.00000000000E+00  0.91645793957E+03  0.91645793957E+03  0.25500000000E-02 0.  1.
         -2   -1    0    0    0  501 -0.00000000000E+00 -0.00000000000E+00 -0.25630668277E+03  0.25630668278E+03  0.25500000000E-02 0. -1.
   -5000001    1    1    2    0    0  0.13777272783E+03 -0.34674784123E+03  0.10969386797E+03  0.46232903283E+03  0.25000000000E+03 0.  0.
    5000001    1    1    2    0    0 -0.13777272783E+03  0.34674784123E+03  0.55045738883E+03  0.71043558952E+03  0.25000000000E+03 0.  0.
<mgrwt>
<rscale>  0 0.96931789E+03</rscale>
<asrwt>0</asrwt>
<pdfrwt beam="1">  1        2 0.14099353E+00 0.96931789E+03</pdfrwt>
<pdfrwt beam="2">  1       -2 0.39431797E-01 0.96931789E+03</pdfrwt>
<totfact> 0.17366945E+02</totfact>
</mgrwt>
</event>
<event>
 4    1  0.6705655E-006  0.1348494E+04  0.7818608E-02  0.8991969E-01
          2   -1    0    0  501    0  0.00000000000E+00  0.00000000000E+00  0.42208046777E+04  0.42208046777E+04  0.25500000000E-02 0.  1.
         -2   -1    0    0    0  501 -0.00000000000E+00 -0.00000000000E+00 -0.10770678474E+03  0.10770678478E+03  0.25500000000E-02 0. -1.
   -5000001    1    1    2    0    0  0.21534967920E+03 -0.43636035070E+03  0.79149819959E+03  0.96216175353E+03  0.25000000000E+03 0.  0.
    5000001    1    1    2    0    0 -0.21534967920E+03  0.43636035070E+03  0.33215996934E+04  0.33663497090E+04  0.25000000000E+03 0.  0.
<mgrwt>
<rscale>  0 0.13484944E+04</rscale>
<asrwt>0</asrwt>
<pdfrwt beam="1">  1        2 0.64935447E+00 0.13484944E+04</pdfrwt>
<pdfrwt beam="2">  1       -2 0.16570277E-01 0.13484944E+04</pdfrwt>
<totfact> 0.66988497E+00</totfact>
</mgrwt>
</event>
<event>
 4    1  0.6705655E-006  0.1101441E+04  0.7818608E-02  0.9203788E-01
         -2   -1    0    0    0  501 -0.00000000000E+00  0.00000000000E+00  0.57048279155E+03  0.57048279156E+03  0.25500000000E-02 0. -1.
          2   -1    0    0  501    0  0.00000000000E+00 -0.00000000000E+00 -0.53164288031E+03  0.53164288031E+03  0.25500000000E-02 0.  1.
   -5000001    1    1    2    0    0  0.45679505699E+03  0.62627350830E+02  0.18748030936E+03  0.55698543568E+03  0.25000000000E+03 0.  0.
    5000001    1    1    2    0    0 -0.45679505699E+03 -0.62627350830E+02 -0.14864039811E+03  0.54514023619E+03  0.25000000000E+03 0.  0.
<mgrwt>
<rscale>  0 0.11014411E+04</rscale>
<asrwt>0</asrwt>
<pdfrwt beam="1">  1        2 0.81791212E-01 0.11014411E+04</pdfrwt>
<pdfrwt beam="2">  1       -2 0.87766584E-01 0.11014411E+04</pdfrwt>
<totfact> 0.63741481E+01</totfact>
</mgrwt>
</event>
<event>
 4    1  0.6705655E-006  0.1367729E+04  0.7818608E-02  0.8977515E-01
         -2   -1    0    0    0  501 -0.00000000000E+00  0.00000000000E+00  0.28107048248E+03  0.28107048249E+03  0.25500000000E-02 0. -1.
          2   -1    0    0  501    0  0.00000000000E+00 -0.00000000000E+00 -0.16638907160E+04  0.16638907160E+04  0.25500000000E-02 0.  1.
   -5000001    1    1    2    0    0 -0.40246065682E+03 -0.48295168152E+03 -0.83328395386E+03  0.10733494560E+04  0.25000000000E+03 0.  0.
    5000001    1    1    2    0    0  0.40246065682E+03  0.48295168152E+03 -0.54953627970E+03  0.87161174251E+03  0.25000000000E+03 0.  0.
<mgrwt>
<rscale>  0 0.13677289E+04</rscale>
<asrwt>0</asrwt>
<pdfrwt beam="1">  1        2 0.25598318E+00 0.13677289E+04</pdfrwt>
<pdfrwt beam="2">  1       -2 0.43241614E-01 0.13677289E+04</pdfrwt>
<totfact> 0.50805371E+01</totfact>
</mgrwt>
</event>
<event>
 4    1  0.6705655E-006  0.7873348E+03  0.7818608E-02  0.9578533E-01
         -2   -1    0    0    0  501 -0.00000000000E+00  0.00000000000E+00  0.45251118949E+02  0.45251119021E+02  0.25500000000E-02 0.  1.
          2   -1    0    0  501    0  0.00000000000E+00 -0.00000000000E+00 -0.34247552784E+04  0.34247552784E+04  0.25500000000E-02 0. -1.
   -5000001    1    1    2    0    0  0.43426286133E+02  0.29207307894E+03 -0.20100460644E+04  0.20469435036E+04  0.25000000000E+03 0.  0.
    5000001    1    1    2    0    0 -0.43426286133E+02 -0.29207307894E+03 -0.13694580950E+04  0.14230628938E+04  0.25000000000E+03 0.  0.
<mgrwt>
<rscale>  0 0.78733477E+03</rscale>
<asrwt>0</asrwt>
<pdfrwt beam="1">  1        2 0.52688522E+00 0.78733477E+03</pdfrwt>
<pdfrwt beam="2">  1       -2 0.69617134E-02 0.78733477E+03</pdfrwt>
<totfact> 0.12019206E+02</totfact>
</mgrwt>
</event>
<event>
 4    1  0.6705655E-006  0.1294027E+04  0.7818608E-02  0.9034315E-01
         -2   -1    0    0    0  501 -0.00000000000E+00  0.00000000000E+00  0.72630993396E+03  0.72630993396E+03  0.25500000000E-02 0. -1.
          2   -1    0    0  501    0  0.00000000000E+00 -0.00000000000E+00 -0.57637419190E+03  0.57637419190E+03  0.25500000000E-02 0.  1.
   -5000001    1    1    2    0    0 -0.34466476086E+03 -0.40412770192E+03 -0.19890610526E+03  0.61981984120E+03  0.25000000000E+03 0.  0.
    5000001    1    1    2    0    0  0.34466476086E+03  0.40412770192E+03  0.34884184731E+03  0.68286428467E+03  0.25000000000E+03 0.  0.
<mgrwt>
<rscale>  0 0.12940267E+04</rscale>
<asrwt>0</asrwt>
<pdfrwt beam="1">  1        2 0.88672953E-01 0.12940267E+04</pdfrwt>
<pdfrwt beam="2">  1       -2 0.11173999E+00 0.12940267E+04</pdfrwt>
<totfact> 0.32284620E+01</totfact>
</mgrwt>
</event>
<event>
 4    1  0.6705655E-006  0.8739698E+03  0.7818608E-02  0.9458718E-01
          2   -1    0    0  501    0  0.00000000000E+00  0.00000000000E+00  0.16255292856E+04  0.16255292856E+04  0.25500000000E-02 0.  1.
         -2   -1    0    0    0  501 -0.00000000000E+00 -0.00000000000E+00 -0.11747299552E+03  0.11747299554E+03  0.25500000000E-02 0. -1.
   -5000001    1    1    2    0    0  0.20610645806E+03  0.19513810374E+03  0.31755664624E+03  0.49386331627E+03  0.25000000000E+03 0.  0.
    5000001    1    1    2    0    0 -0.20610645806E+03 -0.19513810374E+03  0.11904996439E+04  0.12491389649E+04  0.25000000000E+03 0.  0.
<mgrwt>
<rscale>  0 0.87396978E+03</rscale>
<asrwt>0</asrwt>
<pdfrwt beam="1">  1        2 0.25008141E+00 0.87396978E+03</pdfrwt>
<pdfrwt beam="2">  1       -2 0.18072770E-01 0.87396978E+03</pdfrwt>
<totfact> 0.27678683E+02</totfact>
</mgrwt>
</event>
<event>
 4    1  0.6705655E-006  0.6934150E+03  0.7818608E-02  0.9728560E-01
         -2   -1    0    0    0  501 -0.00000000000E+00  0.00000000000E+00  0.26674588725E+03  0.26674588726E+03  0.25500000000E-02 0. -1.
          2   -1    0    0  501    0  0.00000000000E+00 -0.00000000000E+00 -0.45063891772E+03  0.45063891773E+03  0.25500000000E-02 0.  1.
   -5000001    1    1    2    0    0  0.23032015964E+03 -0.46026392729E+02 -0.14408989479E+03  0.37205873534E+03  0.25000000000E+03 0.  0.
    5000001    1    1    2    0    0 -0.23032015964E+03  0.46026392729E+02 -0.39803135684E+02  0.34532606964E+03  0.25000000000E+03 0.  0.
<mgrwt>
<rscale>  0 0.69341496E+03</rscale>
<asrwt>0</asrwt>
<pdfrwt beam="1">  1        2 0.69329064E-01 0.69341496E+03</pdfrwt>
<pdfrwt beam="2">  1       -2 0.41037829E-01 0.69341496E+03</pdfrwt>
<totfact> 0.39369857E+02</totfact>
</mgrwt>
</event>
<event>
 4    1  0.6705655E-006  0.9789517E+03  0.7818608E-02  0.9331936E-01
         -2   -1    0    0    0  501 -0.00000000000E+00  0.00000000000E+00  0.46477989453E+03  0.46477989453E+03  0.25500000000E-02 0. -1.
          2   -1    0    0  501    0  0.00000000000E+00 -0.00000000000E+00 -0.51548396695E+03  0.51548396695E+03  0.25500000000E-02 0.  1.
   -5000001    1    1    2    0    0  0.76078774494E+02 -0.31327725744E+03  0.24548410487E+03  0.47612295229E+03  0.25000000000E+03 0.  0.
    5000001    1    1    2    0    0 -0.76078774494E+02  0.31327725744E+03 -0.29618817729E+03  0.50414090919E+03  0.25000000000E+03 0.  0.
<mgrwt>
<rscale>  0 0.97895165E+03</rscale>
<asrwt>0</asrwt>
<pdfrwt beam="1">  1        2 0.79305225E-01 0.97895165E+03</pdfrwt>
<pdfrwt beam="2">  1       -2 0.71504599E-01 0.97895165E+03</pdfrwt>
<totfact> 0.10546365E+02</totfact>
</mgrwt>
</event>
<event>
 4    1  0.6705655E-006  0.6454944E+03  0.7818608E-02  0.9815270E-01
         -2   -1    0    0    0  501 -0.00000000000E+00  0.00000000000E+00  0.37535325784E+03  0.37535325785E+03  0.25500000000E-02 0. -1.
          2   -1    0    0  501    0  0.00000000000E+00 -0.00000000000E+00 -0.27751394513E+03  0.27751394514E+03  0.25500000000E-02 0.  1.
   -5000001    1    1    2    0    0 -0.15689403886E+03  0.11589525228E+03 -0.11919826087E+02  0.31731613761E+03  0.25000000000E+03 0.  0.
    5000001    1    1    2    0    0  0.15689403886E+03 -0.11589525228E+03  0.10975913880E+03  0.33555106538E+03  0.25000000000E+03 0.  0.
<mgrwt>
<rscale>  0 0.64549443E+03</rscale>
<asrwt>0</asrwt>
<pdfrwt beam="1">  1        2 0.42694453E-01 0.64549443E+03</pdfrwt>
<pdfrwt beam="2">  1       -2 0.57746655E-01 0.64549443E+03</pdfrwt>
<totfact> 0.33956641E+02</totfact>
</mgrwt>
</event>
<event>
 4    1  0.6705655E-006  0.6000209E+03  0.7818608E-02  0.9905363E-01
         -2   -1    0    0    0  501 -0.00000000000E+00  0.00000000000E+00  0.22275485976E+03  0.22275485977E+03  0.25500000000E-02 0. -1.
          2   -1    0    0  501    0  0.00000000000E+00 -0.00000000000E+00 -0.40405969125E+03  0.40405969126E+03  0.25500000000E-02 0.  1.
   -5000001    1    1    2    0    0  0.47465275004E+02  0.15172453366E+03 -0.41287944071E+02  0.29912870269E+03  0.25000000000E+03 0.  0.
    5000001    1    1    2    0    0 -0.47465275004E+02 -0.15172453366E+03 -0.14001688742E+03  0.32768584835E+03  0.25000000000E+03 0.  0.
<mgrwt>
<rscale>  0 0.60002087E+03</rscale>
<asrwt>0</asrwt>
<pdfrwt beam="1">  1        2 0.62163029E-01 0.60002087E+03</pdfrwt>
<pdfrwt beam="2">  1       -2 0.34269979E-01 0.60002087E+03</pdfrwt>
<totfact> 0.63104295E+02</totfact>
</mgrwt>
</event>
<event>
 4    1  0.6705655E-006  0.6758235E+03  0.7818608E-02  0.9759494E-01
         -2   -1    0    0    0  501 -0.00000000000E+00  0.00000000000E+00  0.96140056896E+02  0.96140056930E+02  0.25500000000E-02 0. -1.
          2   -1    0    0  501    0  0.00000000000E+00 -0.00000000000E+00 -0.11876875414E+04  0.11876875414E+04  0.25500000000E-02 0.  1.
   -5000001    1    1    2    0    0  0.31228266928E+02  0.19232591880E+03 -0.76828328726E+03  0.83109787221E+03  0.25000000000E+03 0.  0.
    5000001    1    1    2    0    0 -0.31228266928E+02 -0.19232591880E+03 -0.32326419724E+03  0.45272972612E+03  0.25000000000E+03 0.  0.
<mgrwt>
<rscale>  0 0.67582349E+03</rscale>
<asrwt>0</asrwt>
<pdfrwt beam="1">  1        2 0.18272115E+00 0.67582349E+03</pdfrwt>
<pdfrwt beam="2">  1       -2 0.14790779E-01 0.67582349E+03</pdfrwt>
<totfact> 0.69809555E+02</totfact>
</mgrwt>
</event>
<event>
 4    1  0.6705655E-006  0.8509263E+03  0.7818608E-02  0.9489095E-01
         -2   -1    0    0    0  501 -0.00000000000E+00  0.00000000000E+00  0.76526627748E+02  0.76526627790E+02  0.25500000000E-02 0. -1.
          2   -1    0    0  501    0  0.00000000000E+00 -0.00000000000E+00 -0.23654368540E+04  0.23654368540E+04  0.25500000000E-02 0.  1.
   -5000001    1    1    2    0    0 -0.27736407236E+03 -0.74220892968E+02 -0.59935475133E+03  0.71004625732E+03  0.25000000000E+03 0.  0.
    5000001    1    1    2    0    0  0.27736407236E+03  0.74220892968E+02 -0.16895554749E+04  0.17319172245E+04  0.25000000000E+03 0.  0.
<mgrwt>
<rscale>  0 0.85092633E+03</rscale>
<asrwt>0</asrwt>
<pdfrwt beam="1">  1        2 0.36391331E+00 0.85092633E+03</pdfrwt>
<pdfrwt beam="2">  1       -2 0.11773329E-01 0.85092633E+03</pdfrwt>
<totfact> 0.22385877E+02</totfact>
</mgrwt>
</event>
<event>
 4    1  0.6705655E-006  0.9126142E+03  0.7818608E-02  0.9409949E-01
          2   -1    0    0  501    0  0.00000000000E+00  0.00000000000E+00  0.39156871593E+03  0.39156871594E+03  0.25500000000E-02 0.  1.
         -2   -1    0    0    0  501 -0.00000000000E+00 -0.00000000000E+00 -0.53174873165E+03  0.53174873166E+03  0.25500000000E-02 0. -1.
   -5000001    1    1    2    0    0 -0.77645813417E+02 -0.32033164563E+03 -0.26489676034E+03  0.49123469866E+03  0.25000000000E+03 0.  0.
    5000001    1    1    2    0    0  0.77645813417E+02  0.32033164563E+03  0.12471674462E+03  0.43208274893E+03  0.25000000000E+03 0.  0.
<mgrwt>
<rscale>  0 0.91261420E+03</rscale>
<asrwt>0</asrwt>
<pdfrwt beam="1">  1        2 0.60241341E-01 0.91261420E+03</pdfrwt>
<pdfrwt beam="2">  1       -2 0.81807497E-01 0.91261420E+03</pdfrwt>
<totfact> 0.10741758E+02</totfact>
</mgrwt>
</event>
<event>
 4    1  0.6705655E-006  0.1220363E+04  0.7818608E-02  0.9095217E-01
         -2   -1    0    0    0  501 -0.00000000000E+00  0.00000000000E+00  0.23001987564E+03  0.23001987565E+03  0.25500000000E-02 0. -1.
          2   -1    0    0  501    0  0.00000000000E+00 -0.00000000000E+00 -0.16186495596E+04  0.16186495596E+04  0.25500000000E-02 0.  1.
   -5000001    1    1    2    0    0 -0.54476637914E+03  0.15408269731E+02 -0.86579277983E+03  0.10531405225E+04  0.25000000000E+03 0.  0.
    5000001    1    1    2    0    0  0.54476637914E+03 -0.15408269731E+02 -0.52283690411E+03  0.79552891269E+03  0.25000000000E+03 0.  0.
<mgrwt>
<rscale>  0 0.12203632E+04</rscale>
<asrwt>0</asrwt>
<pdfrwt beam="1">  1        2 0.24902300E+00 0.12203632E+04</pdfrwt>
<pdfrwt beam="2">  1       -2 0.35387674E-01 0.12203632E+04</pdfrwt>
<totfact> 0.80442509E+01</totfact>
</mgrwt>
</event>
<event>
 4    1  0.6705655E-006  0.6558091E+03  0.7818608E-02  0.9795939E-01
          2   -1    0    0  501    0  0.00000000000E+00  0.00000000000E+00  0.39928626133E+03  0.39928626134E+03  0.25500000000E-02 0.  1.
         -2   -1    0    0    0  501 -0.00000000000E+00 -0.00000000000E+00 -0.26928397588E+03  0.26928397590E+03  0.25500000000E-02 0. -1.
   -5000001    1    1    2    0    0  0.81099448942E+02  0.17782254864E+03 -0.19210166522E+02  0.31791038033E+03  0.25000000000E+03 0.  0.
    5000001    1    1    2    0    0 -0.81099448942E+02 -0.17782254864E+03  0.14921245197E+03  0.35065985691E+03  0.25000000000E+03 0.  0.
<mgrwt>
<rscale>  0 0.65580909E+03</rscale>
<asrwt>0</asrwt>
<pdfrwt beam="1">  1        2 0.61428655E-01 0.65580909E+03</pdfrwt>
<pdfrwt beam="2">  1       -2 0.41428304E-01 0.65580909E+03</pdfrwt>
<totfact> 0.44350664E+02</totfact>
</mgrwt>
</event>
<event>
 4    1  0.6705655E-006  0.9767140E+03  0.7818608E-02  0.9334460E-01
         -2   -1    0    0    0  501 -0.00000000000E+00  0.00000000000E+00  0.64055408033E+02  0.64055408084E+02  0.25500000000E-02 0. -1.
          2   -1    0    0  501    0  0.00000000000E+00 -0.00000000000E+00 -0.37232227609E+04  0.37232227609E+04  0.25500000000E-02 0.  1.
   -5000001    1    1    2    0    0 -0.36054439555E+03  0.18120204482E+03 -0.13846568889E+04  0.14637626660E+04  0.25000000000E+03 0.  0.
    5000001    1    1    2    0    0  0.36054439555E+03 -0.18120204482E+03 -0.22745104639E+04  0.23235155030E+04  0.25000000000E+03 0.  0.
<mgrwt>
<rscale>  0 0.97671399E+03</rscale>
<asrwt>0</asrwt>
<pdfrwt beam="1">  1        2 0.57280333E+00 0.97671399E+03</pdfrwt>
<pdfrwt beam="2">  1       -2 0.98546811E-02 0.97671399E+03</pdfrwt>
<totfact> 0.41495108E+01</totfact>
</mgrwt>
</event>
<event>
 4    1  0.6705655E-006  0.7054453E+03  0.7818608E-02  0.9707965E-01
         -2   -1    0    0    0  501 -0.00000000000E+00  0.00000000000E+00  0.37281074073E+03  0.37281074073E+03  0.25500000000E-02 0. -1.
          2   -1    0    0  501    0  0.00000000000E+00 -0.00000000000E+00 -0.33371698343E+03  0.33371698344E+03  0.25500000000E-02 0.  1.
   -5000001    1    1    2    0    0 -0.11608902210E+02  0.24820596212E+03  0.64000644250E+01  0.35253641949E+03  0.25000000000E+03 0.  0.
    5000001    1    1    2    0    0  0.11608902210E+02 -0.24820596212E+03  0.32693692866E+02  0.35399130469E+03  0.25000000000E+03 0.  0.
<mgrwt>
<rscale>  0 0.70544532E+03</rscale>
<asrwt>0</asrwt>
<pdfrwt beam="1">  1        2 0.51341075E-01 0.70544532E+03</pdfrwt>
<pdfrwt beam="2">  1       -2 0.57355498E-01 0.70544532E+03</pdfrwt>
<totfact> 0.28026909E+02</totfact>
</mgrwt>
</event>
<event>
 4    1  0.6705655E-006  0.6948320E+03  0.7818608E-02  0.9726111E-01
         -2   -1    0    0    0  501 -0.00000000000E+00  0.00000000000E+00  0.56310304681E+02  0.56310304739E+02  0.25500000000E-02 0. -1.
          2   -1    0    0  501    0  0.00000000000E+00 -0.00000000000E+00 -0.21434419528E+04  0.21434419528E+04  0.25500000000E-02 0.  1.
   -5000001    1    1    2    0    0  0.13407497954E+03  0.17578236711E+03 -0.73789345575E+03  0.80985325384E+03  0.25000000000E+03 0.  0.
    5000001    1    1    2    0    0 -0.13407497954E+03 -0.17578236711E+03 -0.13492381924E+04  0.13898990037E+04  0.25000000000E+03 0.  0.
<mgrwt>
<rscale>  0 0.69483198E+03</rscale>
<asrwt>0</asrwt>
<pdfrwt beam="1">  1        2 0.32976024E+00 0.69483198E+03</pdfrwt>
<pdfrwt beam="2">  1       -2 0.86631255E-02 0.69483198E+03</pdfrwt>
<totfact> 0.49631391E+02</totfact>
</mgrwt>
</event>
<event>
 4    1  0.6705655E-006  0.1027486E+04  0.7818608E-02  0.9278902E-01
          2   -1    0    0  501    0  0.00000000000E+00  0.00000000000E+00  0.80239858328E+03  0.80239858329E+03  0.25500000000E-02 0.  1.
         -2   -1    0    0    0  501 -0.00000000000E+00 -0.00000000000E+00 -0.32892856972E+03  0.32892856973E+03  0.25500000000E-02 0. -1.
   -5000001    1    1    2    0    0 -0.29435394501E+03  0.14453757628E+03  0.57412869630E+03  0.70686569857E+03  0.25000000000E+03 0.  0.
    5000001    1    1    2    0    0  0.29435394501E+03 -0.14453757628E+03 -0.10065868274E+03  0.42446145445E+03  0.25000000000E+03 0.  0.
<mgrwt>
<rscale>  0 0.10274859E+04</rscale>
<asrwt>0</asrwt>
<pdfrwt beam="1">  1        2 0.12344594E+00 0.10274859E+04</pdfrwt>
<pdfrwt beam="2">  1       -2 0.50604395E-01 0.10274859E+04</pdfrwt>
<totfact> 0.12629575E+02</totfact>
</mgrwt>
</event>
<event>
 4    1  0.6705655E-006  0.8169343E+03  0.7818608E-02  0.9535824E-01
          2   -1    0    0  501    0  0.00000000000E+00  0.00000000000E+00  0.93075458811E+03  0.93075458811E+03  0.25500000000E-02 0.  1.
         -2   -1    0    0    0  501 -0.00000000000E+00 -0.00000000000E+00 -0.17925821425E+03  0.17925821427E+03  0.25500000000E-02 0. -1.
   -5000001    1    1    2    0    0  0.19957166161E+03  0.24941736932E+03  0.44101837148E+03  0.59919535731E+03  0.25000000000E+03 0.  0.
    5000001    1    1    2    0    0 -0.19957166161E+03 -0.24941736932E+03  0.31047800238E+03  0.51081744508E+03  0.25000000000E+03 0.  0.
<mgrwt>
<rscale>  0 0.81693428E+03</rscale>
<asrwt>0</asrwt>
<pdfrwt beam="1">  1        2 0.14319301E+00 0.81693428E+03</pdfrwt>
<pdfrwt beam="2">  1       -2 0.27578187E-01 0.81693428E+03</pdfrwt>
<totfact> 0.33637141E+02</totfact>
</mgrwt>
</event>
<event>
 4    1  0.6705655E-006  0.7603382E+03  0.7818608E-02  0.9619270E-01
          2   -1    0    0  501    0  0.00000000000E+00  0.00000000000E+00  0.12243994464E+04  0.12243994464E+04  0.25500000000E-02 0.  1.
         -2   -1    0    0    0  501 -0.00000000000E+00 -0.00000000000E+00 -0.11804035060E+03  0.11804035063E+03  0.25500000000E-02 0. -1.
   -5000001    1    1    2    0    0 -0.10647204280E+03  0.26495620445E+03  0.51407862078E+03  0.63899523826E+03  0.25000000000E+03 0.  0.
    5000001    1    1    2    0    0  0.10647204280E+03 -0.26495620445E+03  0.59228047497E+03  0.70344455873E+03  0.25000000000E+03 0.  0.
<mgrwt>
<rscale>  0 0.76033819E+03</rscale>
<asrwt>0</asrwt>
<pdfrwt beam="1">  1        2 0.18836914E+00 0.76033819E+03</pdfrwt>
<pdfrwt beam="2">  1       -2 0.18160055E-01 0.76033819E+03</pdfrwt>
<totfact> 0.46611709E+02</totfact>
</mgrwt>
</event>
<event>
 4    1  0.6705655E-006  0.1453376E+04  0.7818608E-02  0.8916064E-01
          2   -1    0    0  501    0  0.00000000000E+00  0.00000000000E+00  0.77152451034E+03  0.77152451035E+03  0.25500000000E-02 0.  1.
         -2   -1    0    0    0  501 -0.00000000000E+00 -0.00000000000E+00 -0.68445686501E+03  0.68445686501E+03  0.25500000000E-02 0. -1.
   -5000001    1    1    2    0    0  0.65720901479E+03 -0.56824621376E+02  0.21826705764E+03  0.73843973022E+03  0.25000000000E+03 0.  0.
    5000001    1    1    2    0    0 -0.65720901479E+03  0.56824621376E+02 -0.13119941231E+03  0.71754164514E+03  0.25000000000E+03 0.  0.
<mgrwt>
<rscale>  0 0.14533757E+04</rscale>
<asrwt>0</asrwt>
<pdfrwt beam="1">  1        2 0.11869608E+00 0.14533757E+04</pdfrwt>
<pdfrwt beam="2">  1       -2 0.10530106E+00 0.14533757E+04</pdfrwt>
<totfact> 0.25583129E+01</totfact>
</mgrwt>
</event>
<event>
 4    1  0.6705655E-006  0.6782744E+03  0.7818608E-02  0.9755125E-01
         -2   -1    0    0    0  501 -0.00000000000E+00  0.00000000000E+00  0.56026566425E+02  0.56026566483E+02  0.25500000000E-02 0. -1.
          2   -1    0    0  501    0  0.00000000000E+00 -0.00000000000E+00 -0.20528482803E+04  0.20528482803E+04  0.25500000000E-02 0.  1.
   -5000001    1    1    2    0    0  0.14715647742E+03  0.56296400885E+02 -0.48103671677E+03  0.56455348416E+03  0.25000000000E+03 0.  0.
    5000001    1    1    2    0    0 -0.14715647742E+03 -0.56296400885E+02 -0.15157849971E+04  0.15443213626E+04  0.25000000000E+03 0.  0.
<mgrwt>
<rscale>  0 0.67827440E+03</rscale>
<asrwt>0</asrwt>
<pdfrwt beam="1">  1        2 0.31582275E+00 0.67827440E+03</pdfrwt>
<pdfrwt beam="2">  1       -2 0.86194733E-02 0.67827440E+03</pdfrwt>
<totfact> 0.56146405E+02</totfact>
</mgrwt>
</event>
<event>
 4    1  0.6705655E-006  0.1137296E+04  0.7818608E-02  0.9169584E-01
          2   -1    0    0  501    0  0.00000000000E+00  0.00000000000E+00  0.44413000957E+04  0.44413000957E+04  0.25500000000E-02 0.  1.
         -2   -1    0    0    0  501 -0.00000000000E+00 -0.00000000000E+00 -0.72807608427E+02  0.72807608472E+02  0.25500000000E-02 0. -1.
   -5000001    1    1    2    0    0  0.54379134553E+02  0.25383107795E+03  0.39301038116E+04  0.39465938829E+04  0.25000000000E+03 0.  0.
    5000001    1    1    2    0    0 -0.54379134553E+02 -0.25383107795E+03  0.43838867568E+03  0.56751382130E+03  0.25000000000E+03 0.  0.
<mgrwt>
<rscale>  0 0.11372958E+04</rscale>
<asrwt>0</asrwt>
<pdfrwt beam="1">  1        2 0.68327681E+00 0.11372958E+04</pdfrwt>
<pdfrwt beam="2">  1       -2 0.11201173E-01 0.11372958E+04</pdfrwt>
<totfact> 0.84430167E+00</totfact>
</mgrwt>
</event>
<event>
 4    1  0.6705655E-006  0.5966617E+03  0.7818608E-02  0.9912356E-01
          2   -1    0    0  501    0  0.00000000000E+00  0.00000000000E+00  0.96590651805E+03  0.96590651805E+03  0.25500000000E-02 0.  1.
         -2   -1    0    0    0  501 -0.00000000000E+00 -0.00000000000E+00 -0.92142758813E+02  0.92142758848E+02  0.25500000000E-02 0. -1.
   -5000001    1    1    2    0    0  0.14323907161E+03  0.40865079124E+02  0.55335160047E+03  0.62520826936E+03  0.25000000000E+03 0.  0.
    5000001    1    1    2    0    0 -0.14323907161E+03 -0.40865079124E+02  0.32041215876E+03  0.43284100754E+03  0.25000000000E+03 0.  0.
<mgrwt>
<rscale>  0 0.59666168E+03</rscale>
<asrwt>0</asrwt>
<pdfrwt beam="1">  1        2 0.14860100E+00 0.59666168E+03</pdfrwt>
<pdfrwt beam="2">  1       -2 0.14175809E-01 0.59666168E+03</pdfrwt>
<totfact> 0.10291817E+03</totfact>
</mgrwt>
</event>
<event>
 4    1  0.6705655E-006  0.7742170E+03  0.7818608E-02  0.9598106E-01
         -2   -1    0    0    0  501 -0.00000000000E+00  0.00000000000E+00  0.78383410249E+02  0.78383410291E+02  0.25500000000E-02 0.  1.
          2   -1    0    0  501    0  0.00000000000E+00 -0.00000000000E+00 -0.19117944906E+04  0.19117944906E+04  0.25500000000E-02 0. -1.
   -5000001    1    1    2    0    0 -0.18482194286E+03  0.23063437052E+03 -0.91996569687E+03  0.99809230377E+03  0.25000000000E+03 0.  0.
    5000001    1    1    2    0    0  0.18482194286E+03 -0.23063437052E+03 -0.91344538353E+03  0.99208559717E+03  0.25000000000E+03 0.  0.
<mgrwt>
<rscale>  0 0.77421695E+03</rscale>
<asrwt>0</asrwt>
<pdfrwt beam="1">  1        2 0.29412219E+00 0.77421695E+03</pdfrwt>
<pdfrwt beam="2">  1       -2 0.12058988E-01 0.77421695E+03</pdfrwt>
<totfact> 0.38500338E+02</totfact>
</mgrwt>
</event>
<event>
 4    1  0.6705655E-006  0.9175028E+03  0.7818608E-02  0.9403963E-01
          2   -1    0    0  501    0  0.00000000000E+00  0.00000000000E+00  0.13793892332E+04  0.13793892332E+04  0.25500000000E-02 0.  1.
         -2   -1    0    0    0  501 -0.00000000000E+00 -0.00000000000E+00 -0.15256960135E+03  0.15256960137E+03  0.25500000000E-02 0. -1.
   -5000001    1    1    2    0    0 -0.16564259599E+03 -0.26917861289E+03  0.97944576940E+03  0.10591074593E+04  0.25000000000E+03 0.  0.
    5000001    1    1    2    0    0  0.16564259599E+03  0.26917861289E+03  0.24737386248E+03  0.47285137525E+03  0.25000000000E+03 0.  0.
<mgrwt>
<rscale>  0 0.91750284E+03</rscale>
<asrwt>0</asrwt>
<pdfrwt beam="1">  1        2 0.21221373E+00 0.91750284E+03</pdfrwt>
<pdfrwt beam="2">  1       -2 0.23472246E-01 0.91750284E+03</pdfrwt>
<totfact> 0.23931710E+02</totfact>
</mgrwt>
</event>
<event>
 4    1  0.6705655E-006  0.7494391E+03  0.7818608E-02  0.9636231E-01
         -2   -1    0    0    0  501 -0.00000000000E+00  0.00000000000E+00  0.13832862340E+03  0.13832862342E+03  0.25500000000E-02 0.  1.
          2   -1    0    0  501    0  0.00000000000E+00 -0.00000000000E+00 -0.10150809348E+04  0.10150809348E+04  0.25500000000E-02 0. -1.
   -5000001    1    1    2    0    0 -0.73286564172E+02  0.41255271310E+02 -0.28745854756E+02  0.26532855494E+03  0.25000000000E+03 0.  0.
    5000001    1    1    2    0    0  0.73286564172E+02 -0.41255271310E+02 -0.84800645665E+03  0.88808100329E+03  0.25000000000E+03 0.  0.
<mgrwt>
<rscale>  0 0.74943912E+03</rscale>
<asrwt>0</asrwt>
<pdfrwt beam="1">  1        2 0.15616629E+00 0.74943912E+03</pdfrwt>
<pdfrwt beam="2">  1       -2 0.21281327E-01 0.74943912E+03</pdfrwt>
<totfact> 0.47402909E+02</totfact>
</mgrwt>
</event>
<event>
 4    1  0.6705655E-006  0.6189305E+03  0.7818608E-02  0.9866891E-01
          2   -1    0    0  501    0  0.00000000000E+00  0.00000000000E+00  0.20445040897E+03  0.20445040898E+03  0.25500000000E-02 0.  1.
         -2   -1    0    0    0  501 -0.00000000000E+00 -0.00000000000E+00 -0.46842036420E+03  0.46842036420E+03  0.25500000000E-02 0. -1.
   -5000001    1    1    2    0    0 -0.51830429338E+02 -0.17365218943E+03 -0.10951331172E+03  0.32761966019E+03  0.25000000000E+03 0.  0.
    5000001    1    1    2    0    0  0.51830429338E+02  0.17365218943E+03 -0.15445664351E+03  0.34525111299E+03  0.25000000000E+03 0.  0.
<mgrwt>
<rscale>  0 0.61893048E+03</rscale>
<asrwt>0</asrwt>
<pdfrwt beam="1">  1        2 0.31453909E-01 0.61893048E+03</pdfrwt>
<pdfrwt beam="2">  1       -2 0.72064671E-01 0.61893048E+03</pdfrwt>
<totfact> 0.29732235E+02</totfact>
</mgrwt>
</event>
<event>
 4    1  0.6705655E-006  0.5285964E+03  0.7818608E-02  0.1006573E+00
          2   -1    0    0  501    0  0.00000000000E+00  0.00000000000E+00  0.13591320803E+04  0.13591320803E+04  0.25500000000E-02 0.  1.
         -2   -1    0    0    0  501 -0.00000000000E+00 -0.00000000000E+00 -0.51395704564E+02  0.51395704627E+02  0.25500000000E-02 0. -1.
   -5000001    1    1    2    0    0  0.80384051645E+02 -0.13134328940E+02  0.72544231677E+03  0.77162209748E+03  0.25000000000E+03 0.  0.
    5000001    1    1    2    0    0 -0.80384051645E+02  0.13134328940E+02  0.58229405901E+03  0.63890568749E+03  0.25000000000E+03 0.  0.
<mgrwt>
<rscale>  0 0.52859645E+03</rscale>
<asrwt>0</asrwt>
<pdfrwt beam="1">  1        2 0.20909724E+00 0.52859645E+03</pdfrwt>
<pdfrwt beam="2">  1       -2 0.79070315E-02 0.52859645E+03</pdfrwt>
<totfact> 0.15554483E+03</totfact>
</mgrwt>
</event>
<event>
 4    1  0.6705655E-006  0.5615765E+03  0.7818608E-02  0.9988494E-01
          2   -1    0    0  501    0  0.00000000000E+00  0.00000000000E+00  0.69672798002E+03  0.69672798003E+03  0.25500000000E-02 0.  1.
         -2   -1    0    0    0  501 -0.00000000000E+00 -0.00000000000E+00 -0.11316041829E+03  0.11316041832E+03  0.25500000000E-02 0. -1.
   -5000001    1    1    2    0    0  0.11625801954E+03  0.68218229207E+01  0.21575032613E+03  0.35015806088E+03  0.25000000000E+03 0.  0.
    5000001    1    1    2    0    0 -0.11625801954E+03 -0.68218229207E+01  0.36781723560E+03  0.45973033746E+03  0.25000000000E+03 0.  0.
<mgrwt>
<rscale>  0 0.56157646E+03</rscale>
<asrwt>0</asrwt>
<pdfrwt beam="1">  1        2 0.10718892E+00 0.56157646E+03</pdfrwt>
<pdfrwt beam="2">  1       -2 0.17409295E-01 0.56157646E+03</pdfrwt>
<totfact> 0.11236993E+03</totfact>
</mgrwt>
</event>
<event>
 4    1  0.6705655E-006  0.5416910E+03  0.7818608E-02  0.1003436E+00
          2   -1    0    0  501    0  0.00000000000E+00  0.00000000000E+00  0.27426671985E+03  0.27426671987E+03  0.25500000000E-02 0.  1.
         -2   -1    0    0    0  501 -0.00000000000E+00 -0.00000000000E+00 -0.26746699658E+03  0.26746699660E+03  0.25500000000E-02 0. -1.
   -5000001    1    1    2    0    0  0.74103390660E+02 -0.72544380201E+02  0.13564137275E+02  0.27099443800E+03  0.25000000000E+03 0.  0.
    5000001    1    1    2    0    0 -0.74103390660E+02  0.72544380201E+02 -0.67644140047E+01  0.27073927846E+03  0.25000000000E+03 0.  0.
<mgrwt>
<rscale>  0 0.54169104E+03</rscale>
<asrwt>0</asrwt>
<pdfrwt beam="1">  1        2 0.42194880E-01 0.54169104E+03</pdfrwt>
<pdfrwt beam="2">  1       -2 0.41148769E-01 0.54169104E+03</pdfrwt>
<totfact> 0.68279043E+02</totfact>
</mgrwt>
</event>
<event>
 4    1  0.6705655E-006  0.6389270E+03  0.7818608E-02  0.9827782E-01
         -2   -1    0    0    0  501 -0.00000000000E+00  0.00000000000E+00  0.93084475821E+02  0.93084475856E+02  0.25500000000E-02 0. -1.
          2   -1    0    0  501    0  0.00000000000E+00 -0.00000000000E+00 -0.10963905593E+04  0.10963905593E+04  0.25500000000E-02 0.  1.
   -5000001    1    1    2    0    0  0.62058245127E+02 -0.15878839377E+03 -0.31096107769E+03  0.43389142839E+03  0.25000000000E+03 0.  0.
    5000001    1    1    2    0    0 -0.62058245127E+02  0.15878839377E+03 -0.69234500575E+03  0.75558360674E+03  0.25000000000E+03 0.  0.
<mgrwt>
<rscale>  0 0.63892704E+03</rscale>
<asrwt>0</asrwt>
<pdfrwt beam="1">  1        2 0.16867546E+00 0.63892704E+03</pdfrwt>
<pdfrwt beam="2">  1       -2 0.14320689E-01 0.63892704E+03</pdfrwt>
<totfact> 0.83736996E+02</totfact>
</mgrwt>
</event>
<event>
 4    1  0.6705655E-006  0.7567734E+03  0.7818608E-02  0.9624783E-01
         -2   -1    0    0    0  501 -0.00000000000E+00  0.00000000000E+00  0.59469479214E+03  0.59469479215E+03  0.25500000000E-02 0. -1.
          2   -1    0    0  501    0  0.00000000000E+00 -0.00000000000E+00 -0.24075627938E+03  0.24075627939E+03  0.25500000000E-02 0.  1.
   -5000001    1    1    2    0    0 -0.16269056741E+03 -0.23234189739E+03  0.16039038661E+03  0.41070190421E+03  0.25000000000E+03 0.  0.
    5000001    1    1    2    0    0  0.16269056741E+03  0.23234189739E+03  0.19354812615E+03  0.42474916733E+03  0.25000000000E+03 0.  0.
<mgrwt>
<rscale>  0 0.75677343E+03</rscale>
<asrwt>0</asrwt>
<pdfrwt beam="1">  1        2 0.37039428E-01 0.75677343E+03</pdfrwt>
<pdfrwt beam="2">  1       -2 0.91491505E-01 0.75677343E+03</pdfrwt>
<totfact> 0.14404955E+02</totfact>
</mgrwt>
</event>
<event>
 4    1  0.6705655E-006  0.1110747E+04  0.7818608E-02  0.9194780E-01
          2   -1    0    0  501    0  0.00000000000E+00  0.00000000000E+00  0.68291151950E+03  0.68291151950E+03  0.25500000000E-02 0.  1.
         -2   -1    0    0    0  501 -0.00000000000E+00 -0.00000000000E+00 -0.45165418416E+03  0.45165418416E+03  0.25500000000E-02 0. -1.
   -5000001    1    1    2    0    0 -0.11760559798E+03  0.46964629355E+03  0.22536199204E+03  0.58964968005E+03  0.25000000000E+03 0.  0.
    5000001    1    1    2    0    0  0.11760559798E+03 -0.46964629355E+03  0.58953433009E+01  0.54491602362E+03  0.25000000000E+03 0.  0.
<mgrwt>
<rscale>  0 0.11107472E+04</rscale>
<asrwt>0</asrwt>
<pdfrwt beam="1">  1        2 0.10506331E+00 0.11107472E+04</pdfrwt>
<pdfrwt beam="2">  1       -2 0.69485259E-01 0.11107472E+04</pdfrwt>
<totfact> 0.79285657E+01</totfact>
</mgrwt>
</event>
<event>
 4    1  0.6705655E-006  0.6739020E+03  0.7818608E-02  0.9762934E-01
          2   -1    0    0  501    0  0.00000000000E+00  0.00000000000E+00  0.50539466322E+03  0.50539466322E+03  0.25500000000E-02 0.  1.
         -2   -1    0    0    0  501 -0.00000000000E+00 -0.00000000000E+00 -0.22464818066E+03  0.22464818067E+03  0.25500000000E-02 0. -1.
   -5000001    1    1    2    0    0  0.10517812861E+03  0.19403200896E+03  0.88136579482E+02  0.34493320496E+03  0.25000000000E+03 0.  0.
    5000001    1    1    2    0    0 -0.10517812861E+03 -0.19403200896E+03  0.19260990308E+03  0.38510963894E+03  0.25000000000E+03 0.  0.
<mgrwt>
<rscale>  0 0.67390205E+03</rscale>
<asrwt>0</asrwt>
<pdfrwt beam="1">  1        2 0.77753024E-01 0.67390205E+03</pdfrwt>
<pdfrwt beam="2">  1       -2 0.34561259E-01 0.67390205E+03</pdfrwt>
<totfact> 0.48065234E+02</totfact>
</mgrwt>
</event>
<event>
 4    1  0.6705655E-006  0.6759120E+03  0.7818608E-02  0.9759336E-01
         -2   -1    0    0    0  501 -0.00000000000E+00  0.00000000000E+00  0.10793258761E+03  0.10793258764E+03  0.25500000000E-02 0. -1.
          2   -1    0    0  501    0  0.00000000000E+00 -0.00000000000E+00 -0.10581998692E+04  0.10581998692E+04  0.25500000000E-02 0.  1.
   -5000001    1    1    2    0    0  0.35498006129E+01 -0.16746122885E+03 -0.20976457439E+03  0.36682017518E+03  0.25000000000E+03 0.  0.
    5000001    1    1    2    0    0 -0.35498006129E+01  0.16746122885E+03 -0.74050270720E+03  0.79931228166E+03  0.25000000000E+03 0.  0.
<mgrwt>
<rscale>  0 0.67591198E+03</rscale>
<asrwt>0</asrwt>
<pdfrwt beam="1">  1        2 0.16279997E+00 0.67591198E+03</pdfrwt>
<pdfrwt beam="2">  1       -2 0.16605014E-01 0.67591198E+03</pdfrwt>
<totfact> 0.68707760E+02</totfact>
</mgrwt>
</event>
<event>
 4    1  0.6705655E-006  0.8662644E+03  0.7818608E-02  0.9468764E-01
         -2   -1    0    0    0  501 -0.00000000000E+00  0.00000000000E+00  0.90560162814E+02  0.90560162850E+02  0.25500000000E-02 0. -1.
          2   -1    0    0  501    0  0.00000000000E+00 -0.00000000000E+00 -0.20715897205E+04  0.20715897205E+04  0.25500000000E-02 0.  1.
   -5000001    1    1    2    0    0  0.23746095167E+02  0.34973483963E+03 -0.11082527823E+04  0.11889501943E+04  0.25000000000E+03 0.  0.
    5000001    1    1    2    0    0 -0.23746095167E+02 -0.34973483963E+03 -0.87277677535E+03  0.97319968900E+03  0.25000000000E+03 0.  0.
<mgrwt>
<rscale>  0 0.86626440E+03</rscale>
<asrwt>0</asrwt>
<pdfrwt beam="1">  1        2 0.31870608E+00 0.86626440E+03</pdfrwt>
<pdfrwt beam="2">  1       -2 0.13932334E-01 0.86626440E+03</pdfrwt>
<totfact> 0.24570208E+02</totfact>
</mgrwt>
</event>
<event>
 4    1  0.6705655E-006  0.5253667E+03  0.7818608E-02  0.1007362E+00
          2   -1    0    0  501    0  0.00000000000E+00  0.00000000000E+00  0.24226077877E+03  0.24226077879E+03  0.25500000000E-02 0.  1.
         -2   -1    0    0    0  501 -0.00000000000E+00 -0.00000000000E+00 -0.28482751017E+03  0.28482751018E+03  0.25500000000E-02 0. -1.
   -5000001    1    1    2    0    0  0.62874224190E+02 -0.47053915175E+02 -0.29122864260E+01  0.26206052815E+03  0.25000000000E+03 0.  0.
    5000001    1    1    2    0    0 -0.62874224190E+02  0.47053915175E+02 -0.39654444974E+02  0.26502776082E+03  0.25000000000E+03 0.  0.
<mgrwt>
<rscale>  0 0.52536667E+03</rscale>
<asrwt>0</asrwt>
<pdfrwt beam="1">  1        2 0.37270889E-01 0.52536667E+03</pdfrwt>
<pdfrwt beam="2">  1       -2 0.43819617E-01 0.52536667E+03</pdfrwt>
<totfact> 0.69231025E+02</totfact>
</mgrwt>
</event>
<event>
 4    1  0.6705655E-006  0.5334887E+03  0.7818608E-02  0.1005390E+00
          2   -1    0    0  501    0  0.00000000000E+00  0.00000000000E+00  0.39066430639E+04  0.39066430639E+04  0.25500000000E-02 0.  1.
         -2   -1    0    0    0  501 -0.00000000000E+00 -0.00000000000E+00 -0.18213217903E+02  0.18213218082E+02  0.25500000000E-02 0. -1.
   -5000001    1    1    2    0    0  0.13735070538E+01  0.92080462825E+02  0.20406567040E+04  0.20579748496E+04  0.25000000000E+03 0.  0.
    5000001    1    1    2    0    0 -0.13735070538E+01 -0.92080462825E+02  0.18477731420E+04  0.18668814324E+04  0.25000000000E+03 0.  0.
<mgrwt>
<rscale>  0 0.53348868E+03</rscale>
<asrwt>0</asrwt>
<pdfrwt beam="1">  1        2 0.60102255E+00 0.53348868E+03</pdfrwt>
<pdfrwt beam="2">  1       -2 0.28020310E-02 0.53348868E+03</pdfrwt>
<totfact> 0.23149519E+02</totfact>
</mgrwt>
</event>
<event>
 4    1  0.6705655E-006  0.6698494E+03  0.7818608E-02  0.9770230E-01
         -2   -1    0    0    0  501 -0.00000000000E+00  0.00000000000E+00  0.24245592612E+03  0.24245592614E+03  0.25500000000E-02 0. -1.
          2   -1    0    0  501    0  0.00000000000E+00 -0.00000000000E+00 -0.46265961748E+03  0.46265961749E+03  0.25500000000E-02 0.  1.
   -5000001    1    1    2    0    0  0.15140562642E+02  0.21292847330E+03 -0.42643670588E+02  0.33149095617E+03  0.25000000000E+03 0.  0.
    5000001    1    1    2    0    0 -0.15140562642E+02 -0.21292847330E+03 -0.17756002077E+03  0.37362458746E+03  0.25000000000E+03 0.  0.
<mgrwt>
<rscale>  0 0.66984943E+03</rscale>
<asrwt>0</asrwt>
<pdfrwt beam="1">  1        2 0.71178403E-01 0.66984943E+03</pdfrwt>
<pdfrwt beam="2">  1       -2 0.37300912E-01 0.66984943E+03</pdfrwt>
<totfact> 0.46002615E+02</totfact>
</mgrwt>
</event>
<event>
 4    1  0.6705655E-006  0.1192542E+04  0.7818608E-02  0.9119410E-01
         -2   -1    0    0    0  501 -0.00000000000E+00  0.00000000000E+00  0.66673384546E+03  0.66673384547E+03  0.25500000000E-02 0. -1.
          2   -1    0    0  501    0  0.00000000000E+00 -0.00000000000E+00 -0.53325460795E+03  0.53325460795E+03  0.25500000000E-02 0.  1.
   -5000001    1    1    2    0    0 -0.23125591148E+03 -0.34652146368E+03 -0.28108123387E+03  0.56130480260E+03  0.25000000000E+03 0.  0.
    5000001    1    1    2    0    0  0.23125591148E+03  0.34652146368E+03  0.41456047139E+03  0.63868365082E+03  0.25000000000E+03 0.  0.
<mgrwt>
<rscale>  0 0.11925416E+04</rscale>
<asrwt>0</asrwt>
<pdfrwt beam="1">  1        2 0.82039170E-01 0.11925416E+04</pdfrwt>
<pdfrwt beam="2">  1       -2 0.10257444E+00 0.11925416E+04</pdfrwt>
<totfact> 0.43834542E+01</totfact>
</mgrwt>
</event>
<event>
 4    1  0.6705655E-006  0.5728414E+03  0.7818608E-02  0.9963411E-01
          2   -1    0    0  501    0  0.00000000000E+00  0.00000000000E+00  0.56967536211E+03  0.56967536211E+03  0.25500000000E-02 0.  1.
         -2   -1    0    0    0  501 -0.00000000000E+00 -0.00000000000E+00 -0.14400628005E+03  0.14400628008E+03  0.25500000000E-02 0. -1.
   -5000001    1    1    2    0    0 -0.40397593659E+02 -0.13374646876E+03  0.20773619766E+03  0.35379995944E+03  0.25000000000E+03 0.  0.
    5000001    1    1    2    0    0  0.40397593659E+02  0.13374646876E+03  0.21793288440E+03  0.35988168275E+03  0.25000000000E+03 0.  0.
<mgrwt>
<rscale>  0 0.57284144E+03</rscale>
<asrwt>0</asrwt>
<pdfrwt beam="1">  1        2 0.87642363E-01 0.57284144E+03</pdfrwt>
<pdfrwt beam="2">  1       -2 0.22154812E-01 0.57284144E+03</pdfrwt>
<totfact> 0.94361954E+02</totfact>
</mgrwt>
</event>
<event>
 4    1  0.6705655E-006  0.9035554E+03  0.7818608E-02  0.9421148E-01
         -2   -1    0    0    0  501 -0.00000000000E+00  0.00000000000E+00  0.46511747964E+03  0.46511747965E+03  0.25500000000E-02 0. -1.
          2   -1    0    0  501    0  0.00000000000E+00 -0.00000000000E+00 -0.43882055249E+03  0.43882055250E+03  0.25500000000E-02 0.  1.
   -5000001    1    1    2    0    0 -0.24454858985E+03 -0.19573137791E+03 -0.19547838118E+03  0.44589974501E+03  0.25000000000E+03 0.  0.
    5000001    1    1    2    0    0  0.24454858985E+03  0.19573137791E+03  0.22177530833E+03  0.45803828713E+03  0.25000000000E+03 0.  0.
<mgrwt>
<rscale>  0 0.90355544E+03</rscale>
<asrwt>0</asrwt>
<pdfrwt beam="1">  1        2 0.67510854E-01 0.90355544E+03</pdfrwt>
<pdfrwt beam="2">  1       -2 0.71556536E-01 0.90355544E+03</pdfrwt>
<totfact> 0.12728982E+02</totfact>
</mgrwt>
</event>
<event>
 4    1  0.6705655E-006  0.7719873E+03  0.7818608E-02  0.9601473E-01
         -2   -1    0    0    0  501 -0.00000000000E+00  0.00000000000E+00  0.50923151256E+03  0.50923151256E+03  0.25500000000E-02 0. -1.
          2   -1    0    0  501    0  0.00000000000E+00 -0.00000000000E+00 -0.29258029991E+03  0.29258029992E+03  0.25500000000E-02 0.  1.
   -5000001    1    1    2    0    0  0.28002210319E+03  0.25832803181E+02  0.19774100304E+03  0.42506613165E+03  0.25000000000E+03 0.  0.
    5000001    1    1    2    0    0 -0.28002210319E+03 -0.25832803181E+02  0.18910209608E+02  0.37674568083E+03  0.25000000000E+03 0.  0.
<mgrwt>
<rscale>  0 0.77198733E+03</rscale>
<asrwt>0</asrwt>
<pdfrwt beam="1">  1        2 0.45012354E-01 0.77198733E+03</pdfrwt>
<pdfrwt beam="2">  1       -2 0.78343310E-01 0.77198733E+03</pdfrwt>
<totfact> 0.16494969E+02</totfact>
</mgrwt>
</event>
<event>
 4    1  0.6705655E-006  0.6437732E+03  0.7818608E-02  0.9818534E-01
          2   -1    0    0  501    0  0.00000000000E+00  0.00000000000E+00  0.93404921581E+03  0.93404921581E+03  0.25500000000E-02 0.  1.
         -2   -1    0    0    0  501 -0.00000000000E+00 -0.00000000000E+00 -0.11092668672E+03  0.11092668675E+03  0.25500000000E-02 0. -1.
   -5000001    1    1    2    0    0  0.46733561262E+02 -0.19037641914E+03  0.32747081442E+03  0.45625030522E+03  0.25000000000E+03 0.  0.
    5000001    1    1    2    0    0 -0.46733561262E+02  0.19037641914E+03  0.49565171467E+03  0.58872559734E+03  0.25000000000E+03 0.  0.
<mgrwt>
<rscale>  0 0.64377320E+03</rscale>
<asrwt>0</asrwt>
<pdfrwt beam="1">  1        2 0.14369988E+00 0.64377320E+03</pdfrwt>
<pdfrwt beam="2">  1       -2 0.17065644E-01 0.64377320E+03</pdfrwt>
<totfact> 0.78749589E+02</totfact>
</mgrwt>
</event>
<event>
 4    1  0.6705655E-006  0.7297664E+03  0.7818608E-02  0.9667640E-01
         -2   -1    0    0    0  501 -0.00000000000E+00  0.00000000000E+00  0.10773543203E+03  0.10773543206E+03  0.25500000000E-02 0. -1.
          2   -1    0    0  501    0  0.00000000000E+00 -0.00000000000E+00 -0.12358027687E+04  0.12358027687E+04  0.25500000000E-02 0.  1.
   -5000001    1    1    2    0    0  0.59576688839E+02  0.21405929401E+03 -0.83253071606E+03  0.89720574920E+03  0.25000000000E+03 0.  0.
    5000001    1    1    2    0    0 -0.59576688839E+02 -0.21405929401E+03 -0.29553662063E+03  0.44633245159E+03  0.25000000000E+03 0.  0.
<mgrwt>
<rscale>  0 0.72976639E+03</rscale>
<asrwt>0</asrwt>
<pdfrwt beam="1">  1        2 0.19012349E+00 0.72976639E+03</pdfrwt>
<pdfrwt beam="2">  1       -2 0.16574683E-01 0.72976639E+03</pdfrwt>
<totfact> 0.53780184E+02</totfact>
</mgrwt>
</event>
<event>
 4    1  0.6705655E-006  0.6533766E+03  0.7818608E-02  0.9800464E-01
         -2   -1    0    0    0  501 -0.00000000000E+00  0.00000000000E+00  0.28650595913E+02  0.28650596027E+02  0.25500000000E-02 0. -1.
          2   -1    0    0  501    0  0.00000000000E+00 -0.00000000000E+00 -0.37250620720E+04  0.37250620720E+04  0.25500000000E-02 0.  1.
   -5000001    1    1    2    0    0  0.19041758180E+03 -0.80818405479E+02 -0.16305902315E+04  0.16625627727E+04  0.25000000000E+03 0.  0.
    5000001    1    1    2    0    0 -0.19041758180E+03  0.80818405479E+02 -0.20658212446E+04  0.20911498953E+04  0.25000000000E+03 0.  0.
<mgrwt>
<rscale>  0 0.65337661E+03</rscale>
<asrwt>0</asrwt>
<pdfrwt beam="1">  1        2 0.57308609E+00 0.65337661E+03</pdfrwt>
<pdfrwt beam="2">  1       -2 0.44077870E-02 0.65337661E+03</pdfrwt>
<totfact> 0.15481449E+02</totfact>
</mgrwt>
</event>
<event>
 4    1  0.6705655E-006  0.8306796E+03  0.7818608E-02  0.9516641E-01
          2   -1    0    0  501    0  0.00000000000E+00  0.00000000000E+00  0.65325896100E+03  0.65325896100E+03  0.25500000000E-02 0.  1.
         -2   -1    0    0    0  501 -0.00000000000E+00 -0.00000000000E+00 -0.26407163128E+03  0.26407163129E+03  0.25500000000E-02 0. -1.
   -5000001    1    1    2    0    0 -0.67498753260E+02 -0.31033035837E+03  0.30020520970E+03  0.50347212530E+03  0.25000000000E+03 0.  0.
    5000001    1    1    2    0    0  0.67498753260E+02  0.31033035837E+03  0.88982120022E+02  0.41385846700E+03  0.25000000000E+03 0.  0.
<mgrwt>
<rscale>  0 0.83067962E+03</rscale>
<asrwt>0</asrwt>
<pdfrwt beam="1">  1        2 0.10050138E+00 0.83067962E+03</pdfrwt>
<pdfrwt beam="2">  1       -2 0.40626405E-01 0.83067962E+03</pdfrwt>
<totfact> 0.25762617E+02</totfact>
</mgrwt>
</event>
<event>
 4    1  0.6705655E-006  0.9490942E+03  0.7818608E-02  0.9366210E-01
         -2   -1    0    0    0  501 -0.00000000000E+00  0.00000000000E+00  0.13910910762E+03  0.13910910764E+03  0.25500000000E-02 0. -1.
          2   -1    0    0  501    0  0.00000000000E+00 -0.00000000000E+00 -0.16188368110E+04  0.16188368110E+04  0.25500000000E-02 0.  1.
   -5000001    1    1    2    0    0  0.27515218829E+03 -0.26045126448E+03 -0.99619180193E+03  0.10947336179E+04  0.25000000000E+03 0.  0.
    5000001    1    1    2    0    0 -0.27515218829E+03  0.26045126448E+03 -0.48353590149E+03  0.66321230079E+03  0.25000000000E+03 0.  0.
<mgrwt>
<rscale>  0 0.94909419E+03</rscale>
<asrwt>0</asrwt>
<pdfrwt beam="1">  1        2 0.24905180E+00 0.94909419E+03</pdfrwt>
<pdfrwt beam="2">  1       -2 0.21401402E-01 0.94909419E+03</pdfrwt>
<totfact> 0.20663170E+02</totfact>
</mgrwt>
</event>
<event>
 4    1  0.6705655E-006  0.1086458E+04  0.7818608E-02  0.9218492E-01
         -2   -1    0    0    0  501 -0.00000000000E+00  0.00000000000E+00  0.21579774875E+03  0.21579774877E+03  0.25500000000E-02 0. -1.
          2   -1    0    0  501    0  0.00000000000E+00 -0.00000000000E+00 -0.13674747175E+04  0.13674747175E+04  0.25500000000E-02 0.  1.
   -5000001    1    1    2    0    0 -0.29497079729E+03 -0.38122209142E+03 -0.59933238471E+03  0.80872576415E+03  0.25000000000E+03 0.  0.
    5000001    1    1    2    0    0  0.29497079729E+03  0.38122209142E+03 -0.55234458405E+03  0.77454670212E+03  0.25000000000E+03 0.  0.
<mgrwt>
<rscale>  0 0.10864584E+04</rscale>
<asrwt>0</asrwt>
<pdfrwt beam="1">  1        2 0.21038072E+00 0.10864584E+04</pdfrwt>
<pdfrwt beam="2">  1       -2 0.33199655E-01 0.10864584E+04</pdfrwt>
<totfact> 0.12705636E+02</totfact>
</mgrwt>
</event>
<event>
 4    1  0.6705655E-006  0.6070595E+03  0.7818608E-02  0.9890867E-01
         -2   -1    0    0    0  501 -0.00000000000E+00  0.00000000000E+00  0.32710477413E+03  0.32710477414E+03  0.25500000000E-02 0. -1.
          2   -1    0    0  501    0  0.00000000000E+00 -0.00000000000E+00 -0.28165378959E+03  0.28165378960E+03  0.25500000000E-02 0.  1.
   -5000001    1    1    2    0    0 -0.36544354920E+02  0.14737317188E+03  0.10404473923E+03  0.31045071981E+03  0.25000000000E+03 0.  0.
    5000001    1    1    2    0    0  0.36544354920E+02 -0.14737317188E+03 -0.58593754695E+02  0.29830784394E+03  0.25000000000E+03 0.  0.
<mgrwt>
<rscale>  0 0.60705947E+03</rscale>
<asrwt>0</asrwt>
<pdfrwt beam="1">  1        2 0.43331353E-01 0.60705947E+03</pdfrwt>
<pdfrwt beam="2">  1       -2 0.50323811E-01 0.60705947E+03</pdfrwt>
<totfact> 0.44389976E+02</totfact>
</mgrwt>
</event>
<event>
 4    1  0.6705655E-006  0.7154850E+03  0.7818608E-02  0.9691111E-01
         -2   -1    0    0    0  501 -0.00000000000E+00  0.00000000000E+00  0.32276299962E+03  0.32276299963E+03  0.25500000000E-02 0. -1.
          2   -1    0    0  501    0  0.00000000000E+00 -0.00000000000E+00 -0.39651286565E+03  0.39651286566E+03  0.25500000000E-02 0.  1.
   -5000001    1    1    2    0    0  0.21227622578E+03 -0.10610809365E+03 -0.13308759836E+03  0.36950295318E+03  0.25000000000E+03 0.  0.
    5000001    1    1    2    0    0 -0.21227622578E+03  0.10610809365E+03  0.59337732334E+02  0.34977291211E+03  0.25000000000E+03 0.  0.
<mgrwt>
<rscale>  0 0.71548496E+03</rscale>
<asrwt>0</asrwt>
<pdfrwt beam="1">  1        2 0.61001980E-01 0.71548496E+03</pdfrwt>
<pdfrwt beam="2">  1       -2 0.49655846E-01 0.71548496E+03</pdfrwt>
<totfact> 0.31099703E+02</totfact>
</mgrwt>
</event>
<event>
 4    1  0.6705655E-006  0.6280532E+03  0.7818608E-02  0.9848855E-01
          2   -1    0    0  501    0  0.00000000000E+00  0.00000000000E+00  0.70407436610E+03  0.70407436611E+03  0.25500000000E-02 0.  1.
         -2   -1    0    0    0  501 -0.00000000000E+00 -0.00000000000E+00 -0.14006007970E+03  0.14006007972E+03  0.25500000000E-02 0. -1.
   -5000001    1    1    2    0    0  0.15908611664E+03  0.90217017964E+02  0.21261971165E+03  0.37570552913E+03  0.25000000000E+03 0.  0.
    5000001    1    1    2    0    0 -0.15908611664E+03 -0.90217017964E+02  0.35139457475E+03  0.46842891670E+03  0.25000000000E+03 0.  0.
<mgrwt>
<rscale>  0 0.62805322E+03</rscale>
<asrwt>0</asrwt>
<pdfrwt beam="1">  1        2 0.10831913E+00 0.62805322E+03</pdfrwt>
<pdfrwt beam="2">  1       -2 0.21547705E-01 0.62805322E+03</pdfrwt>
<totfact> 0.76502311E+02</totfact>
</mgrwt>
</event>
<event>
 4    1  0.6705655E-006  0.1255256E+04  0.7818608E-02  0.9065820E-01
         -2   -1    0    0    0  501 -0.00000000000E+00  0.00000000000E+00  0.26157973178E+03  0.26157973179E+03  0.25500000000E-02 0. -1.
          2   -1    0    0  501    0  0.00000000000E+00 -0.00000000000E+00 -0.15059145447E+04  0.15059145447E+04  0.25500000000E-02 0.  1.
   -5000001    1    1    2    0    0 -0.23439726781E+02 -0.43006555565E+03 -0.84306834965E+02  0.50508756209E+03  0.25000000000E+03 0.  0.
    5000001    1    1    2    0    0  0.23439726781E+02  0.43006555565E+03 -0.11600279780E+04  0.12624067144E+04  0.25000000000E+03 0.  0.
<mgrwt>
<rscale>  0 0.12552557E+04</rscale>
<asrwt>0</asrwt>
<pdfrwt beam="1">  1        2 0.23167916E+00 0.12552557E+04</pdfrwt>
<pdfrwt beam="2">  1       -2 0.40243037E-01 0.12552557E+04</pdfrwt>
<totfact> 0.72345636E+01</totfact>
</mgrwt>
</event>
<event>
 4    1  0.6705655E-006  0.6263106E+03  0.7818608E-02  0.9852275E-01
          2   -1    0    0  501    0  0.00000000000E+00  0.00000000000E+00  0.45739572190E+04  0.45739572190E+04  0.25500000000E-02 0.  1.
         -2   -1    0    0    0  501 -0.00000000000E+00 -0.00000000000E+00 -0.21440130964E+02  0.21440131116E+02  0.25500000000E-02 0. -1.
   -5000001    1    1    2    0    0  0.96962668391E+02 -0.11317316625E+03  0.14282959893E+04  0.14576485714E+04  0.25000000000E+03 0.  0.
    5000001    1    1    2    0    0 -0.96962668391E+02  0.11317316625E+03  0.31242210987E+04  0.31377487787E+04  0.25000000000E+03 0.  0.
<mgrwt>
<rscale>  0 0.62631060E+03</rscale>
<asrwt>0</asrwt>
<pdfrwt beam="1">  1        2 0.70368540E+00 0.62631060E+03</pdfrwt>
<pdfrwt beam="2">  1       -2 0.32984832E-02 0.62631060E+03</pdfrwt>
<totfact> 0.47489161E+01</totfact>
</mgrwt>
</event>
<event>
 4    1  0.6705655E-006  0.2373738E+04  0.7818608E-02  0.8449402E-01
         -2   -1    0    0    0  501 -0.00000000000E+00  0.00000000000E+00  0.96986144104E+03  0.96986144104E+03  0.25500000000E-02 0. -1.
          2   -1    0    0  501    0  0.00000000000E+00 -0.00000000000E+00 -0.14524318646E+04  0.14524318647E+04  0.25500000000E-02 0.  1.
   -5000001    1    1    2    0    0 -0.16752870354E+03 -0.10755864536E+04 -0.65100225690E+03  0.12927706773E+04  0.25000000000E+03 0.  0.
    5000001    1    1    2    0    0  0.16752870354E+03  0.10755864536E+04  0.16843183329E+03  0.11295226284E+04  0.25000000000E+03 0.  0.
<mgrwt>
<rscale>  0 0.23737377E+04</rscale>
<asrwt>0</asrwt>
<pdfrwt beam="1">  1        2 0.22345106E+00 0.23737377E+04</pdfrwt>
<pdfrwt beam="2">  1       -2 0.14920945E+00 0.23737377E+04</pdfrwt>
<totfact> 0.36990554E+00</totfact>
</mgrwt>
</event>
<event>
 4    1  0.6705655E-006  0.6994688E+03  0.7818608E-02  0.9718141E-01
         -2   -1    0    0    0  501 -0.00000000000E+00  0.00000000000E+00  0.96680752356E+02  0.96680752390E+02  0.25500000000E-02 0. -1.
          2   -1    0    0  501    0  0.00000000000E+00 -0.00000000000E+00 -0.12651345870E+04  0.12651345870E+04  0.25500000000E-02 0.  1.
   -5000001    1    1    2    0    0 -0.35741600826E+02  0.14223646710E+03 -0.96527550564E+03  0.10078519119E+04  0.25000000000E+03 0.  0.
    5000001    1    1    2    0    0  0.35741600826E+02 -0.14223646710E+03 -0.20317832901E+03  0.35396342746E+03  0.25000000000E+03 0.  0.
<mgrwt>
<rscale>  0 0.69946884E+03</rscale>
<asrwt>0</asrwt>
<pdfrwt beam="1">  1        2 0.19463608E+00 0.69946884E+03</pdfrwt>
<pdfrwt beam="2">  1       -2 0.14873963E-01 0.69946884E+03</pdfrwt>
<totfact> 0.62229437E+02</totfact>
</mgrwt>
</event>
<event>
 4    1  0.6705655E-006  0.1453588E+04  0.7818608E-02  0.8915917E-01
          2   -1    0    0  501    0  0.00000000000E+00  0.00000000000E+00  0.62871717009E+03  0.62871717010E+03  0.25500000000E-02 0.  1.
         -2   -1    0    0    0  501 -0.00000000000E+00 -0.00000000000E+00 -0.84017040684E+03  0.84017040685E+03  0.25500000000E-02 0. -1.
   -5000001    1    1    2    0    0  0.55681131433E+03 -0.22570321665E+02 -0.50380345390E+03  0.79174881077E+03  0.25000000000E+03 0.  0.
    5000001    1    1    2    0    0 -0.55681131433E+03  0.22570321665E+02  0.29235021715E+03  0.67713876617E+03  0.25000000000E+03 0.  0.
<mgrwt>
<rscale>  0 0.14535881E+04</rscale>
<asrwt>0</asrwt>
<pdfrwt beam="1">  1        2 0.96725718E-01 0.14535881E+04</pdfrwt>
<pdfrwt beam="2">  1       -2 0.12925699E+00 0.14535881E+04</pdfrwt>
<totfact> 0.20006933E+01</totfact>
</mgrwt>
</event>
<event>
 4    1  0.6705655E-006  0.6886762E+03  0.7818608E-02  0.9736796E-01
          2   -1    0    0  501    0  0.00000000000E+00  0.00000000000E+00  0.15482213481E+03  0.15482213483E+03  0.25500000000E-02 0.  1.
         -2   -1    0    0    0  501 -0.00000000000E+00 -0.00000000000E+00 -0.76583826417E+03  0.76583826417E+03  0.25500000000E-02 0. -1.
   -5000001    1    1    2    0    0  0.20285627274E+03 -0.55843562362E+02 -0.16029121019E+03  0.36395390218E+03  0.25000000000E+03 0.  0.
    5000001    1    1    2    0    0 -0.20285627274E+03  0.55843562362E+02 -0.45072491917E+03  0.55670649683E+03  0.25000000000E+03 0.  0.
<mgrwt>
<rscale>  0 0.68867616E+03</rscale>
<asrwt>0</asrwt>
<pdfrwt beam="1">  1        2 0.23818790E-01 0.68867616E+03</pdfrwt>
<pdfrwt beam="2">  1       -2 0.11782127E+00 0.68867616E+03</pdfrwt>
<totfact> 0.13021593E+02</totfact>
</mgrwt>
</event>
<event>
 4    1  0.6705655E-006  0.9033746E+03  0.7818608E-02  0.9421373E-01
          2   -1    0    0  501    0  0.00000000000E+00  0.00000000000E+00  0.32206546928E+03  0.32206546929E+03  0.25500000000E-02 0. -1.
         -2   -1    0    0    0  501 -0.00000000000E+00 -0.00000000000E+00 -0.63347811629E+03  0.63347811630E+03  0.25500000000E-02 0.  1.
   -5000001    1    1    2    0    0  0.15000560557E+03 -0.18161568963E+03  0.15455055928E+03  0.37665875245E+03  0.25000000000E+03 0.  0.
    5000001    1    1    2    0    0 -0.15000560557E+03  0.18161568963E+03 -0.46596320629E+03  0.57888483314E+03  0.25000000000E+03 0.  0.
<mgrwt>
<rscale>  0 0.90337462E+03</rscale>
<asrwt>0</asrwt>
<pdfrwt beam="1">  1        2 0.49548534E-01 0.90337462E+03</pdfrwt>
<pdfrwt beam="2">  1       -2 0.97458172E-01 0.90337462E+03</pdfrwt>
<totfact> 0.89325067E+01</totfact>
</mgrwt>
</event>
<event>
 4    1  0.6705655E-006  0.7403233E+03  0.7818608E-02  0.9650655E-01
          2   -1    0    0  501    0  0.00000000000E+00  0.00000000000E+00  0.35887482377E+03  0.35887482378E+03  0.25500000000E-02 0.  1.
         -2   -1    0    0    0  501 -0.00000000000E+00 -0.00000000000E+00 -0.38180345242E+03  0.38180345243E+03  0.25500000000E-02 0. -1.
   -5000001    1    1    2    0    0 -0.48647447521E+02 -0.19933918411E+03  0.16866912756E+03  0.36476288060E+03  0.25000000000E+03 0.  0.
    5000001    1    1    2    0    0  0.48647447521E+02  0.19933918411E+03 -0.19159775621E+03  0.37591539561E+03  0.25000000000E+03 0.  0.
<mgrwt>
<rscale>  0 0.74032330E+03</rscale>
<asrwt>0</asrwt>
<pdfrwt beam="1">  1        2 0.55211511E-01 0.74032330E+03</pdfrwt>
<pdfrwt beam="2">  1       -2 0.58738993E-01 0.74032330E+03</pdfrwt>
<totfact> 0.24559652E+02</totfact>
</mgrwt>
</event>
<event>
 4    1  0.6705655E-006  0.7329758E+03  0.7818608E-02  0.9662444E-01
         -2   -1    0    0    0  501 -0.00000000000E+00  0.00000000000E+00  0.14337238811E+03  0.14337238814E+03  0.25500000000E-02 0. -1.
          2   -1    0    0  501    0  0.00000000000E+00 -0.00000000000E+00 -0.93681485610E+03  0.93681485610E+03  0.25500000000E-02 0.  1.
   -5000001    1    1    2    0    0 -0.29787142621E+02  0.22863627118E+03 -0.59798567026E+03  0.68793072340E+03  0.25000000000E+03 0.  0.
    5000001    1    1    2    0    0  0.29787142621E+02 -0.22863627118E+03 -0.19545679773E+03  0.39225652084E+03  0.25000000000E+03 0.  0.
<mgrwt>
<rscale>  0 0.73297581E+03</rscale>
<asrwt>0</asrwt>
<pdfrwt beam="1">  1        2 0.14412536E+00 0.73297581E+03</pdfrwt>
<pdfrwt beam="2">  1       -2 0.22057291E-01 0.73297581E+03</pdfrwt>
<totfact> 0.50016334E+02</totfact>
</mgrwt>
</event>
<event>
 4    1  0.6705655E-006  0.6801392E+03  0.7818608E-02  0.9751813E-01
          2   -1    0    0  501    0  0.00000000000E+00  0.00000000000E+00  0.26150882878E+04  0.26150882878E+04  0.25500000000E-02 0.  1.
         -2   -1    0    0    0  501 -0.00000000000E+00 -0.00000000000E+00 -0.44223104724E+02  0.44223104798E+02  0.25500000000E-02 0. -1.
   -5000001    1    1    2    0    0 -0.15094594231E+03  0.81030958602E+02  0.18885878671E+04  0.19127505916E+04  0.25000000000E+03 0.  0.
    5000001    1    1    2    0    0  0.15094594231E+03 -0.81030958602E+02  0.68227731595E+03  0.74656080101E+03  0.25000000000E+03 0.  0.
<mgrwt>
<rscale>  0 0.68013917E+03</rscale>
<asrwt>0</asrwt>
<pdfrwt beam="1">  1        2 0.40232138E+00 0.68013917E+03</pdfrwt>
<pdfrwt beam="2">  1       -2 0.68035529E-02 0.68013917E+03</pdfrwt>
<totfact> 0.39811243E+02</totfact>
</mgrwt>
</event>
<event>
 4    1  0.6705655E-006  0.7488297E+03  0.7818608E-02  0.9637188E-01
          2   -1    0    0  501    0  0.00000000000E+00  0.00000000000E+00  0.38374764690E+03  0.38374764690E+03  0.25500000000E-02 0.  1.
         -2   -1    0    0    0  501 -0.00000000000E+00 -0.00000000000E+00 -0.36530903156E+03  0.36530903157E+03  0.25500000000E-02 0. -1.
   -5000001    1    1    2    0    0 -0.27507207832E+03  0.26748026581E+02  0.45374087739E+02  0.37541831739E+03  0.25000000000E+03 0.  0.
    5000001    1    1    2    0    0  0.27507207832E+03 -0.26748026581E+02 -0.26935472403E+02  0.37363836108E+03  0.25000000000E+03 0.  0.
<mgrwt>
<rscale>  0 0.74882970E+03</rscale>
<asrwt>0</asrwt>
<pdfrwt beam="1">  1        2 0.59038099E-01 0.74882970E+03</pdfrwt>
<pdfrwt beam="2">  1       -2 0.56201390E-01 0.74882970E+03</pdfrwt>
<totfact> 0.24982963E+02</totfact>
</mgrwt>
</event>
<event>
 4    1  0.6705655E-006  0.1393757E+04  0.7818608E-02  0.8958350E-01
         -2   -1    0    0    0  501 -0.00000000000E+00  0.00000000000E+00  0.34349183747E+03  0.34349183748E+03  0.25500000000E-02 0. -1.
          2   -1    0    0  501    0  0.00000000000E+00 -0.00000000000E+00 -0.14138309500E+04  0.14138309500E+04  0.25500000000E-02 0.  1.
   -5000001    1    1    2    0    0 -0.54128896264E+03  0.30752081492E+03 -0.29735041776E+03  0.73381200837E+03  0.25000000000E+03 0.  0.
    5000001    1    1    2    0    0  0.54128896264E+03 -0.30752081492E+03 -0.77298869474E+03  0.10235107791E+04  0.25000000000E+03 0.  0.
<mgrwt>
<rscale>  0 0.13937566E+04</rscale>
<asrwt>0</asrwt>
<pdfrwt beam="1">  1        2 0.21751245E+00 0.13937566E+04</pdfrwt>
<pdfrwt beam="2">  1       -2 0.52844899E-01 0.13937566E+04</pdfrwt>
<totfact> 0.46723979E+01</totfact>
</mgrwt>
</event>
<event>
 4    1  0.6705655E-006  0.5488428E+03  0.7818608E-02  0.1001762E+00
          2   -1    0    0  501    0  0.00000000000E+00  0.00000000000E+00  0.48541798205E+03  0.48541798206E+03  0.25500000000E-02 0.  1.
         -2   -1    0    0    0  501 -0.00000000000E+00 -0.00000000000E+00 -0.15513868576E+03  0.15513868578E+03  0.25500000000E-02 0. -1.
   -5000001    1    1    2    0    0 -0.35850099824E+02 -0.10702221993E+03  0.17477250479E+03  0.32524515930E+03  0.25000000000E+03 0.  0.
    5000001    1    1    2    0    0  0.35850099824E+02  0.10702221993E+03  0.15550679150E+03  0.31531150854E+03  0.25000000000E+03 0.  0.
<mgrwt>
<rscale>  0 0.54884281E+03</rscale>
<asrwt>0</asrwt>
<pdfrwt beam="1">  1        2 0.74679689E-01 0.54884281E+03</pdfrwt>
<pdfrwt beam="2">  1       -2 0.23867490E-01 0.54884281E+03</pdfrwt>
<totfact> 0.99612117E+02</totfact>
</mgrwt>
</event>
<event>
 4    1  0.6705655E-006  0.7369604E+03  0.7818608E-02  0.9656032E-01
          2   -1    0    0  501    0  0.00000000000E+00  0.00000000000E+00  0.34825095387E+03  0.34825095388E+03  0.25500000000E-02 0.  1.
         -2   -1    0    0    0  501 -0.00000000000E+00 -0.00000000000E+00 -0.38988454018E+03  0.38988454018E+03  0.25500000000E-02 0. -1.
   -5000001    1    1    2    0    0  0.60557793060E+02 -0.23862158130E+03  0.91924480946E+02  0.36270872000E+03  0.25000000000E+03 0.  0.
    5000001    1    1    2    0    0 -0.60557793060E+02  0.23862158130E+03 -0.13355806725E+03  0.37542677407E+03  0.25000000000E+03 0.  0.
<mgrwt>
<rscale>  0 0.73696041E+03</rscale>
<asrwt>0</asrwt>
<pdfrwt beam="1">  1        2 0.53577070E-01 0.73696041E+03</pdfrwt>
<pdfrwt beam="2">  1       -2 0.59982237E-01 0.73696041E+03</pdfrwt>
<totfact> 0.24304705E+02</totfact>
</mgrwt>
</event>
<event>
 4    1  0.6705655E-006  0.1354622E+04  0.7818608E-02  0.8987336E-01
         -2   -1    0    0    0  501 -0.00000000000E+00  0.00000000000E+00  0.19278679482E+03  0.19278679483E+03  0.25500000000E-02 0. -1.
          2   -1    0    0  501    0  0.00000000000E+00 -0.00000000000E+00 -0.23795739939E+04  0.23795739939E+04  0.25500000000E-02 0.  1.
   -5000001    1    1    2    0    0  0.54306696099E+03  0.31536838457E+03 -0.10112433863E+04  0.12163437542E+04  0.25000000000E+03 0.  0.
    5000001    1    1    2    0    0 -0.54306696099E+03 -0.31536838457E+03 -0.11755438128E+04  0.13560170345E+04  0.25000000000E+03 0.  0.
<mgrwt>
<rscale>  0 0.13546224E+04</rscale>
<asrwt>0</asrwt>
<pdfrwt beam="1">  1        2 0.36608828E+00 0.13546224E+04</pdfrwt>
<pdfrwt beam="2">  1       -2 0.29659509E-01 0.13546224E+04</pdfrwt>
<totfact> 0.41903632E+01</totfact>
</mgrwt>
</event>
<event>
 4    1  0.6705655E-006  0.6343016E+03  0.7818608E-02  0.9836690E-01
         -2   -1    0    0    0  501 -0.00000000000E+00  0.00000000000E+00  0.12019163353E+03  0.12019163356E+03  0.25500000000E-02 0. -1.
          2   -1    0    0  501    0  0.00000000000E+00 -0.00000000000E+00 -0.83686885070E+03  0.83686885070E+03  0.25500000000E-02 0.  1.
   -5000001    1    1    2    0    0 -0.65099470581E+02  0.13316704675E+03 -0.16680945771E+03  0.33510714494E+03  0.25000000000E+03 0.  0.
    5000001    1    1    2    0    0  0.65099470581E+02 -0.13316704675E+03 -0.54986775945E+03  0.62195333932E+03  0.25000000000E+03 0.  0.
<mgrwt>
<rscale>  0 0.63430161E+03</rscale>
<asrwt>0</asrwt>
<pdfrwt beam="1">  1        2 0.12874905E+00 0.63430161E+03</pdfrwt>
<pdfrwt beam="2">  1       -2 0.18491021E-01 0.63430161E+03</pdfrwt>
<totfact> 0.79823309E+02</totfact>
</mgrwt>
</event>
<event>
 4    1  0.6705655E-006  0.9646763E+03  0.7818608E-02  0.9348159E-01
         -2   -1    0    0    0  501 -0.00000000000E+00  0.00000000000E+00  0.54706417863E+03  0.54706417864E+03  0.25500000000E-02 0. -1.
          2   -1    0    0  501    0  0.00000000000E+00 -0.00000000000E+00 -0.42527017351E+03  0.42527017351E+03  0.25500000000E-02 0.  1.
   -5000001    1    1    2    0    0  0.38057075278E+03  0.10670712473E+03 -0.58063525913E+02  0.47126625318E+03  0.25000000000E+03 0.  0.
    5000001    1    1    2    0    0 -0.38057075278E+03 -0.10670712473E+03  0.17985753104E+03  0.50106809898E+03  0.25000000000E+03 0.  0.
<mgrwt>
<rscale>  0 0.96467627E+03</rscale>
<asrwt>0</asrwt>
<pdfrwt beam="1">  1        2 0.65426181E-01 0.96467627E+03</pdfrwt>
<pdfrwt beam="2">  1       -2 0.84163719E-01 0.96467627E+03</pdfrwt>
<totfact> 0.91498009E+01</totfact>
</mgrwt>
</event>
<event>
 4    1  0.6705655E-006  0.6621325E+03  0.7818608E-02  0.9784276E-01
         -2   -1    0    0    0  501 -0.00000000000E+00  0.00000000000E+00  0.28041953705E+03  0.28041953706E+03  0.25500000000E-02 0.  1.
          2   -1    0    0  501    0  0.00000000000E+00 -0.00000000000E+00 -0.39086033667E+03  0.39086033668E+03  0.25500000000E-02 0. -1.
   -5000001    1    1    2    0    0 -0.13636568392E+03 -0.24271268002E+02 -0.22462211622E+03  0.36351037028E+03  0.25000000000E+03 0.  0.
    5000001    1    1    2    0    0  0.13636568392E+03  0.24271268002E+02  0.11418131660E+03  0.30776950346E+03  0.25000000000E+03 0.  0.
<mgrwt>
<rscale>  0 0.66213254E+03</rscale>
<asrwt>0</asrwt>
<pdfrwt beam="1">  1        2 0.60132360E-01 0.66213254E+03</pdfrwt>
<pdfrwt beam="2">  1       -2 0.43141467E-01 0.66213254E+03</pdfrwt>
<totfact> 0.41939381E+02</totfact>
</mgrwt>
</event>
<event>
 4    1  0.6705655E-006  0.1044575E+04  0.7818608E-02  0.9260963E-01
          2   -1    0    0  501    0  0.00000000000E+00  0.00000000000E+00  0.18994180159E+04  0.18994180159E+04  0.25500000000E-02 0.  1.
         -2   -1    0    0    0  501 -0.00000000000E+00 -0.00000000000E+00 -0.14361453769E+03  0.14361453771E+03  0.25500000000E-02 0. -1.
   -5000001    1    1    2    0    0 -0.30619915671E+03 -0.30264886362E+03  0.56908910980E+03  0.75611948335E+03  0.25000000000E+03 0.  0.
    5000001    1    1    2    0    0  0.30619915671E+03  0.30264886362E+03  0.11867143684E+04  0.12869130703E+04  0.25000000000E+03 0.  0.
<mgrwt>
<rscale>  0 0.10445746E+04</rscale>
<asrwt>0</asrwt>
<pdfrwt beam="1">  1        2 0.29221816E+00 0.10445746E+04</pdfrwt>
<pdfrwt beam="2">  1       -2 0.22094544E-01 0.10445746E+04</pdfrwt>
<totfact> 0.13586253E+02</totfact>
</mgrwt>
</event>
<event>
 4    1  0.6705655E-006  0.8714144E+03  0.7818608E-02  0.9462038E-01
         -2   -1    0    0    0  501 -0.00000000000E+00  0.00000000000E+00  0.34192443398E+03  0.34192443399E+03  0.25500000000E-02 0. -1.
          2   -1    0    0  501    0  0.00000000000E+00 -0.00000000000E+00 -0.55521263035E+03  0.55521263035E+03  0.25500000000E-02 0.  1.
   -5000001    1    1    2    0    0  0.28928773801E+03 -0.74444596301E+02 -0.30762803718E+03  0.49635108798E+03  0.25000000000E+03 0.  0.
    5000001    1    1    2    0    0 -0.28928773801E+03  0.74444596301E+02  0.94339840822E+02  0.40078597636E+03  0.25000000000E+03 0.  0.
<mgrwt>
<rscale>  0 0.87141440E+03</rscale>
<asrwt>0</asrwt>
<pdfrwt beam="1">  1        2 0.85417328E-01 0.87141440E+03</pdfrwt>
<pdfrwt beam="2">  1       -2 0.52603759E-01 0.87141440E+03</pdfrwt>
<totfact> 0.18649269E+02</totfact>
</mgrwt>
</event>
<event>
 4    1  0.6705655E-006  0.7470862E+03  0.7818608E-02  0.9639933E-01
          2   -1    0    0  501    0  0.00000000000E+00  0.00000000000E+00  0.34088580001E+03  0.34088580001E+03  0.25500000000E-02 0.  1.
         -2   -1    0    0    0  501 -0.00000000000E+00 -0.00000000000E+00 -0.40932902787E+03  0.40932902788E+03  0.25500000000E-02 0. -1.
   -5000001    1    1    2    0    0 -0.25958847687E+03 -0.97787930576E+02 -0.24920187054E+02  0.37425883077E+03  0.25000000000E+03 0.  0.
    5000001    1    1    2    0    0  0.25958847687E+03  0.97787930576E+02 -0.43523040812E+02  0.37595599712E+03  0.25000000000E+03 0.  0.
<mgrwt>
<rscale>  0 0.74708621E+03</rscale>
<asrwt>0</asrwt>
<pdfrwt beam="1">  1        2 0.52443969E-01 0.74708621E+03</pdfrwt>
<pdfrwt beam="2">  1       -2 0.62973697E-01 0.74708621E+03</pdfrwt>
<totfact> 0.22441986E+02</totfact>
</mgrwt>
</event>
<event>
 4    1  0.6705655E-006  0.5789834E+03  0.7818608E-02  0.9949994E-01
         -2   -1    0    0    0  501 -0.00000000000E+00  0.00000000000E+00  0.99262640015E+02  0.99262640048E+02  0.25500000000E-02 0. -1.
          2   -1    0    0  501    0  0.00000000000E+00 -0.00000000000E+00 -0.84427968745E+03  0.84427968746E+03  0.25500000000E-02 0.  1.
   -5000001    1    1    2    0    0  0.10045719545E+03 -0.10589514892E+03 -0.37251625129E+03  0.47177726541E+03  0.25000000000E+03 0.  0.
    5000001    1    1    2    0    0 -0.10045719545E+03  0.10589514892E+03 -0.37250079615E+03  0.47176506210E+03  0.25000000000E+03 0.  0.
<mgrwt>
<rscale>  0 0.57898335E+03</rscale>
<asrwt>0</asrwt>
<pdfrwt beam="1">  1        2 0.12988918E+00 0.57898335E+03</pdfrwt>
<pdfrwt beam="2">  1       -2 0.15271176E-01 0.57898335E+03</pdfrwt>
<totfact> 0.10947734E+03</totfact>
</mgrwt>
</event>
<event>
 4    1  0.6705655E-006  0.1659771E+04  0.7818608E-02  0.8784647E-01
         -2   -1    0    0    0  501 -0.00000000000E+00  0.00000000000E+00  0.33383184013E+03  0.33383184014E+03  0.25500000000E-02 0. -1.
          2   -1    0    0  501    0  0.00000000000E+00 -0.00000000000E+00 -0.20630433634E+04  0.20630433634E+04  0.25500000000E-02 0.  1.
   -5000001    1    1    2    0    0 -0.50030817414E+03 -0.57824630206E+03 -0.11589065635E+04  0.14107591850E+04  0.25000000000E+03 0.  0.
    5000001    1    1    2    0    0  0.50030817414E+03  0.57824630206E+03 -0.57030495970E+03  0.98611601854E+03  0.25000000000E+03 0.  0.
<mgrwt>
<rscale>  0 0.16597705E+04</rscale>
<asrwt>0</asrwt>
<pdfrwt beam="1">  1        2 0.31739128E+00 0.16597705E+04</pdfrwt>
<pdfrwt beam="2">  1       -2 0.51358746E-01 0.16597705E+04</pdfrwt>
<totfact> 0.21074324E+01</totfact>
</mgrwt>
</event>
<event>
 4    1  0.6705655E-006  0.8590805E+03  0.7818608E-02  0.9478230E-01
          2   -1    0    0  501    0  0.00000000000E+00  0.00000000000E+00  0.45695569697E+03  0.45695569698E+03  0.25500000000E-02 0.  1.
         -2   -1    0    0    0  501 -0.00000000000E+00 -0.00000000000E+00 -0.40376962241E+03  0.40376962242E+03  0.25500000000E-02 0. -1.
   -5000001    1    1    2    0    0  0.44055361859E+02 -0.12407707765E+03  0.35073809571E+03  0.45039228222E+03  0.25000000000E+03 0.  0.
    5000001    1    1    2    0    0 -0.44055361859E+02  0.12407707765E+03 -0.29755202115E+03  0.41033303718E+03  0.25000000000E+03 0.  0.
<mgrwt>
<rscale>  0 0.85908051E+03</rscale>
<asrwt>0</asrwt>
<pdfrwt beam="1">  1        2 0.70300876E-01 0.85908051E+03</pdfrwt>
<pdfrwt beam="2">  1       -2 0.62118403E-01 0.85908051E+03</pdfrwt>
<totfact> 0.16533470E+02</totfact>
</mgrwt>
</event>
<event>
 4    1  0.6705655E-006  0.1097613E+04  0.7818608E-02  0.9207522E-01
          2   -1    0    0  501    0  0.00000000000E+00  0.00000000000E+00  0.16313438404E+04  0.16313438404E+04  0.25500000000E-02 0.  1.
         -2   -1    0    0    0  501 -0.00000000000E+00 -0.00000000000E+00 -0.18462591999E+03  0.18462592001E+03  0.25500000000E-02 0. -1.
   -5000001    1    1    2    0    0  0.43662550862E+03  0.19361356196E+03  0.89337812787E+03  0.10434330479E+04  0.25000000000E+03 0.  0.
    5000001    1    1    2    0    0 -0.43662550862E+03 -0.19361356196E+03  0.55333979257E+03  0.77253671252E+03  0.25000000000E+03 0.  0.
<mgrwt>
<rscale>  0 0.10976126E+04</rscale>
<asrwt>0</asrwt>
<pdfrwt beam="1">  1        2 0.25097597E+00 0.10976126E+04</pdfrwt>
<pdfrwt beam="2">  1       -2 0.28403988E-01 0.10976126E+04</pdfrwt>
<totfact> 0.12069715E+02</totfact>
</mgrwt>
</event>
<event>
 4    1  0.6705655E-006  0.9481397E+03  0.7818608E-02  0.9367328E-01
          2   -1    0    0  501    0  0.00000000000E+00  0.00000000000E+00  0.82678977836E+03  0.82678977837E+03  0.25500000000E-02 0.  1.
         -2   -1    0    0    0  501 -0.00000000000E+00 -0.00000000000E+00 -0.27182510182E+03  0.27182510183E+03  0.25500000000E-02 0. -1.
   -5000001    1    1    2    0    0 -0.36964242270E+02  0.34852386956E+03  0.50749920833E+03  0.66550033006E+03  0.25000000000E+03 0.  0.
    5000001    1    1    2    0    0  0.36964242270E+02 -0.34852386956E+03  0.47465468217E+02  0.43311455013E+03  0.25000000000E+03 0.  0.
<mgrwt>
<rscale>  0 0.94813969E+03</rscale>
<asrwt>0</asrwt>
<pdfrwt beam="1">  1        2 0.12719843E+00 0.94813969E+03</pdfrwt>
<pdfrwt beam="2">  1       -2 0.41819246E-01 0.94813969E+03</pdfrwt>
<totfact> 0.17862650E+02</totfact>
</mgrwt>
</event>
<event>
 4    1  0.6705655E-006  0.7268628E+03  0.7818608E-02  0.9672365E-01
         -2   -1    0    0    0  501 -0.00000000000E+00  0.00000000000E+00  0.41695107431E+03  0.41695107432E+03  0.25500000000E-02 0. -1.
          2   -1    0    0  501    0  0.00000000000E+00 -0.00000000000E+00 -0.31678144920E+03  0.31678144921E+03  0.25500000000E-02 0.  1.
   -5000001    1    1    2    0    0  0.53819130205E+02  0.24517823180E+03 -0.31758601367E+02  0.35569294748E+03  0.25000000000E+03 0.  0.
    5000001    1    1    2    0    0 -0.53819130205E+02 -0.24517823180E+03  0.13192822647E+03  0.37803957606E+03  0.25000000000E+03 0.  0.
<mgrwt>
<rscale>  0 0.72686275E+03</rscale>
<asrwt>0</asrwt>
<pdfrwt beam="1">  1        2 0.48735608E-01 0.72686275E+03</pdfrwt>
<pdfrwt beam="2">  1       -2 0.64146319E-01 0.72686275E+03</pdfrwt>
<totfact> 0.23425212E+02</totfact>
</mgrwt>
</event>
<event>
 4    1  0.6705655E-006  0.5594271E+03  0.7818608E-02  0.9993352E-01
          2   -1    0    0  501    0  0.00000000000E+00  0.00000000000E+00  0.52706085928E+03  0.52706085929E+03  0.25500000000E-02 0.  1.
         -2   -1    0    0    0  501 -0.00000000000E+00 -0.00000000000E+00 -0.14844520814E+03  0.14844520816E+03  0.25500000000E-02 0. -1.
   -5000001    1    1    2    0    0  0.12274782359E+03 -0.15467779591E+02  0.16417047517E+03  0.32366375348E+03  0.25000000000E+03 0.  0.
    5000001    1    1    2    0    0 -0.12274782359E+03  0.15467779591E+02  0.21444517597E+03  0.35184231397E+03  0.25000000000E+03 0.  0.
<mgrwt>
<rscale>  0 0.55942706E+03</rscale>
<asrwt>0</asrwt>
<pdfrwt beam="1">  1        2 0.81086286E-01 0.55942706E+03</pdfrwt>
<pdfrwt beam="2">  1       -2 0.22837724E-01 0.55942706E+03</pdfrwt>
<totfact> 0.97971811E+02</totfact>
</mgrwt>
</event>
<event>
 4    1  0.6705655E-006  0.1123351E+04  0.7818608E-02  0.9182727E-01
          2   -1    0    0  501    0  0.00000000000E+00  0.00000000000E+00  0.84919292243E+03  0.84919292243E+03  0.25500000000E-02 0.  1.
         -2   -1    0    0    0  501 -0.00000000000E+00 -0.00000000000E+00 -0.37150491819E+03  0.37150491820E+03  0.25500000000E-02 0. -1.
   -5000001    1    1    2    0    0  0.34658961744E+03  0.34422464289E+03  0.36908153152E+03  0.66131395312E+03  0.25000000000E+03 0.  0.
    5000001    1    1    2    0    0 -0.34658961744E+03 -0.34422464289E+03  0.10860647272E+03  0.55938388751E+03  0.25000000000E+03 0.  0.
<mgrwt>
<rscale>  0 0.11233510E+04</rscale>
<asrwt>0</asrwt>
<pdfrwt beam="1">  1        2 0.13064506E+00 0.11233510E+04</pdfrwt>
<pdfrwt beam="2">  1       -2 0.57154603E-01 0.11233510E+04</pdfrwt>
<totfact> 0.90422005E+01</totfact>
</mgrwt>
</event>
<event>
 4    1  0.6705655E-006  0.1270254E+04  0.7818608E-02  0.9053493E-01
         -2   -1    0    0    0  501 -0.00000000000E+00  0.00000000000E+00  0.11469851939E+04  0.11469851939E+04  0.25500000000E-02 0. -1.
          2   -1    0    0  501    0  0.00000000000E+00 -0.00000000000E+00 -0.35169258840E+03  0.35169258841E+03  0.25500000000E-02 0.  1.
   -5000001    1    1    2    0    0  0.26663614098E+03  0.51740860808E+03  0.45145064184E+03  0.77789085443E+03  0.25000000000E+03 0.  0.
    5000001    1    1    2    0    0 -0.26663614098E+03 -0.51740860808E+03  0.34384196364E+03  0.72078692785E+03  0.25000000000E+03 0.  0.
<mgrwt>
<rscale>  0 0.12702538E+04</rscale>
<asrwt>0</asrwt>
<pdfrwt beam="1">  1        2 0.54106552E-01 0.12702538E+04</pdfrwt>
<pdfrwt beam="2">  1       -2 0.17645926E+00 0.12702538E+04</pdfrwt>
<totfact> 0.17302862E+01</totfact>
</mgrwt>
</event>
<event>
 4    1  0.6705655E-006  0.9078656E+03  0.7818608E-02  0.9415802E-01
         -2   -1    0    0    0  501 -0.00000000000E+00  0.00000000000E+00  0.10737990020E+03  0.10737990023E+03  0.25500000000E-02 0. -1.
          2   -1    0    0  501    0  0.00000000000E+00 -0.00000000000E+00 -0.19189343587E+04  0.19189343587E+04  0.25500000000E-02 0.  1.
   -5000001    1    1    2    0    0  0.32147789562E+03 -0.14947121684E+03 -0.12041027303E+04  0.12798644722E+04  0.25000000000E+03 0.  0.
    5000001    1    1    2    0    0 -0.32147789562E+03  0.14947121684E+03 -0.60745172818E+03  0.74644978672E+03  0.25000000000E+03 0.  0.
<mgrwt>
<rscale>  0 0.90786558E+03</rscale>
<asrwt>0</asrwt>
<pdfrwt beam="1">  1        2 0.29522065E+00 0.90786558E+03</pdfrwt>
<pdfrwt beam="2">  1       -2 0.16519986E-01 0.90786558E+03</pdfrwt>
<totfact> 0.22243991E+02</totfact>
</mgrwt>
</event>
<event>
 4    1  0.6705655E-006  0.5905117E+03  0.7818608E-02  0.9925289E-01
         -2   -1    0    0    0  501 -0.00000000000E+00  0.00000000000E+00  0.76286641115E+02  0.76286641157E+02  0.25500000000E-02 0. -1.
          2   -1    0    0  501    0  0.00000000000E+00 -0.00000000000E+00 -0.11427429456E+04  0.11427429456E+04  0.25500000000E-02 0.  1.
   -5000001    1    1    2    0    0 -0.50648661172E+02 -0.13707957184E+03 -0.41428214370E+03  0.50545602230E+03  0.25000000000E+03 0.  0.
    5000001    1    1    2    0    0  0.50648661172E+02  0.13707957184E+03 -0.65217416078E+03  0.71357356445E+03  0.25000000000E+03 0.  0.
<mgrwt>
<rscale>  0 0.59051171E+03</rscale>
<asrwt>0</asrwt>
<pdfrwt beam="1">  1        2 0.17580659E+00 0.59051171E+03</pdfrwt>
<pdfrwt beam="2">  1       -2 0.11736407E-01 0.59051171E+03</pdfrwt>
<totfact> 0.10943753E+03</totfact>
</mgrwt>
</event>
<event>
 4    1  0.6705655E-006  0.7260525E+03  0.7818608E-02  0.9673688E-01
         -2   -1    0    0    0  501 -0.00000000000E+00  0.00000000000E+00  0.54065161248E+02  0.54065161308E+02  0.25500000000E-02 0. -1.
          2   -1    0    0  501    0  0.00000000000E+00 -0.00000000000E+00 -0.24375778635E+04  0.24375778635E+04  0.25500000000E-02 0.  1.
   -5000001    1    1    2    0    0  0.49746161679E+02  0.20423226530E+03 -0.64803464260E+03  0.72569580184E+03  0.25000000000E+03 0.  0.
    5000001    1    1    2    0    0 -0.49746161679E+02 -0.20423226530E+03 -0.17354780596E+04  0.17659472230E+04  0.25000000000E+03 0.  0.
<mgrwt>
<rscale>  0 0.72605245E+03</rscale>
<asrwt>0</asrwt>
<pdfrwt beam="1">  1        2 0.37501189E+00 0.72605245E+03</pdfrwt>
<pdfrwt beam="2">  1       -2 0.83177190E-02 0.72605245E+03</pdfrwt>
<totfact> 0.36301414E+02</totfact>
</mgrwt>
</event>
<event>
 4    1  0.6705655E-006  0.7014627E+03  0.7818608E-02  0.9714734E-01
         -2   -1    0    0    0  501 -0.00000000000E+00  0.00000000000E+00  0.12835075532E+03  0.12835075535E+03  0.25500000000E-02 0. -1.
          2   -1    0    0  501    0  0.00000000000E+00 -0.00000000000E+00 -0.95840868809E+03  0.95840868809E+03  0.25500000000E-02 0.  1.
   -5000001    1    1    2    0    0  0.21070251531E+03 -0.11356082502E+03 -0.50295456056E+03  0.61053656805E+03  0.25000000000E+03 0.  0.
    5000001    1    1    2    0    0 -0.21070251531E+03  0.11356082502E+03 -0.32710337221E+03  0.47622287539E+03  0.25000000000E+03 0.  0.
<mgrwt>
<rscale>  0 0.70146270E+03</rscale>
<asrwt>0</asrwt>
<pdfrwt beam="1">  1        2 0.14744749E+00 0.70146270E+03</pdfrwt>
<pdfrwt beam="2">  1       -2 0.19746271E-01 0.70146270E+03</pdfrwt>
<totfact> 0.58887937E+02</totfact>
</mgrwt>
</event>
<event>
 4    1  0.6705655E-006  0.2170795E+04  0.7818608E-02  0.8530683E-01
         -2   -1    0    0    0  501 -0.00000000000E+00  0.00000000000E+00  0.13414782099E+04  0.13414782099E+04  0.25500000000E-02 0. -1.
          2   -1    0    0  501    0  0.00000000000E+00 -0.00000000000E+00 -0.87820147829E+03  0.87820147829E+03  0.25500000000E-02 0.  1.
   -5000001    1    1    2    0    0 -0.19801599715E+03  0.70779249868E+03 -0.54399987450E+03  0.94795380677E+03  0.25000000000E+03 0.  0.
    5000001    1    1    2    0    0  0.19801599715E+03 -0.70779249868E+03  0.10072766062E+04  0.12717258815E+04  0.25000000000E+03 0.  0.
<mgrwt>
<rscale>  0 0.21707954E+04</rscale>
<asrwt>0</asrwt>
<pdfrwt beam="1">  1        2 0.13510792E+00 0.21707954E+04</pdfrwt>
<pdfrwt beam="2">  1       -2 0.20638126E+00 0.21707954E+04</pdfrwt>
<totfact> 0.33582193E+00</totfact>
</mgrwt>
</event>
<event>
 4    1  0.6705655E-006  0.1014470E+04  0.7818608E-02  0.9292815E-01
          2   -1    0    0  501    0  0.00000000000E+00  0.00000000000E+00  0.14552331798E+04  0.14552331798E+04  0.25500000000E-02 0.  1.
         -2   -1    0    0    0  501 -0.00000000000E+00 -0.00000000000E+00 -0.17680154617E+03  0.17680154619E+03  0.25500000000E-02 0. -1.
   -5000001    1    1    2    0    0 -0.18027395456E+03  0.39246138505E+03  0.78545195726E+03  0.93056940343E+03  0.25000000000E+03 0.  0.
    5000001    1    1    2    0    0  0.18027395456E+03 -0.39246138505E+03  0.49297967639E+03  0.70146532258E+03  0.25000000000E+03 0.  0.
<mgrwt>
<rscale>  0 0.10144703E+04</rscale>
<asrwt>0</asrwt>
<pdfrwt beam="1">  1        2 0.22388203E+00 0.10144703E+04</pdfrwt>
<pdfrwt beam="2">  1       -2 0.27200237E-01 0.10144703E+04</pdfrwt>
<totfact> 0.16492664E+02</totfact>
</mgrwt>
</event>
<event>
 4    1  0.6705655E-006  0.6738814E+03  0.7818608E-02  0.9762971E-01
          2   -1    0    0  501    0  0.00000000000E+00  0.00000000000E+00  0.10772667673E+04  0.10772667673E+04  0.25500000000E-02 0. -1.
         -2   -1    0    0    0  501 -0.00000000000E+00 -0.00000000000E+00 -0.10538617291E+03  0.10538617294E+03  0.25500000000E-02 0.  1.
   -5000001    1    1    2    0    0 -0.59848037588E+02 -0.20619495545E+03  0.60917580243E+03  0.69259894999E+03  0.25000000000E+03 0.  0.
    5000001    1    1    2    0    0  0.59848037588E+02  0.20619495545E+03  0.36270479197E+03  0.49005399026E+03  0.25000000000E+03 0.  0.
<mgrwt>
<rscale>  0 0.67388136E+03</rscale>
<asrwt>0</asrwt>
<pdfrwt beam="1">  1        2 0.16573334E+00 0.67388136E+03</pdfrwt>
<pdfrwt beam="2">  1       -2 0.16213258E-01 0.67388136E+03</pdfrwt>
<totfact> 0.69654254E+02</totfact>
</mgrwt>
</event>
<event>
 4    1  0.6705655E-006  0.6688478E+03  0.7818608E-02  0.9772041E-01
          2   -1    0    0  501    0  0.00000000000E+00  0.00000000000E+00  0.15123221877E+04  0.15123221877E+04  0.25500000000E-02 0.  1.
         -2   -1    0    0    0  501 -0.00000000000E+00 -0.00000000000E+00 -0.73952071727E+02  0.73952071771E+02  0.25500000000E-02 0. -1.
   -5000001    1    1    2    0    0  0.19452424952E+03 -0.84411964944E+02  0.56232766096E+03  0.65090510965E+03  0.25000000000E+03 0.  0.
    5000001    1    1    2    0    0 -0.19452424952E+03  0.84411964944E+02  0.87604245506E+03  0.93536914987E+03  0.25000000000E+03 0.  0.
<mgrwt>
<rscale>  0 0.66884784E+03</rscale>
<asrwt>0</asrwt>
<pdfrwt beam="1">  1        2 0.23266494E+00 0.66884784E+03</pdfrwt>
<pdfrwt beam="2">  1       -2 0.11377243E-01 0.66884784E+03</pdfrwt>
<totfact> 0.70572062E+02</totfact>
</mgrwt>
</event>
<event>
 4    1  0.6705655E-006  0.5350063E+03  0.7818608E-02  0.1005025E+00
          2   -1    0    0  501    0  0.00000000000E+00  0.00000000000E+00  0.55253466642E+03  0.55253466643E+03  0.25500000000E-02 0.  1.
         -2   -1    0    0    0  501 -0.00000000000E+00 -0.00000000000E+00 -0.12950849758E+03  0.12950849760E+03  0.25500000000E-02 0. -1.
   -5000001    1    1    2    0    0 -0.84582683843E+02 -0.39513040409E+02  0.23510346273E+03  0.35565313011E+03  0.25000000000E+03 0.  0.
    5000001    1    1    2    0    0  0.84582683843E+02  0.39513040409E+02  0.18792270611E+03  0.32639003392E+03  0.25000000000E+03 0.  0.
<mgrwt>
<rscale>  0 0.53500630E+03</rscale>
<asrwt>0</asrwt>
<pdfrwt beam="1">  1        2 0.85005333E-01 0.53500630E+03</pdfrwt>
<pdfrwt beam="2">  1       -2 0.19924384E-01 0.53500630E+03</pdfrwt>
<totfact> 0.11783019E+03</totfact>
</mgrwt>
</event>
<event>
 4    1  0.6705655E-006  0.8190403E+03  0.7818608E-02  0.9532859E-01
         -2   -1    0    0    0  501 -0.00000000000E+00  0.00000000000E+00  0.57363638242E+02  0.57363638299E+02  0.25500000000E-02 0. -1.
          2   -1    0    0  501    0  0.00000000000E+00 -0.00000000000E+00 -0.29235728046E+04  0.29235728046E+04  0.25500000000E-02 0.  1.
   -5000001    1    1    2    0    0 -0.57531776863E+02  0.29102022533E+03 -0.95572554234E+03  0.10314620639E+04  0.25000000000E+03 0.  0.
    5000001    1    1    2    0    0  0.57531776863E+02 -0.29102022533E+03 -0.19104836240E+04  0.19494743790E+04  0.25000000000E+03 0.  0.
<mgrwt>
<rscale>  0 0.81904035E+03</rscale>
<asrwt>0</asrwt>
<pdfrwt beam="1">  1        2 0.44978031E+00 0.81904035E+03</pdfrwt>
<pdfrwt beam="2">  1       -2 0.88251774E-02 0.81904035E+03</pdfrwt>
<totfact> 0.17054542E+02</totfact>
</mgrwt>
</event>
<event>
 4    1  0.6705655E-006  0.7093042E+03  0.7818608E-02  0.9701452E-01
          2   -1    0    0  501    0  0.00000000000E+00  0.00000000000E+00  0.38944754225E+03  0.38944754226E+03  0.25500000000E-02 0.  1.
         -2   -1    0    0    0  501 -0.00000000000E+00 -0.00000000000E+00 -0.32296549587E+03  0.32296549588E+03  0.25500000000E-02 0. -1.
   -5000001    1    1    2    0    0  0.17504790476E+03 -0.13522418609E+03 -0.87078722502E+02  0.34497833755E+03  0.25000000000E+03 0.  0.
    5000001    1    1    2    0    0 -0.17504790476E+03  0.13522418609E+03  0.15356076888E+03  0.36743470060E+03  0.25000000000E+03 0.  0.
<mgrwt>
<rscale>  0 0.70930422E+03</rscale>
<asrwt>0</asrwt>
<pdfrwt beam="1">  1        2 0.59915006E-01 0.70930422E+03</pdfrwt>
<pdfrwt beam="2">  1       -2 0.49687000E-01 0.70930422E+03</pdfrwt>
<totfact> 0.31699031E+02</totfact>
</mgrwt>
</event>
<event>
 4    1  0.6705655E-006  0.1446632E+04  0.7818608E-02  0.8920739E-01
          2   -1    0    0  501    0  0.00000000000E+00  0.00000000000E+00  0.68359500742E+03  0.68359500743E+03  0.25500000000E-02 0.  1.
         -2   -1    0    0    0  501 -0.00000000000E+00 -0.00000000000E+00 -0.76534502239E+03  0.76534502240E+03  0.25500000000E-02 0. -1.
   -5000001    1    1    2    0    0 -0.55358676355E+02 -0.67627739044E+03 -0.24406621505E+02  0.72354085927E+03  0.25000000000E+03 0.  0.
    5000001    1    1    2    0    0  0.55358676355E+02  0.67627739044E+03 -0.57343393463E+02  0.72539917055E+03  0.25000000000E+03 0.  0.
<mgrwt>
<rscale>  0 0.14466320E+04</rscale>
<asrwt>0</asrwt>
<pdfrwt beam="1">  1        2 0.10516846E+00 0.14466320E+04</pdfrwt>
<pdfrwt beam="2">  1       -2 0.11774539E+00 0.14466320E+04</pdfrwt>
<totfact> 0.22789904E+01</totfact>
</mgrwt>
</event>
<event>
 4    1  0.6705655E-006  0.1314235E+04  0.7818608E-02  0.9018352E-01
          2   -1    0    0  501    0  0.00000000000E+00  0.00000000000E+00  0.79477783491E+03  0.79477783492E+03  0.25500000000E-02 0. -1.
         -2   -1    0    0    0  501 -0.00000000000E+00 -0.00000000000E+00 -0.54330054758E+03  0.54330054758E+03  0.25500000000E-02 0.  1.
   -5000001    1    1    2    0    0 -0.55649064035E+03  0.19501363084E+03 -0.23866262671E+02  0.64092257528E+03  0.25000000000E+03 0.  0.
    5000001    1    1    2    0    0  0.55649064035E+03 -0.19501363084E+03  0.27534355001E+03  0.69715580722E+03  0.25000000000E+03 0.  0.
<mgrwt>
<rscale>  0 0.13142347E+04</rscale>
<asrwt>0</asrwt>
<pdfrwt beam="1">  1        2 0.12227351E+00 0.13142347E+04</pdfrwt>
<pdfrwt beam="2">  1       -2 0.83584700E-01 0.13142347E+04</pdfrwt>
<totfact> 0.42611293E+01</totfact>
</mgrwt>
</event>
<event>
 4    1  0.6705655E-006  0.5761984E+03  0.7818608E-02  0.9956055E-01
          2   -1    0    0  501    0  0.00000000000E+00  0.00000000000E+00  0.77449328266E+03  0.77449328267E+03  0.25500000000E-02 0.  1.
         -2   -1    0    0    0  501 -0.00000000000E+00 -0.00000000000E+00 -0.10716834447E+03  0.10716834450E+03  0.25500000000E-02 0. -1.
   -5000001    1    1    2    0    0 -0.70486046135E+02  0.11474523912E+03  0.40809707276E+03  0.49716996429E+03  0.25000000000E+03 0.  0.
    5000001    1    1    2    0    0  0.70486046135E+02 -0.11474523912E+03  0.25922786543E+03  0.38449166287E+03  0.25000000000E+03 0.  0.
<mgrwt>
<rscale>  0 0.57619845E+03</rscale>
<asrwt>0</asrwt>
<pdfrwt beam="1">  1        2 0.11915282E+00 0.57619845E+03</pdfrwt>
<pdfrwt beam="2">  1       -2 0.16487437E-01 0.57619845E+03</pdfrwt>
<totfact> 0.10774998E+03</totfact>
</mgrwt>
</event>
<event>
 4    1  0.6705655E-006  0.7966179E+03  0.7818608E-02  0.9564925E-01
         -2   -1    0    0    0  501 -0.00000000000E+00  0.00000000000E+00  0.10565471309E+03  0.10565471312E+03  0.25500000000E-02 0. -1.
          2   -1    0    0  501    0  0.00000000000E+00 -0.00000000000E+00 -0.15015897197E+04  0.15015897197E+04  0.25500000000E-02 0.  1.
   -5000001    1    1    2    0    0 -0.27390368280E+03  0.11348245173E+03 -0.51472749179E+03  0.64447333933E+03  0.25000000000E+03 0.  0.
    5000001    1    1    2    0    0  0.27390368280E+03 -0.11348245173E+03 -0.88120751480E+03  0.96277109348E+03  0.25000000000E+03 0.  0.
<mgrwt>
<rscale>  0 0.79661793E+03</rscale>
<asrwt>0</asrwt>
<pdfrwt beam="1">  1        2 0.23101379E+00 0.79661793E+03</pdfrwt>
<pdfrwt beam="2">  1       -2 0.16254572E-01 0.79661793E+03</pdfrwt>
<totfact> 0.39097791E+02</totfact>
</mgrwt>
</event>
<event>
 4    1  0.6705655E-006  0.7569028E+03  0.7818608E-02  0.9624583E-01
          2   -1    0    0  501    0  0.00000000000E+00  0.00000000000E+00  0.15584067580E+04  0.15584067580E+04  0.25500000000E-02 0.  1.
         -2   -1    0    0    0  501 -0.00000000000E+00 -0.00000000000E+00 -0.91905065444E+02  0.91905065479E+02  0.25500000000E-02 0. -1.
   -5000001    1    1    2    0    0  0.17765381657E+02  0.22774634606E+03  0.36489799620E+03  0.49782984499E+03  0.25000000000E+03 0.  0.
    5000001    1    1    2    0    0 -0.17765381657E+02 -0.22774634606E+03  0.11016036964E+04  0.11524819785E+04  0.25000000000E+03 0.  0.
<mgrwt>
<rscale>  0 0.75690283E+03</rscale>
<asrwt>0</asrwt>
<pdfrwt beam="1">  1        2 0.23975488E+00 0.75690283E+03</pdfrwt>
<pdfrwt beam="2">  1       -2 0.14139241E-01 0.75690283E+03</pdfrwt>
<totfact> 0.46150978E+02</totfact>
</mgrwt>
</event>
<event>
 4    1  0.6705655E-006  0.8056922E+03  0.7818608E-02  0.9551814E-01
         -2   -1    0    0    0  501 -0.00000000000E+00  0.00000000000E+00  0.64373876649E+03  0.64373876650E+03  0.25500000000E-02 0. -1.
          2   -1    0    0  501    0  0.00000000000E+00 -0.00000000000E+00 -0.25209759545E+03  0.25209759547E+03  0.25500000000E-02 0.  1.
   -5000001    1    1    2    0    0 -0.26418985327E+03 -0.17313348478E+03  0.19173329343E+03  0.44613130122E+03  0.25000000000E+03 0.  0.
    5000001    1    1    2    0    0  0.26418985327E+03  0.17313348478E+03  0.19990787761E+03  0.44970506074E+03  0.25000000000E+03 0.  0.
<mgrwt>
<rscale>  0 0.80569224E+03</rscale>
<asrwt>0</asrwt>
<pdfrwt beam="1">  1        2 0.38784245E-01 0.80569224E+03</pdfrwt>
<pdfrwt beam="2">  1       -2 0.99036733E-01 0.80569224E+03</pdfrwt>
<totfact> 0.11347018E+02</totfact>
</mgrwt>
</event>
<event>
 4    1  0.6705655E-006  0.6788266E+03  0.7818608E-02  0.9754143E-01
          2   -1    0    0  501    0  0.00000000000E+00  0.00000000000E+00  0.91388291838E+03  0.91388291839E+03  0.25500000000E-02 0.  1.
         -2   -1    0    0    0  501 -0.00000000000E+00 -0.00000000000E+00 -0.12605705939E+03  0.12605705942E+03  0.25500000000E-02 0. -1.
   -5000001    1    1    2    0    0 -0.12059210333E+03 -0.15699481759E+03  0.21583822067E+03  0.38506618345E+03  0.25000000000E+03 0.  0.
    5000001    1    1    2    0    0  0.12059210333E+03  0.15699481759E+03  0.57198763832E+03  0.65487379435E+03  0.25000000000E+03 0.  0.
<mgrwt>
<rscale>  0 0.67882662E+03</rscale>
<asrwt>0</asrwt>
<pdfrwt beam="1">  1        2 0.14059737E+00 0.67882662E+03</pdfrwt>
<pdfrwt beam="2">  1       -2 0.19393394E-01 0.67882662E+03</pdfrwt>
<totfact> 0.65055389E+02</totfact>
</mgrwt>
</event>
<event>
 4    1  0.6705655E-006  0.6958594E+03  0.7818608E-02  0.9724339E-01
         -2   -1    0    0    0  501 -0.00000000000E+00  0.00000000000E+00  0.74772253902E+02  0.74772253946E+02  0.25500000000E-02 0. -1.
          2   -1    0    0  501    0  0.00000000000E+00 -0.00000000000E+00 -0.16189838660E+04  0.16189838660E+04  0.25500000000E-02 0.  1.
   -5000001    1    1    2    0    0 -0.12200324145E+03  0.11823701867E+03 -0.35269791304E+03  0.46450037822E+03  0.25000000000E+03 0.  0.
    5000001    1    1    2    0    0  0.12200324145E+03 -0.11823701867E+03 -0.11915136990E+04  0.12292557417E+04  0.25000000000E+03 0.  0.
<mgrwt>
<rscale>  0 0.69585939E+03</rscale>
<asrwt>0</asrwt>
<pdfrwt beam="1">  1        2 0.24907442E+00 0.69585939E+03</pdfrwt>
<pdfrwt beam="2">  1       -2 0.11503425E-01 0.69585939E+03</pdfrwt>
<totfact> 0.60440474E+02</totfact>
</mgrwt>
</event>
<event>
 4    1  0.6705655E-006  0.7270348E+03  0.7818608E-02  0.9672084E-01
          2   -1    0    0  501    0  0.00000000000E+00  0.00000000000E+00  0.84578166799E+03  0.84578166799E+03  0.25500000000E-02 0.  1.
         -2   -1    0    0    0  501 -0.00000000000E+00 -0.00000000000E+00 -0.15623998045E+03  0.15623998047E+03  0.25500000000E-02 0. -1.
   -5000001    1    1    2    0    0  0.68475684246E+02 -0.18093052501E+03  0.59216280228E+03  0.67125372150E+03  0.25000000000E+03 0.  0.
    5000001    1    1    2    0    0 -0.68475684246E+02  0.18093052501E+03  0.97378885257E+02  0.33076792696E+03  0.25000000000E+03 0.  0.
<mgrwt>
<rscale>  0 0.72703483E+03</rscale>
<asrwt>0</asrwt>
<pdfrwt beam="1">  1        2 0.13012026E+00 0.72703483E+03</pdfrwt>
<pdfrwt beam="2">  1       -2 0.24036919E-01 0.72703483E+03</pdfrwt>
<totfact> 0.49456621E+02</totfact>
</mgrwt>
</event>
<event>
 4    1  0.6705655E-006  0.9923233E+03  0.7818608E-02  0.9317005E-01
         -2   -1    0    0    0  501 -0.00000000000E+00  0.00000000000E+00  0.19979397902E+03  0.19979397903E+03  0.25500000000E-02 0. -1.
          2   -1    0    0  501    0  0.00000000000E+00 -0.00000000000E+00 -0.12321512684E+04  0.12321512684E+04  0.25500000000E-02 0.  1.
   -5000001    1    1    2    0    0 -0.27258618097E+03  0.32892273196E+03 -0.46654589524E+03  0.68019001906E+03  0.25000000000E+03 0.  0.
    5000001    1    1    2    0    0  0.27258618097E+03 -0.32892273196E+03 -0.56581139417E+03  0.75175522840E+03  0.25000000000E+03 0.  0.
<mgrwt>
<rscale>  0 0.99232334E+03</rscale>
<asrwt>0</asrwt>
<pdfrwt beam="1">  1        2 0.18956173E+00 0.99232334E+03</pdfrwt>
<pdfrwt beam="2">  1       -2 0.30737536E-01 0.99232334E+03</pdfrwt>
<totfact> 0.17710875E+02</totfact>
</mgrwt>
</event>
<event>
 4    1  0.6705655E-006  0.6658109E+03  0.7818608E-02  0.9777555E-01
         -2   -1    0    0    0  501 -0.00000000000E+00  0.00000000000E+00  0.40288122411E+02  0.40288122492E+02  0.25500000000E-02 0. -1.
          2   -1    0    0  501    0  0.00000000000E+00 -0.00000000000E+00 -0.27508365434E+04  0.27508365434E+04  0.25500000000E-02 0.  1.
   -5000001    1    1    2    0    0 -0.13333198407E+03 -0.14783616000E+03 -0.96441940720E+03  0.10159910143E+04  0.25000000000E+03 0.  0.
    5000001    1    1    2    0    0  0.13333198407E+03  0.14783616000E+03 -0.17461290138E+04  0.17751336516E+04  0.25000000000E+03 0.  0.
<mgrwt>
<rscale>  0 0.66581090E+03</rscale>
<asrwt>0</asrwt>
<pdfrwt beam="1">  1        2 0.42320548E+00 0.66581090E+03</pdfrwt>
<pdfrwt beam="2">  1       -2 0.61981748E-02 0.66581090E+03</pdfrwt>
<totfact> 0.38536730E+02</totfact>
</mgrwt>
</event>
<event>
 4    1  0.6705655E-006  0.6842771E+03  0.7818608E-02  0.9744505E-01
          2   -1    0    0  501    0  0.00000000000E+00  0.00000000000E+00  0.87461369969E+03  0.87461369970E+03  0.25500000000E-02 0.  1.
         -2   -1    0    0    0  501 -0.00000000000E+00 -0.00000000000E+00 -0.13384055336E+03  0.13384055338E+03  0.25500000000E-02 0. -1.
   -5000001    1    1    2    0    0 -0.19400829387E+03 -0.12979085148E+03  0.38305554992E+03  0.51353328767E+03  0.25000000000E+03 0.  0.
    5000001    1    1    2    0    0  0.19400829387E+03  0.12979085148E+03  0.35771759642E+03  0.49492096541E+03  0.25000000000E+03 0.  0.
<mgrwt>
<rscale>  0 0.68427708E+03</rscale>
<asrwt>0</asrwt>
<pdfrwt beam="1">  1        2 0.13455595E+00 0.68427708E+03</pdfrwt>
<pdfrwt beam="2">  1       -2 0.20590854E-01 0.68427708E+03</pdfrwt>
<totfact> 0.62255054E+02</totfact>
</mgrwt>
</event>
<event>
 4    1  0.6705655E-006  0.1163839E+04  0.7818608E-02  0.9145110E-01
         -2   -1    0    0    0  501 -0.00000000000E+00  0.00000000000E+00  0.16791328344E+03  0.16791328346E+03  0.25500000000E-02 0. -1.
          2   -1    0    0  501    0  0.00000000000E+00 -0.00000000000E+00 -0.20166986052E+04  0.20166986053E+04  0.25500000000E-02 0.  1.
   -5000001    1    1    2    0    0  0.76196214210E+02  0.32384312605E+03 -0.16879031126E+04  0.17384467639E+04  0.25000000000E+03 0.  0.
    5000001    1    1    2    0    0 -0.76196214210E+02 -0.32384312605E+03 -0.16088220918E+03  0.44616512479E+03  0.25000000000E+03 0.  0.
<mgrwt>
<rscale>  0 0.11638393E+04</rscale>
<asrwt>0</asrwt>
<pdfrwt beam="1">  1        2 0.31026131E+00 0.11638393E+04</pdfrwt>
<pdfrwt beam="2">  1       -2 0.25832814E-01 0.11638393E+04</pdfrwt>
<totfact> 0.87568291E+01</totfact>
</mgrwt>
</event>
<event>
 4    1  0.6705655E-006  0.6618125E+03  0.7818608E-02  0.9784863E-01
          2   -1    0    0  501    0  0.00000000000E+00  0.00000000000E+00  0.21184203435E+04  0.21184203435E+04  0.25500000000E-02 0.  1.
         -2   -1    0    0    0  501 -0.00000000000E+00 -0.00000000000E+00 -0.51688964232E+02  0.51688964295E+02  0.25500000000E-02 0. -1.
   -5000001    1    1    2    0    0 -0.14015408944E+03  0.52142996093E+02  0.51868296062E+03  0.59488996837E+03  0.25000000000E+03 0.  0.
    5000001    1    1    2    0    0  0.14015408944E+03 -0.52142996093E+02  0.15480484187E+04  0.15752193394E+04  0.25000000000E+03 0.  0.
<mgrwt>
<rscale>  0 0.66181252E+03</rscale>
<asrwt>0</asrwt>
<pdfrwt beam="1">  1        2 0.32591069E+00 0.66181252E+03</pdfrwt>
<pdfrwt beam="2">  1       -2 0.79521516E-02 0.66181252E+03</pdfrwt>
<totfact> 0.58902015E+02</totfact>
</mgrwt>
</event>
<event>
 4    1  0.6705655E-006  0.7953360E+03  0.7818608E-02  0.9566793E-01
         -2   -1    0    0    0  501 -0.00000000000E+00  0.00000000000E+00  0.13647333598E+03  0.13647333601E+03  0.25500000000E-02 0. -1.
          2   -1    0    0  501    0  0.00000000000E+00 -0.00000000000E+00 -0.11587598508E+04  0.11587598508E+04  0.25500000000E-02 0.  1.
   -5000001    1    1    2    0    0  0.28892622130E+03 -0.11875155474E+01 -0.33156033236E+03  0.50587748076E+03  0.25000000000E+03 0.  0.
    5000001    1    1    2    0    0 -0.28892622130E+03  0.11875155474E+01 -0.69072618249E+03  0.78935570608E+03  0.25000000000E+03 0.  0.
<mgrwt>
<rscale>  0 0.79533596E+03</rscale>
<asrwt>0</asrwt>
<pdfrwt beam="1">  1        2 0.17827074E+00 0.79533596E+03</pdfrwt>
<pdfrwt beam="2">  1       -2 0.20995899E-01 0.79533596E+03</pdfrwt>
<totfact> 0.39514190E+02</totfact>
</mgrwt>
</event>
<event>
 4    1  0.6705655E-006  0.6686634E+03  0.7818608E-02  0.9772375E-01
         -2   -1    0    0    0  501 -0.00000000000E+00  0.00000000000E+00  0.11880155446E+03  0.11880155449E+03  0.25500000000E-02 0. -1.
          2   -1    0    0  501    0  0.00000000000E+00 -0.00000000000E+00 -0.94087734627E+03  0.94087734627E+03  0.25500000000E-02 0.  1.
   -5000001    1    1    2    0    0 -0.11826305029E+03  0.10532078202E+03 -0.65756581376E+03  0.72109043511E+03  0.25000000000E+03 0.  0.
    5000001    1    1    2    0    0  0.11826305029E+03 -0.10532078202E+03 -0.16450997805E+03  0.33858846564E+03  0.25000000000E+03 0.  0.
<mgrwt>
<rscale>  0 0.66866342E+03</rscale>
<asrwt>0</asrwt>
<pdfrwt beam="1">  1        2 0.14475036E+00 0.66866342E+03</pdfrwt>
<pdfrwt beam="2">  1       -2 0.18277163E-01 0.66866342E+03</pdfrwt>
<totfact> 0.69221057E+02</totfact>
</mgrwt>
</event>
<event>
 4    1  0.6705655E-006  0.6988880E+03  0.7818608E-02  0.9719136E-01
         -2   -1    0    0    0  501 -0.00000000000E+00  0.00000000000E+00  0.30792815183E+02  0.30792815289E+02  0.25500000000E-02 0. -1.
          2   -1    0    0  501    0  0.00000000000E+00 -0.00000000000E+00 -0.39655709935E+04  0.39655709935E+04  0.25500000000E-02 0.  1.
   -5000001    1    1    2    0    0 -0.12051644623E+03  0.21144595667E+03 -0.20784878784E+04  0.21075686150E+04  0.25000000000E+03 0.  0.
    5000001    1    1    2    0    0  0.12051644623E+03 -0.21144595667E+03 -0.18562902999E+04  0.18887951938E+04  0.25000000000E+03 0.  0.
<mgrwt>
<rscale>  0 0.69888796E+03</rscale>
<asrwt>0</asrwt>
<pdfrwt beam="1">  1        2 0.61008744E+00 0.69888796E+03</pdfrwt>
<pdfrwt beam="2">  1       -2 0.47373593E-02 0.69888796E+03</pdfrwt>
<totfact> 0.90791401E+01</totfact>
</mgrwt>
</event>
<event>
 4    1  0.6705655E-006  0.6081303E+03  0.7818608E-02  0.9888680E-01
          2   -1    0    0  501    0  0.00000000000E+00  0.00000000000E+00  0.16435920717E+04  0.16435920717E+04  0.25500000000E-02 0.  1.
         -2   -1    0    0    0  501 -0.00000000000E+00 -0.00000000000E+00 -0.56252168328E+02  0.56252168386E+02  0.25500000000E-02 0. -1.
   -5000001    1    1    2    0    0 -0.35736477790E+02 -0.12850168634E+03  0.48536286569E+03  0.56202036496E+03  0.25000000000E+03 0.  0.
    5000001    1    1    2    0    0  0.35736477790E+02  0.12850168634E+03  0.11019770377E+04  0.11378238752E+04  0.25000000000E+03 0.  0.
<mgrwt>
<rscale>  0 0.60813031E+03</rscale>
<asrwt>0</asrwt>
<pdfrwt beam="1">  1        2 0.25286030E+00 0.60813031E+03</pdfrwt>
<pdfrwt beam="2">  1       -2 0.86541803E-02 0.60813031E+03</pdfrwt>
<totfact> 0.93480618E+02</totfact>
</mgrwt>
</event>
<event>
 4    1  0.6705655E-006  0.6497644E+03  0.7818608E-02  0.9807221E-01
          2   -1    0    0  501    0  0.00000000000E+00  0.00000000000E+00  0.19541919651E+04  0.19541919651E+04  0.25500000000E-02 0.  1.
         -2   -1    0    0    0  501 -0.00000000000E+00 -0.00000000000E+00 -0.54011295300E+02  0.54011295360E+02  0.25500000000E-02 0. -1.
   -5000001    1    1    2    0    0 -0.11626704835E+03  0.13853934536E+03  0.63585534715E+03  0.70676955172E+03  0.25000000000E+03 0.  0.
    5000001    1    1    2    0    0  0.11626704835E+03 -0.13853934536E+03  0.12643253227E+04  0.13014337088E+04  0.25000000000E+03 0.  0.
<mgrwt>
<rscale>  0 0.64976439E+03</rscale>
<asrwt>0</asrwt>
<pdfrwt beam="1">  1        2 0.30064494E+00 0.64976439E+03</pdfrwt>
<pdfrwt beam="2">  1       -2 0.83094295E-02 0.64976439E+03</pdfrwt>
<totfact> 0.67507740E+02</totfact>
</mgrwt>
</event>
<event>
 4    1  0.6705655E-006  0.7504223E+03  0.7818608E-02  0.9634688E-01
          2   -1    0    0  501    0  0.00000000000E+00  0.00000000000E+00  0.17696758357E+03  0.17696758359E+03  0.25500000000E-02 0.  1.
         -2   -1    0    0    0  501 -0.00000000000E+00 -0.00000000000E+00 -0.79553224542E+03  0.79553224542E+03  0.25500000000E-02 0. -1.
   -5000001    1    1    2    0    0  0.25063058172E+03 -0.14750481553E+02 -0.14924514820E+03  0.38445725310E+03  0.25000000000E+03 0.  0.
    5000001    1    1    2    0    0 -0.25063058172E+03  0.14750481553E+02 -0.46931951365E+03  0.58804257591E+03  0.25000000000E+03 0.  0.
<mgrwt>
<rscale>  0 0.75042233E+03</rscale>
<asrwt>0</asrwt>
<pdfrwt beam="1">  1        2 0.27225783E-01 0.75042233E+03</pdfrwt>
<pdfrwt beam="2">  1       -2 0.12238957E+00 0.75042233E+03</pdfrwt>
<totfact> 0.10139754E+02</totfact>
</mgrwt>
</event>
<event>
 4    1  0.6705655E-006  0.1130110E+04  0.7818608E-02  0.9176332E-01
          2   -1    0    0  501    0  0.00000000000E+00  0.00000000000E+00  0.22463894991E+03  0.22463894992E+03  0.25500000000E-02 0.  1.
         -2   -1    0    0    0  501 -0.00000000000E+00 -0.00000000000E+00 -0.14213345160E+04  0.14213345160E+04  0.25500000000E-02 0. -1.
   -5000001    1    1    2    0    0  0.46107071250E+03  0.18161347309E+03 -0.75260624044E+03  0.93513945948E+03  0.25000000000E+03 0.  0.
    5000001    1    1    2    0    0 -0.46107071250E+03 -0.18161347309E+03 -0.44408932562E+03  0.71083400641E+03  0.25000000000E+03 0.  0.
<mgrwt>
<rscale>  0 0.11301099E+04</rscale>
<asrwt>0</asrwt>
<pdfrwt beam="1">  1        2 0.34559839E-01 0.11301099E+04</pdfrwt>
<pdfrwt beam="2">  1       -2 0.21866684E+00 0.11301099E+04</pdfrwt>
<totfact> 0.15173014E+01</totfact>
</mgrwt>
</event>
<event>
 4    1  0.6705655E-006  0.1795426E+04  0.7818608E-02  0.8708736E-01
         -2   -1    0    0    0  501 -0.00000000000E+00  0.00000000000E+00  0.12247606046E+04  0.12247606046E+04  0.25500000000E-02 0. -1.
          2   -1    0    0  501    0  0.00000000000E+00 -0.00000000000E+00 -0.65799661791E+03  0.65799661792E+03  0.25500000000E-02 0.  1.
   -5000001    1    1    2    0    0  0.64695429129E+03  0.45304283842E+03 -0.79257864675E+02  0.83221360093E+03  0.25000000000E+03 0.  0.
    5000001    1    1    2    0    0 -0.64695429129E+03 -0.45304283842E+03  0.64602185140E+03  0.10505436216E+04  0.25000000000E+03 0.  0.
<mgrwt>
<rscale>  0 0.17954257E+04</rscale>
<asrwt>0</asrwt>
<pdfrwt beam="1">  1        2 0.10123025E+00 0.17954257E+04</pdfrwt>
<pdfrwt beam="2">  1       -2 0.18842471E+00 0.17954257E+04</pdfrwt>
<totfact> 0.66375476E+00</totfact>
</mgrwt>
</event>
<event>
 4    1  0.6705655E-006  0.7248262E+03  0.7818608E-02  0.9675693E-01
          2   -1    0    0  501    0  0.00000000000E+00  0.00000000000E+00  0.89182272927E+03  0.89182272928E+03  0.25500000000E-02 0.  1.
         -2   -1    0    0    0  501 -0.00000000000E+00 -0.00000000000E+00 -0.14727505470E+03  0.14727505472E+03  0.25500000000E-02 0. -1.
   -5000001    1    1    2    0    0  0.72173712203E+02 -0.22318483426E+03  0.20372746395E+03  0.39877988232E+03  0.25000000000E+03 0.  0.
    5000001    1    1    2    0    0 -0.72173712203E+02  0.22318483426E+03  0.54082021063E+03  0.64031790167E+03  0.25000000000E+03 0.  0.
<mgrwt>
<rscale>  0 0.72482616E+03</rscale>
<asrwt>0</asrwt>
<pdfrwt beam="1">  1        2 0.13720350E+00 0.72482616E+03</pdfrwt>
<pdfrwt beam="2">  1       -2 0.22657700E-01 0.72482616E+03</pdfrwt>
<totfact> 0.51113425E+02</totfact>
</mgrwt>
</event>
<event>
 4    1  0.6705655E-006  0.1016763E+04  0.7818608E-02  0.9290348E-01
          2   -1    0    0  501    0  0.00000000000E+00  0.00000000000E+00  0.79820553788E+03  0.79820553788E+03  0.25500000000E-02 0.  1.
         -2   -1    0    0    0  501 -0.00000000000E+00 -0.00000000000E+00 -0.32379096934E+03  0.32379096935E+03  0.25500000000E-02 0. -1.
   -5000001    1    1    2    0    0  0.22156643712E+03 -0.35079780771E+03  0.40745017460E+03  0.63298217410E+03  0.25000000000E+03 0.  0.
    5000001    1    1    2    0    0 -0.22156643712E+03  0.35079780771E+03  0.66964393944E+02  0.48901433313E+03  0.25000000000E+03 0.  0.
<mgrwt>
<rscale>  0 0.10167630E+04</rscale>
<asrwt>0</asrwt>
<pdfrwt beam="1">  1        2 0.12280085E+00 0.10167630E+04</pdfrwt>
<pdfrwt beam="2">  1       -2 0.49813996E-01 0.10167630E+04</pdfrwt>
<totfact> 0.13141219E+02</totfact>
</mgrwt>
</event>
<event>
 4    1  0.6705655E-006  0.7504411E+03  0.7818608E-02  0.9634659E-01
          2   -1    0    0  501    0  0.00000000000E+00  0.00000000000E+00  0.13191942884E+04  0.13191942884E+04  0.25500000000E-02 0.  1.
         -2   -1    0    0    0  501 -0.00000000000E+00 -0.00000000000E+00 -0.10672458233E+03  0.10672458236E+03  0.25500000000E-02 0. -1.
   -5000001    1    1    2    0    0 -0.12355976939E+03 -0.25093166159E+03  0.62054810937E+03  0.72513010656E+03  0.25000000000E+03 0.  0.
    5000001    1    1    2    0    0  0.12355976939E+03  0.25093166159E+03  0.59192159673E+03  0.70078876424E+03  0.25000000000E+03 0.  0.
<mgrwt>
<rscale>  0 0.75044110E+03</rscale>
<asrwt>0</asrwt>
<pdfrwt beam="1">  1        2 0.20295296E+00 0.75044110E+03</pdfrwt>
<pdfrwt beam="2">  1       -2 0.16419167E-01 0.75044110E+03</pdfrwt>
<totfact> 0.48848957E+02</totfact>
</mgrwt>
</event>
<event>
 4    1  0.6705655E-006  0.6683967E+03  0.7818608E-02  0.9772859E-01
         -2   -1    0    0    0  501 -0.00000000000E+00  0.00000000000E+00  0.15644590988E+03  0.15644590990E+03  0.25500000000E-02 0. -1.
          2   -1    0    0  501    0  0.00000000000E+00 -0.00000000000E+00 -0.71391153403E+03  0.71391153403E+03  0.25500000000E-02 0.  1.
   -5000001    1    1    2    0    0  0.20734936919E+03  0.45513999657E+02 -0.36234766207E+03  0.48873419491E+03  0.25000000000E+03 0.  0.
    5000001    1    1    2    0    0 -0.20734936919E+03 -0.45513999657E+02 -0.19511796208E+03  0.38162324902E+03  0.25000000000E+03 0.  0.
<mgrwt>
<rscale>  0 0.66839671E+03</rscale>
<asrwt>0</asrwt>
<pdfrwt beam="1">  1        2 0.10983254E+00 0.66839671E+03</pdfrwt>
<pdfrwt beam="2">  1       -2 0.24068602E-01 0.66839671E+03</pdfrwt>
<totfact> 0.61700746E+02</totfact>
</mgrwt>
</event>
<event>
 4    1  0.6705655E-006  0.7227074E+03  0.7818608E-02  0.9679169E-01
         -2   -1    0    0    0  501 -0.00000000000E+00  0.00000000000E+00  0.73361833611E+02  0.73361833656E+02  0.25500000000E-02 0. -1.
          2   -1    0    0  501    0  0.00000000000E+00 -0.00000000000E+00 -0.17798966290E+04  0.17798966290E+04  0.25500000000E-02 0.  1.
   -5000001    1    1    2    0    0  0.14657885564E+03 -0.20945637823E+03 -0.98698534701E+03  0.10497606444E+04  0.25000000000E+03 0.  0.
    5000001    1    1    2    0    0 -0.14657885564E+03  0.20945637823E+03 -0.71954944842E+03  0.80349781830E+03  0.25000000000E+03 0.  0.
<mgrwt>
<rscale>  0 0.72270736E+03</rscale>
<asrwt>0</asrwt>
<pdfrwt beam="1">  1        2 0.27383022E+00 0.72270736E+03</pdfrwt>
<pdfrwt beam="2">  1       -2 0.11286437E-01 0.72270736E+03</pdfrwt>
<totfact> 0.50848614E+02</totfact>
</mgrwt>
</event>
<event>
 4    1  0.6705655E-006  0.9906886E+03  0.7818608E-02  0.9318817E-01
          2   -1    0    0  501    0  0.00000000000E+00  0.00000000000E+00  0.70454783150E+03  0.70454783151E+03  0.25500000000E-02 0.  1.
         -2   -1    0    0    0  501 -0.00000000000E+00 -0.00000000000E+00 -0.34826017524E+03  0.34826017525E+03  0.25500000000E-02 0. -1.
   -5000001    1    1    2    0    0  0.16069631180E+03 -0.39623555124E+03  0.17141979776E+03  0.52412848020E+03  0.25000000000E+03 0.  0.
    5000001    1    1    2    0    0 -0.16069631180E+03  0.39623555124E+03  0.18486785851E+03  0.52867952656E+03  0.25000000000E+03 0.  0.
<mgrwt>
<rscale>  0 0.99068855E+03</rscale>
<asrwt>0</asrwt>
<pdfrwt beam="1">  1        2 0.10839197E+00 0.99068855E+03</pdfrwt>
<pdfrwt beam="2">  1       -2 0.53578488E-01 0.99068855E+03</pdfrwt>
<totfact> 0.13328660E+02</totfact>
</mgrwt>
</event>
<event>
 4    1  0.6705655E-006  0.5895036E+03  0.7818608E-02  0.9927425E-01
         -2   -1    0    0    0  501 -0.00000000000E+00  0.00000000000E+00  0.29701935367E+03  0.29701935368E+03  0.25500000000E-02 0. -1.
          2   -1    0    0  501    0  0.00000000000E+00 -0.00000000000E+00 -0.29250155208E+03  0.29250155210E+03  0.25500000000E-02 0.  1.
   -5000001    1    1    2    0    0 -0.11185620654E+02 -0.15556141937E+03 -0.50998916829E+01  0.29470405868E+03  0.25000000000E+03 0.  0.
    5000001    1    1    2    0    0  0.11185620654E+02  0.15556141937E+03  0.96176932666E+01  0.29481684709E+03  0.25000000000E+03 0.  0.
<mgrwt>
<rscale>  0 0.58950359E+03</rscale>
<asrwt>0</asrwt>
<pdfrwt beam="1">  1        2 0.45000239E-01 0.58950359E+03</pdfrwt>
<pdfrwt beam="2">  1       -2 0.45695285E-01 0.58950359E+03</pdfrwt>
<totfact> 0.51706501E+02</totfact>
</mgrwt>
</event>
<event>
 4    1  0.6705655E-006  0.7612778E+03  0.7818608E-02  0.9617822E-01
         -2   -1    0    0    0  501 -0.00000000000E+00  0.00000000000E+00  0.87327261973E+02  0.87327262010E+02  0.25500000000E-02 0. -1.
          2   -1    0    0  501    0  0.00000000000E+00 -0.00000000000E+00 -0.16591149684E+04  0.16591149684E+04  0.25500000000E-02 0.  1.
   -5000001    1    1    2    0    0 -0.17096992896E+03  0.69746360907E+02 -0.28176355562E+03  0.41950682085E+03  0.25000000000E+03 0.  0.
    5000001    1    1    2    0    0  0.17096992896E+03 -0.69746360907E+02 -0.12900241508E+04  0.13269354095E+04  0.25000000000E+03 0.  0.
<mgrwt>
<rscale>  0 0.76127779E+03</rscale>
<asrwt>0</asrwt>
<pdfrwt beam="1">  1        2 0.25524843E+00 0.76127779E+03</pdfrwt>
<pdfrwt beam="2">  1       -2 0.13434965E-01 0.76127779E+03</pdfrwt>
<totfact> 0.44238154E+02</totfact>
</mgrwt>
</event>
<event>
 4    1  0.6705655E-006  0.7267764E+03  0.7818608E-02  0.9672506E-01
         -2   -1    0    0    0  501 -0.00000000000E+00  0.00000000000E+00  0.11726806124E+03  0.11726806127E+03  0.25500000000E-02 0. -1.
          2   -1    0    0  501    0  0.00000000000E+00 -0.00000000000E+00 -0.11260609159E+04  0.11260609159E+04  0.25500000000E-02 0.  1.
   -5000001    1    1    2    0    0 -0.19827878211E+03  0.12052298046E+03 -0.71882528728E+03  0.79564442931E+03  0.25000000000E+03 0.  0.
    5000001    1    1    2    0    0  0.19827878211E+03 -0.12052298046E+03 -0.28996756737E+03  0.44768454784E+03  0.25000000000E+03 0.  0.
<mgrwt>
<rscale>  0 0.72677639E+03</rscale>
<asrwt>0</asrwt>
<pdfrwt beam="1">  1        2 0.17324013E+00 0.72677639E+03</pdfrwt>
<pdfrwt beam="2">  1       -2 0.18041241E-01 0.72677639E+03</pdfrwt>
<totfact> 0.54040828E+02</totfact>
</mgrwt>
</event>
<event>
 4    1  0.6705655E-006  0.1485799E+04  0.7818608E-02  0.8893951E-01
          2   -1    0    0  501    0  0.00000000000E+00  0.00000000000E+00  0.11072027973E+04  0.11072027973E+04  0.25500000000E-02 0.  1.
         -2   -1    0    0    0  501 -0.00000000000E+00 -0.00000000000E+00 -0.49846334642E+03  0.49846334643E+03  0.25500000000E-02 0. -1.
   -5000001    1    1    2    0    0  0.60731349791E+03 -0.22247528167E+03  0.59247666469E+03  0.91206004950E+03  0.25000000000E+03 0.  0.
    5000001    1    1    2    0    0 -0.60731349791E+03  0.22247528167E+03  0.16262786162E+02  0.69360609420E+03  0.25000000000E+03 0.  0.
<mgrwt>
<rscale>  0 0.14857995E+04</rscale>
<asrwt>0</asrwt>
<pdfrwt beam="1">  1        2 0.17033889E+00 0.14857995E+04</pdfrwt>
<pdfrwt beam="2">  1       -2 0.76686668E-01 0.14857995E+04</pdfrwt>
<totfact> 0.31702987E+01</totfact>
</mgrwt>
</event>
<event>
 4    1  0.6705655E-006  0.8437322E+03  0.7818608E-02  0.9498788E-01
         -2   -1    0    0    0  501 -0.00000000000E+00  0.00000000000E+00  0.16738766053E+03  0.16738766055E+03  0.25500000000E-02 0. -1.
          2   -1    0    0  501    0  0.00000000000E+00 -0.00000000000E+00 -0.10632266098E+04  0.10632266098E+04  0.25500000000E-02 0.  1.
   -5000001    1    1    2    0    0  0.30664751359E+03  0.78422553826E+02 -0.26757793261E+03  0.48402556189E+03  0.25000000000E+03 0.  0.
    5000001    1    1    2    0    0 -0.30664751359E+03 -0.78422553826E+02 -0.62826101663E+03  0.74658870843E+03  0.25000000000E+03 0.  0.
<mgrwt>
<rscale>  0 0.84373222E+03</rscale>
<asrwt>0</asrwt>
<pdfrwt beam="1">  1        2 0.16357332E+00 0.84373222E+03</pdfrwt>
<pdfrwt beam="2">  1       -2 0.25751948E-01 0.84373222E+03</pdfrwt>
<totfact> 0.31301919E+02</totfact>
</mgrwt>
</event>
<event>
 4    1  0.6705655E-006  0.8522362E+03  0.7818608E-02  0.9487341E-01
          2   -1    0    0  501    0  0.00000000000E+00  0.00000000000E+00  0.61850490144E+03  0.61850490144E+03  0.25500000000E-02 0.  1.
         -2   -1    0    0    0  501 -0.00000000000E+00 -0.00000000000E+00 -0.29357345178E+03  0.29357345179E+03  0.25500000000E-02 0. -1.
   -5000001    1    1    2    0    0  0.31483842186E+03  0.13492514359E+03  0.11771330640E+03  0.44009595404E+03  0.25000000000E+03 0.  0.
    5000001    1    1    2    0    0 -0.31483842186E+03 -0.13492514359E+03  0.20721814326E+03  0.47198239919E+03  0.25000000000E+03 0.  0.
<mgrwt>
<rscale>  0 0.85223616E+03</rscale>
<asrwt>0</asrwt>
<pdfrwt beam="1">  1        2 0.95154599E-01 0.85223616E+03</pdfrwt>
<pdfrwt beam="2">  1       -2 0.45165147E-01 0.85223616E+03</pdfrwt>
<totfact> 0.22327424E+02</totfact>
</mgrwt>
</event>
<event>
 4    1  0.6705655E-006  0.1144874E+04  0.7818608E-02  0.9162526E-01
         -2   -1    0    0    0  501 -0.00000000000E+00  0.00000000000E+00  0.50002568064E+03  0.50002568064E+03  0.25500000000E-02 0. -1.
          2   -1    0    0  501    0  0.00000000000E+00 -0.00000000000E+00 -0.65533426441E+03  0.65533426442E+03  0.25500000000E-02 0.  1.
   -5000001    1    1    2    0    0 -0.22188139435E+03 -0.42150894591E+03  0.11979776497E+03  0.55113759546E+03  0.25000000000E+03 0.  0.
    5000001    1    1    2    0    0  0.22188139435E+03  0.42150894591E+03 -0.27510634875E+03  0.60422234960E+03  0.25000000000E+03 0.  0.
<mgrwt>
<rscale>  0 0.11448737E+04</rscale>
<asrwt>0</asrwt>
<pdfrwt beam="1">  1        2 0.10082066E+00 0.11448737E+04</pdfrwt>
<pdfrwt beam="2">  1       -2 0.76927027E-01 0.11448737E+04</pdfrwt>
<totfact> 0.66549613E+01</totfact>
</mgrwt>
</event>
<event>
 4    1  0.6705655E-006  0.6553781E+03  0.7818608E-02  0.9796740E-01
         -2   -1    0    0    0  501 -0.00000000000E+00  0.00000000000E+00  0.24103759258E+03  0.24103759260E+03  0.25500000000E-02 0. -1.
          2   -1    0    0  501    0  0.00000000000E+00 -0.00000000000E+00 -0.44549117274E+03  0.44549117275E+03  0.25500000000E-02 0.  1.
   -5000001    1    1    2    0    0 -0.15480442268E+03 -0.14373756187E+03 -0.85491724784E+02  0.33828055070E+03  0.25000000000E+03 0.  0.
    5000001    1    1    2    0    0  0.15480442268E+03  0.14373756187E+03 -0.11896185537E+03  0.34824821465E+03  0.25000000000E+03 0.  0.
<mgrwt>
<rscale>  0 0.65537812E+03</rscale>
<asrwt>0</asrwt>
<pdfrwt beam="1">  1        2 0.68537103E-01 0.65537812E+03</pdfrwt>
<pdfrwt beam="2">  1       -2 0.37082707E-01 0.65537812E+03</pdfrwt>
<totfact> 0.48588457E+02</totfact>
</mgrwt>
</event>
<event>
 4    1  0.6705655E-006  0.7468720E+03  0.7818608E-02  0.9640270E-01
         -2   -1    0    0    0  501 -0.00000000000E+00  0.00000000000E+00  0.15118494059E+03  0.15118494061E+03  0.25500000000E-02 0. -1.
          2   -1    0    0  501    0  0.00000000000E+00 -0.00000000000E+00 -0.92240966623E+03  0.92240966624E+03  0.25500000000E-02 0.  1.
   -5000001    1    1    2    0    0  0.10731446031E+03 -0.25441547954E+03 -0.34728806078E+03  0.50926675405E+03  0.25000000000E+03 0.  0.
    5000001    1    1    2    0    0 -0.10731446031E+03  0.25441547954E+03 -0.42393666487E+03  0.56432785280E+03  0.25000000000E+03 0.  0.
<mgrwt>
<rscale>  0 0.74687201E+03</rscale>
<asrwt>0</asrwt>
<pdfrwt beam="1">  1        2 0.14190918E+00 0.74687201E+03</pdfrwt>
<pdfrwt beam="2">  1       -2 0.23259222E-01 0.74687201E+03</pdfrwt>
<totfact> 0.46495777E+02</totfact>
</mgrwt>
</event>
<event>
 4    1  0.6705655E-006  0.6131938E+03  0.7818608E-02  0.9878405E-01
          2   -1    0    0  501    0  0.00000000000E+00  0.00000000000E+00  0.31098961317E+04  0.31098961317E+04  0.25500000000E-02 0.  1.
         -2   -1    0    0    0  501 -0.00000000000E+00 -0.00000000000E+00 -0.30226625773E+02  0.30226625880E+02  0.25500000000E-02 0. -1.
   -5000001    1    1    2    0    0 -0.11031663262E+03 -0.13342605284E+03  0.17401014753E+04  0.17664725912E+04  0.25000000000E+03 0.  0.
    5000001    1    1    2    0    0  0.11031663262E+03  0.13342605284E+03  0.13395680307E+04  0.13736501665E+04  0.25000000000E+03 0.  0.
<mgrwt>
<rscale>  0 0.61319382E+03</rscale>
<asrwt>0</asrwt>
<pdfrwt beam="1">  1        2 0.47844554E+00 0.61319382E+03</pdfrwt>
<pdfrwt beam="2">  1       -2 0.46502503E-02 0.61319382E+03</pdfrwt>
<totfact> 0.36883676E+02</totfact>
</mgrwt>
</event>
<event>
 4    1  0.6705655E-006  0.1321591E+04  0.7818608E-02  0.9012617E-01
          2   -1    0    0  501    0  0.00000000000E+00  0.00000000000E+00  0.32973409158E+03  0.32973409159E+03  0.25500000000E-02 0.  1.
         -2   -1    0    0    0  501 -0.00000000000E+00 -0.00000000000E+00 -0.13242504878E+04  0.13242504878E+04  0.25500000000E-02 0. -1.
   -5000001    1    1    2    0    0 -0.57564177064E+03  0.77548007223E+02 -0.73725270318E+03  0.97129742607E+03  0.25000000000E+03 0.  0.
    5000001    1    1    2    0    0  0.57564177064E+03 -0.77548007223E+02 -0.25726369300E+03  0.68268715329E+03  0.25000000000E+03 0.  0.
<mgrwt>
<rscale>  0 0.13215908E+04</rscale>
<asrwt>0</asrwt>
<pdfrwt beam="1">  1        2 0.50728323E-01 0.13215908E+04</pdfrwt>
<pdfrwt beam="2">  1       -2 0.20373084E+00 0.13215908E+04</pdfrwt>
<totfact> 0.12147250E+01</totfact>
</mgrwt>
</event>
<event>
 4    1  0.6705655E-006  0.6978941E+03  0.7818608E-02  0.9720840E-01
          2   -1    0    0  501    0  0.00000000000E+00  0.00000000000E+00  0.23046354104E+04  0.23046354104E+04  0.25500000000E-02 0.  1.
         -2   -1    0    0    0  501 -0.00000000000E+00 -0.00000000000E+00 -0.52834402183E+02  0.52834402244E+02  0.25500000000E-02 0. -1.
   -5000001    1    1    2    0    0  0.21076339974E+02  0.18387357483E+03  0.59168517390E+03  0.66846469513E+03  0.25000000000E+03 0.  0.
    5000001    1    1    2    0    0 -0.21076339974E+02 -0.18387357483E+03  0.16601158344E+04  0.16890051176E+04  0.25000000000E+03 0.  0.
<mgrwt>
<rscale>  0 0.69789407E+03</rscale>
<asrwt>0</asrwt>
<pdfrwt beam="1">  1        2 0.35455938E+00 0.69789407E+03</pdfrwt>
<pdfrwt beam="2">  1       -2 0.81283676E-02 0.69789407E+03</pdfrwt>
<totfact> 0.44795281E+02</totfact>
</mgrwt>
</event>
<event>
 4    1  0.6705655E-006  0.7116023E+03  0.7818608E-02  0.9697594E-01
          2   -1    0    0  501    0  0.00000000000E+00  0.00000000000E+00  0.17208542858E+04  0.17208542858E+04  0.25500000000E-02 0.  1.
         -2   -1    0    0    0  501 -0.00000000000E+00 -0.00000000000E+00 -0.73564887076E+02  0.73564887120E+02  0.25500000000E-02 0. -1.
   -5000001    1    1    2    0    0 -0.13300147386E+03  0.18770913780E+03  0.10901585245E+04  0.11418711490E+04  0.25000000000E+03 0.  0.
    5000001    1    1    2    0    0  0.13300147386E+03 -0.18770913780E+03  0.55713087424E+03  0.65254802390E+03  0.25000000000E+03 0.  0.
<mgrwt>
<rscale>  0 0.71160228E+03</rscale>
<asrwt>0</asrwt>
<pdfrwt beam="1">  1        2 0.26474680E+00 0.71160228E+03</pdfrwt>
<pdfrwt beam="2">  1       -2 0.11317675E-01 0.71160228E+03</pdfrwt>
<totfact> 0.54551549E+02</totfact>
</mgrwt>
</event>
<event>
 4    1  0.6705655E-006  0.9854730E+03  0.7818608E-02  0.9324623E-01
          2   -1    0    0  501    0  0.00000000000E+00  0.00000000000E+00  0.28417203544E+04  0.28417203544E+04  0.25500000000E-02 0.  1.
         -2   -1    0    0    0  501 -0.00000000000E+00 -0.00000000000E+00 -0.85437422905E+02  0.85437422943E+02  0.25500000000E-02 0. -1.
   -5000001    1    1    2    0    0  0.23726100830E+03  0.35120096542E+03  0.14541232755E+04  0.15351252081E+04  0.25000000000E+03 0.  0.
    5000001    1    1    2    0    0 -0.23726100830E+03 -0.35120096542E+03  0.13021596560E+04  0.13920325693E+04  0.25000000000E+03 0.  0.
<mgrwt>
<rscale>  0 0.98547301E+03</rscale>
<asrwt>0</asrwt>
<pdfrwt beam="1">  1        2 0.43718780E+00 0.98547301E+03</pdfrwt>
<pdfrwt beam="2">  1       -2 0.13144217E-01 0.98547301E+03</pdfrwt>
<totfact> 0.97601078E+01</totfact>
</mgrwt>
</event>
<event>
 4    1  0.6705655E-006  0.5262530E+03  0.7818608E-02  0.1007145E+00
          2   -1    0    0  501    0  0.00000000000E+00  0.00000000000E+00  0.12476554591E+04  0.12476554591E+04  0.25500000000E-02 0.  1.
         -2   -1    0    0    0  501 -0.00000000000E+00 -0.00000000000E+00 -0.55492535314E+02  0.55492535373E+02  0.25500000000E-02 0. -1.
   -5000001    1    1    2    0    0 -0.49875166424E+02  0.27870726699E+02  0.74197712639E+03  0.78504418074E+03  0.25000000000E+03 0.  0.
    5000001    1    1    2    0    0  0.49875166424E+02 -0.27870726699E+02  0.45018579744E+03  0.51810381377E+03  0.25000000000E+03 0.  0.
<mgrwt>
<rscale>  0 0.52625304E+03</rscale>
<asrwt>0</asrwt>
<pdfrwt beam="1">  1        2 0.19194699E+00 0.52625304E+03</pdfrwt>
<pdfrwt beam="2">  1       -2 0.85373133E-02 0.52625304E+03</pdfrwt>
<totfact> 0.15931931E+03</totfact>
</mgrwt>
</event>
<event>
 4    1  0.6705655E-006  0.1185948E+04  0.7818608E-02  0.9125246E-01
          2   -1    0    0  501    0  0.00000000000E+00  0.00000000000E+00  0.15938155763E+04  0.15938155763E+04  0.25500000000E-02 0.  1.
         -2   -1    0    0    0  501 -0.00000000000E+00 -0.00000000000E+00 -0.22061394214E+03  0.22061394215E+03  0.25500000000E-02 0. -1.
   -5000001    1    1    2    0    0  0.47338319135E+03  0.15464642481E+03  0.37639322197E+03  0.67244257755E+03  0.25000000000E+03 0.  0.
    5000001    1    1    2    0    0 -0.47338319135E+03 -0.15464642481E+03  0.99680841215E+03  0.11419869409E+04  0.25000000000E+03 0.  0.
<mgrwt>
<rscale>  0 0.11859476E+04</rscale>
<asrwt>0</asrwt>
<pdfrwt beam="1">  1        2 0.24520239E+00 0.11859476E+04</pdfrwt>
<pdfrwt beam="2">  1       -2 0.33940607E-01 0.11859476E+04</pdfrwt>
<totfact> 0.90156692E+01</totfact>
</mgrwt>
</event>
<event>
 4    1  0.6705655E-006  0.7051074E+03  0.7818608E-02  0.9708538E-01
         -2   -1    0    0    0  501 -0.00000000000E+00  0.00000000000E+00  0.20274657770E+03  0.20274657772E+03  0.25500000000E-02 0. -1.
          2   -1    0    0  501    0  0.00000000000E+00 -0.00000000000E+00 -0.61305156995E+03  0.61305156996E+03  0.25500000000E-02 0.  1.
   -5000001    1    1    2    0    0 -0.10446506658E+03 -0.21718786021E+03 -0.13467523915E+03  0.37245259672E+03  0.25000000000E+03 0.  0.
    5000001    1    1    2    0    0  0.10446506658E+03  0.21718786021E+03 -0.27562975311E+03  0.44334555096E+03  0.25000000000E+03 0.  0.
<mgrwt>
<rscale>  0 0.70510739E+03</rscale>
<asrwt>0</asrwt>
<pdfrwt beam="1">  1        2 0.94315625E-01 0.70510739E+03</pdfrwt>
<pdfrwt beam="2">  1       -2 0.31191782E-01 0.70510739E+03</pdfrwt>
<totfact> 0.46342945E+02</totfact>
</mgrwt>
</event>
<event>
 4    1  0.6705655E-006  0.5436893E+03  0.7818608E-02  0.1002965E+00
          2   -1    0    0  501    0  0.00000000000E+00  0.00000000000E+00  0.19460172423E+04  0.19460172423E+04  0.25500000000E-02 0.  1.
         -2   -1    0    0    0  501 -0.00000000000E+00 -0.00000000000E+00 -0.37974743752E+02  0.37974743838E+02  0.25500000000E-02 0. -1.
   -5000001    1    1    2    0    0  0.42770935679E+02 -0.94776108564E+02  0.86556149050E+03  0.90692257527E+03  0.25000000000E+03 0.  0.
    5000001    1    1    2    0    0 -0.42770935679E+02  0.94776108564E+02  0.10424810080E+04  0.10770694108E+04  0.25000000000E+03 0.  0.
<mgrwt>
<rscale>  0 0.54368927E+03</rscale>
<asrwt>0</asrwt>
<pdfrwt beam="1">  1        2 0.29938724E+00 0.54368927E+03</pdfrwt>
<pdfrwt beam="2">  1       -2 0.58422689E-02 0.54368927E+03</pdfrwt>
<totfact> 0.11981455E+03</totfact>
</mgrwt>
</event>
<event>
 4    1  0.6705655E-006  0.8916905E+03  0.7818608E-02  0.9436029E-01
          2   -1    0    0  501    0  0.00000000000E+00  0.00000000000E+00  0.45767211625E+03  0.45767211626E+03  0.25500000000E-02 0.  1.
         -2   -1    0    0    0  501 -0.00000000000E+00 -0.00000000000E+00 -0.43432400131E+03  0.43432400132E+03  0.25500000000E-02 0. -1.
   -5000001    1    1    2    0    0  0.37921293395E+02 -0.36656758771E+03 -0.99704555705E+01  0.44543151083E+03  0.25000000000E+03 0.  0.
    5000001    1    1    2    0    0 -0.37921293395E+02  0.36656758771E+03  0.33318570509E+02  0.44656460674E+03  0.25000000000E+03 0.  0.
<mgrwt>
<rscale>  0 0.89169050E+03</rscale>
<asrwt>0</asrwt>
<pdfrwt beam="1">  1        2 0.70411095E-01 0.89169050E+03</pdfrwt>
<pdfrwt beam="2">  1       -2 0.66819077E-01 0.89169050E+03</pdfrwt>
<totfact> 0.14091968E+02</totfact>
</mgrwt>
</event>
<event>
 4    1  0.6705655E-006  0.1061690E+04  0.7818608E-02  0.9243357E-01
          2   -1    0    0  501    0  0.00000000000E+00  0.00000000000E+00  0.59923150496E+03  0.59923150497E+03  0.25500000000E-02 0.  1.
         -2   -1    0    0    0  501 -0.00000000000E+00 -0.00000000000E+00 -0.47026316279E+03  0.47026316280E+03  0.25500000000E-02 0. -1.
   -5000001    1    1    2    0    0  0.45699149720E+03  0.94433900795E+02  0.24984800414E+02  0.52998417937E+03  0.25000000000E+03 0.  0.
    5000001    1    1    2    0    0 -0.45699149720E+03 -0.94433900795E+02  0.10398354175E+03  0.53951048840E+03  0.25000000000E+03 0.  0.
<mgrwt>
<rscale>  0 0.10616902E+04</rscale>
<asrwt>0</asrwt>
<pdfrwt beam="1">  1        2 0.92189463E-01 0.10616902E+04</pdfrwt>
<pdfrwt beam="2">  1       -2 0.72348179E-01 0.10616902E+04</pdfrwt>
<totfact> 0.85525047E+01</totfact>
</mgrwt>
</event>
<event>
 4    1  0.6705655E-006  0.6111424E+03  0.7818608E-02  0.9882555E-01
         -2   -1    0    0    0  501 -0.00000000000E+00  0.00000000000E+00  0.33518602071E+03  0.33518602072E+03  0.25500000000E-02 0. -1.
          2   -1    0    0  501    0  0.00000000000E+00 -0.00000000000E+00 -0.27857297440E+03  0.27857297441E+03  0.25500000000E-02 0.  1.
   -5000001    1    1    2    0    0 -0.17232498494E+03 -0.12824863149E+02  0.60276592335E+02  0.30982841240E+03  0.25000000000E+03 0.  0.
    5000001    1    1    2    0    0  0.17232498494E+03  0.12824863149E+02 -0.36635460200E+01  0.30393058273E+03  0.25000000000E+03 0.  0.
<mgrwt>
<rscale>  0 0.61114243E+03</rscale>
<asrwt>0</asrwt>
<pdfrwt beam="1">  1        2 0.42857381E-01 0.61114243E+03</pdfrwt>
<pdfrwt beam="2">  1       -2 0.51567080E-01 0.61114243E+03</pdfrwt>
<totfact> 0.42751662E+02</totfact>
</mgrwt>
</event>
<event>
 4    1  0.6705655E-006  0.7266020E+03  0.7818608E-02  0.9672790E-01
         -2   -1    0    0    0  501 -0.00000000000E+00  0.00000000000E+00  0.18035006415E+03  0.18035006417E+03  0.25500000000E-02 0. -1.
          2   -1    0    0  501    0  0.00000000000E+00 -0.00000000000E+00 -0.73184120196E+03  0.73184120197E+03  0.25500000000E-02 0.  1.
   -5000001    1    1    2    0    0  0.44511525078E+02  0.23274477506E+03 -0.42072467262E+03  0.54374686788E+03  0.25000000000E+03 0.  0.
    5000001    1    1    2    0    0 -0.44511525078E+02 -0.23274477506E+03 -0.13076646520E+03  0.36844439825E+03  0.25000000000E+03 0.  0.
<mgrwt>
<rscale>  0 0.72660198E+03</rscale>
<asrwt>0</asrwt>
<pdfrwt beam="1">  1        2 0.11259095E+00 0.72660198E+03</pdfrwt>
<pdfrwt beam="2">  1       -2 0.27746164E-01 0.72660198E+03</pdfrwt>
<totfact> 0.46130448E+02</totfact>
</mgrwt>
</event>
<event>
 4    1  0.6705655E-006  0.1064988E+04  0.7818608E-02  0.9240005E-01
          2   -1    0    0  501    0  0.00000000000E+00  0.00000000000E+00  0.10007528981E+04  0.10007528981E+04  0.25500000000E-02 0.  1.
         -2   -1    0    0    0  501 -0.00000000000E+00 -0.00000000000E+00 -0.28333674196E+03  0.28333674197E+03  0.25500000000E-02 0. -1.
   -5000001    1    1    2    0    0 -0.20062014939E+03  0.39717335861E+03  0.54178454011E+03  0.74432896560E+03  0.25000000000E+03 0.  0.
    5000001    1    1    2    0    0  0.20062014939E+03 -0.39717335861E+03  0.17563161600E+03  0.53976067444E+03  0.25000000000E+03 0.  0.
<mgrwt>
<rscale>  0 0.10649884E+04</rscale>
<asrwt>0</asrwt>
<pdfrwt beam="1">  1        2 0.15396198E+00 0.10649884E+04</pdfrwt>
<pdfrwt beam="2">  1       -2 0.43590268E-01 0.10649884E+04</pdfrwt>
<totfact> 0.12484913E+02</totfact>
</mgrwt>
</event>
<event>
 4    1  0.6705655E-006  0.6413490E+03  0.7818608E-02  0.9823149E-01
          2   -1    0    0  501    0  0.00000000000E+00  0.00000000000E+00  0.12659133360E+04  0.12659133360E+04  0.25500000000E-02 0.  1.
         -2   -1    0    0    0  501 -0.00000000000E+00 -0.00000000000E+00 -0.81231578164E+02  0.81231578204E+02  0.25500000000E-02 0. -1.
   -5000001    1    1    2    0    0 -0.14934752275E+03 -0.11561869069E+03  0.73572541373E+03  0.79966508527E+03  0.25000000000E+03 0.  0.
    5000001    1    1    2    0    0  0.14934752275E+03  0.11561869069E+03  0.44895634415E+03  0.54747982898E+03  0.25000000000E+03 0.  0.
<mgrwt>
<rscale>  0 0.64134901E+03</rscale>
<asrwt>0</asrwt>
<pdfrwt beam="1">  1        2 0.19475589E+00 0.64134901E+03</pdfrwt>
<pdfrwt beam="2">  1       -2 0.12497167E-01 0.64134901E+03</pdfrwt>
<totfact> 0.83375700E+02</totfact>
</mgrwt>
</event>
<event>
 4    1  0.6705655E-006  0.6104219E+03  0.7818608E-02  0.9884017E-01
         -2   -1    0    0    0  501 -0.00000000000E+00  0.00000000000E+00  0.22715165747E+03  0.22715165748E+03  0.25500000000E-02 0. -1.
          2   -1    0    0  501    0  0.00000000000E+00 -0.00000000000E+00 -0.41009483404E+03  0.41009483405E+03  0.25500000000E-02 0.  1.
   -5000001    1    1    2    0    0  0.78877608921E+02  0.11356712302E+03 -0.20359020504E+03  0.35081068999E+03  0.25000000000E+03 0.  0.
    5000001    1    1    2    0    0 -0.78877608921E+02 -0.11356712302E+03  0.20647028469E+02  0.28643580154E+03  0.25000000000E+03 0.  0.
<mgrwt>
<rscale>  0 0.61042189E+03</rscale>
<asrwt>0</asrwt>
<pdfrwt beam="1">  1        2 0.63091513E-01 0.61042189E+03</pdfrwt>
<pdfrwt beam="2">  1       -2 0.34946409E-01 0.61042189E+03</pdfrwt>
<totfact> 0.59798193E+02</totfact>
</mgrwt>
</event>
<event>
 4    1  0.6705655E-006  0.6534303E+03  0.7818608E-02  0.9800364E-01
          2   -1    0    0  501    0  0.00000000000E+00  0.00000000000E+00  0.23865069068E+04  0.23865069068E+04  0.25500000000E-02 0.  1.
         -2   -1    0    0    0  501 -0.00000000000E+00 -0.00000000000E+00 -0.44727627434E+02  0.44727627507E+02  0.25500000000E-02 0. -1.
   -5000001    1    1    2    0    0  0.18196226406E+03 -0.10153630516E+03  0.10641557213E+04  0.11128105346E+04  0.25000000000E+03 0.  0.
    5000001    1    1    2    0    0 -0.18196226406E+03  0.10153630516E+03  0.12776235581E+04  0.13184239997E+04  0.25000000000E+03 0.  0.
<mgrwt>
<rscale>  0 0.65343031E+03</rscale>
<asrwt>0</asrwt>
<pdfrwt beam="1">  1        2 0.36715508E+00 0.65343031E+03</pdfrwt>
<pdfrwt beam="2">  1       -2 0.68811703E-02 0.65343031E+03</pdfrwt>
<totfact> 0.52778568E+02</totfact>
</mgrwt>
</event>
<event>
 4    1  0.6705655E-006  0.6077659E+03  0.7818608E-02  0.9889424E-01
          2   -1    0    0  501    0  0.00000000000E+00  0.00000000000E+00  0.62375728735E+03  0.62375728736E+03  0.25500000000E-02 0.  1.
         -2   -1    0    0    0  501 -0.00000000000E+00 -0.00000000000E+00 -0.14804610177E+03  0.14804610179E+03  0.25500000000E-02 0. -1.
   -5000001    1    1    2    0    0  0.39481244169E+02  0.16764077453E+03  0.25501746541E+03  0.39647964083E+03  0.25000000000E+03 0.  0.
    5000001    1    1    2    0    0 -0.39481244169E+02 -0.16764077453E+03  0.22069372018E+03  0.37532374832E+03  0.25000000000E+03 0.  0.
<mgrwt>
<rscale>  0 0.60776586E+03</rscale>
<asrwt>0</asrwt>
<pdfrwt beam="1">  1        2 0.95962661E-01 0.60776586E+03</pdfrwt>
<pdfrwt beam="2">  1       -2 0.22776323E-01 0.60776586E+03</pdfrwt>
<totfact> 0.80572467E+02</totfact>
</mgrwt>
</event>
<event>
 4    1  0.6705655E-006  0.1218261E+04  0.7818608E-02  0.9097021E-01
         -2   -1    0    0    0  501 -0.00000000000E+00  0.00000000000E+00  0.51150593468E+03  0.51150593468E+03  0.25500000000E-02 0. -1.
          2   -1    0    0  501    0  0.00000000000E+00 -0.00000000000E+00 -0.72538743156E+03  0.72538743156E+03  0.25500000000E-02 0.  1.
   -5000001    1    1    2    0    0 -0.45705442827E+03 -0.25770643959E+03 -0.29201587052E+03  0.65044955841E+03  0.25000000000E+03 0.  0.
    5000001    1    1    2    0    0  0.45705442827E+03  0.25770643959E+03  0.78134373633E+02  0.58644380784E+03  0.25000000000E+03 0.  0.
<mgrwt>
<rscale>  0 0.12182610E+04</rscale>
<asrwt>0</asrwt>
<pdfrwt beam="1">  1        2 0.11159807E+00 0.12182610E+04</pdfrwt>
<pdfrwt beam="2">  1       -2 0.78693221E-01 0.12182610E+04</pdfrwt>
<totfact> 0.55376934E+01</totfact>
</mgrwt>
</event>
<event>
 4    1  0.6705655E-006  0.8313912E+03  0.7818608E-02  0.9515659E-01
          2   -1    0    0  501    0  0.00000000000E+00  0.00000000000E+00  0.14697104364E+04  0.14697104364E+04  0.25500000000E-02 0.  1.
         -2   -1    0    0    0  501 -0.00000000000E+00 -0.00000000000E+00 -0.11757610215E+03  0.11757610218E+03  0.25500000000E-02 0. -1.
   -5000001    1    1    2    0    0  0.22892710725E+03 -0.21199674315E+03  0.45878296951E+03  0.60854913742E+03  0.25000000000E+03 0.  0.
    5000001    1    1    2    0    0 -0.22892710725E+03  0.21199674315E+03  0.89335136476E+03  0.97873740117E+03  0.25000000000E+03 0.  0.
<mgrwt>
<rscale>  0 0.83139118E+03</rscale>
<asrwt>0</asrwt>
<pdfrwt beam="1">  1        2 0.22610930E+00 0.83139118E+03</pdfrwt>
<pdfrwt beam="2">  1       -2 0.18088631E-01 0.83139118E+03</pdfrwt>
<totfact> 0.33830034E+02</totfact>
</mgrwt>
</event>
<event>
 4    1  0.6705655E-006  0.9664314E+03  0.7818608E-02  0.9346148E-01
         -2   -1    0    0    0  501 -0.00000000000E+00  0.00000000000E+00  0.20263234641E+03  0.20263234642E+03  0.25500000000E-02 0. -1.
          2   -1    0    0  501    0  0.00000000000E+00 -0.00000000000E+00 -0.11523206251E+04  0.11523206251E+04  0.25500000000E-02 0.  1.
   -5000001    1    1    2    0    0  0.19414811914E+03  0.34799718043E+03 -0.62971401301E+03  0.78602497920E+03  0.25000000000E+03 0.  0.
    5000001    1    1    2    0    0 -0.19414811914E+03 -0.34799718043E+03 -0.31997426570E+03  0.56892799233E+03  0.25000000000E+03 0.  0.
<mgrwt>
<rscale>  0 0.96643144E+03</rscale>
<asrwt>0</asrwt>
<pdfrwt beam="1">  1        2 0.17728009E+00 0.96643144E+03</pdfrwt>
<pdfrwt beam="2">  1       -2 0.31174208E-01 0.96643144E+03</pdfrwt>
<totfact> 0.19281533E+02</totfact>
</mgrwt>
</event>
<event>
 4    1  0.6705655E-006  0.9914343E+03  0.7818608E-02  0.9317990E-01
          2   -1    0    0  501    0  0.00000000000E+00  0.00000000000E+00  0.36557667982E+04  0.36557667982E+04  0.25500000000E-02 0.  1.
         -2   -1    0    0    0  501 -0.00000000000E+00 -0.00000000000E+00 -0.67218591429E+02  0.67218591477E+02  0.25500000000E-02 0. -1.
   -5000001    1    1    2    0    0  0.16189223067E+03 -0.35540807395E+03  0.24523529258E+04  0.24958082590E+04  0.25000000000E+03 0.  0.
    5000001    1    1    2    0    0 -0.16189223067E+03  0.35540807395E+03  0.11361952810E+04  0.12271771306E+04  0.25000000000E+03 0.  0.
<mgrwt>
<rscale>  0 0.99143430E+03</rscale>
<asrwt>0</asrwt>
<pdfrwt beam="1">  1        2 0.56242558E+00 0.99143430E+03</pdfrwt>
<pdfrwt beam="2">  1       -2 0.10341323E-01 0.99143430E+03</pdfrwt>
<totfact> 0.42822022E+01</totfact>
</mgrwt>
</event>
<event>
 4    1  0.6705655E-006  0.5882920E+03  0.7818608E-02  0.9929999E-01
          2   -1    0    0  501    0  0.00000000000E+00  0.00000000000E+00  0.12362803293E+04  0.12362803293E+04  0.25500000000E-02 0.  1.
         -2   -1    0    0    0  501 -0.00000000000E+00 -0.00000000000E+00 -0.69985646482E+02  0.69985646529E+02  0.25500000000E-02 0. -1.
   -5000001    1    1    2    0    0  0.53823525443E+02 -0.62890469644E+02  0.29219628315E+03  0.39335842555E+03  0.25000000000E+03 0.  0.
    5000001    1    1    2    0    0 -0.53823525443E+02  0.62890469644E+02  0.87409839970E+03  0.91290755031E+03  0.25000000000E+03 0.  0.
<mgrwt>
<rscale>  0 0.58829203E+03</rscale>
<asrwt>0</asrwt>
<pdfrwt beam="1">  1        2 0.19019697E+00 0.58829203E+03</pdfrwt>
<pdfrwt beam="2">  1       -2 0.10767023E-01 0.58829203E+03</pdfrwt>
<totfact> 0.11102207E+03</totfact>
</mgrwt>
</event>
<event>
 4    1  0.6705655E-006  0.7267468E+03  0.7818608E-02  0.9672554E-01
          2   -1    0    0  501    0  0.00000000000E+00  0.00000000000E+00  0.13145344587E+04  0.13145344587E+04  0.25500000000E-02 0.  1.
         -2   -1    0    0    0  501 -0.00000000000E+00 -0.00000000000E+00 -0.10044636834E+03  0.10044636837E+03  0.25500000000E-02 0. -1.
   -5000001    1    1    2    0    0  0.14342960410E+03 -0.19765678112E+03  0.80076835775E+03  0.87371060268E+03  0.25000000000E+03 0.  0.
    5000001    1    1    2    0    0 -0.14342960410E+03  0.19765678112E+03  0.41331973265E+03  0.54127022443E+03  0.25000000000E+03 0.  0.
<mgrwt>
<rscale>  0 0.72674676E+03</rscale>
<asrwt>0</asrwt>
<pdfrwt beam="1">  1        2 0.20223606E+00 0.72674676E+03</pdfrwt>
<pdfrwt beam="2">  1       -2 0.15453289E-01 0.72674676E+03</pdfrwt>
<totfact> 0.54557624E+02</totfact>
</mgrwt>
</event>
<event>
 4    1  0.6705655E-006  0.7373035E+03  0.7818608E-02  0.9655482E-01
         -2   -1    0    0    0  501 -0.00000000000E+00  0.00000000000E+00  0.70478325211E+02  0.70478325257E+02  0.25500000000E-02 0. -1.
          2   -1    0    0  501    0  0.00000000000E+00 -0.00000000000E+00 -0.19283109778E+04  0.19283109778E+04  0.25500000000E-02 0.  1.
   -5000001    1    1    2    0    0  0.15446007550E+03 -0.17535239635E+03 -0.13006001291E+04  0.13448669353E+04  0.25000000000E+03 0.  0.
    5000001    1    1    2    0    0 -0.15446007550E+03  0.17535239635E+03 -0.55723252348E+03  0.65392236776E+03  0.25000000000E+03 0.  0.
<mgrwt>
<rscale>  0 0.73730354E+03</rscale>
<asrwt>0</asrwt>
<pdfrwt beam="1">  1        2 0.29666319E+00 0.73730354E+03</pdfrwt>
<pdfrwt beam="2">  1       -2 0.10842821E-01 0.73730354E+03</pdfrwt>
<totfact> 0.45042252E+02</totfact>
</mgrwt>
</event>
<event>
 4    1  0.6705655E-006  0.6954640E+03  0.7818608E-02  0.9725021E-01
          2   -1    0    0  501    0  0.00000000000E+00  0.00000000000E+00  0.23571600267E+04  0.23571600268E+04  0.25500000000E-02 0.  1.
         -2   -1    0    0    0  501 -0.00000000000E+00 -0.00000000000E+00 -0.51297979870E+02  0.51297979933E+02  0.25500000000E-02 0. -1.
   -5000001    1    1    2    0    0  0.86807992945E+02 -0.22508169690E+03  0.12043145048E+04  0.12534236413E+04  0.25000000000E+03 0.  0.
    5000001    1    1    2    0    0 -0.86807992945E+02  0.22508169690E+03  0.11015475420E+04  0.11550343654E+04  0.25000000000E+03 0.  0.
<mgrwt>
<rscale>  0 0.69546401E+03</rscale>
<asrwt>0</asrwt>
<pdfrwt beam="1">  1        2 0.36263994E+00 0.69546401E+03</pdfrwt>
<pdfrwt beam="2">  1       -2 0.78919983E-02 0.69546401E+03</pdfrwt>
<totfact> 0.43916549E+02</totfact>
</mgrwt>
</event>
<event>
 4    1  0.6705655E-006  0.1026235E+04  0.7818608E-02  0.9280230E-01
          2   -1    0    0  501    0  0.00000000000E+00  0.00000000000E+00  0.62915636269E+03  0.62915636270E+03  0.25500000000E-02 0.  1.
         -2   -1    0    0    0  501 -0.00000000000E+00 -0.00000000000E+00 -0.41847999764E+03  0.41847999765E+03  0.25500000000E-02 0. -1.
   -5000001    1    1    2    0    0  0.75076369170E+02  0.39512762004E+03  0.30701074366E+03  0.56437389561E+03  0.25000000000E+03 0.  0.
    5000001    1    1    2    0    0 -0.75076369170E+02 -0.39512762004E+03 -0.96334378613E+02  0.48326246474E+03  0.25000000000E+03 0.  0.
<mgrwt>
<rscale>  0 0.10262346E+04</rscale>
<asrwt>0</asrwt>
<pdfrwt beam="1">  1        2 0.96793287E-01 0.10262346E+04</pdfrwt>
<pdfrwt beam="2">  1       -2 0.64381538E-01 0.10262346E+04</pdfrwt>
<totfact> 0.10406538E+02</totfact>
</mgrwt>
</event>
<event>
 4    1  0.6705655E-006  0.5749444E+03  0.7818608E-02  0.9958797E-01
          2   -1    0    0  501    0  0.00000000000E+00  0.00000000000E+00  0.50792767675E+03  0.50792767676E+03  0.25500000000E-02 0.  1.
         -2   -1    0    0    0  501 -0.00000000000E+00 -0.00000000000E+00 -0.16270085398E+03  0.16270085400E+03  0.25500000000E-02 0. -1.
   -5000001    1    1    2    0    0  0.84938014906E+02  0.11120532884E+03  0.20019569000E+03  0.34951309823E+03  0.25000000000E+03 0.  0.
    5000001    1    1    2    0    0 -0.84938014906E+02 -0.11120532884E+03  0.14503113277E+03  0.32111543253E+03  0.25000000000E+03 0.  0.
<mgrwt>
<rscale>  0 0.57494440E+03</rscale>
<asrwt>0</asrwt>
<pdfrwt beam="1">  1        2 0.78142719E-01 0.57494440E+03</pdfrwt>
<pdfrwt beam="2">  1       -2 0.25030901E-01 0.57494440E+03</pdfrwt>
<totfact> 0.86818031E+02</totfact>
</mgrwt>
</event>
<event>
 4    1  0.6705655E-006  0.6945726E+03  0.7818608E-02  0.9726559E-01
          2   -1    0    0  501    0  0.00000000000E+00  0.00000000000E+00  0.10223288468E+04  0.10223288468E+04  0.25500000000E-02 0.  1.
         -2   -1    0    0    0  501 -0.00000000000E+00 -0.00000000000E+00 -0.11797355781E+03  0.11797355784E+03  0.25500000000E-02 0. -1.
   -5000001    1    1    2    0    0 -0.43438602754E+02 -0.23469081162E+03  0.39672007446E+03  0.52616870560E+03  0.25000000000E+03 0.  0.
    5000001    1    1    2    0    0  0.43438602754E+02  0.23469081162E+03  0.50763521448E+03  0.61413369900E+03  0.25000000000E+03 0.  0.
<mgrwt>
<rscale>  0 0.69457259E+03</rscale>
<asrwt>0</asrwt>
<pdfrwt beam="1">  1        2 0.15728136E+00 0.69457259E+03</pdfrwt>
<pdfrwt beam="2">  1       -2 0.18149778E-01 0.69457259E+03</pdfrwt>
<totfact> 0.62058470E+02</totfact>
</mgrwt>
</event>
<event>
 4    1  0.6705655E-006  0.6793374E+03  0.7818608E-02  0.9753235E-01
          2   -1    0    0  501    0  0.00000000000E+00  0.00000000000E+00  0.48628871779E+03  0.48628871780E+03  0.25500000000E-02 0.  1.
         -2   -1    0    0    0  501 -0.00000000000E+00 -0.00000000000E+00 -0.23725583260E+03  0.23725583261E+03  0.25500000000E-02 0. -1.
   -5000001    1    1    2    0    0  0.22068983632E+03  0.48765144242E+02  0.16961312835E+03  0.37729385955E+03  0.25000000000E+03 0.  0.
    5000001    1    1    2    0    0 -0.22068983632E+03 -0.48765144242E+02  0.79419756842E+02  0.34625069086E+03  0.25000000000E+03 0.  0.
<mgrwt>
<rscale>  0 0.67933743E+03</rscale>
<asrwt>0</asrwt>
<pdfrwt beam="1">  1        2 0.74813649E-01 0.67933743E+03</pdfrwt>
<pdfrwt beam="2">  1       -2 0.36500897E-01 0.67933743E+03</pdfrwt>
<totfact> 0.45281833E+02</totfact>
</mgrwt>
</event>
<event>
 4    1  0.6705655E-006  0.6710392E+03  0.7818608E-02  0.9768082E-01
          2   -1    0    0  501    0  0.00000000000E+00  0.00000000000E+00  0.13765614267E+04  0.13765614267E+04  0.25500000000E-02 0.  1.
         -2   -1    0    0    0  501 -0.00000000000E+00 -0.00000000000E+00 -0.81778706084E+02  0.81778706124E+02  0.25500000000E-02 0. -1.
   -5000001    1    1    2    0    0  0.10284649878E+03 -0.18945375552E+03  0.51693652021E+03  0.61334614511E+03  0.25000000000E+03 0.  0.
    5000001    1    1    2    0    0 -0.10284649878E+03  0.18945375552E+03  0.77784620039E+03  0.84499398770E+03  0.25000000000E+03 0.  0.
<mgrwt>
<rscale>  0 0.67103923E+03</rscale>
<asrwt>0</asrwt>
<pdfrwt beam="1">  1        2 0.21177867E+00 0.67103923E+03</pdfrwt>
<pdfrwt beam="2">  1       -2 0.12581340E-01 0.67103923E+03</pdfrwt>
<totfact> 0.71188430E+02</totfact>
</mgrwt>
</event>
<event>
 4    1  0.6705655E-006  0.6687878E+03  0.7818608E-02  0.9772150E-01
         -2   -1    0    0    0  501 -0.00000000000E+00  0.00000000000E+00  0.15224304947E+04  0.15224304947E+04  0.25500000000E-02 0. -1.
          2   -1    0    0  501    0  0.00000000000E+00 -0.00000000000E+00 -0.73447867320E+02  0.73447867364E+02  0.25500000000E-02 0.  1.
   -5000001    1    1    2    0    0  0.64517468803E+02 -0.19658697755E+03  0.53195487122E+03  0.62312513072E+03  0.25000000000E+03 0.  0.
    5000001    1    1    2    0    0 -0.64517468803E+02  0.19658697755E+03  0.91702775617E+03  0.97275323135E+03  0.25000000000E+03 0.  0.
<mgrwt>
<rscale>  0 0.66878778E+03</rscale>
<asrwt>0</asrwt>
<pdfrwt beam="1">  1        2 0.11299672E-01 0.66878778E+03</pdfrwt>
<pdfrwt beam="2">  1       -2 0.23422008E+00 0.66878778E+03</pdfrwt>
<totfact> 0.47191889E+01</totfact>
</mgrwt>
</event>
<event>
 4    1  0.6705655E-006  0.5690904E+03  0.7818608E-02  0.9971693E-01
         -2   -1    0    0    0  501 -0.00000000000E+00  0.00000000000E+00  0.39186846849E+02  0.39186846932E+02  0.25500000000E-02 0.  1.
          2   -1    0    0  501    0  0.00000000000E+00 -0.00000000000E+00 -0.20661517656E+04  0.20661517656E+04  0.25500000000E-02 0. -1.
   -5000001    1    1    2    0    0 -0.10339576044E+03  0.67715838761E+02 -0.12224246521E+04  0.12538333813E+04  0.25000000000E+03 0.  0.
    5000001    1    1    2    0    0  0.10339576044E+03 -0.67715838761E+02 -0.80454026668E+03  0.85150523123E+03  0.25000000000E+03 0.  0.
<mgrwt>
<rscale>  0 0.56909041E+03</rscale>
<asrwt>0</asrwt>
<pdfrwt beam="1">  1        2 0.31786942E+00 0.56909041E+03</pdfrwt>
<pdfrwt beam="2">  1       -2 0.60287473E-02 0.56909041E+03</pdfrwt>
<totfact> 0.98070732E+02</totfact>
</mgrwt>
</event>
<event>
 4    1  0.6705655E-006  0.6699498E+03  0.7818608E-02  0.9770048E-01
         -2   -1    0    0    0  501 -0.00000000000E+00  0.00000000000E+00  0.39374909648E+03  0.39374909648E+03  0.25500000000E-02 0. -1.
          2   -1    0    0  501    0  0.00000000000E+00 -0.00000000000E+00 -0.28497383747E+03  0.28497383749E+03  0.25500000000E-02 0.  1.
   -5000001    1    1    2    0    0 -0.15545811914E+03 -0.15785837877E+03  0.29127274441E+02  0.33531312631E+03  0.25000000000E+03 0.  0.
    5000001    1    1    2    0    0  0.15545811914E+03  0.15785837877E+03  0.79647984561E+02  0.34340980767E+03  0.25000000000E+03 0.  0.
<mgrwt>
<rscale>  0 0.66994982E+03</rscale>
<asrwt>0</asrwt>
<pdfrwt beam="1">  1        2 0.43842129E-01 0.66994982E+03</pdfrwt>
<pdfrwt beam="2">  1       -2 0.60576784E-01 0.66994982E+03</pdfrwt>
<totfact> 0.29802127E+02</totfact>
</mgrwt>
</event>
<event>
 4    1  0.6705655E-006  0.5867715E+03  0.7818608E-02  0.9933238E-01
          2   -1    0    0  501    0  0.00000000000E+00  0.00000000000E+00  0.15268142865E+04  0.15268142865E+04  0.25500000000E-02 0.  1.
         -2   -1    0    0    0  501 -0.00000000000E+00 -0.00000000000E+00 -0.56375677589E+02  0.56375677647E+02  0.25500000000E-02 0. -1.
   -5000001    1    1    2    0    0 -0.15074937829E+03  0.29057849478E+02  0.74152182480E+03  0.79744865059E+03  0.25000000000E+03 0.  0.
    5000001    1    1    2    0    0  0.15074937829E+03 -0.29057849478E+02  0.72891678407E+03  0.78574131352E+03  0.25000000000E+03 0.  0.
<mgrwt>
<rscale>  0 0.58677147E+03</rscale>
<asrwt>0</asrwt>
<pdfrwt beam="1">  1        2 0.23489450E+00 0.58677147E+03</pdfrwt>
<pdfrwt beam="2">  1       -2 0.86731813E-02 0.58677147E+03</pdfrwt>
<totfact> 0.10804275E+03</totfact>
</mgrwt>
</event>
<event>
 4    1  0.6705655E-006  0.1020957E+04  0.7818608E-02  0.9285854E-01
         -2   -1    0    0    0  501 -0.00000000000E+00  0.00000000000E+00  0.49371991119E+03  0.49371991120E+03  0.25500000000E-02 0. -1.
          2   -1    0    0  501    0  0.00000000000E+00 -0.00000000000E+00 -0.52780587447E+03  0.52780587447E+03  0.25500000000E-02 0.  1.
   -5000001    1    1    2    0    0 -0.72531445174E+02 -0.42672928145E+03  0.86598414307E+02  0.50730461810E+03  0.25000000000E+03 0.  0.
    5000001    1    1    2    0    0  0.72531445174E+02  0.42672928145E+03 -0.12068437758E+03  0.51422116757E+03  0.25000000000E+03 0.  0.
<mgrwt>
<rscale>  0 0.10209569E+04</rscale>
<asrwt>0</asrwt>
<pdfrwt beam="1">  1        2 0.81200904E-01 0.10209569E+04</pdfrwt>
<pdfrwt beam="2">  1       -2 0.75956909E-01 0.10209569E+04</pdfrwt>
<totfact> 0.89552869E+01</totfact>
</mgrwt>
</event>
<event>
 4    1  0.6705655E-006  0.8756086E+03  0.7818608E-02  0.9456596E-01
         -2   -1    0    0    0  501 -0.00000000000E+00  0.00000000000E+00  0.81504115347E+02  0.81504115387E+02  0.25500000000E-02 0. -1.
          2   -1    0    0  501    0  0.00000000000E+00 -0.00000000000E+00 -0.23516922727E+04  0.23516922727E+04  0.25500000000E-02 0.  1.
   -5000001    1    1    2    0    0 -0.24319018035E+03 -0.98205548969E+02 -0.45222385300E+03  0.57947580354E+03  0.25000000000E+03 0.  0.
    5000001    1    1    2    0    0  0.24319018035E+03  0.98205548969E+02 -0.18179643044E+04  0.18537205846E+04  0.25000000000E+03 0.  0.
<mgrwt>
<rscale>  0 0.87560858E+03</rscale>
<asrwt>0</asrwt>
<pdfrwt beam="1">  1        2 0.36179876E+00 0.87560858E+03</pdfrwt>
<pdfrwt beam="2">  1       -2 0.12539096E-01 0.87560858E+03</pdfrwt>
<totfact> 0.20480979E+02</totfact>
</mgrwt>
</event>
<event>
 4    1  0.6705655E-006  0.7009123E+03  0.7818608E-02  0.9715673E-01
          2   -1    0    0  501    0  0.00000000000E+00  0.00000000000E+00  0.12775333227E+04  0.12775333227E+04  0.25500000000E-02 0.  1.
         -2   -1    0    0    0  501 -0.00000000000E+00 -0.00000000000E+00 -0.96137997795E+02  0.96137997829E+02  0.25500000000E-02 0. -1.
   -5000001    1    1    2    0    0 -0.64409094430E+01 -0.23922262675E+03  0.48245264346E+03  0.59374195038E+03  0.25000000000E+03 0.  0.
    5000001    1    1    2    0    0  0.64409094430E+01  0.23922262675E+03  0.69894268142E+03  0.77992937012E+03  0.25000000000E+03 0.  0.
<mgrwt>
<rscale>  0 0.70091225E+03</rscale>
<asrwt>0</asrwt>
<pdfrwt beam="1">  1        2 0.19654358E+00 0.70091225E+03</pdfrwt>
<pdfrwt beam="2">  1       -2 0.14790462E-01 0.70091225E+03</pdfrwt>
<totfact> 0.61789097E+02</totfact>
</mgrwt>
</event>
<event>
 4    1  0.6705655E-006  0.5883284E+03  0.7818608E-02  0.9929921E-01
         -2   -1    0    0    0  501 -0.00000000000E+00  0.00000000000E+00  0.42156478064E+02  0.42156478141E+02  0.25500000000E-02 0. -1.
          2   -1    0    0  501    0  0.00000000000E+00 -0.00000000000E+00 -0.20526521180E+04  0.20526521180E+04  0.25500000000E-02 0.  1.
   -5000001    1    1    2    0    0  0.17117597783E+02  0.15277662575E+03 -0.93413585604E+03  0.97915448580E+03  0.25000000000E+03 0.  0.
    5000001    1    1    2    0    0 -0.17117597783E+02 -0.15277662575E+03 -0.10763597839E+04  0.11156541104E+04  0.25000000000E+03 0.  0.
<mgrwt>
<rscale>  0 0.58832843E+03</rscale>
<asrwt>0</asrwt>
<pdfrwt beam="1">  1        2 0.31579256E+00 0.58832843E+03</pdfrwt>
<pdfrwt beam="2">  1       -2 0.64856136E-02 0.58832843E+03</pdfrwt>
<totfact> 0.88819982E+02</totfact>
</mgrwt>
</event>
<event>
 4    1  0.6705655E-006  0.7913415E+03  0.7818608E-02  0.9572635E-01
          2   -1    0    0  501    0  0.00000000000E+00  0.00000000000E+00  0.46979457168E+03  0.46979457169E+03  0.25500000000E-02 0.  1.
         -2   -1    0    0    0  501 -0.00000000000E+00 -0.00000000000E+00 -0.33324212804E+03  0.33324212805E+03  0.25500000000E-02 0. -1.
   -5000001    1    1    2    0    0  0.16074765060E+03  0.24379645634E+03 -0.26803873914E+02  0.38535044693E+03  0.25000000000E+03 0.  0.
    5000001    1    1    2    0    0 -0.16074765060E+03 -0.24379645634E+03  0.16335631756E+03  0.41768625280E+03  0.25000000000E+03 0.  0.
<mgrwt>
<rscale>  0 0.79134150E+03</rscale>
<asrwt>0</asrwt>
<pdfrwt beam="1">  1        2 0.72276088E-01 0.79134150E+03</pdfrwt>
<pdfrwt beam="2">  1       -2 0.51268020E-01 0.79134150E+03</pdfrwt>
<totfact> 0.23972910E+02</totfact>
</mgrwt>
</event>
<event>
 4    1  0.6705655E-006  0.1058573E+04  0.7818608E-02  0.9246537E-01
          2   -1    0    0  501    0  0.00000000000E+00  0.00000000000E+00  0.87122860967E+03  0.87122860967E+03  0.25500000000E-02 0.  1.
         -2   -1    0    0    0  501 -0.00000000000E+00 -0.00000000000E+00 -0.32155070965E+03  0.32155070966E+03  0.25500000000E-02 0. -1.
   -5000001    1    1    2    0    0  0.30658735860E+03 -0.33082974858E+03  0.14056734166E+03  0.53451221552E+03  0.25000000000E+03 0.  0.
    5000001    1    1    2    0    0 -0.30658735860E+03  0.33082974858E+03  0.40911055835E+03  0.65826710381E+03  0.25000000000E+03 0.  0.
<mgrwt>
<rscale>  0 0.10585730E+04</rscale>
<asrwt>0</asrwt>
<pdfrwt beam="1">  1        2 0.13403517E+00 0.10585730E+04</pdfrwt>
<pdfrwt beam="2">  1       -2 0.49469340E-01 0.10585730E+04</pdfrwt>
<totfact> 0.11807733E+02</totfact>
</mgrwt>
</event>
<event>
 4    1  0.6705655E-006  0.7047364E+03  0.7818608E-02  0.9709166E-01
         -2   -1    0    0    0  501 -0.00000000000E+00  0.00000000000E+00  0.22355634598E+03  0.22355634600E+03  0.25500000000E-02 0. -1.
          2   -1    0    0  501    0  0.00000000000E+00 -0.00000000000E+00 -0.55540065660E+03  0.55540065660E+03  0.25500000000E-02 0.  1.
   -5000001    1    1    2    0    0 -0.13708704571E+03 -0.35790078308E+02 -0.39133513697E+03  0.48550692810E+03  0.25000000000E+03 0.  0.
    5000001    1    1    2    0    0  0.13708704571E+03  0.35790078308E+02  0.59490826351E+02  0.29345007450E+03  0.25000000000E+03 0.  0.
<mgrwt>
<rscale>  0 0.70473638E+03</rscale>
<asrwt>0</asrwt>
<pdfrwt beam="1">  1        2 0.85446254E-01 0.70473638E+03</pdfrwt>
<pdfrwt beam="2">  1       -2 0.34393284E-01 0.70473638E+03</pdfrwt>
<totfact> 0.43401739E+02</totfact>
</mgrwt>
</event>
<event>
 4    1  0.6705655E-006  0.1227111E+04  0.7818608E-02  0.9089452E-01
         -2   -1    0    0    0  501 -0.00000000000E+00  0.00000000000E+00  0.14076636626E+03  0.14076636628E+03  0.25500000000E-02 0. -1.
          2   -1    0    0  501    0  0.00000000000E+00 -0.00000000000E+00 -0.26742908773E+04  0.26742908773E+04  0.25500000000E-02 0.  1.
   -5000001    1    1    2    0    0  0.26789325044E+03 -0.48752006084E+03 -0.11127425006E+04  0.12689123201E+04  0.25000000000E+03 0.  0.
    5000001    1    1    2    0    0 -0.26789325044E+03  0.48752006084E+03 -0.14207820104E+04  0.15461449235E+04  0.25000000000E+03 0.  0.
<mgrwt>
<rscale>  0 0.12271108E+04</rscale>
<asrwt>0</asrwt>
<pdfrwt beam="1">  1        2 0.41142933E+00 0.12271108E+04</pdfrwt>
<pdfrwt beam="2">  1       -2 0.21656366E-01 0.12271108E+04</pdfrwt>
<totfact> 0.50727704E+01</totfact>
</mgrwt>
</event>
<event>
 4    1  0.6705655E-006  0.7067749E+03  0.7818608E-02  0.9705716E-01
         -2   -1    0    0    0  501 -0.00000000000E+00  0.00000000000E+00  0.51353476480E+02  0.51353476543E+02  0.25500000000E-02 0. -1.
          2   -1    0    0  501    0  0.00000000000E+00 -0.00000000000E+00 -0.24318251137E+04  0.24318251137E+04  0.25500000000E-02 0.  1.
   -5000001    1    1    2    0    0  0.92501133362E+01  0.24529224299E+03 -0.10281306641E+04  0.10861889852E+04  0.25000000000E+03 0.  0.
    5000001    1    1    2    0    0 -0.92501133362E+01 -0.24529224299E+03 -0.13523409731E+04  0.13969896051E+04  0.25000000000E+03 0.  0.
<mgrwt>
<rscale>  0 0.70677485E+03</rscale>
<asrwt>0</asrwt>
<pdfrwt beam="1">  1        2 0.37412685E+00 0.70677485E+03</pdfrwt>
<pdfrwt beam="2">  1       -2 0.79005367E-02 0.70677485E+03</pdfrwt>
<totfact> 0.39781937E+02</totfact>
</mgrwt>
</event>
<event>
 4    1  0.6705655E-006  0.7389450E+03  0.7818608E-02  0.9652855E-01
         -2   -1    0    0    0  501 -0.00000000000E+00  0.00000000000E+00  0.48137060517E+03  0.48137060518E+03  0.25500000000E-02 0. -1.
          2   -1    0    0  501    0  0.00000000000E+00 -0.00000000000E+00 -0.28358589774E+03  0.28358589775E+03  0.25500000000E-02 0.  1.
   -5000001    1    1    2    0    0 -0.41724548284E+01  0.18385566944E+03  0.30642263821E+03  0.43613661824E+03  0.25000000000E+03 0.  0.
    5000001    1    1    2    0    0  0.41724548284E+01 -0.18385566944E+03 -0.10863793077E+03  0.32881988469E+03  0.25000000000E+03 0.  0.
<mgrwt>
<rscale>  0 0.73894496E+03</rscale>
<asrwt>0</asrwt>
<pdfrwt beam="1">  1        2 0.43628599E-01 0.73894496E+03</pdfrwt>
<pdfrwt beam="2">  1       -2 0.74057016E-01 0.73894496E+03</pdfrwt>
<totfact> 0.19375532E+02</totfact>
</mgrwt>
</event>
<event>
 4    1  0.6705655E-006  0.7431182E+03  0.7818608E-02  0.9646209E-01
          2   -1    0    0  501    0  0.00000000000E+00  0.00000000000E+00  0.32251908206E+03  0.32251908207E+03  0.25500000000E-02 0.  1.
         -2   -1    0    0    0  501 -0.00000000000E+00 -0.00000000000E+00 -0.42805584752E+03  0.42805584752E+03  0.25500000000E-02 0. -1.
   -5000001    1    1    2    0    0 -0.73062238086E+02  0.25198703089E+03  0.30033641529E+02  0.36364484596E+03  0.25000000000E+03 0.  0.
    5000001    1    1    2    0    0  0.73062238086E+02 -0.25198703089E+03 -0.13557040698E+03  0.38693008363E+03  0.25000000000E+03 0.  0.
<mgrwt>
<rscale>  0 0.74311824E+03</rscale>
<asrwt>0</asrwt>
<pdfrwt beam="1">  1        2 0.49618320E-01 0.74311824E+03</pdfrwt>
<pdfrwt beam="2">  1       -2 0.65854746E-01 0.74311824E+03</pdfrwt>
<totfact> 0.21690969E+02</totfact>
</mgrwt>
</event>
<event>
 4    1  0.6705655E-006  0.1350448E+04  0.7818608E-02  0.8990489E-01
          2   -1    0    0  501    0  0.00000000000E+00  0.00000000000E+00  0.26918566811E+04  0.26918566811E+04  0.25500000000E-02 0.  1.
         -2   -1    0    0    0  501 -0.00000000000E+00 -0.00000000000E+00 -0.16937290138E+03  0.16937290140E+03  0.25500000000E-02 0. -1.
   -5000001    1    1    2    0    0  0.24337645382E+03  0.57562563733E+03  0.13743628792E+04  0.15303431956E+04  0.25000000000E+03 0.  0.
    5000001    1    1    2    0    0 -0.24337645382E+03 -0.57562563733E+03  0.11481209006E+04  0.13308863870E+04  0.25000000000E+03 0.  0.
<mgrwt>
<rscale>  0 0.13504482E+04</rscale>
<asrwt>0</asrwt>
<pdfrwt beam="1">  1        2 0.41413180E+00 0.13504482E+04</pdfrwt>
<pdfrwt beam="2">  1       -2 0.26057369E-01 0.13504482E+04</pdfrwt>
<totfact> 0.35110455E+01</totfact>
</mgrwt>
</event>
<event>
 4    1  0.6705655E-006  0.6440918E+03  0.7818608E-02  0.9817929E-01
         -2   -1    0    0    0  501 -0.00000000000E+00  0.00000000000E+00  0.64156063725E+02  0.64156063776E+02  0.25500000000E-02 0. -1.
          2   -1    0    0  501    0  0.00000000000E+00 -0.00000000000E+00 -0.16165822300E+04  0.16165822300E+04  0.25500000000E-02 0.  1.
   -5000001    1    1    2    0    0  0.14693513917E+03 -0.10333155527E+03 -0.10230282363E+04  0.10683417607E+04  0.25000000000E+03 0.  0.
    5000001    1    1    2    0    0 -0.14693513917E+03  0.10333155527E+03 -0.52939793000E+03  0.61239653308E+03  0.25000000000E+03 0.  0.
<mgrwt>
<rscale>  0 0.64409177E+03</rscale>
<asrwt>0</asrwt>
<pdfrwt beam="1">  1        2 0.24870493E+00 0.64409177E+03</pdfrwt>
<pdfrwt beam="2">  1       -2 0.98701649E-02 0.64409177E+03</pdfrwt>
<totfact> 0.78081176E+02</totfact>
</mgrwt>
</event>
<event>
 4    1  0.6705655E-006  0.6085006E+03  0.7818608E-02  0.9887925E-01
         -2   -1    0    0    0  501 -0.00000000000E+00  0.00000000000E+00  0.21561147715E+03  0.21561147716E+03  0.25500000000E-02 0. -1.
          2   -1    0    0  501    0  0.00000000000E+00 -0.00000000000E+00 -0.42932895845E+03  0.42932895846E+03  0.25500000000E-02 0.  1.
   -5000001    1    1    2    0    0  0.14124324333E+03  0.83830619072E+02 -0.47932355295E+02  0.30294345539E+03  0.25000000000E+03 0.  0.
    5000001    1    1    2    0    0 -0.14124324333E+03 -0.83830619072E+02 -0.16578512601E+03  0.34199698023E+03  0.25000000000E+03 0.  0.
<mgrwt>
<rscale>  0 0.60850062E+03</rscale>
<asrwt>0</asrwt>
<pdfrwt beam="1">  1        2 0.66050609E-01 0.60850062E+03</pdfrwt>
<pdfrwt beam="2">  1       -2 0.33170997E-01 0.60850062E+03</pdfrwt>
<totfact> 0.62671007E+02</totfact>
</mgrwt>
</event>
<event>
 4    1  0.6705655E-006  0.7612372E+03  0.7818608E-02  0.9617884E-01
         -2   -1    0    0    0  501 -0.00000000000E+00  0.00000000000E+00  0.10021736935E+03  0.10021736938E+03  0.25500000000E-02 0. -1.
          2   -1    0    0  501    0  0.00000000000E+00 -0.00000000000E+00 -0.14455629654E+04  0.14455629654E+04  0.25500000000E-02 0.  1.
   -5000001    1    1    2    0    0  0.16057941365E+02 -0.26642460743E+03 -0.45843956383E+03  0.58643564234E+03  0.25000000000E+03 0.  0.
    5000001    1    1    2    0    0 -0.16057941365E+02  0.26642460743E+03 -0.88690603220E+03  0.95934469242E+03  0.25000000000E+03 0.  0.
<mgrwt>
<rscale>  0 0.76123720E+03</rscale>
<asrwt>0</asrwt>
<pdfrwt beam="1">  1        2 0.22239429E+00 0.76123720E+03</pdfrwt>
<pdfrwt beam="2">  1       -2 0.15418058E-01 0.76123720E+03</pdfrwt>
<totfact> 0.46071024E+02</totfact>
</mgrwt>
</event>
<event>
 4    1  0.6705655E-006  0.9810209E+03  0.7818608E-02  0.9329609E-01
          2   -1    0    0  501    0  0.00000000000E+00  0.00000000000E+00  0.14854891158E+04  0.14854891158E+04  0.25500000000E-02 0.  1.
         -2   -1    0    0    0  501 -0.00000000000E+00 -0.00000000000E+00 -0.16196718393E+03  0.16196718395E+03  0.25500000000E-02 0. -1.
   -5000001    1    1    2    0    0  0.15932620589E+02 -0.37794457636E+03  0.34756700885E+03  0.57131320381E+03  0.25000000000E+03 0.  0.
    5000001    1    1    2    0    0 -0.15932620589E+02  0.37794457636E+03  0.97595492303E+03  0.10761430960E+04  0.25000000000E+03 0.  0.
<mgrwt>
<rscale>  0 0.98102087E+03</rscale>
<asrwt>0</asrwt>
<pdfrwt beam="1">  1        2 0.22853677E+00 0.98102087E+03</pdfrwt>
<pdfrwt beam="2">  1       -2 0.24918030E-01 0.98102087E+03</pdfrwt>
<totfact> 0.18640447E+02</totfact>
</mgrwt>
</event>
<event>
 4    1  0.6705655E-006  0.1426509E+04  0.7818608E-02  0.8934850E-01
          2   -1    0    0  501    0  0.00000000000E+00  0.00000000000E+00  0.56244377962E+03  0.56244377962E+03  0.25500000000E-02 0.  1.
         -2   -1    0    0    0  501 -0.00000000000E+00 -0.00000000000E+00 -0.90450277045E+03  0.90450277046E+03  0.25500000000E-02 0. -1.
   -5000001    1    1    2    0    0 -0.50267357204E+03 -0.18476823644E+03  0.23955278485E+03  0.63773470813E+03  0.25000000000E+03 0.  0.
    5000001    1    1    2    0    0  0.50267357204E+03  0.18476823644E+03 -0.58161177568E+03  0.82921184195E+03  0.25000000000E+03 0.  0.
<mgrwt>
<rscale>  0 0.14265090E+04</rscale>
<asrwt>0</asrwt>
<pdfrwt beam="1">  1        2 0.86529812E-01 0.14265090E+04</pdfrwt>
<pdfrwt beam="2">  1       -2 0.13915427E+00 0.14265090E+04</pdfrwt>
<totfact> 0.18987873E+01</totfact>
</mgrwt>
</event>
<event>
 4    1  0.6705655E-006  0.6915563E+03  0.7818608E-02  0.9731782E-01
         -2   -1    0    0    0  501 -0.00000000000E+00  0.00000000000E+00  0.11277121661E+03  0.11277121664E+03  0.25500000000E-02 0. -1.
          2   -1    0    0  501    0  0.00000000000E+00 -0.00000000000E+00 -0.10602221414E+04  0.10602221414E+04  0.25500000000E-02 0.  1.
   -5000001    1    1    2    0    0 -0.15385068358E+03  0.17637626115E+03 -0.55478584796E+03  0.65197082407E+03  0.25000000000E+03 0.  0.
    5000001    1    1    2    0    0  0.15385068358E+03 -0.17637626115E+03 -0.39266507680E+03  0.52102253394E+03  0.25000000000E+03 0.  0.
<mgrwt>
<rscale>  0 0.69155633E+03</rscale>
<asrwt>0</asrwt>
<pdfrwt beam="1">  1        2 0.16311109E+00 0.69155633E+03</pdfrwt>
<pdfrwt beam="2">  1       -2 0.17349419E-01 0.69155633E+03</pdfrwt>
<totfact> 0.63517205E+02</totfact>
</mgrwt>
</event>
<event>
 4    1  0.6705655E-006  0.5601683E+03  0.7818608E-02  0.9991674E-01
         -2   -1    0    0    0  501 -0.00000000000E+00  0.00000000000E+00  0.47975518199E+02  0.47975518267E+02  0.25500000000E-02 0. -1.
          2   -1    0    0  501    0  0.00000000000E+00 -0.00000000000E+00 -0.16351494430E+04  0.16351494430E+04  0.25500000000E-02 0.  1.
   -5000001    1    1    2    0    0  0.20079678249E+02 -0.12423827561E+03 -0.76224610463E+03  0.81200829222E+03  0.25000000000E+03 0.  0.
    5000001    1    1    2    0    0 -0.20079678249E+02  0.12423827561E+03 -0.82492782012E+03  0.87111666900E+03  0.25000000000E+03 0.  0.
<mgrwt>
<rscale>  0 0.56016834E+03</rscale>
<asrwt>0</asrwt>
<pdfrwt beam="1">  1        2 0.25156141E+00 0.56016834E+03</pdfrwt>
<pdfrwt beam="2">  1       -2 0.73808502E-02 0.56016834E+03</pdfrwt>
<totfact> 0.12204181E+03</totfact>
</mgrwt>
</event>
<event>
 4    1  0.6705655E-006  0.1227769E+04  0.7818608E-02  0.9088892E-01
          2   -1    0    0  501    0  0.00000000000E+00  0.00000000000E+00  0.21690938983E+04  0.21690938983E+04  0.25500000000E-02 0.  1.
         -2   -1    0    0    0  501 -0.00000000000E+00 -0.00000000000E+00 -0.17373802527E+03  0.17373802529E+03  0.25500000000E-02 0. -1.
   -5000001    1    1    2    0    0  0.12807712604E+03 -0.47094391254E+03  0.15242940939E+04  0.16199272835E+04  0.25000000000E+03 0.  0.
    5000001    1    1    2    0    0 -0.12807712604E+03  0.47094391254E+03  0.47106177914E+03  0.72290464014E+03  0.25000000000E+03 0.  0.
<mgrwt>
<rscale>  0 0.12277689E+04</rscale>
<asrwt>0</asrwt>
<pdfrwt beam="1">  1        2 0.33370674E+00 0.12277689E+04</pdfrwt>
<pdfrwt beam="2">  1       -2 0.26728928E-01 0.12277689E+04</pdfrwt>
<totfact> 0.67384849E+01</totfact>
</mgrwt>
</event>
<event>
 4    1  0.6705655E-006  0.9776708E+03  0.7818608E-02  0.9333380E-01
         -2   -1    0    0    0  501 -0.00000000000E+00  0.00000000000E+00  0.12573894900E+03  0.12573894903E+03  0.25500000000E-02 0. -1.
          2   -1    0    0  501    0  0.00000000000E+00 -0.00000000000E+00 -0.19004455368E+04  0.19004455369E+04  0.25500000000E-02 0.  1.
   -5000001    1    1    2    0    0 -0.17170626013E+03  0.23257152830E+03 -0.25572012572E+03  0.45985360523E+03  0.25000000000E+03 0.  0.
    5000001    1    1    2    0    0  0.17170626013E+03 -0.23257152830E+03 -0.15189864621E+04  0.15663308806E+04  0.25000000000E+03 0.  0.
<mgrwt>
<rscale>  0 0.97767075E+03</rscale>
<asrwt>0</asrwt>
<pdfrwt beam="1">  1        2 0.29237622E+00 0.97767075E+03</pdfrwt>
<pdfrwt beam="2">  1       -2 0.19344455E-01 0.97767075E+03</pdfrwt>
<totfact> 0.17239322E+02</totfact>
</mgrwt>
</event>
<event>
 4    1  0.6705655E-006  0.5956544E+03  0.7818608E-02  0.9914463E-01
         -2   -1    0    0    0  501 -0.00000000000E+00  0.00000000000E+00  0.13854660706E+03  0.13854660708E+03  0.25500000000E-02 0. -1.
          2   -1    0    0  501    0  0.00000000000E+00 -0.00000000000E+00 -0.64022537508E+03  0.64022537509E+03  0.25500000000E-02 0.  1.
   -5000001    1    1    2    0    0 -0.10369928731E+03  0.89115030920E+02 -0.13756782798E+03  0.31641734817E+03  0.25000000000E+03 0.  0.
    5000001    1    1    2    0    0  0.10369928731E+03 -0.89115030920E+02 -0.36411094004E+03  0.46235463400E+03  0.25000000000E+03 0.  0.
<mgrwt>
<rscale>  0 0.59565444E+03</rscale>
<asrwt>0</asrwt>
<pdfrwt beam="1">  1        2 0.98496211E-01 0.59565444E+03</pdfrwt>
<pdfrwt beam="2">  1       -2 0.21314863E-01 0.59565444E+03</pdfrwt>
<totfact> 0.87776359E+02</totfact>
</mgrwt>
</event>
<event>
 4    1  0.6705655E-006  0.6201777E+03  0.7818608E-02  0.9864406E-01
          2   -1    0    0  501    0  0.00000000000E+00  0.00000000000E+00  0.10491476682E+04  0.10491476682E+04  0.25500000000E-02 0. -1.
         -2   -1    0    0    0  501 -0.00000000000E+00 -0.00000000000E+00 -0.91650687402E+02  0.91650687437E+02  0.25500000000E-02 0.  1.
   -5000001    1    1    2    0    0  0.13309045730E+03 -0.90192638020E+02  0.64128233089E+03  0.70681738072E+03  0.25000000000E+03 0.  0.
    5000001    1    1    2    0    0 -0.13309045730E+03  0.90192638020E+02  0.31621464992E+03  0.43398097493E+03  0.25000000000E+03 0.  0.
<mgrwt>
<rscale>  0 0.62017773E+03</rscale>
<asrwt>0</asrwt>
<pdfrwt beam="1">  1        2 0.16140734E+00 0.62017773E+03</pdfrwt>
<pdfrwt beam="2">  1       -2 0.14100105E-01 0.62017773E+03</pdfrwt>
<totfact> 0.91944749E+02</totfact>
</mgrwt>
</event>
<event>
 4    1  0.6705655E-006  0.6848226E+03  0.7818608E-02  0.9743546E-01
          2   -1    0    0  501    0  0.00000000000E+00  0.00000000000E+00  0.15018945077E+03  0.15018945079E+03  0.25500000000E-02 0.  1.
         -2   -1    0    0    0  501 -0.00000000000E+00 -0.00000000000E+00 -0.78065060902E+03  0.78065060902E+03  0.25500000000E-02 0. -1.
   -5000001    1    1    2    0    0 -0.14578799121E+02  0.22794714425E+03 -0.24628274429E+03  0.41872142540E+03  0.25000000000E+03 0.  0.
    5000001    1    1    2    0    0  0.14578799121E+02 -0.22794714425E+03 -0.38417841396E+03  0.51211863441E+03  0.25000000000E+03 0.  0.
<mgrwt>
<rscale>  0 0.68482256E+03</rscale>
<asrwt>0</asrwt>
<pdfrwt beam="1">  1        2 0.23106070E-01 0.68482256E+03</pdfrwt>
<pdfrwt beam="2">  1       -2 0.12010009E+00 0.68482256E+03</pdfrwt>
<totfact> 0.12865699E+02</totfact>
</mgrwt>
</event>
<event>
 4    1  0.6705655E-006  0.5774288E+03  0.7818608E-02  0.9953373E-01
         -2   -1    0    0    0  501 -0.00000000000E+00  0.00000000000E+00  0.30454215318E+02  0.30454215425E+02  0.25500000000E-02 0. -1.
          2   -1    0    0  501    0  0.00000000000E+00 -0.00000000000E+00 -0.27370921322E+04  0.27370921322E+04  0.25500000000E-02 0.  1.
   -5000001    1    1    2    0    0 -0.51884792822E+02  0.13092797475E+03 -0.12001096414E+04  0.12339357024E+04  0.25000000000E+03 0.  0.
    5000001    1    1    2    0    0  0.51884792822E+02 -0.13092797475E+03 -0.15065282756E+04  0.15336106453E+04  0.25000000000E+03 0.  0.
<mgrwt>
<rscale>  0 0.57742876E+03</rscale>
<asrwt>0</asrwt>
<pdfrwt beam="1">  1        2 0.42109090E+00 0.57742876E+03</pdfrwt>
<pdfrwt beam="2">  1       -2 0.46852661E-02 0.57742876E+03</pdfrwt>
<totfact> 0.61259249E+02</totfact>
</mgrwt>
</event>
<event>
 4    1  0.6705655E-006  0.7847618E+03  0.7818608E-02  0.9582339E-01
          2   -1    0    0  501    0  0.00000000000E+00  0.00000000000E+00  0.20991678787E+04  0.20991678787E+04  0.25500000000E-02 0.  1.
         -2   -1    0    0    0  501 -0.00000000000E+00 -0.00000000000E+00 -0.73344673675E+02  0.73344673719E+02  0.25500000000E-02 0. -1.
   -5000001    1    1    2    0    0 -0.47025610796E+02  0.28935691470E+03  0.80715710893E+03  0.89439444914E+03  0.25000000000E+03 0.  0.
    5000001    1    1    2    0    0  0.47025610796E+02 -0.28935691470E+03  0.12186660961E+04  0.12781181033E+04  0.25000000000E+03 0.  0.
<mgrwt>
<rscale>  0 0.78476183E+03</rscale>
<asrwt>0</asrwt>
<pdfrwt beam="1">  1        2 0.32294894E+00 0.78476183E+03</pdfrwt>
<pdfrwt beam="2">  1       -2 0.11283795E-01 0.78476183E+03</pdfrwt>
<totfact> 0.33909614E+02</totfact>
</mgrwt>
</event>
<event>
 4    1  0.6705655E-006  0.6892686E+03  0.7818608E-02  0.9735762E-01
         -2   -1    0    0    0  501 -0.00000000000E+00  0.00000000000E+00  0.37214081923E+03  0.37214081924E+03  0.25500000000E-02 0. -1.
          2   -1    0    0  501    0  0.00000000000E+00 -0.00000000000E+00 -0.31916094302E+03  0.31916094303E+03  0.25500000000E-02 0.  1.
   -5000001    1    1    2    0    0  0.81452567302E+02  0.18619318114E+03 -0.96224524594E+02  0.33624630936E+03  0.25000000000E+03 0.  0.
    5000001    1    1    2    0    0 -0.81452567302E+02 -0.18619318114E+03  0.14920440080E+03  0.35505545291E+03  0.25000000000E+03 0.  0.
<mgrwt>
<rscale>  0 0.68926864E+03</rscale>
<asrwt>0</asrwt>
<pdfrwt beam="1">  1        2 0.49101684E-01 0.68926864E+03</pdfrwt>
<pdfrwt beam="2">  1       -2 0.57252434E-01 0.68926864E+03</pdfrwt>
<totfact> 0.29575344E+02</totfact>
</mgrwt>
</event>
<event>
 4    1  0.6705655E-006  0.5964815E+03  0.7818608E-02  0.9912733E-01
         -2   -1    0    0    0  501 -0.00000000000E+00  0.00000000000E+00  0.36372405156E+03  0.36372405157E+03  0.25500000000E-02 0. -1.
          2   -1    0    0  501    0  0.00000000000E+00 -0.00000000000E+00 -0.24454679804E+03  0.24454679805E+03  0.25500000000E-02 0.  1.
   -5000001    1    1    2    0    0  0.14807068738E+03  0.63252287116E+02  0.82882427234E+02  0.30869933111E+03  0.25000000000E+03 0.  0.
    5000001    1    1    2    0    0 -0.14807068738E+03 -0.63252287116E+02  0.36294826283E+02  0.29957151851E+03  0.25000000000E+03 0.  0.
<mgrwt>
<rscale>  0 0.59648152E+03</rscale>
<asrwt>0</asrwt>
<pdfrwt beam="1">  1        2 0.37622584E-01 0.59648152E+03</pdfrwt>
<pdfrwt beam="2">  1       -2 0.55957546E-01 0.59648152E+03</pdfrwt>
<totfact> 0.41755807E+02</totfact>
</mgrwt>
</event>
<event>
 4    1  0.6705655E-006  0.1257128E+04  0.7818608E-02  0.9064272E-01
         -2   -1    0    0    0  501 -0.00000000000E+00  0.00000000000E+00  0.13769646093E+03  0.13769646096E+03  0.25500000000E-02 0. -1.
          2   -1    0    0  501    0  0.00000000000E+00 -0.00000000000E+00 -0.28693000956E+04  0.28693000956E+04  0.25500000000E-02 0.  1.
   -5000001    1    1    2    0    0 -0.50533543884E+03 -0.16163527376E+03 -0.19065250908E+04  0.19946999247E+04  0.25000000000E+03 0.  0.
    5000001    1    1    2    0    0  0.50533543884E+03  0.16163527376E+03 -0.82507854387E+03  0.10122966319E+04  0.25000000000E+03 0.  0.
<mgrwt>
<rscale>  0 0.12571276E+04</rscale>
<asrwt>0</asrwt>
<pdfrwt beam="1">  1        2 0.44143074E+00 0.12571276E+04</pdfrwt>
<pdfrwt beam="2">  1       -2 0.21184073E-01 0.12571276E+04</pdfrwt>
<totfact> 0.40248076E+01</totfact>
</mgrwt>
</event>
<event>
 4    1  0.6705655E-006  0.8921179E+03  0.7818608E-02  0.9435488E-01
          2   -1    0    0  501    0  0.00000000000E+00  0.00000000000E+00  0.20891257808E+04  0.20891257808E+04  0.25500000000E-02 0.  1.
         -2   -1    0    0    0  501 -0.00000000000E+00 -0.00000000000E+00 -0.95240121871E+02  0.95240121906E+02  0.25500000000E-02 0. -1.
   -5000001    1    1    2    0    0 -0.98808468806E+02  0.20296858241E+03  0.17129372503E+04  0.17457414993E+04  0.25000000000E+03 0.  0.
    5000001    1    1    2    0    0  0.98808468806E+02 -0.20296858241E+03  0.28094840866E+03  0.43862440343E+03  0.25000000000E+03 0.  0.
<mgrwt>
<rscale>  0 0.89211792E+03</rscale>
<asrwt>0</asrwt>
<pdfrwt beam="1">  1        2 0.32140398E+00 0.89211792E+03</pdfrwt>
<pdfrwt beam="2">  1       -2 0.14652326E-01 0.89211792E+03</pdfrwt>
<totfact> 0.22028917E+02</totfact>
</mgrwt>
</event>
<event>
 4    1  0.6705655E-006  0.6149210E+03  0.7818608E-02  0.9874924E-01
          2   -1    0    0  501    0  0.00000000000E+00  0.00000000000E+00  0.31704129828E+03  0.31704129829E+03  0.25500000000E-02 0.  1.
         -2   -1    0    0    0  501 -0.00000000000E+00 -0.00000000000E+00 -0.29816918898E+03  0.29816918900E+03  0.25500000000E-02 0. -1.
   -5000001    1    1    2    0    0 -0.13123522931E+03 -0.12166616668E+03  0.12007335496E+02  0.30768411989E+03  0.25000000000E+03 0.  0.
    5000001    1    1    2    0    0  0.13123522931E+03  0.12166616668E+03  0.68647738001E+01  0.30752636740E+03  0.25000000000E+03 0.  0.
<mgrwt>
<rscale>  0 0.61492096E+03</rscale>
<asrwt>0</asrwt>
<pdfrwt beam="1">  1        2 0.48775584E-01 0.61492096E+03</pdfrwt>
<pdfrwt beam="2">  1       -2 0.45872183E-01 0.61492096E+03</pdfrwt>
<totfact> 0.46916927E+02</totfact>
</mgrwt>
</event>
<event>
 4    1  0.6705655E-006  0.9653518E+03  0.7818608E-02  0.9347384E-01
         -2   -1    0    0    0  501 -0.00000000000E+00  0.00000000000E+00  0.92171467134E+02  0.92171467169E+02  0.25500000000E-02 0. -1.
          2   -1    0    0  501    0  0.00000000000E+00 -0.00000000000E+00 -0.25276373343E+04  0.25276373343E+04  0.25500000000E-02 0.  1.
   -5000001    1    1    2    0    0  0.51686006853E+02 -0.36005439648E+03 -0.17479076943E+04  0.18027733966E+04  0.25000000000E+03 0.  0.
    5000001    1    1    2    0    0 -0.51686006853E+02  0.36005439648E+03 -0.68755817291E+03  0.81703540491E+03  0.25000000000E+03 0.  0.
<mgrwt>
<rscale>  0 0.96535184E+03</rscale>
<asrwt>0</asrwt>
<pdfrwt beam="1">  1        2 0.38886723E+00 0.96535184E+03</pdfrwt>
<pdfrwt beam="2">  1       -2 0.14180228E-01 0.96535184E+03</pdfrwt>
<totfact> 0.13144823E+02</totfact>
</mgrwt>
</event>
<event>
 4    1  0.6705655E-006  0.7830515E+03  0.7818608E-02  0.9584879E-01
          2   -1    0    0  501    0  0.00000000000E+00  0.00000000000E+00  0.17788717822E+03  0.17788717824E+03  0.25500000000E-02 0.  1.
         -2   -1    0    0    0  501 -0.00000000000E+00 -0.00000000000E+00 -0.86173944223E+03  0.86173944224E+03  0.25500000000E-02 0. -1.
   -5000001    1    1    2    0    0  0.24666867196E+03 -0.12293242889E+03 -0.50363161396E+03  0.62618097893E+03  0.25000000000E+03 0.  0.
    5000001    1    1    2    0    0 -0.24666867196E+03  0.12293242889E+03 -0.18022065006E+03  0.41344564154E+03  0.25000000000E+03 0.  0.
<mgrwt>
<rscale>  0 0.78305146E+03</rscale>
<asrwt>0</asrwt>
<pdfrwt beam="1">  1        2 0.27367259E-01 0.78305146E+03</pdfrwt>
<pdfrwt beam="2">  1       -2 0.13257530E+00 0.78305146E+03</pdfrwt>
<totfact> 0.82308617E+01</totfact>
</mgrwt>
</event>
<event>
 4    1  0.6705655E-006  0.6416512E+03  0.7818608E-02  0.9822572E-01
          2   -1    0    0  501    0  0.00000000000E+00  0.00000000000E+00  0.32000758591E+04  0.32000758591E+04  0.25500000000E-02 0.  1.
         -2   -1    0    0    0  501 -0.00000000000E+00 -0.00000000000E+00 -0.32164575411E+02  0.32164575512E+02  0.25500000000E-02 0. -1.
   -5000001    1    1    2    0    0 -0.71281124431E+02 -0.18609584101E+03  0.14491249751E+04  0.14839729964E+04  0.25000000000E+03 0.  0.
    5000001    1    1    2    0    0  0.71281124431E+02  0.18609584101E+03  0.17187863087E+04  0.17482674382E+04  0.25000000000E+03 0.  0.
<mgrwt>
<rscale>  0 0.64165125E+03</rscale>
<asrwt>0</asrwt>
<pdfrwt beam="1">  1        2 0.49231944E+00 0.64165125E+03</pdfrwt>
<pdfrwt beam="2">  1       -2 0.49483954E-02 0.64165125E+03</pdfrwt>
<totfact> 0.29304607E+02</totfact>
</mgrwt>
</event>
<event>
 4    1  0.6705655E-006  0.1048337E+04  0.7818608E-02  0.9257063E-01
         -2   -1    0    0    0  501 -0.00000000000E+00  0.00000000000E+00  0.31934807203E+03  0.31934807204E+03  0.25500000000E-02 0.  1.
          2   -1    0    0  501    0  0.00000000000E+00 -0.00000000000E+00 -0.86035442026E+03  0.86035442026E+03  0.25500000000E-02 0. -1.
   -5000001    1    1    2    0    0 -0.41417314654E+03 -0.19989798425E+03 -0.23960477322E+03  0.57568137608E+03  0.25000000000E+03 0.  0.
    5000001    1    1    2    0    0  0.41417314654E+03  0.19989798425E+03 -0.30140157501E+03  0.60402111622E+03  0.25000000000E+03 0.  0.
<mgrwt>
<rscale>  0 0.10483368E+04</rscale>
<asrwt>0</asrwt>
<pdfrwt beam="1">  1        2 0.13236222E+00 0.10483368E+04</pdfrwt>
<pdfrwt beam="2">  1       -2 0.49130473E-01 0.10483368E+04</pdfrwt>
<totfact> 0.12190393E+02</totfact>
</mgrwt>
</event>
<event>
 4    1  0.6705655E-006  0.5847594E+03  0.7818608E-02  0.9937540E-01
          2   -1    0    0  501    0  0.00000000000E+00  0.00000000000E+00  0.98291597103E+03  0.98291597103E+03  0.25500000000E-02 0.  1.
         -2   -1    0    0    0  501 -0.00000000000E+00 -0.00000000000E+00 -0.86971706464E+02  0.86971706501E+02  0.25500000000E-02 0. -1.
   -5000001    1    1    2    0    0  0.10570448467E+03 -0.78902279818E+02  0.31121646301E+03  0.42042204353E+03  0.25000000000E+03 0.  0.
    5000001    1    1    2    0    0 -0.10570448467E+03  0.78902279818E+02  0.58472780155E+03  0.64946563400E+03  0.25000000000E+03 0.  0.
<mgrwt>
<rscale>  0 0.58475937E+03</rscale>
<asrwt>0</asrwt>
<pdfrwt beam="1">  1        2 0.15121784E+00 0.58475937E+03</pdfrwt>
<pdfrwt beam="2">  1       -2 0.13380263E-01 0.58475937E+03</pdfrwt>
<totfact> 0.11055863E+03</totfact>
</mgrwt>
</event>
<event>
 4    1  0.6705655E-006  0.6087374E+03  0.7818608E-02  0.9887443E-01
          2   -1    0    0  501    0  0.00000000000E+00  0.00000000000E+00  0.34675529941E+04  0.34675529941E+04  0.25500000000E-02 0.  1.
         -2   -1    0    0    0  501 -0.00000000000E+00 -0.00000000000E+00 -0.26716337689E+02  0.26716337811E+02  0.25500000000E-02 0. -1.
   -5000001    1    1    2    0    0 -0.36015839101E+02 -0.91861802956E+02  0.90046288603E+03  0.93971758557E+03  0.25000000000E+03 0.  0.
    5000001    1    1    2    0    0  0.36015839101E+02  0.91861802956E+02  0.25403737704E+04  0.25545517464E+04  0.25000000000E+03 0.  0.
<mgrwt>
<rscale>  0 0.60873744E+03</rscale>
<asrwt>0</asrwt>
<pdfrwt beam="1">  1        2 0.53346923E+00 0.60873744E+03</pdfrwt>
<pdfrwt beam="2">  1       -2 0.41102094E-02 0.60873744E+03</pdfrwt>
<totfact> 0.26228793E+02</totfact>
</mgrwt>
</event>
<event>
 4    1  0.6705655E-006  0.7139479E+03  0.7818608E-02  0.9693672E-01
          2   -1    0    0  501    0  0.00000000000E+00  0.00000000000E+00  0.41307672111E+03  0.41307672112E+03  0.25500000000E-02 0.  1.
         -2   -1    0    0    0  501 -0.00000000000E+00 -0.00000000000E+00 -0.30849086560E+03  0.30849086561E+03  0.25500000000E-02 0. -1.
   -5000001    1    1    2    0    0  0.43466429224E+02 -0.81741783022E+02  0.29222785723E+03  0.39556057703E+03  0.25000000000E+03 0.  0.
    5000001    1    1    2    0    0 -0.43466429224E+02  0.81741783022E+02 -0.18764200172E+03  0.32600700970E+03  0.25000000000E+03 0.  0.
<mgrwt>
<rscale>  0 0.71394788E+03</rscale>
<asrwt>0</asrwt>
<pdfrwt beam="1">  1        2 0.63550265E-01 0.71394788E+03</pdfrwt>
<pdfrwt beam="2">  1       -2 0.47460133E-01 0.71394788E+03</pdfrwt>
<totfact> 0.32543975E+02</totfact>
</mgrwt>
</event>
<event>
 4    1  0.6705655E-006  0.5717167E+03  0.7818608E-02  0.9965887E-01
          2   -1    0    0  501    0  0.00000000000E+00  0.00000000000E+00  0.13296774266E+04  0.13296774266E+04  0.25500000000E-02 0.  1.
         -2   -1    0    0    0  501 -0.00000000000E+00 -0.00000000000E+00 -0.61454745994E+02  0.61454746047E+02  0.25500000000E-02 0. -1.
   -5000001    1    1    2    0    0 -0.36210904036E+02  0.10480866661E+03  0.83650930378E+03  0.88008175840E+03  0.25000000000E+03 0.  0.
    5000001    1    1    2    0    0  0.36210904036E+02 -0.10480866661E+03  0.43171337684E+03  0.51105041425E+03  0.25000000000E+03 0.  0.
<mgrwt>
<rscale>  0 0.57171667E+03</rscale>
<asrwt>0</asrwt>
<pdfrwt beam="1">  1        2 0.20456576E+00 0.57171667E+03</pdfrwt>
<pdfrwt beam="2">  1       -2 0.94545760E-02 0.57171667E+03</pdfrwt>
<totfact> 0.12123314E+03</totfact>
</mgrwt>
</event>
<event>
 4    1  0.6705655E-006  0.5682242E+03  0.7818608E-02  0.9973616E-01
         -2   -1    0    0    0  501 -0.00000000000E+00  0.00000000000E+00  0.68306943650E+02  0.68306943698E+02  0.25500000000E-02 0. -1.
          2   -1    0    0  501    0  0.00000000000E+00 -0.00000000000E+00 -0.11817199259E+04  0.11817199259E+04  0.25500000000E-02 0.  1.
   -5000001    1    1    2    0    0  0.10828749092E+03  0.67816911180E+02 -0.65245481199E+03  0.71029754034E+03  0.25000000000E+03 0.  0.
    5000001    1    1    2    0    0 -0.10828749092E+03 -0.67816911180E+02 -0.46095817028E+03  0.53972932927E+03  0.25000000000E+03 0.  0.
<mgrwt>
<rscale>  0 0.56822417E+03</rscale>
<asrwt>0</asrwt>
<pdfrwt beam="1">  1        2 0.18180305E+00 0.56822417E+03</pdfrwt>
<pdfrwt beam="2">  1       -2 0.10508761E-01 0.56822417E+03</pdfrwt>
<totfact> 0.12438604E+03</totfact>
</mgrwt>
</event>
<event>
 4    1  0.6705655E-006  0.1191926E+04  0.7818608E-02  0.9119954E-01
         -2   -1    0    0    0  501 -0.00000000000E+00  0.00000000000E+00  0.14425659814E+03  0.14425659816E+03  0.25500000000E-02 0. -1.
          2   -1    0    0  501    0  0.00000000000E+00 -0.00000000000E+00 -0.24620825831E+04  0.24620825831E+04  0.25500000000E-02 0.  1.
   -5000001    1    1    2    0    0 -0.73847883798E+02  0.52600791658E+03 -0.13833397956E+04  0.15027530829E+04  0.25000000000E+03 0.  0.
    5000001    1    1    2    0    0  0.73847883798E+02 -0.52600791658E+03 -0.93448618937E+03  0.11035860983E+04  0.25000000000E+03 0.  0.
<mgrwt>
<rscale>  0 0.11919256E+04</rscale>
<asrwt>0</asrwt>
<pdfrwt beam="1">  1        2 0.37878191E+00 0.11919256E+04</pdfrwt>
<pdfrwt beam="2">  1       -2 0.22193325E-01 0.11919256E+04</pdfrwt>
<totfact> 0.64649123E+01</totfact>
</mgrwt>
</event>
<event>
 4    1  0.6705655E-006  0.1463013E+04  0.7818608E-02  0.8909428E-01
         -2   -1    0    0    0  501 -0.00000000000E+00  0.00000000000E+00  0.75664943027E+03  0.75664943028E+03  0.25500000000E-02 0. -1.
          2   -1    0    0  501    0  0.00000000000E+00 -0.00000000000E+00 -0.70719944594E+03  0.70719944595E+03  0.25500000000E-02 0.  1.
   -5000001    1    1    2    0    0 -0.60727986501E+03 -0.10084305771E+03  0.33091265396E+03  0.74226770190E+03  0.25000000000E+03 0.  0.
    5000001    1    1    2    0    0  0.60727986501E+03  0.10084305771E+03 -0.28146266963E+03  0.72158117432E+03  0.25000000000E+03 0.  0.
<mgrwt>
<rscale>  0 0.14630134E+04</rscale>
<asrwt>0</asrwt>
<pdfrwt beam="1">  1        2 0.10879991E+00 0.14630134E+04</pdfrwt>
<pdfrwt beam="2">  1       -2 0.11640760E+00 0.14630134E+04</pdfrwt>
<totfact> 0.22425750E+01</totfact>
</mgrwt>
</event>
<event>
 4    1  0.6705655E-006  0.7855391E+03  0.7818608E-02  0.9581188E-01
          2   -1    0    0  501    0  0.00000000000E+00  0.00000000000E+00  0.31864194660E+04  0.31864194660E+04  0.25500000000E-02 0.  1.
         -2   -1    0    0    0  501 -0.00000000000E+00 -0.00000000000E+00 -0.48414185706E+02  0.48414185773E+02  0.25500000000E-02 0. -1.
   -5000001    1    1    2    0    0 -0.93920515459E+02  0.27926085178E+03  0.18590270284E+04  0.18987599055E+04  0.25000000000E+03 0.  0.
    5000001    1    1    2    0    0  0.93920515459E+02 -0.27926085178E+03  0.12789782519E+04  0.13360737462E+04  0.25000000000E+03 0.  0.
<mgrwt>
<rscale>  0 0.78553906E+03</rscale>
<asrwt>0</asrwt>
<pdfrwt beam="1">  1        2 0.49021837E+00 0.78553906E+03</pdfrwt>
<pdfrwt beam="2">  1       -2 0.74483363E-02 0.78553906E+03</pdfrwt>
<totfact> 0.15444758E+02</totfact>
</mgrwt>
</event>
<event>
 4    1  0.6705655E-006  0.7632130E+03  0.7818608E-02  0.9614846E-01
          2   -1    0    0  501    0  0.00000000000E+00  0.00000000000E+00  0.18023347089E+03  0.18023347090E+03  0.25500000000E-02 0.  1.
         -2   -1    0    0    0  501 -0.00000000000E+00 -0.00000000000E+00 -0.80797165838E+03  0.80797165839E+03  0.25500000000E-02 0. -1.
   -5000001    1    1    2    0    0 -0.24514430556E+03 -0.84708700957E+02 -0.47689126221E+03  0.59765924283E+03  0.25000000000E+03 0.  0.
    5000001    1    1    2    0    0  0.24514430556E+03  0.84708700957E+02 -0.15084692528E+03  0.39054588646E+03  0.25000000000E+03 0.  0.
<mgrwt>
<rscale>  0 0.76321304E+03</rscale>
<asrwt>0</asrwt>
<pdfrwt beam="1">  1        2 0.27728227E-01 0.76321304E+03</pdfrwt>
<pdfrwt beam="2">  1       -2 0.12430333E+00 0.76321304E+03</pdfrwt>
<totfact> 0.95478566E+01</totfact>
</mgrwt>
</event>
<event>
 4    1  0.6705655E-006  0.6759054E+03  0.7818608E-02  0.9759348E-01
         -2   -1    0    0    0  501 -0.00000000000E+00  0.00000000000E+00  0.13928414205E+03  0.13928414208E+03  0.25500000000E-02 0. -1.
          2   -1    0    0  501    0  0.00000000000E+00 -0.00000000000E+00 -0.81999311146E+03  0.81999311146E+03  0.25500000000E-02 0.  1.
   -5000001    1    1    2    0    0 -0.22615774531E+03 -0.11166772927E+02 -0.31058360397E+03  0.45851302886E+03  0.25000000000E+03 0.  0.
    5000001    1    1    2    0    0  0.22615774531E+03  0.11166772927E+02 -0.37012536543E+03  0.50076422468E+03  0.25000000000E+03 0.  0.
<mgrwt>
<rscale>  0 0.67590543E+03</rscale>
<asrwt>0</asrwt>
<pdfrwt beam="1">  1        2 0.12615278E+00 0.67590543E+03</pdfrwt>
<pdfrwt beam="2">  1       -2 0.21428330E-01 0.67590543E+03</pdfrwt>
<totfact> 0.63346675E+02</totfact>
</mgrwt>
</event>
<event>
 4    1  0.6705655E-006  0.1158385E+04  0.7818608E-02  0.9150083E-01
          2   -1    0    0  501    0  0.00000000000E+00  0.00000000000E+00  0.32297453274E+03  0.32297453275E+03  0.25500000000E-02 0.  1.
         -2   -1    0    0    0  501 -0.00000000000E+00 -0.00000000000E+00 -0.10386700414E+04  0.10386700414E+04  0.25500000000E-02 0. -1.
   -5000001    1    1    2    0    0  0.18867532243E+03 -0.32323868605E+03  0.70645969688E+02  0.45560122748E+03  0.25000000000E+03 0.  0.
    5000001    1    1    2    0    0 -0.18867532243E+03  0.32323868605E+03 -0.78634147833E+03  0.90604334664E+03  0.25000000000E+03 0.  0.
<mgrwt>
<rscale>  0 0.11583850E+04</rscale>
<asrwt>0</asrwt>
<pdfrwt beam="1">  1        2 0.49688390E-01 0.11583850E+04</pdfrwt>
<pdfrwt beam="2">  1       -2 0.15979539E+00 0.11583850E+04</pdfrwt>
<totfact> 0.25255068E+01</totfact>
</mgrwt>
</event>
<event>
 4    1  0.6705655E-006  0.7304874E+03  0.7818608E-02  0.9666470E-01
          2   -1    0    0  501    0  0.00000000000E+00  0.00000000000E+00  0.38328001217E+03  0.38328001218E+03  0.25500000000E-02 0.  1.
         -2   -1    0    0    0  501 -0.00000000000E+00 -0.00000000000E+00 -0.34805614284E+03  0.34805614285E+03  0.25500000000E-02 0. -1.
   -5000001    1    1    2    0    0  0.18461069297E+03 -0.13583134051E+02 -0.17401932600E+03  0.35643840325E+03  0.25000000000E+03 0.  0.
    5000001    1    1    2    0    0 -0.18461069297E+03  0.13583134051E+02  0.20924319533E+03  0.37489775177E+03  0.25000000000E+03 0.  0.
<mgrwt>
<rscale>  0 0.73048741E+03</rscale>
<asrwt>0</asrwt>
<pdfrwt beam="1">  1        2 0.58966155E-01 0.73048741E+03</pdfrwt>
<pdfrwt beam="2">  1       -2 0.53547099E-01 0.73048741E+03</pdfrwt>
<totfact> 0.27672602E+02</totfact>
</mgrwt>
</event>
<event>
 4    1  0.6705655E-006  0.8513409E+03  0.7818608E-02  0.9488539E-01
          2   -1    0    0  501    0  0.00000000000E+00  0.00000000000E+00  0.25059751235E+04  0.25059751235E+04  0.25500000000E-02 0.  1.
         -2   -1    0    0    0  501 -0.00000000000E+00 -0.00000000000E+00 -0.72305322767E+02  0.72305322812E+02  0.25500000000E-02 0. -1.
   -5000001    1    1    2    0    0  0.34369034781E+03 -0.53877356051E+01  0.11462471325E+04  0.12225115834E+04  0.25000000000E+03 0.  0.
    5000001    1    1    2    0    0 -0.34369034781E+03  0.53877356051E+01  0.12874226683E+04  0.13557688629E+04  0.25000000000E+03 0.  0.
<mgrwt>
<rscale>  0 0.85134092E+03</rscale>
<asrwt>0</asrwt>
<pdfrwt beam="1">  1        2 0.38553455E+00 0.85134092E+03</pdfrwt>
<pdfrwt beam="2">  1       -2 0.11123898E-01 0.85134092E+03</pdfrwt>
<totfact> 0.20474512E+02</totfact>
</mgrwt>
</event>
<event>
 4    1  0.6705655E-006  0.6817378E+03  0.7818608E-02  0.9748983E-01
         -2   -1    0    0    0  501 -0.00000000000E+00  0.00000000000E+00  0.10612017396E+03  0.10612017399E+03  0.25500000000E-02 0. -1.
          2   -1    0    0  501    0  0.00000000000E+00 -0.00000000000E+00 -0.10949060701E+04  0.10949060701E+04  0.25500000000E-02 0.  1.
   -5000001    1    1    2    0    0  0.70819889842E+02 -0.15596008322E+03 -0.21947194222E+03  0.37417500955E+03  0.25000000000E+03 0.  0.
    5000001    1    1    2    0    0 -0.70819889842E+02  0.15596008322E+03 -0.76931395389E+03  0.82685123450E+03  0.25000000000E+03 0.  0.
<mgrwt>
<rscale>  0 0.68173785E+03</rscale>
<asrwt>0</asrwt>
<pdfrwt beam="1">  1        2 0.16844708E+00 0.68173785E+03</pdfrwt>
<pdfrwt beam="2">  1       -2 0.16326181E-01 0.68173785E+03</pdfrwt>
<totfact> 0.67122973E+02</totfact>
</mgrwt>
</event>
<event>
 4    1  0.6705655E-006  0.6902619E+03  0.7818608E-02  0.9734032E-01
          2   -1    0    0  501    0  0.00000000000E+00  0.00000000000E+00  0.20580130076E+04  0.20580130076E+04  0.25500000000E-02 0.  1.
         -2   -1    0    0    0  501 -0.00000000000E+00 -0.00000000000E+00 -0.57878828825E+02  0.57878828881E+02  0.25500000000E-02 0. -1.
   -5000001    1    1    2    0    0 -0.18900085302E+03  0.10818939391E+03  0.12939107944E+04  0.13357138209E+04  0.25000000000E+03 0.  0.
    5000001    1    1    2    0    0  0.18900085302E+03 -0.10818939391E+03  0.70622338431E+03  0.78017801555E+03  0.25000000000E+03 0.  0.
<mgrwt>
<rscale>  0 0.69026193E+03</rscale>
<asrwt>0</asrwt>
<pdfrwt beam="1">  1        2 0.31661736E+00 0.69026193E+03</pdfrwt>
<pdfrwt beam="2">  1       -2 0.89044359E-02 0.69026193E+03</pdfrwt>
<totfact> 0.52892934E+02</totfact>
</mgrwt>
</event>
<event>
 4    1  0.6705655E-006  0.6944162E+03  0.7818608E-02  0.9726829E-01
         -2   -1    0    0    0  501 -0.00000000000E+00  0.00000000000E+00  0.73879622649E+02  0.73879622693E+02  0.25500000000E-02 0. -1.
          2   -1    0    0  501    0  0.00000000000E+00 -0.00000000000E+00 -0.16317550711E+04  0.16317550711E+04  0.25500000000E-02 0.  1.
   -5000001    1    1    2    0    0 -0.21525482215E+03 -0.10624778273E+03 -0.72799160856E+03  0.80628469658E+03  0.25000000000E+03 0.  0.
    5000001    1    1    2    0    0  0.21525482215E+03  0.10624778273E+03 -0.82988383987E+03  0.89934999721E+03  0.25000000000E+03 0.  0.
<mgrwt>
<rscale>  0 0.69441615E+03</rscale>
<asrwt>0</asrwt>
<pdfrwt beam="1">  1        2 0.25103921E+00 0.69441615E+03</pdfrwt>
<pdfrwt beam="2">  1       -2 0.11366097E-01 0.69441615E+03</pdfrwt>
<totfact> 0.60664838E+02</totfact>
</mgrwt>
</event>
<event>
 4    1  0.6705655E-006  0.1235900E+04  0.7818608E-02  0.9082001E-01
          2   -1    0    0  501    0  0.00000000000E+00  0.00000000000E+00  0.34056400532E+04  0.34056400532E+04  0.25500000000E-02 0.  1.
         -2   -1    0    0    0  501 -0.00000000000E+00 -0.00000000000E+00 -0.11212649830E+03  0.11212649833E+03  0.25500000000E-02 0. -1.
   -5000001    1    1    2    0    0  0.49211219252E+03  0.10426412563E+03  0.91376989714E+03  0.10726233462E+04  0.25000000000E+03 0.  0.
    5000001    1    1    2    0    0 -0.49211219252E+03 -0.10426412563E+03  0.23797436578E+04  0.24451432053E+04  0.25000000000E+03 0.  0.
<mgrwt>
<rscale>  0 0.12359005E+04</rscale>
<asrwt>0</asrwt>
<pdfrwt beam="1">  1        2 0.52394458E+00 0.12359005E+04</pdfrwt>
<pdfrwt beam="2">  1       -2 0.17250232E-01 0.12359005E+04</pdfrwt>
<totfact> 0.26286951E+01</totfact>
</mgrwt>
</event>
<event>
 4    1  0.6705655E-006  0.9659390E+03  0.7818608E-02  0.9346712E-01
         -2   -1    0    0    0  501 -0.00000000000E+00  0.00000000000E+00  0.12691134380E+04  0.12691134380E+04  0.25500000000E-02 0. -1.
          2   -1    0    0  501    0  0.00000000000E+00 -0.00000000000E+00 -0.18379722848E+03  0.18379722849E+03  0.25500000000E-02 0.  1.
   -5000001    1    1    2    0    0 -0.33671288024E+03 -0.23633882765E+03  0.60145312860E+03  0.77037488995E+03  0.25000000000E+03 0.  0.
    5000001    1    1    2    0    0  0.33671288024E+03  0.23633882765E+03  0.48386308092E+03  0.68253577653E+03  0.25000000000E+03 0.  0.
<mgrwt>
<rscale>  0 0.96593899E+03</rscale>
<asrwt>0</asrwt>
<pdfrwt beam="1">  1        2 0.28276498E-01 0.96593899E+03</pdfrwt>
<pdfrwt beam="2">  1       -2 0.19524821E+00 0.96593899E+03</pdfrwt>
<totfact> 0.27266852E+01</totfact>
</mgrwt>
</event>
<event>
 4    1  0.6705655E-006  0.7907165E+03  0.7818608E-02  0.9573553E-01
          2   -1    0    0  501    0  0.00000000000E+00  0.00000000000E+00  0.67621927257E+03  0.67621927257E+03  0.25500000000E-02 0.  1.
         -2   -1    0    0    0  501 -0.00000000000E+00 -0.00000000000E+00 -0.23115007769E+03  0.23115007770E+03  0.25500000000E-02 0. -1.
   -5000001    1    1    2    0    0 -0.83131151701E+02  0.24859517001E+03  0.40432923150E+03  0.54285585046E+03  0.25000000000E+03 0.  0.
    5000001    1    1    2    0    0  0.83131151701E+02 -0.24859517001E+03  0.40739963378E+02  0.36451349982E+03  0.25000000000E+03 0.  0.
<mgrwt>
<rscale>  0 0.79071648E+03</rscale>
<asrwt>0</asrwt>
<pdfrwt beam="1">  1        2 0.10403373E+00 0.79071648E+03</pdfrwt>
<pdfrwt beam="2">  1       -2 0.35561551E-01 0.79071648E+03</pdfrwt>
<totfact> 0.31975828E+02</totfact>
</mgrwt>
</event>
<event>
 4    1  0.6705655E-006  0.7460532E+03  0.7818608E-02  0.9641563E-01
          2   -1    0    0  501    0  0.00000000000E+00  0.00000000000E+00  0.49330976152E+03  0.49330976153E+03  0.25500000000E-02 0.  1.
         -2   -1    0    0    0  501 -0.00000000000E+00 -0.00000000000E+00 -0.28207195849E+03  0.28207195850E+03  0.25500000000E-02 0. -1.
   -5000001    1    1    2    0    0  0.20930779438E+03 -0.17941477342E+03  0.13210477013E+03  0.39490642436E+03  0.25000000000E+03 0.  0.
    5000001    1    1    2    0    0 -0.20930779438E+03  0.17941477342E+03  0.79133032901E+02  0.38047529566E+03  0.25000000000E+03 0.  0.
<mgrwt>
<rscale>  0 0.74605322E+03</rscale>
<asrwt>0</asrwt>
<pdfrwt beam="1">  1        2 0.75893809E-01 0.74605322E+03</pdfrwt>
<pdfrwt beam="2">  1       -2 0.43395686E-01 0.74605322E+03</pdfrwt>
<totfact> 0.31740749E+02</totfact>
</mgrwt>
</event>
<event>
 4    1  0.6705655E-006  0.1180980E+04  0.7818608E-02  0.9129669E-01
          2   -1    0    0  501    0  0.00000000000E+00  0.00000000000E+00  0.23568140050E+03  0.23568140051E+03  0.25500000000E-02 0.  1.
         -2   -1    0    0    0  501 -0.00000000000E+00 -0.00000000000E+00 -0.14794488771E+04  0.14794488771E+04  0.25500000000E-02 0. -1.
   -5000001    1    1    2    0    0 -0.53812183234E+02 -0.51550990146E+03 -0.81418177127E+03  0.99701462689E+03  0.25000000000E+03 0.  0.
    5000001    1    1    2    0    0  0.53812183234E+02  0.51550990146E+03 -0.42958570530E+03  0.71811565069E+03  0.25000000000E+03 0.  0.
<mgrwt>
<rscale>  0 0.11809802E+04</rscale>
<asrwt>0</asrwt>
<pdfrwt beam="1">  1        2 0.36258678E-01 0.11809802E+04</pdfrwt>
<pdfrwt beam="2">  1       -2 0.22760751E+00 0.11809802E+04</pdfrwt>
<totfact> 0.12587396E+01</totfact>
</mgrwt>
</event>
<event>
 4    1  0.6705655E-006  0.5770878E+03  0.7818608E-02  0.9954116E-01
         -2   -1    0    0    0  501 -0.00000000000E+00  0.00000000000E+00  0.38665923824E+02  0.38665923908E+02  0.25500000000E-02 0. -1.
          2   -1    0    0  501    0  0.00000000000E+00 -0.00000000000E+00 -0.21532548125E+04  0.21532548125E+04  0.25500000000E-02 0.  1.
   -5000001    1    1    2    0    0 -0.11634143824E+03  0.70425294798E+01 -0.13789736873E+04  0.14062906377E+04  0.25000000000E+03 0.  0.
    5000001    1    1    2    0    0  0.11634143824E+03 -0.70425294798E+01 -0.73561520141E+03  0.78563009872E+03  0.25000000000E+03 0.  0.
<mgrwt>
<rscale>  0 0.57708782E+03</rscale>
<asrwt>0</asrwt>
<pdfrwt beam="1">  1        2 0.33126988E+00 0.57708782E+03</pdfrwt>
<pdfrwt beam="2">  1       -2 0.59486053E-02 0.57708782E+03</pdfrwt>
<totfact> 0.89753642E+02</totfact>
</mgrwt>
</event>
<event>
 4    1  0.6705655E-006  0.1042905E+04  0.7818608E-02  0.9262700E-01
          2   -1    0    0  501    0  0.00000000000E+00  0.00000000000E+00  0.60300960741E+03  0.60300960742E+03  0.25500000000E-02 0.  1.
         -2   -1    0    0    0  501 -0.00000000000E+00 -0.00000000000E+00 -0.45092598355E+03  0.45092598356E+03  0.25500000000E-02 0. -1.
   -5000001    1    1    2    0    0 -0.32565809185E+03  0.31103214688E+03 -0.61728888876E+01  0.51510415814E+03  0.25000000000E+03 0.  0.
    5000001    1    1    2    0    0  0.32565809185E+03 -0.31103214688E+03  0.15825651275E+03  0.53883143283E+03  0.25000000000E+03 0.  0.
<mgrwt>
<rscale>  0 0.10429050E+04</rscale>
<asrwt>0</asrwt>
<pdfrwt beam="1">  1        2 0.92770709E-01 0.10429050E+04</pdfrwt>
<pdfrwt beam="2">  1       -2 0.69373228E-01 0.10429050E+04</pdfrwt>
<totfact> 0.93157882E+01</totfact>
</mgrwt>
</event>
<event>
 4    1  0.6705655E-006  0.8685195E+03  0.7818608E-02  0.9465812E-01
          2   -1    0    0  501    0  0.00000000000E+00  0.00000000000E+00  0.66594120263E+03  0.66594120263E+03  0.25500000000E-02 0.  1.
         -2   -1    0    0    0  501 -0.00000000000E+00 -0.00000000000E+00 -0.28318046864E+03  0.28318046865E+03  0.25500000000E-02 0. -1.
   -5000001    1    1    2    0    0  0.19915986340E+03  0.29140204981E+03  0.14903176255E+03  0.45748253745E+03  0.25000000000E+03 0.  0.
    5000001    1    1    2    0    0 -0.19915986340E+03 -0.29140204981E+03  0.23372897144E+03  0.49163913383E+03  0.25000000000E+03 0.  0.
<mgrwt>
<rscale>  0 0.86851953E+03</rscale>
<asrwt>0</asrwt>
<pdfrwt beam="1">  1        2 0.10245249E+00 0.86851953E+03</pdfrwt>
<pdfrwt beam="2">  1       -2 0.43566226E-01 0.86851953E+03</pdfrwt>
<totfact> 0.21883846E+02</totfact>
</mgrwt>
</event>
<event>
 4    1  0.6705655E-006  0.7108811E+03  0.7818608E-02  0.9698803E-01
          2   -1    0    0  501    0  0.00000000000E+00  0.00000000000E+00  0.38133922514E+03  0.38133922515E+03  0.25500000000E-02 0.  1.
         -2   -1    0    0    0  501 -0.00000000000E+00 -0.00000000000E+00 -0.33130074538E+03  0.33130074539E+03  0.25500000000E-02 0. -1.
   -5000001    1    1    2    0    0 -0.13062864060E+03  0.21626698385E+03  0.26672408373E+02  0.35643606357E+03  0.25000000000E+03 0.  0.
    5000001    1    1    2    0    0  0.13062864060E+03 -0.21626698385E+03  0.23366071387E+02  0.35620390697E+03  0.25000000000E+03 0.  0.
<mgrwt>
<rscale>  0 0.71088106E+03</rscale>
<asrwt>0</asrwt>
<pdfrwt beam="1">  1        2 0.58667573E-01 0.71088106E+03</pdfrwt>
<pdfrwt beam="2">  1       -2 0.50969346E-01 0.71088106E+03</pdfrwt>
<totfact> 0.30813261E+02</totfact>
</mgrwt>
</event>
<event>
 4    1  0.6705655E-006  0.6348159E+03  0.7818608E-02  0.9835696E-01
         -2   -1    0    0    0  501 -0.00000000000E+00  0.00000000000E+00  0.12780856572E+03  0.12780856575E+03  0.25500000000E-02 0. -1.
          2   -1    0    0  501    0  0.00000000000E+00 -0.00000000000E+00 -0.78827117446E+03  0.78827117446E+03  0.25500000000E-02 0.  1.
   -5000001    1    1    2    0    0 -0.28067025118E+02 -0.12599280152E+03 -0.54224806786E+03  0.61089680882E+03  0.25000000000E+03 0.  0.
    5000001    1    1    2    0    0  0.28067025118E+02  0.12599280152E+03 -0.11821454088E+03  0.30518293139E+03  0.25000000000E+03 0.  0.
<mgrwt>
<rscale>  0 0.63481590E+03</rscale>
<asrwt>0</asrwt>
<pdfrwt beam="1">  1        2 0.12127249E+00 0.63481590E+03</pdfrwt>
<pdfrwt beam="2">  1       -2 0.19662857E-01 0.63481590E+03</pdfrwt>
<totfact> 0.77677338E+02</totfact>
</mgrwt>
</event>
<event>
 4    1  0.6705655E-006  0.6709928E+03  0.7818608E-02  0.9768166E-01
         -2   -1    0    0    0  501 -0.00000000000E+00  0.00000000000E+00  0.18557211616E+03  0.18557211617E+03  0.25500000000E-02 0. -1.
          2   -1    0    0  501    0  0.00000000000E+00 -0.00000000000E+00 -0.60654500455E+03  0.60654500455E+03  0.25500000000E-02 0.  1.
   -5000001    1    1    2    0    0  0.58363544510E+02  0.59941189560E+02  0.34477087084E+02  0.26587199752E+03  0.25000000000E+03 0.  0.
    5000001    1    1    2    0    0 -0.58363544510E+02 -0.59941189560E+02 -0.45544997548E+03  0.52624512320E+03  0.25000000000E+03 0.  0.
<mgrwt>
<rscale>  0 0.67099282E+03</rscale>
<asrwt>0</asrwt>
<pdfrwt beam="1">  1        2 0.93314615E-01 0.67099282E+03</pdfrwt>
<pdfrwt beam="2">  1       -2 0.28549557E-01 0.67099282E+03</pdfrwt>
<totfact> 0.55357367E+02</totfact>
</mgrwt>
</event>
<event>
 4    1  0.6705655E-006  0.1128101E+04  0.7818608E-02  0.9178228E-01
         -2   -1    0    0    0  501 -0.00000000000E+00  0.00000000000E+00  0.33961659754E+03  0.33961659755E+03  0.25500000000E-02 0. -1.
          2   -1    0    0  501    0  0.00000000000E+00 -0.00000000000E+00 -0.93680013778E+03  0.93680013778E+03  0.25500000000E-02 0.  1.
   -5000001    1    1    2    0    0  0.22077293293E+03 -0.37329275246E+02 -0.81153612328E+03  0.87819419384E+03  0.25000000000E+03 0.  0.
    5000001    1    1    2    0    0 -0.22077293293E+03  0.37329275246E+02  0.21435258304E+03  0.39822254150E+03  0.25000000000E+03 0.  0.
<mgrwt>
<rscale>  0 0.11281008E+04</rscale>
<asrwt>0</asrwt>
<pdfrwt beam="1">  1        2 0.14412310E+00 0.11281008E+04</pdfrwt>
<pdfrwt beam="2">  1       -2 0.52248708E-01 0.11281008E+04</pdfrwt>
<totfact> 0.94933512E+01</totfact>
</mgrwt>
</event>
<event>
 4    1  0.6705655E-006  0.1131222E+04  0.7818608E-02  0.9175284E-01
          2   -1    0    0  501    0  0.00000000000E+00  0.00000000000E+00  0.11074157679E+04  0.11074157679E+04  0.25500000000E-02 0.  1.
         -2   -1    0    0    0  501 -0.00000000000E+00 -0.00000000000E+00 -0.28888518904E+03  0.28888518905E+03  0.25500000000E-02 0. -1.
   -5000001    1    1    2    0    0  0.36428605188E+03 -0.62396135722E+02 -0.19774533735E+02  0.44664150897E+03  0.25000000000E+03 0.  0.
    5000001    1    1    2    0    0 -0.36428605188E+03  0.62396135722E+02  0.83830511258E+03  0.94965944797E+03  0.25000000000E+03 0.  0.
<mgrwt>
<rscale>  0 0.11312224E+04</rscale>
<asrwt>0</asrwt>
<pdfrwt beam="1">  1        2 0.17037166E+00 0.11312224E+04</pdfrwt>
<pdfrwt beam="2">  1       -2 0.44443875E-01 0.11312224E+04</pdfrwt>
<totfact> 0.10251878E+02</totfact>
</mgrwt>
</event>
<event>
 4    1  0.6705655E-006  0.9561310E+03  0.7818608E-02  0.9358013E-01
         -2   -1    0    0    0  501 -0.00000000000E+00  0.00000000000E+00  0.22268494805E+03  0.22268494806E+03  0.25500000000E-02 0. -1.
          2   -1    0    0  501    0  0.00000000000E+00 -0.00000000000E+00 -0.10263226849E+04  0.10263226849E+04  0.25500000000E-02 0.  1.
   -5000001    1    1    2    0    0 -0.79071110640E+02  0.39856935487E+03 -0.44180238757E+03  0.65023005225E+03  0.25000000000E+03 0.  0.
    5000001    1    1    2    0    0  0.79071110640E+02 -0.39856935487E+03 -0.36183534929E+03  0.59877758072E+03  0.25000000000E+03 0.  0.
<mgrwt>
<rscale>  0 0.95613098E+03</rscale>
<asrwt>0</asrwt>
<pdfrwt beam="1">  1        2 0.15789580E+00 0.95613098E+03</pdfrwt>
<pdfrwt beam="2">  1       -2 0.34259223E-01 0.95613098E+03</pdfrwt>
<totfact> 0.19320567E+02</totfact>
</mgrwt>
</event>
<event>
 4    1  0.6705655E-006  0.6130723E+03  0.7818608E-02  0.9878650E-01
          2   -1    0    0  501    0  0.00000000000E+00  0.00000000000E+00  0.17773472879E+04  0.17773472879E+04  0.25500000000E-02 0.  1.
         -2   -1    0    0    0  501 -0.00000000000E+00 -0.00000000000E+00 -0.52867775109E+02  0.52867775170E+02  0.25500000000E-02 0. -1.
   -5000001    1    1    2    0    0  0.57154424504E+02  0.16773057526E+03  0.88616379898E+03  0.93764942955E+03  0.25000000000E+03 0.  0.
    5000001    1    1    2    0    0 -0.57154424504E+02 -0.16773057526E+03  0.83831571384E+03  0.89256563355E+03  0.25000000000E+03 0.  0.
<mgrwt>
<rscale>  0 0.61307225E+03</rscale>
<asrwt>0</asrwt>
<pdfrwt beam="1">  1        2 0.27343799E+00 0.61307225E+03</pdfrwt>
<pdfrwt beam="2">  1       -2 0.81335055E-02 0.61307225E+03</pdfrwt>
<totfact> 0.87308226E+02</totfact>
</mgrwt>
</event>
<event>
 4    1  0.6705655E-006  0.6271752E+03  0.7818608E-02  0.9850577E-01
          2   -1    0    0  501    0  0.00000000000E+00  0.00000000000E+00  0.11380368775E+04  0.11380368775E+04  0.25500000000E-02 0.  1.
         -2   -1    0    0    0  501 -0.00000000000E+00 -0.00000000000E+00 -0.86409474829E+02  0.86409474867E+02  0.25500000000E-02 0. -1.
   -5000001    1    1    2    0    0  0.14513071758E+03  0.95687550302E+02  0.37947909014E+03  0.48654230270E+03  0.25000000000E+03 0.  0.
    5000001    1    1    2    0    0 -0.14513071758E+03 -0.95687550302E+02  0.67214831250E+03  0.73790404963E+03  0.25000000000E+03 0.  0.
<mgrwt>
<rscale>  0 0.62717516E+03</rscale>
<asrwt>0</asrwt>
<pdfrwt beam="1">  1        2 0.17508260E+00 0.62717516E+03</pdfrwt>
<pdfrwt beam="2">  1       -2 0.13293765E-01 0.62717516E+03</pdfrwt>
<totfact> 0.89526712E+02</totfact>
</mgrwt>
</event>
<event>
 4    1  0.6705655E-006  0.7593489E+03  0.7818608E-02  0.9620797E-01
         -2   -1    0    0    0  501 -0.00000000000E+00  0.00000000000E+00  0.26268611228E+03  0.26268611229E+03  0.25500000000E-02 0. -1.
          2   -1    0    0  501    0  0.00000000000E+00 -0.00000000000E+00 -0.54876398680E+03  0.54876398681E+03  0.25500000000E-02 0.  1.
   -5000001    1    1    2    0    0  0.28194928287E+03 -0.28436727651E+00 -0.93406500518E+02  0.38822706412E+03  0.25000000000E+03 0.  0.
    5000001    1    1    2    0    0 -0.28194928287E+03  0.28436727651E+00 -0.19267137401E+03  0.42322303498E+03  0.25000000000E+03 0.  0.
<mgrwt>
<rscale>  0 0.75934887E+03</rscale>
<asrwt>0</asrwt>
<pdfrwt beam="1">  1        2 0.84425228E-01 0.75934887E+03</pdfrwt>
<pdfrwt beam="2">  1       -2 0.40413248E-01 0.75934887E+03</pdfrwt>
<totfact> 0.32219579E+02</totfact>
</mgrwt>
</event>
<event>
 4    1  0.6705655E-006  0.1135220E+04  0.7818608E-02  0.9171528E-01
         -2   -1    0    0    0  501 -0.00000000000E+00  0.00000000000E+00  0.16469951597E+04  0.16469951597E+04  0.25500000000E-02 0. -1.
          2   -1    0    0  501    0  0.00000000000E+00 -0.00000000000E+00 -0.19561757157E+03  0.19561757159E+03  0.25500000000E-02 0.  1.
   -5000001    1    1    2    0    0  0.37176000777E+03  0.34829288803E+03  0.74671160772E+03  0.93786548306E+03  0.25000000000E+03 0.  0.
    5000001    1    1    2    0    0 -0.37176000777E+03 -0.34829288803E+03  0.70466598039E+03  0.90474724821E+03  0.25000000000E+03 0.  0.
<mgrwt>
<rscale>  0 0.11352201E+04</rscale>
<asrwt>0</asrwt>
<pdfrwt beam="1">  1        2 0.30095012E-01 0.11352201E+04</pdfrwt>
<pdfrwt beam="2">  1       -2 0.25338387E+00 0.11352201E+04</pdfrwt>
<totfact> 0.10814155E+01</totfact>
</mgrwt>
</event>
<event>
 4    1  0.6705655E-006  0.1145887E+04  0.7818608E-02  0.9161586E-01
          2   -1    0    0  501    0  0.00000000000E+00  0.00000000000E+00  0.35508167217E+04  0.35508167217E+04  0.25500000000E-02 0.  1.
         -2   -1    0    0    0  501 -0.00000000000E+00 -0.00000000000E+00 -0.92447595655E+02  0.92447595691E+02  0.25500000000E-02 0. -1.
   -5000001    1    1    2    0    0  0.40871293188E+03  0.29229635491E+03  0.13627765754E+04  0.14738193289E+04  0.25000000000E+03 0.  0.
    5000001    1    1    2    0    0 -0.40871293188E+03 -0.29229635491E+03  0.20955925507E+04  0.21694449885E+04  0.25000000000E+03 0.  0.
<mgrwt>
<rscale>  0 0.11458874E+04</rscale>
<asrwt>0</asrwt>
<pdfrwt beam="1">  1        2 0.54627932E+00 0.11458874E+04</pdfrwt>
<pdfrwt beam="2">  1       -2 0.14222712E-01 0.11458874E+04</pdfrwt>
<totfact> 0.29351591E+01</totfact>
</mgrwt>
</event>
<event>
 4    1  0.6705655E-006  0.7342878E+03  0.7818608E-02  0.9660328E-01
          2   -1    0    0  501    0  0.00000000000E+00  0.00000000000E+00  0.22488158911E+04  0.22488158911E+04  0.25500000000E-02 0. -1.
         -2   -1    0    0    0  501 -0.00000000000E+00 -0.00000000000E+00 -0.59940280397E+02  0.59940280451E+02  0.25500000000E-02 0.  1.
   -5000001    1    1    2    0    0  0.13475453576E+03 -0.19729554768E+03  0.70666159925E+03  0.78673688988E+03  0.25000000000E+03 0.  0.
    5000001    1    1    2    0    0 -0.13475453576E+03  0.19729554768E+03  0.14822140115E+04  0.15220192817E+04  0.25000000000E+03 0.  0.
<mgrwt>
<rscale>  0 0.73428783E+03</rscale>
<asrwt>0</asrwt>
<pdfrwt beam="1">  1        2 0.34597162E+00 0.73428783E+03</pdfrwt>
<pdfrwt beam="2">  1       -2 0.92215831E-02 0.73428783E+03</pdfrwt>
<totfact> 0.39143369E+02</totfact>
</mgrwt>
</event>
<event>
 4    1  0.6705655E-006  0.7042770E+03  0.7818608E-02  0.9709946E-01
         -2   -1    0    0    0  501 -0.00000000000E+00  0.00000000000E+00  0.22329231438E+02  0.22329231584E+02  0.25500000000E-02 0. -1.
          2   -1    0    0  501    0  0.00000000000E+00 -0.00000000000E+00 -0.55533264803E+04  0.55533264803E+04  0.25500000000E-02 0.  1.
   -5000001    1    1    2    0    0  0.13052141926E+03 -0.18471208320E+03 -0.19601903448E+04  0.19889697289E+04  0.25000000000E+03 0.  0.
    5000001    1    1    2    0    0 -0.13052141926E+03  0.18471208320E+03 -0.35708069041E+04  0.35866859830E+04  0.25000000000E+03 0.  0.
<mgrwt>
<rscale>  0 0.70427697E+03</rscale>
<asrwt>0</asrwt>
<pdfrwt beam="1">  1        2 0.85435682E+00 0.70427697E+03</pdfrwt>
<pdfrwt beam="2">  1       -2 0.34352708E-02 0.70427697E+03</pdfrwt>
<totfact> 0.21948717E+00</totfact>
</mgrwt>
</event>
<event>
 4    1  0.6705655E-006  0.6894519E+03  0.7818608E-02  0.9735443E-01
         -2   -1    0    0    0  501 -0.00000000000E+00  0.00000000000E+00  0.20032213742E+03  0.20032213744E+03  0.25500000000E-02 0. -1.
          2   -1    0    0  501    0  0.00000000000E+00 -0.00000000000E+00 -0.59322432999E+03  0.59322432999E+03  0.25500000000E-02 0.  1.
   -5000001    1    1    2    0    0  0.22846475976E+03  0.22365235775E+02 -0.26588893144E+03  0.43115342291E+03  0.25000000000E+03 0.  0.
    5000001    1    1    2    0    0 -0.22846475976E+03 -0.22365235775E+02 -0.12701326112E+03  0.36239304453E+03  0.25000000000E+03 0.  0.
<mgrwt>
<rscale>  0 0.68945186E+03</rscale>
<asrwt>0</asrwt>
<pdfrwt beam="1">  1        2 0.91265281E-01 0.68945186E+03</pdfrwt>
<pdfrwt beam="2">  1       -2 0.30818791E-01 0.68945186E+03</pdfrwt>
<totfact> 0.49332416E+02</totfact>
</mgrwt>
</event>
<event>
 4    1  0.6705655E-006  0.1296538E+04  0.7818608E-02  0.9032315E-01
          2   -1    0    0  501    0  0.00000000000E+00  0.00000000000E+00  0.13462850581E+04  0.13462850581E+04  0.25500000000E-02 0.  1.
         -2   -1    0    0    0  501 -0.00000000000E+00 -0.00000000000E+00 -0.31215707694E+03  0.31215707695E+03  0.25500000000E-02 0. -1.
   -5000001    1    1    2    0    0  0.52711844207E+03 -0.11107547394E+03  0.18458623091E+03  0.62190327988E+03  0.25000000000E+03 0.  0.
    5000001    1    1    2    0    0 -0.52711844207E+03  0.11107547394E+03  0.84954175030E+03  0.10365388552E+04  0.25000000000E+03 0.  0.
<mgrwt>
<rscale>  0 0.12965376E+04</rscale>
<asrwt>0</asrwt>
<pdfrwt beam="1">  1        2 0.20712077E+00 0.12965376E+04</pdfrwt>
<pdfrwt beam="2">  1       -2 0.48024167E-01 0.12965376E+04</pdfrwt>
<totfact> 0.62559865E+01</totfact>
</mgrwt>
</event>
<event>
 4    1  0.6705655E-006  0.6508708E+03  0.7818608E-02  0.9805146E-01
         -2   -1    0    0    0  501 -0.00000000000E+00  0.00000000000E+00  0.92827174414E+02  0.92827174449E+02  0.25500000000E-02 0. -1.
          2   -1    0    0  501    0  0.00000000000E+00 -0.00000000000E+00 -0.11409181846E+04  0.11409181846E+04  0.25500000000E-02 0.  1.
   -5000001    1    1    2    0    0  0.83527567449E+02 -0.19077691766E+03 -0.51274768388E+03  0.60727495763E+03  0.25000000000E+03 0.  0.
    5000001    1    1    2    0    0 -0.83527567449E+02  0.19077691766E+03 -0.53534332629E+03  0.62647040141E+03  0.25000000000E+03 0.  0.
<mgrwt>
<rscale>  0 0.65087084E+03</rscale>
<asrwt>0</asrwt>
<pdfrwt beam="1">  1        2 0.17552587E+00 0.65087084E+03</pdfrwt>
<pdfrwt beam="2">  1       -2 0.14281105E-01 0.65087084E+03</pdfrwt>
<totfact> 0.79036616E+02</totfact>
</mgrwt>
</event>
<event>
 4    1  0.6705655E-006  0.9735060E+03  0.7818608E-02  0.9338090E-01
          2   -1    0    0  501    0  0.00000000000E+00  0.00000000000E+00  0.17494189454E+04  0.17494189454E+04  0.25500000000E-02 0.  1.
         -2   -1    0    0    0  501 -0.00000000000E+00 -0.00000000000E+00 -0.13543267904E+03  0.13543267907E+03  0.25500000000E-02 0. -1.
   -5000001    1    1    2    0    0 -0.37156602787E+03  0.16250870106E+03  0.61378435912E+03  0.77698238750E+03  0.25000000000E+03 0.  0.
    5000001    1    1    2    0    0  0.37156602787E+03 -0.16250870106E+03  0.10002019072E+04  0.11078692370E+04  0.25000000000E+03 0.  0.
<mgrwt>
<rscale>  0 0.97350602E+03</rscale>
<asrwt>0</asrwt>
<pdfrwt beam="1">  1        2 0.26914138E+00 0.97350602E+03</pdfrwt>
<pdfrwt beam="2">  1       -2 0.20835796E-01 0.97350602E+03</pdfrwt>
<totfact> 0.18321860E+02</totfact>
</mgrwt>
</event>
<event>
 4    1  0.6705655E-006  0.7839781E+03  0.7818608E-02  0.9583502E-01
         -2   -1    0    0    0  501 -0.00000000000E+00  0.00000000000E+00  0.60501536259E+03  0.60501536259E+03  0.25500000000E-02 0. -1.
          2   -1    0    0  501    0  0.00000000000E+00 -0.00000000000E+00 -0.25396947091E+03  0.25396947092E+03  0.25500000000E-02 0.  1.
   -5000001    1    1    2    0    0 -0.22660303290E+03 -0.70714446319E+02  0.37993588171E+03  0.51303093635E+03  0.25000000000E+03 0.  0.
    5000001    1    1    2    0    0  0.22660303290E+03  0.70714446319E+02 -0.28889990037E+02  0.34595389716E+03  0.25000000000E+03 0.  0.
<mgrwt>
<rscale>  0 0.78397814E+03</rscale>
<asrwt>0</asrwt>
<pdfrwt beam="1">  1        2 0.39072227E-01 0.78397814E+03</pdfrwt>
<pdfrwt beam="2">  1       -2 0.93079285E-01 0.78397814E+03</pdfrwt>
<totfact> 0.13026198E+02</totfact>
</mgrwt>
</event>
<event>
 4    1  0.6705655E-006  0.6425750E+03  0.7818608E-02  0.9820812E-01
         -2   -1    0    0    0  501 -0.00000000000E+00  0.00000000000E+00  0.13669762435E+03  0.13669762438E+03  0.25500000000E-02 0. -1.
          2   -1    0    0  501    0  0.00000000000E+00 -0.00000000000E+00 -0.75513865538E+03  0.75513865538E+03  0.25500000000E-02 0.  1.
   -5000001    1    1    2    0    0  0.19584383714E+03  0.44875269998E+02 -0.33544657459E+03  0.46410451712E+03  0.25000000000E+03 0.  0.
    5000001    1    1    2    0    0 -0.19584383714E+03 -0.44875269998E+02 -0.28299445644E+03  0.42773176265E+03  0.25000000000E+03 0.  0.
<mgrwt>
<rscale>  0 0.64257501E+03</rscale>
<asrwt>0</asrwt>
<pdfrwt beam="1">  1        2 0.11617518E+00 0.64257501E+03</pdfrwt>
<pdfrwt beam="2">  1       -2 0.21030404E-01 0.64257501E+03</pdfrwt>
<totfact> 0.73008664E+02</totfact>
</mgrwt>
</event>
<event>
 4    1  0.6705655E-006  0.1247243E+04  0.7818608E-02  0.9072481E-01
          2   -1    0    0  501    0  0.00000000000E+00  0.00000000000E+00  0.42033570626E+03  0.42033570627E+03  0.25500000000E-02 0.  1.
         -2   -1    0    0    0  501 -0.00000000000E+00 -0.00000000000E+00 -0.92522256582E+03  0.92522256583E+03  0.25500000000E-02 0. -1.
   -5000001    1    1    2    0    0  0.49385179896E+03 -0.25627018304E+03 -0.39244189366E+03  0.72531003437E+03  0.25000000000E+03 0.  0.
    5000001    1    1    2    0    0 -0.49385179896E+03  0.25627018304E+03 -0.11244496590E+03  0.62024823773E+03  0.25000000000E+03 0.  0.
<mgrwt>
<rscale>  0 0.12472435E+04</rscale>
<asrwt>0</asrwt>
<pdfrwt beam="1">  1        2 0.64667032E-01 0.12472435E+04</pdfrwt>
<pdfrwt beam="2">  1       -2 0.14234193E+00 0.12472435E+04</pdfrwt>
<totfact> 0.25412042E+01</totfact>
</mgrwt>
</event>
<event>
 4    1  0.6705655E-006  0.1672839E+04  0.7818608E-02  0.8777008E-01
         -2   -1    0    0    0  501 -0.00000000000E+00  0.00000000000E+00  0.38854591755E+03  0.38854591755E+03  0.25500000000E-02 0. -1.
          2   -1    0    0  501    0  0.00000000000E+00 -0.00000000000E+00 -0.18005541404E+04  0.18005541404E+04  0.25500000000E-02 0.  1.
   -5000001    1    1    2    0    0  0.45346657153E+02 -0.67306988768E+03 -0.12643061268E+04  0.14546646952E+04  0.25000000000E+03 0.  0.
    5000001    1    1    2    0    0 -0.45346657153E+02  0.67306988768E+03 -0.14770209608E+03  0.73443536285E+03  0.25000000000E+03 0.  0.
<mgrwt>
<rscale>  0 0.16728395E+04</rscale>
<asrwt>0</asrwt>
<pdfrwt beam="1">  1        2 0.27700833E+00 0.16728395E+04</pdfrwt>
<pdfrwt beam="2">  1       -2 0.59776296E-01 0.16728395E+04</pdfrwt>
<totfact> 0.21462606E+01</totfact>
</mgrwt>
</event>
<event>
 4    1  0.6705655E-006  0.9633674E+03  0.7818608E-02  0.9349661E-01
          2   -1    0    0  501    0  0.00000000000E+00  0.00000000000E+00  0.19967962879E+04  0.19967962879E+04  0.25500000000E-02 0.  1.
         -2   -1    0    0    0  501 -0.00000000000E+00 -0.00000000000E+00 -0.11619572397E+03  0.11619572400E+03  0.25500000000E-02 0. -1.
   -5000001    1    1    2    0    0 -0.40626585951E+03 -0.64470403044E+02  0.97896836097E+03  0.10909112857E+04  0.25000000000E+03 0.  0.
    5000001    1    1    2    0    0  0.40626585951E+03  0.64470403044E+02  0.90163220295E+03  0.10220807262E+04  0.25000000000E+03 0.  0.
<mgrwt>
<rscale>  0 0.96336741E+03</rscale>
<asrwt>0</asrwt>
<pdfrwt beam="1">  1        2 0.30719945E+00 0.96336741E+03</pdfrwt>
<pdfrwt beam="2">  1       -2 0.17876264E-01 0.96336741E+03</pdfrwt>
<totfact> 0.17525819E+02</totfact>
</mgrwt>
</event>
<event>
 4    1  0.6705655E-006  0.7365202E+03  0.7818608E-02  0.9656739E-01
          2   -1    0    0  501    0  0.00000000000E+00  0.00000000000E+00  0.18776756853E+04  0.18776756853E+04  0.25500000000E-02 0.  1.
         -2   -1    0    0    0  501 -0.00000000000E+00 -0.00000000000E+00 -0.72225191663E+02  0.72225191708E+02  0.25500000000E-02 0. -1.
   -5000001    1    1    2    0    0 -0.60877454064E+02  0.26344846860E+03  0.89721862750E+03  0.96985175442E+03  0.25000000000E+03 0.  0.
    5000001    1    1    2    0    0  0.60877454064E+02 -0.26344846860E+03  0.90823186614E+03  0.98004912259E+03  0.25000000000E+03 0.  0.
<mgrwt>
<rscale>  0 0.73652016E+03</rscale>
<asrwt>0</asrwt>
<pdfrwt beam="1">  1        2 0.28887320E+00 0.73652016E+03</pdfrwt>
<pdfrwt beam="2">  1       -2 0.11111567E-01 0.73652016E+03</pdfrwt>
<totfact> 0.46107891E+02</totfact>
</mgrwt>
</event>
<event>
 4    1  0.6705655E-006  0.7246625E+03  0.7818608E-02  0.9675961E-01
         -2   -1    0    0    0  501 -0.00000000000E+00  0.00000000000E+00  0.41009858848E+03  0.41009858848E+03  0.25500000000E-02 0. -1.
          2   -1    0    0  501    0  0.00000000000E+00 -0.00000000000E+00 -0.32012778518E+03  0.32012778519E+03  0.25500000000E-02 0.  1.
   -5000001    1    1    2    0    0 -0.21450141381E+03  0.12274986468E+03  0.13344072980E+03  0.37601172079E+03  0.25000000000E+03 0.  0.
    5000001    1    1    2    0    0  0.21450141381E+03 -0.12274986468E+03 -0.43469926505E+02  0.35421465288E+03  0.25000000000E+03 0.  0.
<mgrwt>
<rscale>  0 0.72466255E+03</rscale>
<asrwt>0</asrwt>
<pdfrwt beam="1">  1        2 0.49250429E-01 0.72466255E+03</pdfrwt>
<pdfrwt beam="2">  1       -2 0.63092090E-01 0.72466255E+03</pdfrwt>
<totfact> 0.23989228E+02</totfact>
</mgrwt>
</event>
<event>
 4    1  0.6705655E-006  0.7962515E+03  0.7818608E-02  0.9565459E-01
         -2   -1    0    0    0  501 -0.00000000000E+00  0.00000000000E+00  0.80432940414E+02  0.80432940455E+02  0.25500000000E-02 0. -1.
          2   -1    0    0  501    0  0.00000000000E+00 -0.00000000000E+00 -0.19706367221E+04  0.19706367221E+04  0.25500000000E-02 0.  1.
   -5000001    1    1    2    0    0  0.15610085675E+03 -0.25945579694E+03 -0.11143944026E+04  0.11815496911E+04  0.25000000000E+03 0.  0.
    5000001    1    1    2    0    0 -0.15610085675E+03  0.25945579694E+03 -0.77580937909E+03  0.86951997143E+03  0.25000000000E+03 0.  0.
<mgrwt>
<rscale>  0 0.79625148E+03</rscale>
<asrwt>0</asrwt>
<pdfrwt beam="1">  1        2 0.30317484E+00 0.79625148E+03</pdfrwt>
<pdfrwt beam="2">  1       -2 0.12374300E-01 0.79625148E+03</pdfrwt>
<totfact> 0.34203923E+02</totfact>
</mgrwt>
</event>
<event>
 4    1  0.6705655E-006  0.5592428E+03  0.7818608E-02  0.9993769E-01
          2   -1    0    0  501    0  0.00000000000E+00  0.00000000000E+00  0.10464151593E+04  0.10464151593E+04  0.25500000000E-02 0.  1.
         -2   -1    0    0    0  501 -0.00000000000E+00 -0.00000000000E+00 -0.74719990783E+02  0.74719990826E+02  0.25500000000E-02 0. -1.
   -5000001    1    1    2    0    0  0.11914792573E+03 -0.28251376779E+02  0.43304404951E+03  0.51480240609E+03  0.25000000000E+03 0.  0.
    5000001    1    1    2    0    0 -0.11914792573E+03  0.28251376779E+02  0.53865111905E+03  0.60633274409E+03  0.25000000000E+03 0.  0.
<mgrwt>
<rscale>  0 0.55924281E+03</rscale>
<asrwt>0</asrwt>
<pdfrwt beam="1">  1        2 0.16098694E+00 0.55924281E+03</pdfrwt>
<pdfrwt beam="2">  1       -2 0.11495383E-01 0.55924281E+03</pdfrwt>
<totfact> 0.12967055E+03</totfact>
</mgrwt>
</event>
<event>
 4    1  0.6705655E-006  0.1924289E+04  0.7818608E-02  0.8642860E-01
          2   -1    0    0  501    0  0.00000000000E+00  0.00000000000E+00  0.31791903219E+04  0.31791903219E+04  0.25500000000E-02 0.  1.
         -2   -1    0    0    0  501 -0.00000000000E+00 -0.00000000000E+00 -0.29118184932E+03  0.29118184933E+03  0.25500000000E-02 0. -1.
   -5000001    1    1    2    0    0  0.90999085822E+03 -0.13530215733E+03  0.12100237092E+04  0.15404698675E+04  0.25000000000E+03 0.  0.
    5000001    1    1    2    0    0 -0.90999085822E+03  0.13530215733E+03  0.16779847634E+04  0.19299023038E+04  0.25000000000E+03 0.  0.
<mgrwt>
<rscale>  0 0.19242895E+04</rscale>
<asrwt>0</asrwt>
<pdfrwt beam="1">  1        2 0.48910619E+00 0.19242895E+04</pdfrwt>
<pdfrwt beam="2">  1       -2 0.44797209E-01 0.19242895E+04</pdfrwt>
<totfact> 0.59337240E+00</totfact>
</mgrwt>
</event>
<event>
 4    1  0.6705655E-006  0.5790551E+03  0.7818608E-02  0.9949839E-01
         -2   -1    0    0    0  501 -0.00000000000E+00  0.00000000000E+00  0.11922637567E+03  0.11922637570E+03  0.25500000000E-02 0. -1.
          2   -1    0    0  501    0  0.00000000000E+00 -0.00000000000E+00 -0.70308441771E+03  0.70308441772E+03  0.25500000000E-02 0.  1.
   -5000001    1    1    2    0    0 -0.60186379586E+02 -0.10249126959E+03 -0.41242224359E+03  0.49670813123E+03  0.25000000000E+03 0.  0.
    5000001    1    1    2    0    0  0.60186379586E+02  0.10249126959E+03 -0.17143579846E+03  0.32560266218E+03  0.25000000000E+03 0.  0.
<mgrwt>
<rscale>  0 0.57905512E+03</rscale>
<asrwt>0</asrwt>
<pdfrwt beam="1">  1        2 0.10816683E+00 0.57905512E+03</pdfrwt>
<pdfrwt beam="2">  1       -2 0.18342520E-01 0.57905512E+03</pdfrwt>
<totfact> 0.10155268E+03</totfact>
</mgrwt>
</event>
<event>
 4    1  0.6705655E-006  0.1498313E+04  0.7818608E-02  0.8885575E-01
          2   -1    0    0  501    0  0.00000000000E+00  0.00000000000E+00  0.19060424633E+04  0.19060424633E+04  0.25500000000E-02 0.  1.
         -2   -1    0    0    0  501 -0.00000000000E+00 -0.00000000000E+00 -0.29445070267E+03  0.29445070268E+03  0.25500000000E-02 0. -1.
   -5000001    1    1    2    0    0  0.62162626246E+03  0.87785335002E+02  0.12808074482E+04  0.14481343841E+04  0.25000000000E+03 0.  0.
    5000001    1    1    2    0    0 -0.62162626246E+03 -0.87785335002E+02  0.33078431243E+03  0.75235878182E+03  0.25000000000E+03 0.  0.
<mgrwt>
<rscale>  0 0.14983131E+04</rscale>
<asrwt>0</asrwt>
<pdfrwt beam="1">  1        2 0.29323731E+00 0.14983131E+04</pdfrwt>
<pdfrwt beam="2">  1       -2 0.45300107E-01 0.14983131E+04</pdfrwt>
<totfact> 0.33653126E+01</totfact>
</mgrwt>
</event>
<event>
 4    1  0.6705655E-006  0.1025970E+04  0.7818608E-02  0.9280511E-01
         -2   -1    0    0    0  501 -0.00000000000E+00  0.00000000000E+00  0.75920018815E+02  0.75920018858E+02  0.25500000000E-02 0. -1.
          2   -1    0    0  501    0  0.00000000000E+00 -0.00000000000E+00 -0.34661935223E+04  0.34661935223E+04  0.25500000000E-02 0.  1.
   -5000001    1    1    2    0    0  0.37439027068E+03 -0.19373059847E+03 -0.11720716196E+04  0.12704139094E+04  0.25000000000E+03 0.  0.
    5000001    1    1    2    0    0 -0.37439027068E+03  0.19373059847E+03 -0.22182018838E+04  0.22716996318E+04  0.25000000000E+03 0.  0.
<mgrwt>
<rscale>  0 0.10259697E+04</rscale>
<asrwt>0</asrwt>
<pdfrwt beam="1">  1        2 0.53326042E+00 0.10259697E+04</pdfrwt>
<pdfrwt beam="2">  1       -2 0.11680006E-01 0.10259697E+04</pdfrwt>
<totfact> 0.47328785E+01</totfact>
</mgrwt>
</event>
<event>
 4    1  0.6705655E-006  0.6010531E+03  0.7818608E-02  0.9903224E-01
          2   -1    0    0  501    0  0.00000000000E+00  0.00000000000E+00  0.17829213009E+04  0.17829213009E+04  0.25500000000E-02 0.  1.
         -2   -1    0    0    0  501 -0.00000000000E+00 -0.00000000000E+00 -0.50656299833E+02  0.50656299898E+02  0.25500000000E-02 0. -1.
   -5000001    1    1    2    0    0  0.15642807907E+03  0.34565619084E+02  0.72462667337E+03  0.78310174416E+03  0.25000000000E+03 0.  0.
    5000001    1    1    2    0    0 -0.15642807907E+03 -0.34565619084E+02  0.10076383277E+04  0.10504758566E+04  0.25000000000E+03 0.  0.
<mgrwt>
<rscale>  0 0.60105306E+03</rscale>
<asrwt>0</asrwt>
<pdfrwt beam="1">  1        2 0.27429558E+00 0.60105306E+03</pdfrwt>
<pdfrwt beam="2">  1       -2 0.77932771E-02 0.60105306E+03</pdfrwt>
<totfact> 0.92880192E+02</totfact>
</mgrwt>
</event>
<event>
 4    1  0.6705655E-006  0.7073470E+03  0.7818608E-02  0.9704750E-01
         -2   -1    0    0    0  501 -0.00000000000E+00  0.00000000000E+00  0.33394942061E+03  0.33394942062E+03  0.25500000000E-02 0. -1.
          2   -1    0    0  501    0  0.00000000000E+00 -0.00000000000E+00 -0.37456251741E+03  0.37456251741E+03  0.25500000000E-02 0.  1.
   -5000001    1    1    2    0    0  0.14532296955E+03 -0.28613248966E+02  0.18163762920E+03  0.34268018886E+03  0.25000000000E+03 0.  0.
    5000001    1    1    2    0    0 -0.14532296955E+03  0.28613248966E+02 -0.22225072600E+03  0.36583174917E+03  0.25000000000E+03 0.  0.
<mgrwt>
<rscale>  0 0.70734697E+03</rscale>
<asrwt>0</asrwt>
<pdfrwt beam="1">  1        2 0.57625003E-01 0.70734697E+03</pdfrwt>
<pdfrwt beam="2">  1       -2 0.51376834E-01 0.70734697E+03</pdfrwt>
<totfact> 0.30933617E+02</totfact>
</mgrwt>
</event>
<event>
 4    1  0.6705655E-006  0.5917602E+03  0.7818608E-02  0.9922650E-01
         -2   -1    0    0    0  501 -0.00000000000E+00  0.00000000000E+00  0.10145934791E+03  0.10145934794E+03  0.25500000000E-02 0. -1.
          2   -1    0    0  501    0  0.00000000000E+00 -0.00000000000E+00 -0.86285811045E+03  0.86285811045E+03  0.25500000000E-02 0.  1.
   -5000001    1    1    2    0    0 -0.13228165630E+03 -0.30483507255E+00 -0.23913732657E+03  0.37038519203E+03  0.25000000000E+03 0.  0.
    5000001    1    1    2    0    0  0.13228165630E+03  0.30483507255E+00 -0.52226143597E+03  0.59393226636E+03  0.25000000000E+03 0.  0.
<mgrwt>
<rscale>  0 0.59176016E+03</rscale>
<asrwt>0</asrwt>
<pdfrwt beam="1">  1        2 0.13274740E+00 0.59176016E+03</pdfrwt>
<pdfrwt beam="2">  1       -2 0.15609131E-01 0.59176016E+03</pdfrwt>
<totfact> 0.10242305E+03</totfact>
</mgrwt>
</event>
<event>
 4    1  0.6705655E-006  0.5950433E+03  0.7818608E-02  0.9915743E-01
          2   -1    0    0  501    0  0.00000000000E+00  0.00000000000E+00  0.67842334199E+03  0.67842334199E+03  0.25500000000E-02 0.  1.
         -2   -1    0    0    0  501 -0.00000000000E+00 -0.00000000000E+00 -0.13047771572E+03  0.13047771575E+03  0.25500000000E-02 0. -1.
   -5000001    1    1    2    0    0  0.11348431263E+03  0.11315176217E+03  0.24901322149E+03  0.38754302338E+03  0.25000000000E+03 0.  0.
    5000001    1    1    2    0    0 -0.11348431263E+03 -0.11315176217E+03  0.29893240478E+03  0.42135803436E+03  0.25000000000E+03 0.  0.
<mgrwt>
<rscale>  0 0.59504329E+03</rscale>
<asrwt>0</asrwt>
<pdfrwt beam="1">  1        2 0.10437282E+00 0.59504329E+03</pdfrwt>
<pdfrwt beam="2">  1       -2 0.20073495E-01 0.59504329E+03</pdfrwt>
<totfact> 0.90791360E+02</totfact>
</mgrwt>
</event>
<event>
 4    1  0.6705655E-006  0.8012259E+03  0.7818608E-02  0.9558244E-01
          2   -1    0    0  501    0  0.00000000000E+00  0.00000000000E+00  0.28469882311E+04  0.28469882311E+04  0.25500000000E-02 0.  1.
         -2   -1    0    0    0  501 -0.00000000000E+00 -0.00000000000E+00 -0.56372108306E+02  0.56372108363E+02  0.25500000000E-02 0. -1.
   -5000001    1    1    2    0    0 -0.13983059483E+03 -0.17052290408E+03  0.59023764927E+03  0.67787250917E+03  0.25000000000E+03 0.  0.
    5000001    1    1    2    0    0  0.13983059483E+03  0.17052290408E+03  0.22003784736E+04  0.22254878303E+04  0.25000000000E+03 0.  0.
<mgrwt>
<rscale>  0 0.80122588E+03</rscale>
<asrwt>0</asrwt>
<pdfrwt beam="1">  1        2 0.43799824E+00 0.80122588E+03</pdfrwt>
<pdfrwt beam="2">  1       -2 0.86726310E-02 0.80122588E+03</pdfrwt>
<totfact> 0.19537654E+02</totfact>
</mgrwt>
</event>
<event>
 4    1  0.6705655E-006  0.7931003E+03  0.7818608E-02  0.9570058E-01
          2   -1    0    0  501    0  0.00000000000E+00  0.00000000000E+00  0.16021210702E+03  0.16021210704E+03  0.25500000000E-02 0.  1.
         -2   -1    0    0    0  501 -0.00000000000E+00 -0.00000000000E+00 -0.98152396935E+03  0.98152396935E+03  0.25500000000E-02 0. -1.
   -5000001    1    1    2    0    0  0.16583099336E+03  0.20911172208E+03 -0.63145478592E+03  0.72970047096E+03  0.25000000000E+03 0.  0.
    5000001    1    1    2    0    0 -0.16583099336E+03 -0.20911172208E+03 -0.18985707642E+03  0.41203560542E+03  0.25000000000E+03 0.  0.
<mgrwt>
<rscale>  0 0.79310030E+03</rscale>
<asrwt>0</asrwt>
<pdfrwt beam="1">  1        2 0.24648017E-01 0.79310030E+03</pdfrwt>
<pdfrwt beam="2">  1       -2 0.15100368E+00 0.79310030E+03</pdfrwt>
<totfact> 0.66150596E+01</totfact>
</mgrwt>
</event>
<event>
 4    1  0.6705655E-006  0.8796367E+03  0.7818608E-02  0.9451401E-01
         -2   -1    0    0    0  501 -0.00000000000E+00  0.00000000000E+00  0.89681672735E+02  0.89681672772E+02  0.25500000000E-02 0. -1.
          2   -1    0    0  501    0  0.00000000000E+00 -0.00000000000E+00 -0.21569647000E+04  0.21569647000E+04  0.25500000000E-02 0.  1.
   -5000001    1    1    2    0    0  0.34705165224E+03  0.47400697109E+02 -0.80167806689E+03  0.90987878222E+03  0.25000000000E+03 0.  0.
    5000001    1    1    2    0    0 -0.34705165224E+03 -0.47400697109E+02 -0.12656049604E+04  0.13367675905E+04  0.25000000000E+03 0.  0.
<mgrwt>
<rscale>  0 0.87963675E+03</rscale>
<asrwt>0</asrwt>
<pdfrwt beam="1">  1        2 0.33184068E+00 0.87963675E+03</pdfrwt>
<pdfrwt beam="2">  1       -2 0.13797182E-01 0.87963675E+03</pdfrwt>
<totfact> 0.22389643E+02</totfact>
</mgrwt>
</event>
<event>
 4    1  0.6705655E-006  0.7060082E+03  0.7818608E-02  0.9707012E-01
          2   -1    0    0  501    0  0.00000000000E+00  0.00000000000E+00  0.36485984728E+03  0.36485984729E+03  0.25500000000E-02 0.  1.
         -2   -1    0    0    0  501 -0.00000000000E+00 -0.00000000000E+00 -0.34153362522E+03  0.34153362523E+03  0.25500000000E-02 0. -1.
   -5000001    1    1    2    0    0  0.22071161097E+03  0.16358991711E+02 -0.10298857081E+03  0.34941075763E+03  0.25000000000E+03 0.  0.
    5000001    1    1    2    0    0 -0.22071161097E+03 -0.16358991711E+02  0.12631479288E+03  0.35698271489E+03  0.25000000000E+03 0.  0.
<mgrwt>
<rscale>  0 0.70600823E+03</rscale>
<asrwt>0</asrwt>
<pdfrwt beam="1">  1        2 0.56132284E-01 0.70600823E+03</pdfrwt>
<pdfrwt beam="2">  1       -2 0.52543634E-01 0.70600823E+03</pdfrwt>
<totfact> 0.30423717E+02</totfact>
</mgrwt>
</event>
<event>
 4    1  0.6705655E-006  0.5977136E+03  0.7818608E-02  0.9910161E-01
         -2   -1    0    0    0  501 -0.00000000000E+00  0.00000000000E+00  0.19472252869E+03  0.19472252870E+03  0.25500000000E-02 0. -1.
          2   -1    0    0  501    0  0.00000000000E+00 -0.00000000000E+00 -0.45868024313E+03  0.45868024314E+03  0.25500000000E-02 0.  1.
   -5000001    1    1    2    0    0 -0.77034436239E+02 -0.76274071283E+02 -0.26614671238E+03  0.38090170757E+03  0.25000000000E+03 0.  0.
    5000001    1    1    2    0    0  0.77034436239E+02  0.76274071283E+02  0.21889979363E+01  0.27250106427E+03  0.25000000000E+03 0.  0.
<mgrwt>
<rscale>  0 0.59771357E+03</rscale>
<asrwt>0</asrwt>
<pdfrwt beam="1">  1        2 0.70566191E-01 0.59771357E+03</pdfrwt>
<pdfrwt beam="2">  1       -2 0.29957312E-01 0.59771357E+03</pdfrwt>
<totfact> 0.70325002E+02</totfact>
</mgrwt>
</event>
<event>
 4    1  0.6705655E-006  0.6721678E+03  0.7818608E-02  0.9766050E-01
          2   -1    0    0  501    0  0.00000000000E+00  0.00000000000E+00  0.83902670906E+03  0.83902670907E+03  0.25500000000E-02 0.  1.
         -2   -1    0    0    0  501 -0.00000000000E+00 -0.00000000000E+00 -0.13462309890E+03  0.13462309892E+03  0.25500000000E-02 0. -1.
   -5000001    1    1    2    0    0 -0.11166726381E+03  0.64014360874E+02  0.85559787286E+02  0.29391817468E+03  0.25000000000E+03 0.  0.
    5000001    1    1    2    0    0  0.11166726381E+03 -0.64014360874E+02  0.61884382288E+03  0.67973163331E+03  0.25000000000E+03 0.  0.
<mgrwt>
<rscale>  0 0.67216776E+03</rscale>
<asrwt>0</asrwt>
<pdfrwt beam="1">  1        2 0.12908103E+00 0.67216776E+03</pdfrwt>
<pdfrwt beam="2">  1       -2 0.20711246E-01 0.67216776E+03</pdfrwt>
<totfact> 0.65225261E+02</totfact>
</mgrwt>
</event>
<event>
 4    1  0.6705655E-006  0.5395533E+03  0.7818608E-02  0.1003941E+00
          2   -1    0    0  501    0  0.00000000000E+00  0.00000000000E+00  0.43145937103E+03  0.43145937104E+03  0.25500000000E-02 0.  1.
         -2   -1    0    0    0  501 -0.00000000000E+00 -0.00000000000E+00 -0.16868204711E+03  0.16868204713E+03  0.25500000000E-02 0. -1.
   -5000001    1    1    2    0    0 -0.74015950606E+02 -0.33779393255E+02  0.64096848664E+02  0.27060638271E+03  0.25000000000E+03 0.  0.
    5000001    1    1    2    0    0  0.74015950606E+02  0.33779393255E+02  0.19868047525E+03  0.32953503546E+03  0.25000000000E+03 0.  0.
<mgrwt>
<rscale>  0 0.53955333E+03</rscale>
<asrwt>0</asrwt>
<pdfrwt beam="1">  1        2 0.66378363E-01 0.53955333E+03</pdfrwt>
<pdfrwt beam="2">  1       -2 0.25951085E-01 0.53955333E+03</pdfrwt>
<totfact> 0.97996455E+02</totfact>
</mgrwt>
</event>
<event>
 4    1  0.6705655E-006  0.6721700E+03  0.7818608E-02  0.9766046E-01
          2   -1    0    0  501    0  0.00000000000E+00  0.00000000000E+00  0.12999700042E+04  0.12999700042E+04  0.25500000000E-02 0.  1.
         -2   -1    0    0    0  501 -0.00000000000E+00 -0.00000000000E+00 -0.86889034282E+02  0.86889034319E+02  0.25500000000E-02 0. -1.
   -5000001    1    1    2    0    0 -0.13385074316E+03 -0.18024730051E+03  0.62083923840E+03  0.70593659115E+03  0.25000000000E+03 0.  0.
    5000001    1    1    2    0    0  0.13385074316E+03  0.18024730051E+03  0.59224173153E+03  0.68092244738E+03  0.25000000000E+03 0.  0.
<mgrwt>
<rscale>  0 0.67217003E+03</rscale>
<asrwt>0</asrwt>
<pdfrwt beam="1">  1        2 0.19999537E+00 0.67217003E+03</pdfrwt>
<pdfrwt beam="2">  1       -2 0.13367545E-01 0.67217003E+03</pdfrwt>
<totfact> 0.71161443E+02</totfact>
</mgrwt>
</event>
<event>
 4    1  0.6705655E-006  0.7023756E+03  0.7818608E-02  0.9713178E-01
          2   -1    0    0  501    0  0.00000000000E+00  0.00000000000E+00  0.47000300900E+03  0.47000300900E+03  0.25500000000E-02 0.  1.
         -2   -1    0    0    0  501 -0.00000000000E+00 -0.00000000000E+00 -0.26240866873E+03  0.26240866874E+03  0.25500000000E-02 0. -1.
   -5000001    1    1    2    0    0 -0.16754596910E+02  0.24596949497E+03  0.11125529347E+03  0.36831976502E+03  0.25000000000E+03 0.  0.
    5000001    1    1    2    0    0  0.16754596910E+02 -0.24596949497E+03  0.96339046794E+02  0.36409191273E+03  0.25000000000E+03 0.  0.
<mgrwt>
<rscale>  0 0.70237558E+03</rscale>
<asrwt>0</asrwt>
<pdfrwt beam="1">  1        2 0.72308154E-01 0.70237558E+03</pdfrwt>
<pdfrwt beam="2">  1       -2 0.40370565E-01 0.70237558E+03</pdfrwt>
<totfact> 0.38733144E+02</totfact>
</mgrwt>
</event>
<event>
 4    1  0.6705655E-006  0.6219632E+03  0.7818608E-02  0.9860859E-01
         -2   -1    0    0    0  501 -0.00000000000E+00  0.00000000000E+00  0.30600437758E+03  0.30600437759E+03  0.25500000000E-02 0. -1.
          2   -1    0    0  501    0  0.00000000000E+00 -0.00000000000E+00 -0.31603980775E+03  0.31603980776E+03  0.25500000000E-02 0.  1.
   -5000001    1    1    2    0    0  0.63991451446E+02  0.14113390445E+03  0.95970077389E+02  0.30939285803E+03  0.25000000000E+03 0.  0.
    5000001    1    1    2    0    0 -0.63991451446E+02 -0.14113390445E+03 -0.10600550756E+03  0.31265132732E+03  0.25000000000E+03 0.  0.
<mgrwt>
<rscale>  0 0.62196323E+03</rscale>
<asrwt>0</asrwt>
<pdfrwt beam="1">  1        2 0.48621509E-01 0.62196323E+03</pdfrwt>
<pdfrwt beam="2">  1       -2 0.47077597E-01 0.62196323E+03</pdfrwt>
<totfact> 0.44695489E+02</totfact>
</mgrwt>
</event>
<event>
 4    1  0.6705655E-006  0.1242162E+04  0.7818608E-02  0.9076732E-01
         -2   -1    0    0    0  501 -0.00000000000E+00  0.00000000000E+00  0.25595361624E+03  0.25595361625E+03  0.25500000000E-02 0. -1.
          2   -1    0    0  501    0  0.00000000000E+00 -0.00000000000E+00 -0.15070771118E+04  0.15070771118E+04  0.25500000000E-02 0.  1.
   -5000001    1    1    2    0    0  0.52400510772E+03 -0.20842276382E+03 -0.52301193440E+03  0.80874154396E+03  0.25000000000E+03 0.  0.
    5000001    1    1    2    0    0 -0.52400510772E+03  0.20842276382E+03 -0.72811156115E+03  0.95428918409E+03  0.25000000000E+03 0.  0.
<mgrwt>
<rscale>  0 0.12421624E+04</rscale>
<asrwt>0</asrwt>
<pdfrwt beam="1">  1        2 0.23185801E+00 0.12421624E+04</pdfrwt>
<pdfrwt beam="2">  1       -2 0.39377480E-01 0.12421624E+04</pdfrwt>
<totfact> 0.75443887E+01</totfact>
</mgrwt>
</event>
<event>
 4    1  0.6705655E-006  0.6769953E+03  0.7818608E-02  0.9757403E-01
         -2   -1    0    0    0  501 -0.00000000000E+00  0.00000000000E+00  0.60507110778E+02  0.60507110831E+02  0.25500000000E-02 0. -1.
          2   -1    0    0  501    0  0.00000000000E+00 -0.00000000000E+00 -0.18936728321E+04  0.18936728321E+04  0.25500000000E-02 0.  1.
   -5000001    1    1    2    0    0 -0.17712674622E+03  0.15859675889E+01 -0.50123798219E+03  0.58746567075E+03  0.25000000000E+03 0.  0.
    5000001    1    1    2    0    0  0.17712674622E+03 -0.15859675889E+01 -0.13319277391E+04  0.13667142722E+04  0.25000000000E+03 0.  0.
<mgrwt>
<rscale>  0 0.67699534E+03</rscale>
<asrwt>0</asrwt>
<pdfrwt beam="1">  1        2 0.29133424E+00 0.67699534E+03</pdfrwt>
<pdfrwt beam="2">  1       -2 0.93087877E-02 0.67699534E+03</pdfrwt>
<totfact> 0.60543706E+02</totfact>
</mgrwt>
</event>
<event>
 4    1  0.6705655E-006  0.7468788E+03  0.7818608E-02  0.9640260E-01
         -2   -1    0    0    0  501 -0.00000000000E+00  0.00000000000E+00  0.21593372275E+03  0.21593372277E+03  0.25500000000E-02 0. -1.
          2   -1    0    0  501    0  0.00000000000E+00 -0.00000000000E+00 -0.64583234511E+03  0.64583234511E+03  0.25500000000E-02 0.  1.
   -5000001    1    1    2    0    0  0.16779956549E+03 -0.16810998649E+03 -0.49588611457E+02  0.34839157872E+03  0.25000000000E+03 0.  0.
    5000001    1    1    2    0    0 -0.16779956549E+03  0.16810998649E+03 -0.38031001090E+03  0.51337448916E+03  0.25000000000E+03 0.  0.
<mgrwt>
<rscale>  0 0.74687879E+03</rscale>
<asrwt>0</asrwt>
<pdfrwt beam="1">  1        2 0.99358822E-01 0.74687879E+03</pdfrwt>
<pdfrwt beam="2">  1       -2 0.33220573E-01 0.74687879E+03</pdfrwt>
<totfact> 0.38585938E+02</totfact>
</mgrwt>
</event>
<event>
 4    1  0.6705655E-006  0.6900353E+03  0.7818608E-02  0.9734426E-01
          2   -1    0    0  501    0  0.00000000000E+00  0.00000000000E+00  0.44137467439E+03  0.44137467440E+03  0.25500000000E-02 0.  1.
         -2   -1    0    0    0  501 -0.00000000000E+00 -0.00000000000E+00 -0.26969647944E+03  0.26969647945E+03  0.25500000000E-02 0. -1.
   -5000001    1    1    2    0    0  0.11940244793E+03  0.23646401262E+02 -0.12464514616E+03  0.30471709720E+03  0.25000000000E+03 0.  0.
    5000001    1    1    2    0    0 -0.11940244793E+03 -0.23646401262E+02  0.29632334112E+03  0.40635405665E+03  0.25000000000E+03 0.  0.
<mgrwt>
<rscale>  0 0.69003535E+03</rscale>
<asrwt>0</asrwt>
<pdfrwt beam="1">  1        2 0.67903795E-01 0.69003535E+03</pdfrwt>
<pdfrwt beam="2">  1       -2 0.41491766E-01 0.69003535E+03</pdfrwt>
<totfact> 0.39455679E+02</totfact>
</mgrwt>
</event>
<event>
 4    1  0.6705655E-006  0.7163223E+03  0.7818608E-02  0.9689719E-01
         -2   -1    0    0    0  501 -0.00000000000E+00  0.00000000000E+00  0.37092915562E+02  0.37092915649E+02  0.25500000000E-02 0. -1.
          2   -1    0    0  501    0  0.00000000000E+00 -0.00000000000E+00 -0.34583265546E+04  0.34583265546E+04  0.25500000000E-02 0.  1.
   -5000001    1    1    2    0    0  0.16357129675E+03 -0.16715706653E+03 -0.11969198937E+04  0.12449153730E+04  0.25000000000E+03 0.  0.
    5000001    1    1    2    0    0 -0.16357129675E+03  0.16715706653E+03 -0.22243137454E+04  0.22505040973E+04  0.25000000000E+03 0.  0.
<mgrwt>
<rscale>  0 0.71632232E+03</rscale>
<asrwt>0</asrwt>
<pdfrwt beam="1">  1        2 0.53204998E+00 0.71632232E+03</pdfrwt>
<pdfrwt beam="2">  1       -2 0.57066051E-02 0.71632232E+03</pdfrwt>
<totfact> 0.15755230E+02</totfact>
</mgrwt>
</event>
<event>
 4    1  0.6705655E-006  0.1000209E+04  0.7818608E-02  0.9308316E-01
         -2   -1    0    0    0  501 -0.00000000000E+00  0.00000000000E+00  0.42773805060E+03  0.42773805061E+03  0.25500000000E-02 0. -1.
          2   -1    0    0  501    0  0.00000000000E+00 -0.00000000000E+00 -0.58471398440E+03  0.58471398440E+03  0.25500000000E-02 0.  1.
   -5000001    1    1    2    0    0  0.28134290308E+03  0.32484401528E+03 -0.23724376824E+02  0.49773518002E+03  0.25000000000E+03 0.  0.
    5000001    1    1    2    0    0 -0.28134290308E+03 -0.32484401528E+03 -0.13325155697E+03  0.51471685499E+03  0.25000000000E+03 0.  0.
<mgrwt>
<rscale>  0 0.10002088E+04</rscale>
<asrwt>0</asrwt>
<pdfrwt beam="1">  1        2 0.89955997E-01 0.10002088E+04</pdfrwt>
<pdfrwt beam="2">  1       -2 0.65805854E-01 0.10002088E+04</pdfrwt>
<totfact> 0.10868103E+02</totfact>
</mgrwt>
</event>
<event>
 4    1  0.6705655E-006  0.1451412E+04  0.7818608E-02  0.8917422E-01
          2   -1    0    0  501    0  0.00000000000E+00  0.00000000000E+00  0.64976367220E+03  0.64976367221E+03  0.25500000000E-02 0.  1.
         -2   -1    0    0    0  501 -0.00000000000E+00 -0.00000000000E+00 -0.81052466727E+03  0.81052466728E+03  0.25500000000E-02 0. -1.
   -5000001    1    1    2    0    0 -0.35539744226E+03  0.57359686659E+03  0.14155685045E+02  0.71973682048E+03  0.25000000000E+03 0.  0.
    5000001    1    1    2    0    0  0.35539744226E+03 -0.57359686659E+03 -0.17491668012E+03  0.74055151901E+03  0.25000000000E+03 0.  0.
<mgrwt>
<rscale>  0 0.14514124E+04</rscale>
<asrwt>0</asrwt>
<pdfrwt beam="1">  1        2 0.99963642E-01 0.14514124E+04</pdfrwt>
<pdfrwt beam="2">  1       -2 0.12469610E+00 0.14514124E+04</pdfrwt>
<totfact> 0.21037236E+01</totfact>
</mgrwt>
</event>
<event>
 4    1  0.6705655E-006  0.1185848E+04  0.7818608E-02  0.9125335E-01
         -2   -1    0    0    0  501 -0.00000000000E+00  0.00000000000E+00  0.31788486960E+03  0.31788486961E+03  0.25500000000E-02 0. -1.
          2   -1    0    0  501    0  0.00000000000E+00 -0.00000000000E+00 -0.11059316824E+04  0.11059316824E+04  0.25500000000E-02 0.  1.
   -5000001    1    1    2    0    0  0.19753219661E+03  0.40986450861E+03 -0.73795104125E+03  0.90226361081E+03  0.25000000000E+03 0.  0.
    5000001    1    1    2    0    0 -0.19753219661E+03 -0.40986450861E+03 -0.50095771510E+02  0.52155294116E+03  0.25000000000E+03 0.  0.
<mgrwt>
<rscale>  0 0.11858481E+04</rscale>
<asrwt>0</asrwt>
<pdfrwt beam="1">  1        2 0.17014333E+00 0.11858481E+04</pdfrwt>
<pdfrwt beam="2">  1       -2 0.48905365E-01 0.11858481E+04</pdfrwt>
<totfact> 0.84444942E+01</totfact>
</mgrwt>
</event>
<event>
 4    1  0.6705655E-006  0.6551178E+03  0.7818608E-02  0.9797223E-01
          2   -1    0    0  501    0  0.00000000000E+00  0.00000000000E+00  0.57605250877E+03  0.57605250877E+03  0.25500000000E-02 0.  1.
         -2   -1    0    0    0  501 -0.00000000000E+00 -0.00000000000E+00 -0.18625877841E+03  0.18625877842E+03  0.25500000000E-02 0. -1.
   -5000001    1    1    2    0    0  0.14939183436E+03 -0.14896659537E+03  0.21457106793E+03  0.39121568208E+03  0.25000000000E+03 0.  0.
    5000001    1    1    2    0    0 -0.14939183436E+03  0.14896659537E+03  0.17522266243E+03  0.37109560512E+03  0.25000000000E+03 0.  0.
<mgrwt>
<rscale>  0 0.65511781E+03</rscale>
<asrwt>0</asrwt>
<pdfrwt beam="1">  1        2 0.88623462E-01 0.65511781E+03</pdfrwt>
<pdfrwt beam="2">  1       -2 0.28655197E-01 0.65511781E+03</pdfrwt>
<totfact> 0.58511165E+02</totfact>
</mgrwt>
</event>
<event>
 4    1  0.6705655E-006  0.7170222E+03  0.7818608E-02  0.9688557E-01
         -2   -1    0    0    0  501 -0.00000000000E+00  0.00000000000E+00  0.19984631351E+03  0.19984631352E+03  0.25500000000E-02 0. -1.
          2   -1    0    0  501    0  0.00000000000E+00 -0.00000000000E+00 -0.64314529549E+03  0.64314529549E+03  0.25500000000E-02 0.  1.
   -5000001    1    1    2    0    0 -0.39827640353E+02 -0.23056605319E+03 -0.96765106570E+02  0.35582359628E+03  0.25000000000E+03 0.  0.
    5000001    1    1    2    0    0  0.39827640353E+02  0.23056605319E+03 -0.34653387541E+03  0.48716801273E+03  0.25000000000E+03 0.  0.
<mgrwt>
<rscale>  0 0.71702222E+03</rscale>
<asrwt>0</asrwt>
<pdfrwt beam="1">  1        2 0.98945429E-01 0.71702222E+03</pdfrwt>
<pdfrwt beam="2">  1       -2 0.30745587E-01 0.71702222E+03</pdfrwt>
<totfact> 0.44885291E+02</totfact>
</mgrwt>
</event>
<event>
 4    1  0.6705655E-006  0.9571456E+03  0.7818608E-02  0.9356837E-01
          2   -1    0    0  501    0  0.00000000000E+00  0.00000000000E+00  0.78962434937E+03  0.78962434938E+03  0.25500000000E-02 0.  1.
         -2   -1    0    0    0  501 -0.00000000000E+00 -0.00000000000E+00 -0.29005172383E+03  0.29005172384E+03  0.25500000000E-02 0. -1.
   -5000001    1    1    2    0    0 -0.29094708007E+03 -0.19387559594E+03  0.12382487096E+02  0.42998985579E+03  0.25000000000E+03 0.  0.
    5000001    1    1    2    0    0  0.29094708007E+03  0.19387559594E+03  0.48719013845E+03  0.64968621742E+03  0.25000000000E+03 0.  0.
<mgrwt>
<rscale>  0 0.95714556E+03</rscale>
<asrwt>0</asrwt>
<pdfrwt beam="1">  1        2 0.12148066E+00 0.95714556E+03</pdfrwt>
<pdfrwt beam="2">  1       -2 0.44623344E-01 0.95714556E+03</pdfrwt>
<totfact> 0.16695176E+02</totfact>
</mgrwt>
</event>
<event>
 4    1  0.6705655E-006  0.5478642E+03  0.7818608E-02  0.1001989E+00
         -2   -1    0    0    0  501 -0.00000000000E+00  0.00000000000E+00  0.58743387007E+02  0.58743387062E+02  0.25500000000E-02 0.  1.
          2   -1    0    0  501    0  0.00000000000E+00 -0.00000000000E+00 -0.12773999026E+04  0.12773999026E+04  0.25500000000E-02 0. -1.
   -5000001    1    1    2    0    0 -0.49106338308E+02  0.87895921881E+02 -0.48980927302E+03  0.55906193707E+03  0.25000000000E+03 0.  0.
    5000001    1    1    2    0    0  0.49106338308E+02 -0.87895921881E+02 -0.72884724261E+03  0.77708135263E+03  0.25000000000E+03 0.  0.
<mgrwt>
<rscale>  0 0.54786421E+03</rscale>
<asrwt>0</asrwt>
<pdfrwt beam="1">  1        2 0.19652304E+00 0.54786421E+03</pdfrwt>
<pdfrwt beam="2">  1       -2 0.90374451E-02 0.54786421E+03</pdfrwt>
<totfact> 0.13973733E+03</totfact>
</mgrwt>
</event>
<event>
 4    1  0.6705655E-006  0.7443881E+03  0.7818608E-02  0.9644196E-01
          2   -1    0    0  501    0  0.00000000000E+00  0.00000000000E+00  0.62151931914E+03  0.62151931914E+03  0.25500000000E-02 0.  1.
         -2   -1    0    0    0  501 -0.00000000000E+00 -0.00000000000E+00 -0.22288671916E+03  0.22288671917E+03  0.25500000000E-02 0. -1.
   -5000001    1    1    2    0    0  0.14449468083E+03  0.21339278072E+03  0.88095466899E+02  0.36969717735E+03  0.25000000000E+03 0.  0.
    5000001    1    1    2    0    0 -0.14449468083E+03 -0.21339278072E+03  0.31053713309E+03  0.47470886096E+03  0.25000000000E+03 0.  0.
<mgrwt>
<rscale>  0 0.74438808E+03</rscale>
<asrwt>0</asrwt>
<pdfrwt beam="1">  1        2 0.95618355E-01 0.74438808E+03</pdfrwt>
<pdfrwt beam="2">  1       -2 0.34290265E-01 0.74438808E+03</pdfrwt>
<totfact> 0.38091857E+02</totfact>
</mgrwt>
</event>
<event>
 4    1  0.6705655E-006  0.7078612E+03  0.7818608E-02  0.9703882E-01
         -2   -1    0    0    0  501 -0.00000000000E+00  0.00000000000E+00  0.47144676434E+03  0.47144676435E+03  0.25500000000E-02 0. -1.
          2   -1    0    0  501    0  0.00000000000E+00 -0.00000000000E+00 -0.26570736984E+03  0.26570736985E+03  0.25500000000E-02 0.  1.
   -5000001    1    1    2    0    0 -0.45316412128E+02  0.23362319820E+03  0.21312085390E+02  0.34581437351E+03  0.25000000000E+03 0.  0.
    5000001    1    1    2    0    0  0.45316412128E+02 -0.23362319820E+03  0.18442730911E+03  0.39133976068E+03  0.25000000000E+03 0.  0.
<mgrwt>
<rscale>  0 0.70786123E+03</rscale>
<asrwt>0</asrwt>
<pdfrwt beam="1">  1        2 0.40878058E-01 0.70786123E+03</pdfrwt>
<pdfrwt beam="2">  1       -2 0.72530270E-01 0.70786123E+03</pdfrwt>
<totfact> 0.21828791E+02</totfact>
</mgrwt>
</event>
<event>
 4    1  0.6705655E-006  0.6662389E+03  0.7818608E-02  0.9776776E-01
          2   -1    0    0  501    0  0.00000000000E+00  0.00000000000E+00  0.29079100124E+04  0.29079100124E+04  0.25500000000E-02 0.  1.
         -2   -1    0    0    0  501 -0.00000000000E+00 -0.00000000000E+00 -0.38160939426E+02  0.38160939511E+02  0.25500000000E-02 0. -1.
   -5000001    1    1    2    0    0 -0.20765060487E+03  0.72572002127E+02  0.13945623252E+04  0.14337676061E+04  0.25000000000E+03 0.  0.
    5000001    1    1    2    0    0  0.20765060487E+03 -0.72572002127E+02  0.14751867477E+04  0.15123033458E+04  0.25000000000E+03 0.  0.
<mgrwt>
<rscale>  0 0.66623893E+03</rscale>
<asrwt>0</asrwt>
<pdfrwt beam="1">  1        2 0.44737078E+00 0.66623893E+03</pdfrwt>
<pdfrwt beam="2">  1       -2 0.58709136E-02 0.66623893E+03</pdfrwt>
<totfact> 0.33873846E+02</totfact>
</mgrwt>
</event>
<event>
 4    1  0.6705655E-006  0.1334455E+04  0.7818608E-02  0.9002680E-01
          2   -1    0    0  501    0  0.00000000000E+00  0.00000000000E+00  0.20834304835E+04  0.20834304835E+04  0.25500000000E-02 0.  1.
         -2   -1    0    0    0  501 -0.00000000000E+00 -0.00000000000E+00 -0.21368244080E+03  0.21368244082E+03  0.25500000000E-02 0. -1.
   -5000001    1    1    2    0    0  0.57462374556E+03  0.13732468521E+03  0.61914152620E+03  0.89156421395E+03  0.25000000000E+03 0.  0.
    5000001    1    1    2    0    0 -0.57462374556E+03 -0.13732468521E+03  0.12506065165E+04  0.14055487103E+04  0.25000000000E+03 0.  0.
<mgrwt>
<rscale>  0 0.13344550E+04</rscale>
<asrwt>0</asrwt>
<pdfrwt beam="1">  1        2 0.32052775E+00 0.13344550E+04</pdfrwt>
<pdfrwt beam="2">  1       -2 0.32874223E-01 0.13344550E+04</pdfrwt>
<totfact> 0.50729225E+01</totfact>
</mgrwt>
</event>
<event>
 4    1  0.6705655E-006  0.6157400E+03  0.7818608E-02  0.9873278E-01
          2   -1    0    0  501    0  0.00000000000E+00  0.00000000000E+00  0.75574912514E+03  0.75574912514E+03  0.25500000000E-02 0.  1.
         -2   -1    0    0    0  501 -0.00000000000E+00 -0.00000000000E+00 -0.12541719552E+03  0.12541719554E+03  0.25500000000E-02 0. -1.
   -5000001    1    1    2    0    0 -0.12972574522E+03 -0.63879451410E+02  0.16254005793E+03  0.33140401886E+03  0.25000000000E+03 0.  0.
    5000001    1    1    2    0    0  0.12972574522E+03  0.63879451410E+02  0.46779187169E+03  0.54976230182E+03  0.25000000000E+03 0.  0.
<mgrwt>
<rscale>  0 0.61574000E+03</rscale>
<asrwt>0</asrwt>
<pdfrwt beam="1">  1        2 0.11626910E+00 0.61574000E+03</pdfrwt>
<pdfrwt beam="2">  1       -2 0.19294953E-01 0.61574000E+03</pdfrwt>
<totfact> 0.84825064E+02</totfact>
</mgrwt>
</event>
<event>
 4    1  0.6705655E-006  0.8020391E+03  0.7818608E-02  0.9557070E-01
          2   -1    0    0  501    0  0.00000000000E+00  0.00000000000E+00  0.13809051967E+03  0.13809051969E+03  0.25500000000E-02 0.  1.
         -2   -1    0    0    0  501 -0.00000000000E+00 -0.00000000000E+00 -0.11645743059E+04  0.11645743059E+04  0.25500000000E-02 0. -1.
   -5000001    1    1    2    0    0 -0.32452770349E+02  0.22702905649E+03 -0.86053520878E+03  0.92499525423E+03  0.25000000000E+03 0.  0.
    5000001    1    1    2    0    0  0.32452770349E+02 -0.22702905649E+03 -0.16594857747E+03  0.37766957139E+03  0.25000000000E+03 0.  0.
<mgrwt>
<rscale>  0 0.80203908E+03</rscale>
<asrwt>0</asrwt>
<pdfrwt beam="1">  1        2 0.21244696E-01 0.80203908E+03</pdfrwt>
<pdfrwt beam="2">  1       -2 0.17916527E+00 0.80203908E+03</pdfrwt>
<totfact> 0.49175154E+01</totfact>
</mgrwt>
</event>
<event>
 4    1  0.6705655E-006  0.1265432E+04  0.7818608E-02  0.9057436E-01
          2   -1    0    0  501    0  0.00000000000E+00  0.00000000000E+00  0.20365494549E+04  0.20365494549E+04  0.25500000000E-02 0.  1.
         -2   -1    0    0    0  501 -0.00000000000E+00 -0.00000000000E+00 -0.19657248322E+03  0.19657248324E+03  0.25500000000E-02 0. -1.
   -5000001    1    1    2    0    0  0.44345771125E+03 -0.29640124015E+03  0.51249249482E+03  0.78080534967E+03  0.25000000000E+03 0.  0.
    5000001    1    1    2    0    0 -0.44345771125E+03  0.29640124015E+03  0.13274844769E+04  0.14523165885E+04  0.25000000000E+03 0.  0.
<mgrwt>
<rscale>  0 0.12654321E+04</rscale>
<asrwt>0</asrwt>
<pdfrwt beam="1">  1        2 0.31331529E+00 0.12654321E+04</pdfrwt>
<pdfrwt beam="2">  1       -2 0.30241921E-01 0.12654321E+04</pdfrwt>
<totfact> 0.63349572E+01</totfact>
</mgrwt>
</event>
<event>
 4    1  0.6705655E-006  0.5649521E+03  0.7818608E-02  0.9980912E-01
         -2   -1    0    0    0  501 -0.00000000000E+00  0.00000000000E+00  0.44404698782E+03  0.44404698782E+03  0.25500000000E-02 0. -1.
          2   -1    0    0  501    0  0.00000000000E+00 -0.00000000000E+00 -0.17969428596E+03  0.17969428598E+03  0.25500000000E-02 0.  1.
   -5000001    1    1    2    0    0 -0.12065774458E+03 -0.51968077223E+02  0.12576385566E+03  0.30915290678E+03  0.25000000000E+03 0.  0.
    5000001    1    1    2    0    0  0.12065774458E+03  0.51968077223E+02  0.13858884619E+03  0.31458836702E+03  0.25000000000E+03 0.  0.
<mgrwt>
<rscale>  0 0.56495206E+03</rscale>
<asrwt>0</asrwt>
<pdfrwt beam="1">  1        2 0.27645275E-01 0.56495206E+03</pdfrwt>
<pdfrwt beam="2">  1       -2 0.68314921E-01 0.56495206E+03</pdfrwt>
<totfact> 0.38666228E+02</totfact>
</mgrwt>
</event>
<event>
 4    1  0.6705655E-006  0.1005783E+04  0.7818608E-02  0.9302225E-01
          2   -1    0    0  501    0  0.00000000000E+00  0.00000000000E+00  0.56043789231E+03  0.56043789231E+03  0.25500000000E-02 0.  1.
         -2   -1    0    0    0  501 -0.00000000000E+00 -0.00000000000E+00 -0.45125414304E+03  0.45125414305E+03  0.25500000000E-02 0. -1.
   -5000001    1    1    2    0    0 -0.27567522817E+02 -0.34426047205E+03  0.32285078181E+03  0.53479703463E+03  0.25000000000E+03 0.  0.
    5000001    1    1    2    0    0  0.27567522817E+02  0.34426047205E+03 -0.21366703255E+03  0.47689500074E+03  0.25000000000E+03 0.  0.
<mgrwt>
<rscale>  0 0.10057831E+04</rscale>
<asrwt>0</asrwt>
<pdfrwt beam="1">  1        2 0.86221214E-01 0.10057831E+04</pdfrwt>
<pdfrwt beam="2">  1       -2 0.69423714E-01 0.10057831E+04</pdfrwt>
<totfact> 0.10178019E+02</totfact>
</mgrwt>
</event>
<event>
 4    1  0.6705655E-006  0.8423248E+03  0.7818608E-02  0.9500697E-01
         -2   -1    0    0    0  501 -0.00000000000E+00  0.00000000000E+00  0.22519840495E+03  0.22519840497E+03  0.25500000000E-02 0. -1.
          2   -1    0    0  501    0  0.00000000000E+00 -0.00000000000E+00 -0.78765106243E+03  0.78765106243E+03  0.25500000000E-02 0.  1.
   -5000001    1    1    2    0    0 -0.18715266974E+03 -0.23141213533E+03 -0.86222234099E+02  0.39813561989E+03  0.25000000000E+03 0.  0.
    5000001    1    1    2    0    0  0.18715266974E+03  0.23141213533E+03 -0.47623042338E+03  0.61471384751E+03  0.25000000000E+03 0.  0.
<mgrwt>
<rscale>  0 0.84232479E+03</rscale>
<asrwt>0</asrwt>
<pdfrwt beam="1">  1        2 0.12117709E+00 0.84232479E+03</pdfrwt>
<pdfrwt beam="2">  1       -2 0.34645909E-01 0.84232479E+03</pdfrwt>
<totfact> 0.27572328E+02</totfact>
</mgrwt>
</event>
<event>
 4    1  0.6705655E-006  0.1297923E+04  0.7818608E-02  0.9031214E-01
          2   -1    0    0  501    0  0.00000000000E+00  0.00000000000E+00  0.50666164159E+03  0.50666164159E+03  0.25500000000E-02 0.  1.
         -2   -1    0    0    0  501 -0.00000000000E+00 -0.00000000000E+00 -0.83122795609E+03  0.83122795609E+03  0.25500000000E-02 0. -1.
   -5000001    1    1    2    0    0 -0.51269533526E+03 -0.24990576282E+03  0.25937170118E+02  0.62328334959E+03  0.25000000000E+03 0.  0.
    5000001    1    1    2    0    0  0.51269533526E+03  0.24990576282E+03 -0.35050348462E+03  0.71460624810E+03  0.25000000000E+03 0.  0.
<mgrwt>
<rscale>  0 0.12979235E+04</rscale>
<asrwt>0</asrwt>
<pdfrwt beam="1">  1        2 0.77947945E-01 0.12979235E+04</pdfrwt>
<pdfrwt beam="2">  1       -2 0.12788122E+00 0.12979235E+04</pdfrwt>
<totfact> 0.26899206E+01</totfact>
</mgrwt>
</event>
<event>
 4    1  0.6705655E-006  0.5062073E+03  0.7818608E-02  0.1012171E+00
          2   -1    0    0  501    0  0.00000000000E+00  0.00000000000E+00  0.85537012248E+03  0.85537012248E+03  0.25500000000E-02 0.  1.
         -2   -1    0    0    0  501 -0.00000000000E+00 -0.00000000000E+00 -0.74893270901E+02  0.74893270944E+02  0.25500000000E-02 0. -1.
   -5000001    1    1    2    0    0 -0.30577700210E+02 -0.20525266679E+02  0.36391458552E+03  0.44304639472E+03  0.25000000000E+03 0.  0.
    5000001    1    1    2    0    0  0.30577700210E+02  0.20525266679E+02  0.41656226606E+03  0.48721699870E+03  0.25000000000E+03 0.  0.
<mgrwt>
<rscale>  0 0.50620733E+03</rscale>
<asrwt>0</asrwt>
<pdfrwt beam="1">  1        2 0.13159539E+00 0.50620733E+03</pdfrwt>
<pdfrwt beam="2">  1       -2 0.11522043E-01 0.50620733E+03</pdfrwt>
<totfact> 0.17188339E+03</totfact>
</mgrwt>
</event>
<event>
 4    1  0.6705655E-006  0.6641115E+03  0.7818608E-02  0.9780654E-01
          2   -1    0    0  501    0  0.00000000000E+00  0.00000000000E+00  0.11110202751E+04  0.11110202751E+04  0.25500000000E-02 0.  1.
         -2   -1    0    0    0  501 -0.00000000000E+00 -0.00000000000E+00 -0.99243038980E+02  0.99243039013E+02  0.25500000000E-02 0. -1.
   -5000001    1    1    2    0    0  0.62420579873E+02 -0.20929415401E+03  0.49169547443E+03  0.59326622293E+03  0.25000000000E+03 0.  0.
    5000001    1    1    2    0    0 -0.62420579873E+02  0.20929415401E+03  0.52008176174E+03  0.61699709123E+03  0.25000000000E+03 0.  0.
<mgrwt>
<rscale>  0 0.66411152E+03</rscale>
<asrwt>0</asrwt>
<pdfrwt beam="1">  1        2 0.17092619E+00 0.66411152E+03</pdfrwt>
<pdfrwt beam="2">  1       -2 0.15268161E-01 0.66411152E+03</pdfrwt>
<totfact> 0.73578305E+02</totfact>
</mgrwt>
</event>
<event>
 4    1  0.6705655E-006  0.5384661E+03  0.7818608E-02  0.1004199E+00
          2   -1    0    0  501    0  0.00000000000E+00  0.00000000000E+00  0.36737311451E+03  0.36737311452E+03  0.25500000000E-02 0.  1.
         -2   -1    0    0    0  501 -0.00000000000E+00 -0.00000000000E+00 -0.19731011147E+03  0.19731011149E+03  0.25500000000E-02 0. -1.
   -5000001    1    1    2    0    0  0.72266847795E+02  0.60921094530E+01  0.15713079783E+03  0.30405542047E+03  0.25000000000E+03 0.  0.
    5000001    1    1    2    0    0 -0.72266847795E+02 -0.60921094530E+01  0.12932205203E+02  0.26062780554E+03  0.25000000000E+03 0.  0.
<mgrwt>
<rscale>  0 0.53846608E+03</rscale>
<asrwt>0</asrwt>
<pdfrwt beam="1">  1        2 0.56518940E-01 0.53846608E+03</pdfrwt>
<pdfrwt beam="2">  1       -2 0.30355402E-01 0.53846608E+03</pdfrwt>
<totfact> 0.88070658E+02</totfact>
</mgrwt>
</event>
<event>
 4    1  0.6705655E-006  0.8032769E+03  0.7818608E-02  0.9555286E-01
         -2   -1    0    0    0  501 -0.00000000000E+00  0.00000000000E+00  0.20223643220E+03  0.20223643221E+03  0.25500000000E-02 0. -1.
          2   -1    0    0  501    0  0.00000000000E+00 -0.00000000000E+00 -0.79764781207E+03  0.79764781207E+03  0.25500000000E-02 0.  1.
   -5000001    1    1    2    0    0  0.30984574428E+03  0.36126178854E+02 -0.24943285327E+03  0.47119659840E+03  0.25000000000E+03 0.  0.
    5000001    1    1    2    0    0 -0.30984574428E+03 -0.36126178854E+02 -0.34597852660E+03  0.52868764589E+03  0.25000000000E+03 0.  0.
<mgrwt>
<rscale>  0 0.80327691E+03</rscale>
<asrwt>0</asrwt>
<pdfrwt beam="1">  1        2 0.12271505E+00 0.80327691E+03</pdfrwt>
<pdfrwt beam="2">  1       -2 0.31113298E-01 0.80327691E+03</pdfrwt>
<totfact> 0.33266513E+02</totfact>
</mgrwt>
</event>
<event>
 4    1  0.6705655E-006  0.7818599E+03  0.7818608E-02  0.9586652E-01
          2   -1    0    0  501    0  0.00000000000E+00  0.00000000000E+00  0.20247831352E+04  0.20247831352E+04  0.25500000000E-02 0.  1.
         -2   -1    0    0    0  501 -0.00000000000E+00 -0.00000000000E+00 -0.75477818219E+02  0.75477818262E+02  0.25500000000E-02 0. -1.
   -5000001    1    1    2    0    0 -0.22274094954E+03 -0.14278755700E+03  0.59169287861E+03  0.69469581806E+03  0.25000000000E+03 0.  0.
    5000001    1    1    2    0    0  0.22274094954E+03  0.14278755700E+03  0.13576124383E+04  0.14055651354E+04  0.25000000000E+03 0.  0.
<mgrwt>
<rscale>  0 0.78185987E+03</rscale>
<asrwt>0</asrwt>
<pdfrwt beam="1">  1        2 0.31150511E+00 0.78185987E+03</pdfrwt>
<pdfrwt beam="2">  1       -2 0.11611972E-01 0.78185987E+03</pdfrwt>
<totfact> 0.35533790E+02</totfact>
</mgrwt>
</event>
<event>
 4    1  0.6705655E-006  0.1367645E+04  0.7818608E-02  0.8977577E-01
          2   -1    0    0  501    0  0.00000000000E+00  0.00000000000E+00  0.83694696327E+03  0.83694696327E+03  0.25500000000E-02 0.  1.
         -2   -1    0    0    0  501 -0.00000000000E+00 -0.00000000000E+00 -0.55871313092E+03  0.55871313093E+03  0.25500000000E-02 0. -1.
   -5000001    1    1    2    0    0 -0.49545794505E+03 -0.26826846134E+03 -0.16303379816E+03  0.63759435537E+03  0.25000000000E+03 0.  0.
    5000001    1    1    2    0    0  0.49545794505E+03  0.26826846134E+03  0.44126763050E+03  0.75806573883E+03  0.25000000000E+03 0.  0.
<mgrwt>
<rscale>  0 0.13676451E+04</rscale>
<asrwt>0</asrwt>
<pdfrwt beam="1">  1        2 0.12876107E+00 0.13676451E+04</pdfrwt>
<pdfrwt beam="2">  1       -2 0.85955866E-01 0.13676451E+04</pdfrwt>
<totfact> 0.37155890E+01</totfact>
</mgrwt>
</event>
<event>
 4    1  0.6705655E-006  0.5261167E+03  0.7818608E-02  0.1007178E+00
         -2   -1    0    0    0  501 -0.00000000000E+00  0.00000000000E+00  0.23041417628E+02  0.23041417769E+02  0.25500000000E-02 0. -1.
          2   -1    0    0  501    0  0.00000000000E+00 -0.00000000000E+00 -0.30032739113E+04  0.30032739113E+04  0.25500000000E-02 0.  1.
   -5000001    1    1    2    0    0 -0.51376283494E+02 -0.58134720382E+02 -0.13400604775E+04  0.13653868506E+04  0.25000000000E+03 0.  0.
    5000001    1    1    2    0    0  0.51376283494E+02  0.58134720382E+02 -0.16401720161E+04  0.16609284785E+04  0.25000000000E+03 0.  0.
<mgrwt>
<rscale>  0 0.52611667E+03</rscale>
<asrwt>0</asrwt>
<pdfrwt beam="1">  1        2 0.46204183E+00 0.52611667E+03</pdfrwt>
<pdfrwt beam="2">  1       -2 0.35448359E-02 0.52611667E+03</pdfrwt>
<totfact> 0.65722307E+02</totfact>
</mgrwt>
</event>
<event>
 4    1  0.6705655E-006  0.8931105E+03  0.7818608E-02  0.9434235E-01
          2   -1    0    0  501    0  0.00000000000E+00  0.00000000000E+00  0.18788607072E+04  0.18788607072E+04  0.25500000000E-02 0.  1.
         -2   -1    0    0    0  501 -0.00000000000E+00 -0.00000000000E+00 -0.10613432415E+03  0.10613432418E+03  0.25500000000E-02 0. -1.
   -5000001    1    1    2    0    0 -0.26191467399E+03 -0.67166976623E+01  0.30565192096E+03  0.47388554237E+03  0.25000000000E+03 0.  0.
    5000001    1    1    2    0    0  0.26191467399E+03  0.67166976623E+01  0.14670744621E+04  0.15111094890E+04  0.25000000000E+03 0.  0.
<mgrwt>
<rscale>  0 0.89311054E+03</rscale>
<asrwt>0</asrwt>
<pdfrwt beam="1">  1        2 0.28905548E+00 0.89311054E+03</pdfrwt>
<pdfrwt beam="2">  1       -2 0.16328358E-01 0.89311054E+03</pdfrwt>
<totfact> 0.23894964E+02</totfact>
</mgrwt>
</event>
<event>
 4    1  0.6705655E-006  0.8702223E+03  0.7818608E-02  0.9463590E-01
         -2   -1    0    0    0  501 -0.00000000000E+00  0.00000000000E+00  0.24674429814E+03  0.24674429815E+03  0.25500000000E-02 0. -1.
          2   -1    0    0  501    0  0.00000000000E+00 -0.00000000000E+00 -0.76727891752E+03  0.76727891753E+03  0.25500000000E-02 0.  1.
   -5000001    1    1    2    0    0 -0.31967975995E+03 -0.10470492579E+03 -0.12406090272E+03  0.43709195598E+03  0.25000000000E+03 0.  0.
    5000001    1    1    2    0    0  0.31967975995E+03  0.10470492579E+03 -0.39647371667E+03  0.57693125970E+03  0.25000000000E+03 0.  0.
<mgrwt>
<rscale>  0 0.87022227E+03</rscale>
<asrwt>0</asrwt>
<pdfrwt beam="1">  1        2 0.11804291E+00 0.87022227E+03</pdfrwt>
<pdfrwt beam="2">  1       -2 0.37960662E-01 0.87022227E+03</pdfrwt>
<totfact> 0.23920191E+02</totfact>
</mgrwt>
</event>
<event>
 4    1  0.6705655E-006  0.6157234E+03  0.7818608E-02  0.9873311E-01
          2   -1    0    0  501    0  0.00000000000E+00  0.00000000000E+00  0.94907638001E+03  0.94907638001E+03  0.25500000000E-02 0.  1.
         -2   -1    0    0    0  501 -0.00000000000E+00 -0.00000000000E+00 -0.99864284691E+02  0.99864284724E+02  0.25500000000E-02 0. -1.
   -5000001    1    1    2    0    0  0.45030265546E+02 -0.17094202105E+03  0.47927868682E+03  0.56873276591E+03  0.25000000000E+03 0.  0.
    5000001    1    1    2    0    0 -0.45030265546E+02  0.17094202105E+03  0.36993340849E+03  0.48020789882E+03  0.25000000000E+03 0.  0.
<mgrwt>
<rscale>  0 0.61572342E+03</rscale>
<asrwt>0</asrwt>
<pdfrwt beam="1">  1        2 0.14601176E+00 0.61572342E+03</pdfrwt>
<pdfrwt beam="2">  1       -2 0.15363736E-01 0.61572342E+03</pdfrwt>
<totfact> 0.92122711E+02</totfact>
</mgrwt>
</event>
<event>
 4    1  0.6705655E-006  0.1161561E+04  0.7818608E-02  0.9147183E-01
          2   -1    0    0  501    0  0.00000000000E+00  0.00000000000E+00  0.67852813550E+03  0.67852813551E+03  0.25500000000E-02 0.  1.
         -2   -1    0    0    0  501 -0.00000000000E+00 -0.00000000000E+00 -0.49711454290E+03  0.49711454291E+03  0.25500000000E-02 0. -1.
   -5000001    1    1    2    0    0 -0.45999978495E+03 -0.13808916271E+03 -0.12193001472E+03  0.55500932199E+03  0.25000000000E+03 0.  0.
    5000001    1    1    2    0    0  0.45999978495E+03  0.13808916271E+03  0.30334360732E+03  0.62063335643E+03  0.25000000000E+03 0.  0.
<mgrwt>
<rscale>  0 0.11615614E+04</rscale>
<asrwt>0</asrwt>
<pdfrwt beam="1">  1        2 0.10438894E+00 0.11615614E+04</pdfrwt>
<pdfrwt beam="2">  1       -2 0.76479162E-01 0.11615614E+04</pdfrwt>
<totfact> 0.64487129E+01</totfact>
</mgrwt>
</event>
<event>
 4    1  0.6705655E-006  0.6433242E+03  0.7818608E-02  0.9819387E-01
         -2   -1    0    0    0  501 -0.00000000000E+00  0.00000000000E+00  0.55652883751E+03  0.55652883752E+03  0.25500000000E-02 0. -1.
          2   -1    0    0  501    0  0.00000000000E+00 -0.00000000000E+00 -0.18591403631E+03  0.18591403633E+03  0.25500000000E-02 0.  1.
   -5000001    1    1    2    0    0 -0.15735810288E+03  0.10661329768E+03  0.26558436656E+03  0.41129432715E+03  0.25000000000E+03 0.  0.
    5000001    1    1    2    0    0  0.15735810288E+03 -0.10661329768E+03  0.10503043464E+03  0.33114854670E+03  0.25000000000E+03 0.  0.
<mgrwt>
<rscale>  0 0.64332425E+03</rscale>
<asrwt>0</asrwt>
<pdfrwt beam="1">  1        2 0.28602159E-01 0.64332425E+03</pdfrwt>
<pdfrwt beam="2">  1       -2 0.85619821E-01 0.64332425E+03</pdfrwt>
<totfact> 0.22508769E+02</totfact>
</mgrwt>
</event>
<event>
 4    1  0.6705655E-006  0.9370683E+03  0.7818608E-02  0.9380395E-01
          2   -1    0    0  501    0  0.00000000000E+00  0.00000000000E+00  0.29803359858E+04  0.29803359858E+04  0.25500000000E-02 0.  1.
         -2   -1    0    0    0  501 -0.00000000000E+00 -0.00000000000E+00 -0.73657557576E+02  0.73657557620E+02  0.25500000000E-02 0. -1.
   -5000001    1    1    2    0    0  0.21016861214E+03  0.29028032255E+03  0.90226551264E+03  0.10025051454E+04  0.25000000000E+03 0.  0.
    5000001    1    1    2    0    0 -0.21016861214E+03 -0.29028032255E+03  0.20044129156E+04  0.20514883981E+04  0.25000000000E+03 0.  0.
<mgrwt>
<rscale>  0 0.93706834E+03</rscale>
<asrwt>0</asrwt>
<pdfrwt beam="1">  1        2 0.45851320E+00 0.93706834E+03</pdfrwt>
<pdfrwt beam="2">  1       -2 0.11331933E-01 0.93706834E+03</pdfrwt>
<totfact> 0.10343357E+02</totfact>
</mgrwt>
</event>
<event>
 4    1  0.6705655E-006  0.1137514E+04  0.7818608E-02  0.9169380E-01
         -2   -1    0    0    0  501 -0.00000000000E+00  0.00000000000E+00  0.42793072794E+03  0.42793072795E+03  0.25500000000E-02 0. -1.
          2   -1    0    0  501    0  0.00000000000E+00 -0.00000000000E+00 -0.75592780331E+03  0.75592780331E+03  0.25500000000E-02 0.  1.
   -5000001    1    1    2    0    0 -0.12119237640E+03  0.39666253876E+03  0.14640772493E+03  0.50592883262E+03  0.25000000000E+03 0.  0.
    5000001    1    1    2    0    0  0.12119237640E+03 -0.39666253876E+03 -0.47440480030E+03  0.67792969864E+03  0.25000000000E+03 0.  0.
<mgrwt>
<rscale>  0 0.11375144E+04</rscale>
<asrwt>0</asrwt>
<pdfrwt beam="1">  1        2 0.11629659E+00 0.11375144E+04</pdfrwt>
<pdfrwt beam="2">  1       -2 0.65835497E-01 0.11375144E+04</pdfrwt>
<totfact> 0.78131673E+01</totfact>
</mgrwt>
</event>
<event>
 4    1  0.6705655E-006  0.1005838E+04  0.7818608E-02  0.9302165E-01
         -2   -1    0    0    0  501 -0.00000000000E+00  0.00000000000E+00  0.11766477971E+03  0.11766477974E+03  0.25500000000E-02 0. -1.
          2   -1    0    0  501    0  0.00000000000E+00 -0.00000000000E+00 -0.21495608784E+04  0.21495608784E+04  0.25500000000E-02 0.  1.
   -5000001    1    1    2    0    0  0.19922202690E+03  0.21671685763E+03 -0.28983086124E+03  0.48286389439E+03  0.25000000000E+03 0.  0.
    5000001    1    1    2    0    0 -0.19922202690E+03 -0.21671685763E+03 -0.17420652374E+04  0.17843617637E+04  0.25000000000E+03 0.  0.
<mgrwt>
<rscale>  0 0.10058382E+04</rscale>
<asrwt>0</asrwt>
<pdfrwt beam="1">  1        2 0.33070164E+00 0.10058382E+04</pdfrwt>
<pdfrwt beam="2">  1       -2 0.18102275E-01 0.10058382E+04</pdfrwt>
<totfact> 0.14077050E+02</totfact>
</mgrwt>
</event>
<event>
 4    1  0.6705655E-006  0.6061176E+03  0.7818608E-02  0.9892795E-01
          2   -1    0    0  501    0  0.00000000000E+00  0.00000000000E+00  0.21943237757E+03  0.21943237758E+03  0.25500000000E-02 0.  1.
         -2   -1    0    0    0  501 -0.00000000000E+00 -0.00000000000E+00 -0.41855552842E+03  0.41855552843E+03  0.25500000000E-02 0. -1.
   -5000001    1    1    2    0    0  0.16020232706E+03  0.20864340776E+02 -0.15951739548E+03  0.33770683406E+03  0.25000000000E+03 0.  0.
    5000001    1    1    2    0    0 -0.16020232706E+03 -0.20864340776E+02 -0.39605755378E+02  0.30028107195E+03  0.25000000000E+03 0.  0.
<mgrwt>
<rscale>  0 0.60611760E+03</rscale>
<asrwt>0</asrwt>
<pdfrwt beam="1">  1        2 0.33758827E-01 0.60611760E+03</pdfrwt>
<pdfrwt beam="2">  1       -2 0.64393158E-01 0.60611760E+03</pdfrwt>
<totfact> 0.35050332E+02</totfact>
</mgrwt>
</event>
<event>
 4    1  0.6705655E-006  0.8253313E+03  0.7818608E-02  0.9524058E-01
          2   -1    0    0  501    0  0.00000000000E+00  0.00000000000E+00  0.49803796836E+03  0.49803796837E+03  0.25500000000E-02 0.  1.
         -2   -1    0    0    0  501 -0.00000000000E+00 -0.00000000000E+00 -0.34192763898E+03  0.34192763899E+03  0.25500000000E-02 0. -1.
   -5000001    1    1    2    0    0 -0.29443892027E+03 -0.14082528812E+03  0.11427992871E+03  0.42671529343E+03  0.25000000000E+03 0.  0.
    5000001    1    1    2    0    0  0.29443892027E+03  0.14082528812E+03  0.41830400672E+02  0.41325031393E+03  0.25000000000E+03 0.  0.
<mgrwt>
<rscale>  0 0.82533132E+03</rscale>
<asrwt>0</asrwt>
<pdfrwt beam="1">  1        2 0.76621226E-01 0.82533132E+03</pdfrwt>
<pdfrwt beam="2">  1       -2 0.52604252E-01 0.82533132E+03</pdfrwt>
<totfact> 0.21228776E+02</totfact>
</mgrwt>
</event>
<event>
 4    1  0.6705655E-006  0.9843489E+03  0.7818608E-02  0.9325879E-01
          2   -1    0    0  501    0  0.00000000000E+00  0.00000000000E+00  0.64189846614E+03  0.64189846614E+03  0.25500000000E-02 0. -1.
         -2   -1    0    0    0  501 -0.00000000000E+00 -0.00000000000E+00 -0.37737382343E+03  0.37737382344E+03  0.25500000000E-02 0.  1.
   -5000001    1    1    2    0    0  0.34279703586E+03 -0.47679856416E+01  0.39051647207E+03  0.57665904696E+03  0.25000000000E+03 0.  0.
    5000001    1    1    2    0    0 -0.34279703586E+03  0.47679856416E+01 -0.12599182936E+03  0.44261324263E+03  0.25000000000E+03 0.  0.
<mgrwt>
<rscale>  0 0.98434888E+03</rscale>
<asrwt>0</asrwt>
<pdfrwt beam="1">  1        2 0.98753609E-01 0.98434888E+03</pdfrwt>
<pdfrwt beam="2">  1       -2 0.58057512E-01 0.98434888E+03</pdfrwt>
<totfact> 0.12674062E+02</totfact>
</mgrwt>
</event>
<event>
 4    1  0.6705655E-006  0.9946807E+03  0.7818608E-02  0.9314398E-01
          2   -1    0    0  501    0  0.00000000000E+00  0.00000000000E+00  0.24438099034E+04  0.24438099034E+04  0.25500000000E-02 0.  1.
         -2   -1    0    0    0  501 -0.00000000000E+00 -0.00000000000E+00 -0.10121384757E+03  0.10121384760E+03  0.25500000000E-02 0. -1.
   -5000001    1    1    2    0    0  0.26924103799E+03  0.28256541846E+03  0.70993828167E+03  0.84784805008E+03  0.25000000000E+03 0.  0.
    5000001    1    1    2    0    0 -0.26924103799E+03 -0.28256541846E+03  0.16326577742E+04  0.16971757010E+04  0.25000000000E+03 0.  0.
<mgrwt>
<rscale>  0 0.99468066E+03</rscale>
<asrwt>0</asrwt>
<pdfrwt beam="1">  1        2 0.37597071E+00 0.99468066E+03</pdfrwt>
<pdfrwt beam="2">  1       -2 0.15571363E-01 0.99468066E+03</pdfrwt>
<totfact> 0.12488280E+02</totfact>
</mgrwt>
</event>
<event>
 4    1  0.6705655E-006  0.5227871E+03  0.7818608E-02  0.1007997E+00
          2   -1    0    0  501    0  0.00000000000E+00  0.00000000000E+00  0.84945782233E+03  0.84945782233E+03  0.25500000000E-02 0.  1.
         -2   -1    0    0    0  501 -0.00000000000E+00 -0.00000000000E+00 -0.80435523142E+02  0.80435523182E+02  0.25500000000E-02 0. -1.
   -5000001    1    1    2    0    0  0.56771413803E+02  0.46057937980E+02  0.42357253841E+03  0.49725046242E+03  0.25000000000E+03 0.  0.
    5000001    1    1    2    0    0 -0.56771413803E+02 -0.46057937980E+02  0.34544976077E+03  0.43264288310E+03  0.25000000000E+03 0.  0.
<mgrwt>
<rscale>  0 0.52278709E+03</rscale>
<asrwt>0</asrwt>
<pdfrwt beam="1">  1        2 0.13068581E+00 0.52278709E+03</pdfrwt>
<pdfrwt beam="2">  1       -2 0.12374697E-01 0.52278709E+03</pdfrwt>
<totfact> 0.15428963E+03</totfact>
</mgrwt>
</event>
<event>
 4    1  0.6705655E-006  0.1174435E+04  0.7818608E-02  0.9135533E-01
         -2   -1    0    0    0  501 -0.00000000000E+00  0.00000000000E+00  0.99464449926E+03  0.99464449926E+03  0.25500000000E-02 0. -1.
          2   -1    0    0  501    0  0.00000000000E+00 -0.00000000000E+00 -0.34668086853E+03  0.34668086853E+03  0.25500000000E-02 0.  1.
   -5000001    1    1    2    0    0 -0.66989918986E+02 -0.36553025477E+03  0.75771668194E+03  0.88019008543E+03  0.25000000000E+03 0.  0.
    5000001    1    1    2    0    0  0.66989918986E+02  0.36553025477E+03 -0.10975305121E+03  0.46113528237E+03  0.25000000000E+03 0.  0.
<mgrwt>
<rscale>  0 0.11744347E+04</rscale>
<asrwt>0</asrwt>
<pdfrwt beam="1">  1        2 0.53335519E-01 0.11744347E+04</pdfrwt>
<pdfrwt beam="2">  1       -2 0.15302223E+00 0.11744347E+04</pdfrwt>
<totfact> 0.26199100E+01</totfact>
</mgrwt>
</event>
<event>
 4    1  0.6705655E-006  0.1485598E+04  0.7818608E-02  0.8894087E-01
          2   -1    0    0  501    0  0.00000000000E+00  0.00000000000E+00  0.22869998768E+04  0.22869998768E+04  0.25500000000E-02 0.  1.
         -2   -1    0    0    0  501 -0.00000000000E+00 -0.00000000000E+00 -0.24125497750E+03  0.24125497751E+03  0.25500000000E-02 0. -1.
   -5000001    1    1    2    0    0  0.24351806952E+03  0.53482740680E+03  0.16684719196E+04  0.17865161494E+04  0.25000000000E+03 0.  0.
    5000001    1    1    2    0    0 -0.24351806952E+03 -0.53482740680E+03  0.37727297964E+03  0.74173870494E+03  0.25000000000E+03 0.  0.
<mgrwt>
<rscale>  0 0.14855977E+04</rscale>
<asrwt>0</asrwt>
<pdfrwt beam="1">  1        2 0.35184613E+00 0.14855977E+04</pdfrwt>
<pdfrwt beam="2">  1       -2 0.37116151E-01 0.14855977E+04</pdfrwt>
<totfact> 0.30565150E+01</totfact>
</mgrwt>
</event>
<event>
 4    1  0.6705655E-006  0.7240268E+03  0.7818608E-02  0.9677003E-01
         -2   -1    0    0    0  501 -0.00000000000E+00  0.00000000000E+00  0.49577838604E+02  0.49577838669E+02  0.25500000000E-02 0. -1.
          2   -1    0    0  501    0  0.00000000000E+00 -0.00000000000E+00 -0.26433928086E+04  0.26433928086E+04  0.25500000000E-02 0.  1.
   -5000001    1    1    2    0    0 -0.23544177187E+03  0.63846931154E+02 -0.94318073512E+03  0.10057828581E+04  0.25000000000E+03 0.  0.
    5000001    1    1    2    0    0  0.23544177187E+03 -0.63846931154E+02 -0.16506342349E+04  0.16871877892E+04  0.25000000000E+03 0.  0.
<mgrwt>
<rscale>  0 0.72402680E+03</rscale>
<asrwt>0</asrwt>
<pdfrwt beam="1">  1        2 0.40667571E+00 0.72402680E+03</pdfrwt>
<pdfrwt beam="2">  1       -2 0.76273619E-02 0.72402680E+03</pdfrwt>
<totfact> 0.31843983E+02</totfact>
</mgrwt>
</event>
<event>
 4    1  0.6705655E-006  0.1120824E+04  0.7818608E-02  0.9185130E-01
         -2   -1    0    0    0  501 -0.00000000000E+00  0.00000000000E+00  0.32295239584E+03  0.32295239585E+03  0.25500000000E-02 0. -1.
          2   -1    0    0  501    0  0.00000000000E+00 -0.00000000000E+00 -0.97247008026E+03  0.97247008026E+03  0.25500000000E-02 0.  1.
   -5000001    1    1    2    0    0 -0.45171362310E+03  0.21796084732E+03 -0.32830503536E+03  0.64948927975E+03  0.25000000000E+03 0.  0.
    5000001    1    1    2    0    0  0.45171362310E+03 -0.21796084732E+03 -0.32121264906E+03  0.64593319637E+03  0.25000000000E+03 0.  0.
<mgrwt>
<rscale>  0 0.11208239E+04</rscale>
<asrwt>0</asrwt>
<pdfrwt beam="1">  1        2 0.14961078E+00 0.11208239E+04</pdfrwt>
<pdfrwt beam="2">  1       -2 0.49684984E-01 0.11208239E+04</pdfrwt>
<totfact> 0.99744460E+01</totfact>
</mgrwt>
</event>
<event>
 4    1  0.6705655E-006  0.7284804E+03  0.7818608E-02  0.9669729E-01
          2   -1    0    0  501    0  0.00000000000E+00  0.00000000000E+00  0.33623022765E+03  0.33623022766E+03  0.25500000000E-02 0.  1.
         -2   -1    0    0    0  501 -0.00000000000E+00 -0.00000000000E+00 -0.39458355408E+03  0.39458355409E+03  0.25500000000E-02 0. -1.
   -5000001    1    1    2    0    0 -0.98128264657E+01  0.24598571159E+03 -0.12729411327E+03  0.37324128006E+03  0.25000000000E+03 0.  0.
    5000001    1    1    2    0    0  0.98128264657E+01 -0.24598571159E+03  0.68940786845E+02  0.35757250168E+03  0.25000000000E+03 0.  0.
<mgrwt>
<rscale>  0 0.72848039E+03</rscale>
<asrwt>0</asrwt>
<pdfrwt beam="1">  1        2 0.51727727E-01 0.72848039E+03</pdfrwt>
<pdfrwt beam="2">  1       -2 0.60705162E-01 0.72848039E+03</pdfrwt>
<totfact> 0.24650310E+02</totfact>
</mgrwt>
</event>
<event>
 4    1  0.6705655E-006  0.5645659E+03  0.7818608E-02  0.9981776E-01
          2   -1    0    0  501    0  0.00000000000E+00  0.00000000000E+00  0.20147734354E+04  0.20147734354E+04  0.25500000000E-02 0.  1.
         -2   -1    0    0    0  501 -0.00000000000E+00 -0.00000000000E+00 -0.39549684344E+02  0.39549684426E+02  0.25500000000E-02 0. -1.
   -5000001    1    1    2    0    0  0.59399934629E+02  0.80423517063E+02  0.12961002574E+04  0.13237719485E+04  0.25000000000E+03 0.  0.
    5000001    1    1    2    0    0 -0.59399934629E+02 -0.80423517063E+02  0.67912349364E+03  0.73055117134E+03  0.25000000000E+03 0.  0.
<mgrwt>
<rscale>  0 0.56456586E+03</rscale>
<asrwt>0</asrwt>
<pdfrwt beam="1">  1        2 0.30996525E+00 0.56456586E+03</pdfrwt>
<pdfrwt beam="2">  1       -2 0.60845647E-02 0.56456586E+03</pdfrwt>
<totfact> 0.10309255E+03</totfact>
</mgrwt>
</event>
<event>
 4    1  0.6705655E-006  0.5284218E+03  0.7818608E-02  0.1006616E+00
          2   -1    0    0  501    0  0.00000000000E+00  0.00000000000E+00  0.39397885048E+03  0.39397885049E+03  0.25500000000E-02 0.  1.
         -2   -1    0    0    0  501 -0.00000000000E+00 -0.00000000000E+00 -0.17718564869E+03  0.17718564871E+03  0.25500000000E-02 0. -1.
   -5000001    1    1    2    0    0 -0.52828555337E+02  0.30768757685E+02  0.17297748374E+03  0.31009479613E+03  0.25000000000E+03 0.  0.
    5000001    1    1    2    0    0  0.52828555337E+02 -0.30768757685E+02  0.43815718049E+02  0.26106970306E+03  0.25000000000E+03 0.  0.
<mgrwt>
<rscale>  0 0.52842179E+03</rscale>
<asrwt>0</asrwt>
<pdfrwt beam="1">  1        2 0.60612130E-01 0.52842179E+03</pdfrwt>
<pdfrwt beam="2">  1       -2 0.27259331E-01 0.52842179E+03</pdfrwt>
<totfact> 0.99249405E+02</totfact>
</mgrwt>
</event>
<event>
 4    1  0.6705655E-006  0.1386178E+04  0.7818608E-02  0.8963885E-01
          2   -1    0    0  501    0  0.00000000000E+00  0.00000000000E+00  0.12442611117E+04  0.12442611117E+04  0.25500000000E-02 0.  1.
         -2   -1    0    0    0  501 -0.00000000000E+00 -0.00000000000E+00 -0.38607016553E+03  0.38607016553E+03  0.25500000000E-02 0. -1.
   -5000001    1    1    2    0    0 -0.18339954591E+03 -0.34453817292E+03 -0.17696212193E+03  0.49614265957E+03  0.25000000000E+03 0.  0.
    5000001    1    1    2    0    0  0.18339954591E+03  0.34453817292E+03  0.10351530681E+04  0.11341886177E+04  0.25000000000E+03 0.  0.
<mgrwt>
<rscale>  0 0.13861776E+04</rscale>
<asrwt>0</asrwt>
<pdfrwt beam="1">  1        2 0.19142479E+00 0.13861776E+04</pdfrwt>
<pdfrwt beam="2">  1       -2 0.59395410E-01 0.13861776E+04</pdfrwt>
<totfact> 0.45953294E+01</totfact>
</mgrwt>
</event>
<event>
 4    1  0.6705655E-006  0.6048309E+03  0.7818608E-02  0.9895434E-01
         -2   -1    0    0    0  501 -0.00000000000E+00  0.00000000000E+00  0.41505380034E+03  0.41505380035E+03  0.25500000000E-02 0. -1.
          2   -1    0    0  501    0  0.00000000000E+00 -0.00000000000E+00 -0.22034515951E+03  0.22034515952E+03  0.25500000000E-02 0.  1.
   -5000001    1    1    2    0    0 -0.15675329341E+03  0.62571598804E+02  0.74620484809E+02  0.31073303128E+03  0.25000000000E+03 0.  0.
    5000001    1    1    2    0    0  0.15675329341E+03 -0.62571598804E+02  0.12008815603E+03  0.32466592860E+03  0.25000000000E+03 0.  0.
<mgrwt>
<rscale>  0 0.60483087E+03</rscale>
<asrwt>0</asrwt>
<pdfrwt beam="1">  1        2 0.33899256E-01 0.60483087E+03</pdfrwt>
<pdfrwt beam="2">  1       -2 0.63854430E-01 0.60483087E+03</pdfrwt>
<totfact> 0.35520399E+02</totfact>
</mgrwt>
</event>
<event>
 4    1  0.6705655E-006  0.1101873E+04  0.7818608E-02  0.9203368E-01
          2   -1    0    0  501    0  0.00000000000E+00  0.00000000000E+00  0.10429480441E+04  0.10429480441E+04  0.25500000000E-02 0.  1.
         -2   -1    0    0    0  501 -0.00000000000E+00 -0.00000000000E+00 -0.29103194126E+03  0.29103194127E+03  0.25500000000E-02 0. -1.
   -5000001    1    1    2    0    0 -0.32072450851E+03 -0.50372667153E+02 -0.69898197639E+02  0.41567700681E+03  0.25000000000E+03 0.  0.
    5000001    1    1    2    0    0  0.32072450851E+03  0.50372667153E+02  0.82181430045E+03  0.91830297853E+03  0.25000000000E+03 0.  0.
<mgrwt>
<rscale>  0 0.11018733E+04</rscale>
<asrwt>0</asrwt>
<pdfrwt beam="1">  1        2 0.16045355E+00 0.11018733E+04</pdfrwt>
<pdfrwt beam="2">  1       -2 0.44774144E-01 0.11018733E+04</pdfrwt>
<totfact> 0.11101038E+02</totfact>
</mgrwt>
</event>
<event>
 4    1  0.6705655E-006  0.8328910E+03  0.7818608E-02  0.9513592E-01
         -2   -1    0    0    0  501 -0.00000000000E+00  0.00000000000E+00  0.19475896241E+03  0.19475896242E+03  0.25500000000E-02 0. -1.
          2   -1    0    0  501    0  0.00000000000E+00 -0.00000000000E+00 -0.89046909581E+03  0.89046909581E+03  0.25500000000E-02 0.  1.
   -5000001    1    1    2    0    0 -0.20220253774E+03  0.26462802711E+03 -0.34316110503E+03  0.53960485821E+03  0.25000000000E+03 0.  0.
    5000001    1    1    2    0    0  0.20220253774E+03 -0.26462802711E+03 -0.35254902837E+03  0.54562320002E+03  0.25000000000E+03 0.  0.
<mgrwt>
<rscale>  0 0.83289096E+03</rscale>
<asrwt>0</asrwt>
<pdfrwt beam="1">  1        2 0.13699524E+00 0.83289096E+03</pdfrwt>
<pdfrwt beam="2">  1       -2 0.29962918E-01 0.83289096E+03</pdfrwt>
<totfact> 0.30693376E+02</totfact>
</mgrwt>
</event>
<event>
 4    1  0.6705655E-006  0.7901739E+03  0.7818608E-02  0.9574350E-01
         -2   -1    0    0    0  501 -0.00000000000E+00  0.00000000000E+00  0.18982038261E+03  0.18982038262E+03  0.25500000000E-02 0. -1.
          2   -1    0    0  501    0  0.00000000000E+00 -0.00000000000E+00 -0.82232321988E+03  0.82232321988E+03  0.25500000000E-02 0.  1.
   -5000001    1    1    2    0    0  0.11571018831E+03 -0.26905026480E+03 -0.42950041773E+03  0.57684270082E+03  0.25000000000E+03 0.  0.
    5000001    1    1    2    0    0 -0.11571018831E+03  0.26905026480E+03 -0.20300241954E+03  0.43530090168E+03  0.25000000000E+03 0.  0.
<mgrwt>
<rscale>  0 0.79017393E+03</rscale>
<asrwt>0</asrwt>
<pdfrwt beam="1">  1        2 0.12651126E+00 0.79017393E+03</pdfrwt>
<pdfrwt beam="2">  1       -2 0.29203136E-01 0.79017393E+03</pdfrwt>
<totfact> 0.35953021E+02</totfact>
</mgrwt>
</event>
<event>
 4    1  0.6705655E-006  0.9045195E+03  0.7818608E-02  0.9419949E-01
         -2   -1    0    0    0  501 -0.00000000000E+00  0.00000000000E+00  0.22462843731E+03  0.22462843732E+03  0.25500000000E-02 0. -1.
          2   -1    0    0  501    0  0.00000000000E+00 -0.00000000000E+00 -0.91056536785E+03  0.91056536786E+03  0.25500000000E-02 0.  1.
   -5000001    1    1    2    0    0 -0.29809639689E+03  0.11885578746E+03 -0.94959955357E+02  0.41773861825E+03  0.25000000000E+03 0.  0.
    5000001    1    1    2    0    0  0.29809639689E+03 -0.11885578746E+03 -0.59097697519E+03  0.71745518693E+03  0.25000000000E+03 0.  0.
<mgrwt>
<rscale>  0 0.90451949E+03</rscale>
<asrwt>0</asrwt>
<pdfrwt beam="1">  1        2 0.14008698E+00 0.90451949E+03</pdfrwt>
<pdfrwt beam="2">  1       -2 0.34558222E-01 0.90451949E+03</pdfrwt>
<totfact> 0.22671681E+02</totfact>
</mgrwt>
</event>
<event>
 4    1  0.6705655E-006  0.1136139E+04  0.7818608E-02  0.9170667E-01
          2   -1    0    0  501    0  0.00000000000E+00  0.00000000000E+00  0.13476707983E+04  0.13476707983E+04  0.25500000000E-02 0.  1.
         -2   -1    0    0    0  501 -0.00000000000E+00 -0.00000000000E+00 -0.23945255765E+03  0.23945255766E+03  0.25500000000E-02 0. -1.
   -5000001    1    1    2    0    0  0.44003122990E+03  0.19072869966E+03  0.31135294803E+03  0.62405574944E+03  0.25000000000E+03 0.  0.
    5000001    1    1    2    0    0 -0.44003122990E+03 -0.19072869966E+03  0.79686529261E+03  0.96306760652E+03  0.25000000000E+03 0.  0.
<mgrwt>
<rscale>  0 0.11361395E+04</rscale>
<asrwt>0</asrwt>
<pdfrwt beam="1">  1        2 0.20733397E+00 0.11361395E+04</pdfrwt>
<pdfrwt beam="2">  1       -2 0.36838855E-01 0.11361395E+04</pdfrwt>
<totfact> 0.10658425E+02</totfact>
</mgrwt>
</event>
<event>
 4    1  0.6705655E-006  0.7770906E+03  0.7818608E-02  0.9593783E-01
          2   -1    0    0  501    0  0.00000000000E+00  0.00000000000E+00  0.41951497570E+03  0.41951497571E+03  0.25500000000E-02 0.  1.
         -2   -1    0    0    0  501 -0.00000000000E+00 -0.00000000000E+00 -0.35986184173E+03  0.35986184174E+03  0.25500000000E-02 0. -1.
   -5000001    1    1    2    0    0  0.46730767997E+02 -0.21485015329E+03 -0.17107021467E+03  0.37431186382E+03  0.25000000000E+03 0.  0.
    5000001    1    1    2    0    0 -0.46730767997E+02  0.21485015329E+03  0.23072334864E+03  0.40506495363E+03  0.25000000000E+03 0.  0.
<mgrwt>
<rscale>  0 0.77709055E+03</rscale>
<asrwt>0</asrwt>
<pdfrwt beam="1">  1        2 0.64540765E-01 0.77709055E+03</pdfrwt>
<pdfrwt beam="2">  1       -2 0.55363360E-01 0.77709055E+03</pdfrwt>
<totfact> 0.23291379E+02</totfact>
</mgrwt>
</event>
<event>
 4    1  0.6705655E-006  0.8254166E+03  0.7818608E-02  0.9523939E-01
          2   -1    0    0  501    0  0.00000000000E+00  0.00000000000E+00  0.16711561665E+04  0.16711561665E+04  0.25500000000E-02 0.  1.
         -2   -1    0    0    0  501 -0.00000000000E+00 -0.00000000000E+00 -0.10192233098E+03  0.10192233102E+03  0.25500000000E-02 0. -1.
   -5000001    1    1    2    0    0  0.30423657911E+03 -0.12356308370E+03  0.78597590198E+03  0.88774199530E+03  0.25000000000E+03 0.  0.
    5000001    1    1    2    0    0 -0.30423657911E+03  0.12356308370E+03  0.78325793356E+03  0.88533650224E+03  0.25000000000E+03 0.  0.
<mgrwt>
<rscale>  0 0.82541658E+03</rscale>
<asrwt>0</asrwt>
<pdfrwt beam="1">  1        2 0.25710095E+00 0.82541658E+03</pdfrwt>
<pdfrwt beam="2">  1       -2 0.15680358E-01 0.82541658E+03</pdfrwt>
<totfact> 0.33434068E+02</totfact>
</mgrwt>
</event>
<event>
 4    1  0.6705655E-006  0.9385233E+03  0.7818608E-02  0.9378667E-01
          2   -1    0    0  501    0  0.00000000000E+00  0.00000000000E+00  0.81628504880E+03  0.81628504881E+03  0.25500000000E-02 0.  1.
         -2   -1    0    0    0  501 -0.00000000000E+00 -0.00000000000E+00 -0.26976667452E+03  0.26976667454E+03  0.25500000000E-02 0. -1.
   -5000001    1    1    2    0    0 -0.29020019804E+03 -0.17640369999E+03  0.51146115734E+03  0.66289285392E+03  0.25000000000E+03 0.  0.
    5000001    1    1    2    0    0  0.29020019804E+03  0.17640369999E+03  0.35057216940E+02  0.42315886942E+03  0.25000000000E+03 0.  0.
<mgrwt>
<rscale>  0 0.93852331E+03</rscale>
<asrwt>0</asrwt>
<pdfrwt beam="1">  1        2 0.12558232E+00 0.93852331E+03</pdfrwt>
<pdfrwt beam="2">  1       -2 0.41502565E-01 0.93852331E+03</pdfrwt>
<totfact> 0.18455844E+02</totfact>
</mgrwt>
</event>
<event>
 4    1  0.6705655E-006  0.5890473E+03  0.7818608E-02  0.9928394E-01
         -2   -1    0    0    0  501 -0.00000000000E+00  0.00000000000E+00  0.16708655024E+03  0.16708655026E+03  0.25500000000E-02 0. -1.
          2   -1    0    0  501    0  0.00000000000E+00 -0.00000000000E+00 -0.51915712497E+03  0.51915712497E+03  0.25500000000E-02 0.  1.
   -5000001    1    1    2    0    0 -0.85957917668E+01 -0.15475442462E+03 -0.19336819320E+03  0.35201431465E+03  0.25000000000E+03 0.  0.
    5000001    1    1    2    0    0  0.85957917668E+01  0.15475442462E+03 -0.15870238153E+03  0.33422936059E+03  0.25000000000E+03 0.  0.
<mgrwt>
<rscale>  0 0.58904728E+03</rscale>
<asrwt>0</asrwt>
<pdfrwt beam="1">  1        2 0.79870326E-01 0.58904728E+03</pdfrwt>
<pdfrwt beam="2">  1       -2 0.25705623E-01 0.58904728E+03</pdfrwt>
<totfact> 0.80677354E+02</totfact>
</mgrwt>
</event>
<event>
 4    1  0.6705655E-006  0.7904008E+03  0.7818608E-02  0.9574016E-01
          2   -1    0    0  501    0  0.00000000000E+00  0.00000000000E+00  0.63396751225E+03  0.63396751225E+03  0.25500000000E-02 0.  1.
         -2   -1    0    0    0  501 -0.00000000000E+00 -0.00000000000E+00 -0.24635859378E+03  0.24635859379E+03  0.25500000000E-02 0. -1.
   -5000001    1    1    2    0    0  0.26138309643E+03 -0.13053130764E+03  0.92189644502E+02  0.39542189612E+03  0.25000000000E+03 0.  0.
    5000001    1    1    2    0    0 -0.26138309643E+03  0.13053130764E+03  0.29541927397E+03  0.48490420993E+03  0.25000000000E+03 0.  0.
<mgrwt>
<rscale>  0 0.79040077E+03</rscale>
<asrwt>0</asrwt>
<pdfrwt beam="1">  1        2 0.97533463E-01 0.79040077E+03</pdfrwt>
<pdfrwt beam="2">  1       -2 0.37901322E-01 0.79040077E+03</pdfrwt>
<totfact> 0.30644794E+02</totfact>
</mgrwt>
</event>
<event>
 4    1  0.6705655E-006  0.1488300E+04  0.7818608E-02  0.8892271E-01
          2   -1    0    0  501    0  0.00000000000E+00  0.00000000000E+00  0.68682822716E+03  0.68682822716E+03  0.25500000000E-02 0.  1.
         -2   -1    0    0    0  501 -0.00000000000E+00 -0.00000000000E+00 -0.80625524305E+03  0.80625524305E+03  0.25500000000E-02 0. -1.
   -5000001    1    1    2    0    0 -0.66874028037E+03  0.11137081939E+03  0.11873979645E+03  0.73226782072E+03  0.25000000000E+03 0.  0.
    5000001    1    1    2    0    0  0.66874028037E+03 -0.11137081939E+03 -0.23816681234E+03  0.76081564949E+03  0.25000000000E+03 0.  0.
<mgrwt>
<rscale>  0 0.14882995E+04</rscale>
<asrwt>0</asrwt>
<pdfrwt beam="1">  1        2 0.10566588E+00 0.14882995E+04</pdfrwt>
<pdfrwt beam="2">  1       -2 0.12403927E+00 0.14882995E+04</pdfrwt>
<totfact> 0.19836536E+01</totfact>
</mgrwt>
</event>
<event>
 4    1  0.6705655E-006  0.8083849E+03  0.7818608E-02  0.9547959E-01
         -2   -1    0    0    0  501 -0.00000000000E+00  0.00000000000E+00  0.22343638319E+03  0.22343638320E+03  0.25500000000E-02 0. -1.
          2   -1    0    0  501    0  0.00000000000E+00 -0.00000000000E+00 -0.73117698804E+03  0.73117698804E+03  0.25500000000E-02 0.  1.
   -5000001    1    1    2    0    0 -0.28321047436E+03  0.13999768970E+03 -0.29239004244E+03  0.49779459903E+03  0.25000000000E+03 0.  0.
    5000001    1    1    2    0    0  0.28321047436E+03 -0.13999768970E+03 -0.21535056241E+03  0.45681877221E+03  0.25000000000E+03 0.  0.
<mgrwt>
<rscale>  0 0.80838491E+03</rscale>
<asrwt>0</asrwt>
<pdfrwt beam="1">  1        2 0.11248877E+00 0.80838491E+03</pdfrwt>
<pdfrwt beam="2">  1       -2 0.34374829E-01 0.80838491E+03</pdfrwt>
<totfact> 0.30876674E+02</totfact>
</mgrwt>
</event>
<event>
 4    1  0.6705655E-006  0.6617187E+03  0.7818608E-02  0.9785035E-01
          2   -1    0    0  501    0  0.00000000000E+00  0.00000000000E+00  0.42165290496E+03  0.42165290497E+03  0.25500000000E-02 0.  1.
         -2   -1    0    0    0  501 -0.00000000000E+00 -0.00000000000E+00 -0.25961613781E+03  0.25961613782E+03  0.25500000000E-02 0. -1.
   -5000001    1    1    2    0    0  0.20604481176E+03  0.62396117574E+02  0.55379641928E+02  0.33453646241E+03  0.25000000000E+03 0.  0.
    5000001    1    1    2    0    0 -0.20604481176E+03 -0.62396117574E+02  0.10665712522E+03  0.34673258038E+03  0.25000000000E+03 0.  0.
<mgrwt>
<rscale>  0 0.66171867E+03</rscale>
<asrwt>0</asrwt>
<pdfrwt beam="1">  1        2 0.64869677E-01 0.66171867E+03</pdfrwt>
<pdfrwt beam="2">  1       -2 0.39940945E-01 0.66171867E+03</pdfrwt>
<totfact> 0.44792300E+02</totfact>
</mgrwt>
</event>
<event>
 4    1  0.6705655E-006  0.6289065E+03  0.7818608E-02  0.9847185E-01
         -2   -1    0    0    0  501 -0.00000000000E+00  0.00000000000E+00  0.30581442937E+02  0.30581443043E+02  0.25500000000E-02 0. -1.
          2   -1    0    0  501    0  0.00000000000E+00 -0.00000000000E+00 -0.32333611368E+04  0.32333611368E+04  0.25500000000E-02 0.  1.
   -5000001    1    1    2    0    0 -0.17650524165E+03  0.34118808552E+02 -0.19321867520E+04  0.19565694054E+04  0.25000000000E+03 0.  0.
    5000001    1    1    2    0    0  0.17650524165E+03 -0.34118808552E+02 -0.12705929419E+04  0.13073731745E+04  0.25000000000E+03 0.  0.
<mgrwt>
<rscale>  0 0.62890651E+03</rscale>
<asrwt>0</asrwt>
<pdfrwt beam="1">  1        2 0.49743990E+00 0.62890651E+03</pdfrwt>
<pdfrwt beam="2">  1       -2 0.47048399E-02 0.62890651E+03</pdfrwt>
<totfact> 0.30230519E+02</totfact>
</mgrwt>
</event>
<event>
 4    1  0.6705655E-006  0.7702869E+03  0.7818608E-02  0.9604050E-01
         -2   -1    0    0    0  501 -0.00000000000E+00  0.00000000000E+00  0.39462842350E+02  0.39462842432E+02  0.25500000000E-02 0. -1.
          2   -1    0    0  501    0  0.00000000000E+00 -0.00000000000E+00 -0.37588643756E+04  0.37588643756E+04  0.25500000000E-02 0.  1.
   -5000001    1    1    2    0    0  0.10478498523E+03 -0.85813316882E+02 -0.57865423230E+03  0.64473602276E+03  0.25000000000E+03 0.  0.
    5000001    1    1    2    0    0 -0.10478498523E+03  0.85813316882E+02 -0.31407473010E+04  0.31535911953E+04  0.25000000000E+03 0.  0.
<mgrwt>
<rscale>  0 0.77028689E+03</rscale>
<asrwt>0</asrwt>
<pdfrwt beam="1">  1        2 0.57828654E+00 0.77028689E+03</pdfrwt>
<pdfrwt beam="2">  1       -2 0.60712095E-02 0.77028689E+03</pdfrwt>
<totfact> 0.87293876E+01</totfact>
</mgrwt>
</event>
<event>
 4    1  0.6705655E-006  0.6056334E+03  0.7818608E-02  0.9893787E-01
         -2   -1    0    0    0  501 -0.00000000000E+00  0.00000000000E+00  0.11290464173E+03  0.11290464176E+03  0.25500000000E-02 0. -1.
          2   -1    0    0  501    0  0.00000000000E+00 -0.00000000000E+00 -0.81217169123E+03  0.81217169123E+03  0.25500000000E-02 0.  1.
   -5000001    1    1    2    0    0 -0.45556216933E+02 -0.16353548026E+03 -0.31990772557E+03  0.44006837546E+03  0.25000000000E+03 0.  0.
    5000001    1    1    2    0    0  0.45556216933E+02  0.16353548026E+03 -0.37935932394E+03  0.48500795752E+03  0.25000000000E+03 0.  0.
<mgrwt>
<rscale>  0 0.60563340E+03</rscale>
<asrwt>0</asrwt>
<pdfrwt beam="1">  1        2 0.12494949E+00 0.60563340E+03</pdfrwt>
<pdfrwt beam="2">  1       -2 0.17369945E-01 0.60563340E+03</pdfrwt>
<totfact> 0.92574866E+02</totfact>
</mgrwt>
</event>
<event>
 4    1  0.6705655E-006  0.9301326E+03  0.7818608E-02  0.9388679E-01
         -2   -1    0    0    0  501 -0.00000000000E+00  0.00000000000E+00  0.10991227128E+03  0.10991227131E+03  0.25500000000E-02 0. -1.
          2   -1    0    0  501    0  0.00000000000E+00 -0.00000000000E+00 -0.19678116246E+04  0.19678116246E+04  0.25500000000E-02 0.  1.
   -5000001    1    1    2    0    0 -0.32096778950E+03 -0.56042560600E+02 -0.14164366445E+04  0.14747724769E+04  0.25000000000E+03 0.  0.
    5000001    1    1    2    0    0  0.32096778950E+03  0.56042560600E+02 -0.44146270882E+03  0.60295141908E+03  0.25000000000E+03 0.  0.
<mgrwt>
<rscale>  0 0.93013256E+03</rscale>
<asrwt>0</asrwt>
<pdfrwt beam="1">  1        2 0.30274022E+00 0.93013256E+03</pdfrwt>
<pdfrwt beam="2">  1       -2 0.16909582E-01 0.93013256E+03</pdfrwt>
<totfact> 0.20059560E+02</totfact>
</mgrwt>
</event>
<event>
 4    1  0.6705655E-006  0.8038843E+03  0.7818608E-02  0.9554412E-01
         -2   -1    0    0    0  501 -0.00000000000E+00  0.00000000000E+00  0.10467892268E+04  0.10467892268E+04  0.25500000000E-02 0. -1.
          2   -1    0    0  501    0  0.00000000000E+00 -0.00000000000E+00 -0.15433623778E+03  0.15433623780E+03  0.25500000000E-02 0.  1.
   -5000001    1    1    2    0    0 -0.28742647608E+03  0.10928866409E+03  0.34600107460E+03  0.52609384607E+03  0.25000000000E+03 0.  0.
    5000001    1    1    2    0    0  0.28742647608E+03 -0.10928866409E+03  0.54645191445E+03  0.67503161856E+03  0.25000000000E+03 0.  0.
<mgrwt>
<rscale>  0 0.80388435E+03</rscale>
<asrwt>0</asrwt>
<pdfrwt beam="1">  1        2 0.23744037E-01 0.80388435E+03</pdfrwt>
<pdfrwt beam="2">  1       -2 0.16104449E+00 0.80388435E+03</pdfrwt>
<totfact> 0.58074683E+01</totfact>
</mgrwt>
</event>
<event>
 4    1  0.6705655E-006  0.8600675E+03  0.7818608E-02  0.9476923E-01
          2   -1    0    0  501    0  0.00000000000E+00  0.00000000000E+00  0.33289050035E+04  0.33289050035E+04  0.25500000000E-02 0.  1.
         -2   -1    0    0    0  501 -0.00000000000E+00 -0.00000000000E+00 -0.55552509858E+02  0.55552509916E+02  0.25500000000E-02 0. -1.
   -5000001    1    1    2    0    0  0.27195447126E+03  0.17002679530E+03  0.10863141331E+04  0.11599339383E+04  0.25000000000E+03 0.  0.
    5000001    1    1    2    0    0 -0.27195447126E+03 -0.17002679530E+03  0.21870383606E+04  0.22245235751E+04  0.25000000000E+03 0.  0.
<mgrwt>
<rscale>  0 0.86006750E+03</rscale>
<asrwt>0</asrwt>
<pdfrwt beam="1">  1        2 0.51213903E+00 0.86006750E+03</pdfrwt>
<pdfrwt beam="2">  1       -2 0.85465433E-02 0.86006750E+03</pdfrwt>
<totfact> 0.99336548E+01</totfact>
</mgrwt>
</event>
<event>
 4    1  0.6705655E-006  0.6255390E+03  0.7818608E-02  0.9853793E-01
         -2   -1    0    0    0  501 -0.00000000000E+00  0.00000000000E+00  0.70466600445E+02  0.70466600491E+02  0.25500000000E-02 0. -1.
          2   -1    0    0  501    0  0.00000000000E+00 -0.00000000000E+00 -0.13882429081E+04  0.13882429081E+04  0.25500000000E-02 0.  1.
   -5000001    1    1    2    0    0  0.15009052897E+03  0.51585834639E+02 -0.89366663666E+03  0.94145011695E+03  0.25000000000E+03 0.  0.
    5000001    1    1    2    0    0 -0.15009052897E+03 -0.51585834639E+02 -0.42410967103E+03  0.51725939168E+03  0.25000000000E+03 0.  0.
<mgrwt>
<rscale>  0 0.62553899E+03</rscale>
<asrwt>0</asrwt>
<pdfrwt beam="1">  1        2 0.21357581E+00 0.62553899E+03</pdfrwt>
<pdfrwt beam="2">  1       -2 0.10841016E-01 0.62553899E+03</pdfrwt>
<totfact> 0.89768940E+02</totfact>
</mgrwt>
</event>
<event>
 4    1  0.6705655E-006  0.9556092E+03  0.7818608E-02  0.9358618E-01
         -2   -1    0    0    0  501 -0.00000000000E+00  0.00000000000E+00  0.92443098744E+03  0.92443098744E+03  0.25500000000E-02 0. -1.
          2   -1    0    0  501    0  0.00000000000E+00 -0.00000000000E+00 -0.24695975580E+03  0.24695975581E+03  0.25500000000E-02 0.  1.
   -5000001    1    1    2    0    0  0.77967674725E+02 -0.39478718232E+03  0.26256414433E+03  0.54164177047E+03  0.25000000000E+03 0.  0.
    5000001    1    1    2    0    0 -0.77967674725E+02  0.39478718232E+03  0.41490708730E+03  0.62974897278E+03  0.25000000000E+03 0.  0.
<mgrwt>
<rscale>  0 0.95560923E+03</rscale>
<asrwt>0</asrwt>
<pdfrwt beam="1">  1        2 0.37993810E-01 0.95560923E+03</pdfrwt>
<pdfrwt beam="2">  1       -2 0.14222015E+00 0.95560923E+03</pdfrwt>
<totfact> 0.47028554E+01</totfact>
</mgrwt>
</event>
<event>
 4    1  0.6705655E-006  0.7184321E+03  0.7818608E-02  0.9686220E-01
         -2   -1    0    0    0  501 -0.00000000000E+00  0.00000000000E+00  0.43410329703E+02  0.43410329778E+02  0.25500000000E-02 0. -1.
          2   -1    0    0  501    0  0.00000000000E+00 -0.00000000000E+00 -0.29724761776E+04  0.29724761776E+04  0.25500000000E-02 0.  1.
   -5000001    1    1    2    0    0  0.14382347781E+03  0.11649818983E+03 -0.71032635612E+03  0.77544861416E+03  0.25000000000E+03 0.  0.
    5000001    1    1    2    0    0 -0.14382347781E+03 -0.11649818983E+03 -0.22187394918E+04  0.22404378933E+04  0.25000000000E+03 0.  0.
<mgrwt>
<rscale>  0 0.71843210E+03</rscale>
<asrwt>0</asrwt>
<pdfrwt beam="1">  1        2 0.45730387E+00 0.71843210E+03</pdfrwt>
<pdfrwt beam="2">  1       -2 0.66785146E-02 0.71843210E+03</pdfrwt>
<totfact> 0.25132216E+02</totfact>
</mgrwt>
</event>
<event>
 4    1  0.6705655E-006  0.6084939E+03  0.7818608E-02  0.9887939E-01
          2   -1    0    0  501    0  0.00000000000E+00  0.00000000000E+00  0.29719885638E+04  0.29719885638E+04  0.25500000000E-02 0.  1.
         -2   -1    0    0    0  501 -0.00000000000E+00 -0.00000000000E+00 -0.31146215040E+02  0.31146215144E+02  0.25500000000E-02 0. -1.
   -5000001    1    1    2    0    0  0.12858803207E+03 -0.84383002878E+02  0.10752588990E+04  0.11146017554E+04  0.25000000000E+03 0.  0.
    5000001    1    1    2    0    0 -0.12858803207E+03  0.84383002878E+02  0.18655834497E+04  0.18885330235E+04  0.25000000000E+03 0.  0.
<mgrwt>
<rscale>  0 0.60849386E+03</rscale>
<asrwt>0</asrwt>
<pdfrwt beam="1">  1        2 0.45722906E+00 0.60849386E+03</pdfrwt>
<pdfrwt beam="2">  1       -2 0.47917248E-02 0.60849386E+03</pdfrwt>
<totfact> 0.42801336E+02</totfact>
</mgrwt>
</event>
<event>
 4    1  0.6705655E-006  0.6096584E+03  0.7818608E-02  0.9885568E-01
          2   -1    0    0  501    0  0.00000000000E+00  0.00000000000E+00  0.35378250991E+03  0.35378250992E+03  0.25500000000E-02 0.  1.
         -2   -1    0    0    0  501 -0.00000000000E+00 -0.00000000000E+00 -0.26264962635E+03  0.26264962636E+03  0.25500000000E-02 0. -1.
   -5000001    1    1    2    0    0  0.15273109577E+03  0.80712197693E+02  0.21224120919E+02  0.30461731694E+03  0.25000000000E+03 0.  0.
    5000001    1    1    2    0    0 -0.15273109577E+03 -0.80712197693E+02  0.69908762645E+02  0.31181481935E+03  0.25000000000E+03 0.  0.
<mgrwt>
<rscale>  0 0.60965841E+03</rscale>
<asrwt>0</asrwt>
<pdfrwt beam="1">  1        2 0.54428078E-01 0.60965841E+03</pdfrwt>
<pdfrwt beam="2">  1       -2 0.40407635E-01 0.60965841E+03</pdfrwt>
<totfact> 0.53347189E+02</totfact>
</mgrwt>
</event>
<event>
 4    1  0.6705655E-006  0.6642353E+03  0.7818608E-02  0.9780428E-01
          2   -1    0    0  501    0  0.00000000000E+00  0.00000000000E+00  0.84333421620E+03  0.84333421620E+03  0.25500000000E-02 0.  1.
         -2   -1    0    0    0  501 -0.00000000000E+00 -0.00000000000E+00 -0.13079288836E+03  0.13079288838E+03  0.25500000000E-02 0. -1.
   -5000001    1    1    2    0    0 -0.45736069988E+02  0.20742482061E+03  0.43226618285E+03  0.54265172730E+03  0.25000000000E+03 0.  0.
    5000001    1    1    2    0    0  0.45736069988E+02 -0.20742482061E+03  0.28027514499E+03  0.43147537728E+03  0.25000000000E+03 0.  0.
<mgrwt>
<rscale>  0 0.66423525E+03</rscale>
<asrwt>0</asrwt>
<pdfrwt beam="1">  1        2 0.12974372E+00 0.66423525E+03</pdfrwt>
<pdfrwt beam="2">  1       -2 0.20121984E-01 0.66423525E+03</pdfrwt>
<totfact> 0.68151529E+02</totfact>
</mgrwt>
</event>
<event>
 4    1  0.6705655E-006  0.6995878E+03  0.7818608E-02  0.9717937E-01
         -2   -1    0    0    0  501 -0.00000000000E+00  0.00000000000E+00  0.50416721516E+03  0.50416721517E+03  0.25500000000E-02 0. -1.
          2   -1    0    0  501    0  0.00000000000E+00 -0.00000000000E+00 -0.24268886837E+03  0.24268886838E+03  0.25500000000E-02 0.  1.
   -5000001    1    1    2    0    0 -0.99362713910E+02  0.22036979616E+03  0.90510562218E+02  0.35934378783E+03  0.25000000000E+03 0.  0.
    5000001    1    1    2    0    0  0.99362713910E+02 -0.22036979616E+03  0.17096778458E+03  0.38751229573E+03  0.25000000000E+03 0.  0.
<mgrwt>
<rscale>  0 0.69958780E+03</rscale>
<asrwt>0</asrwt>
<pdfrwt beam="1">  1        2 0.37336749E-01 0.69958780E+03</pdfrwt>
<pdfrwt beam="2">  1       -2 0.77564187E-01 0.69958780E+03</pdfrwt>
<totfact> 0.20817135E+02</totfact>
</mgrwt>
</event>
<event>
 4    1  0.6705655E-006  0.8326229E+03  0.7818608E-02  0.9513961E-01
          2   -1    0    0  501    0  0.00000000000E+00  0.00000000000E+00  0.86277829482E+03  0.86277829483E+03  0.25500000000E-02 0.  1.
         -2   -1    0    0    0  501 -0.00000000000E+00 -0.00000000000E+00 -0.20088038521E+03  0.20088038522E+03  0.25500000000E-02 0. -1.
   -5000001    1    1    2    0    0  0.27368495859E+03  0.14950465973E+03  0.47970887954E+03  0.62440027943E+03  0.25000000000E+03 0.  0.
    5000001    1    1    2    0    0 -0.27368495859E+03 -0.14950465973E+03  0.18218903008E+03  0.43925840063E+03  0.25000000000E+03 0.  0.
<mgrwt>
<rscale>  0 0.83262293E+03</rscale>
<asrwt>0</asrwt>
<pdfrwt beam="1">  1        2 0.13273512E+00 0.83262293E+03</pdfrwt>
<pdfrwt beam="2">  1       -2 0.30904674E-01 0.83262293E+03</pdfrwt>
<totfact> 0.30266908E+02</totfact>
</mgrwt>
</event>
<event>
 4    1  0.6705655E-006  0.8509256E+03  0.7818608E-02  0.9489095E-01
         -2   -1    0    0    0  501 -0.00000000000E+00  0.00000000000E+00  0.20553800145E+03  0.20553800147E+03  0.25500000000E-02 0. -1.
          2   -1    0    0  501    0  0.00000000000E+00 -0.00000000000E+00 -0.88070626059E+03  0.88070626059E+03  0.25500000000E-02 0.  1.
   -5000001    1    1    2    0    0 -0.27991077048E+03 -0.18801554531E+03 -0.42619800649E+03  0.59820115801E+03  0.25000000000E+03 0.  0.
    5000001    1    1    2    0    0  0.27991077048E+03  0.18801554531E+03 -0.24897025265E+03  0.48804310405E+03  0.25000000000E+03 0.  0.
<mgrwt>
<rscale>  0 0.85092562E+03</rscale>
<asrwt>0</asrwt>
<pdfrwt beam="1">  1        2 0.13549327E+00 0.85092562E+03</pdfrwt>
<pdfrwt beam="2">  1       -2 0.31621231E-01 0.85092562E+03</pdfrwt>
<totfact> 0.28163037E+02</totfact>
</mgrwt>
</event>
<event>
 4    1  0.6705655E-006  0.5355455E+03  0.7818608E-02  0.1004896E+00
          2   -1    0    0  501    0  0.00000000000E+00  0.00000000000E+00  0.13994324648E+04  0.13994324648E+04  0.25500000000E-02 0.  1.
         -2   -1    0    0    0  501 -0.00000000000E+00 -0.00000000000E+00 -0.51236664137E+02  0.51236664201E+02  0.25500000000E-02 0. -1.
   -5000001    1    1    2    0    0 -0.95403385208E+02  0.98457553073E+00  0.70111451824E+03  0.75044276463E+03  0.25000000000E+03 0.  0.
    5000001    1    1    2    0    0  0.95403385208E+02 -0.98457553073E+00  0.64708128239E+03  0.70022636434E+03  0.25000000000E+03 0.  0.
<mgrwt>
<rscale>  0 0.53554552E+03</rscale>
<asrwt>0</asrwt>
<pdfrwt beam="1">  1        2 0.21529727E+00 0.53554552E+03</pdfrwt>
<pdfrwt beam="2">  1       -2 0.78825648E-02 0.53554552E+03</pdfrwt>
<totfact> 0.14835860E+03</totfact>
</mgrwt>
</event>
<event>
 4    1  0.6705655E-006  0.7489632E+03  0.7818608E-02  0.9636978E-01
         -2   -1    0    0    0  501 -0.00000000000E+00  0.00000000000E+00  0.14912558189E+03  0.14912558191E+03  0.25500000000E-02 0. -1.
          2   -1    0    0  501    0  0.00000000000E+00 -0.00000000000E+00 -0.94039179109E+03  0.94039179110E+03  0.25500000000E-02 0.  1.
   -5000001    1    1    2    0    0 -0.25135668665E+03 -0.89361377097E+02 -0.51355213582E+03  0.63039783934E+03  0.25000000000E+03 0.  0.
    5000001    1    1    2    0    0  0.25135668665E+03  0.89361377097E+02 -0.27771407338E+03  0.45911953367E+03  0.25000000000E+03 0.  0.
<mgrwt>
<rscale>  0 0.74896321E+03</rscale>
<asrwt>0</asrwt>
<pdfrwt beam="1">  1        2 0.14467566E+00 0.74896321E+03</pdfrwt>
<pdfrwt beam="2">  1       -2 0.22942398E-01 0.74896321E+03</pdfrwt>
<totfact> 0.46357685E+02</totfact>
</mgrwt>
</event>
<event>
 4    1  0.6705655E-006  0.6929416E+03  0.7818608E-02  0.9729380E-01
         -2   -1    0    0    0  501 -0.00000000000E+00  0.00000000000E+00  0.17327486277E+03  0.17327486279E+03  0.25500000000E-02 0. -1.
          2   -1    0    0  501    0  0.00000000000E+00 -0.00000000000E+00 -0.69278376957E+03  0.69278376957E+03  0.25500000000E-02 0.  1.
   -5000001    1    1    2    0    0 -0.13474450208E+03 -0.19046539033E+03 -0.19006746012E+03  0.39122728068E+03  0.25000000000E+03 0.  0.
    5000001    1    1    2    0    0  0.13474450208E+03  0.19046539033E+03 -0.32944144667E+03  0.47483135168E+03  0.25000000000E+03 0.  0.
<mgrwt>
<rscale>  0 0.69294159E+03</rscale>
<asrwt>0</asrwt>
<pdfrwt beam="1">  1        2 0.10658212E+00 0.69294159E+03</pdfrwt>
<pdfrwt beam="2">  1       -2 0.26657672E-01 0.69294159E+03</pdfrwt>
<totfact> 0.53255076E+02</totfact>
</mgrwt>
</event>
<event>
 4    1  0.6705655E-006  0.9286671E+03  0.7818608E-02  0.9390439E-01
          2   -1    0    0  501    0  0.00000000000E+00  0.00000000000E+00  0.13646314233E+04  0.13646314233E+04  0.25500000000E-02 0.  1.
         -2   -1    0    0    0  501 -0.00000000000E+00 -0.00000000000E+00 -0.15799551196E+03  0.15799551198E+03  0.25500000000E-02 0. -1.
   -5000001    1    1    2    0    0 -0.30211393773E+03  0.24594879285E+03  0.66338133469E+03  0.80891188351E+03  0.25000000000E+03 0.  0.
    5000001    1    1    2    0    0  0.30211393773E+03 -0.24594879285E+03  0.54325457667E+03  0.71371505178E+03  0.25000000000E+03 0.  0.
<mgrwt>
<rscale>  0 0.92866709E+03</rscale>
<asrwt>0</asrwt>
<pdfrwt beam="1">  1        2 0.20994331E+00 0.92866709E+03</pdfrwt>
<pdfrwt beam="2">  1       -2 0.24307001E-01 0.92866709E+03</pdfrwt>
<totfact> 0.22900813E+02</totfact>
</mgrwt>
</event>
<event>
 4    1  0.6705655E-006  0.5402592E+03  0.7818608E-02  0.1003774E+00
         -2   -1    0    0    0  501 -0.00000000000E+00  0.00000000000E+00  0.73251891329E+02  0.73251891374E+02  0.25500000000E-02 0. -1.
          2   -1    0    0  501    0  0.00000000000E+00 -0.00000000000E+00 -0.99615161204E+03  0.99615161204E+03  0.25500000000E-02 0.  1.
   -5000001    1    1    2    0    0  0.97747381629E+02  0.29906720093E+01 -0.52104655215E+03  0.58613394736E+03  0.25000000000E+03 0.  0.
    5000001    1    1    2    0    0 -0.97747381629E+02 -0.29906720093E+01 -0.40185316856E+03  0.48326955606E+03  0.25000000000E+03 0.  0.
<mgrwt>
<rscale>  0 0.54025916E+03</rscale>
<asrwt>0</asrwt>
<pdfrwt beam="1">  1        2 0.15325408E+00 0.54025916E+03</pdfrwt>
<pdfrwt beam="2">  1       -2 0.11269523E-01 0.54025916E+03</pdfrwt>
<totfact> 0.14405431E+03</totfact>
</mgrwt>
</event>
<event>
 4    1  0.6705655E-006  0.7220278E+03  0.7818608E-02  0.9680286E-01
          2   -1    0    0  501    0  0.00000000000E+00  0.00000000000E+00  0.24938502724E+04  0.24938502724E+04  0.25500000000E-02 0. -1.
         -2   -1    0    0    0  501 -0.00000000000E+00 -0.00000000000E+00 -0.52260965993E+02  0.52260966055E+02  0.25500000000E-02 0.  1.
   -5000001    1    1    2    0    0 -0.22717688841E+03  0.31960546176E+02  0.78603597798E+03  0.85614448186E+03  0.25000000000E+03 0.  0.
    5000001    1    1    2    0    0  0.22717688841E+03 -0.31960546176E+02  0.16555533284E+04  0.16899667566E+04  0.25000000000E+03 0.  0.
<mgrwt>
<rscale>  0 0.72202777E+03</rscale>
<asrwt>0</asrwt>
<pdfrwt beam="1">  1        2 0.38366910E+00 0.72202777E+03</pdfrwt>
<pdfrwt beam="2">  1       -2 0.80401521E-02 0.72202777E+03</pdfrwt>
<totfact> 0.35641386E+02</totfact>
</mgrwt>
</event>
<event>
 4    1  0.6705655E-006  0.1074140E+04  0.7818608E-02  0.9230770E-01
          2   -1    0    0  501    0  0.00000000000E+00  0.00000000000E+00  0.57358989423E+03  0.57358989423E+03  0.25500000000E-02 0.  1.
         -2   -1    0    0    0  501 -0.00000000000E+00 -0.00000000000E+00 -0.50287544803E+03  0.50287544804E+03  0.25500000000E-02 0. -1.
   -5000001    1    1    2    0    0  0.31118207194E+03  0.11642296346E+03 -0.30531345568E+03  0.51585355920E+03  0.25000000000E+03 0.  0.
    5000001    1    1    2    0    0 -0.31118207194E+03 -0.11642296346E+03  0.37602790188E+03  0.56061178307E+03  0.25000000000E+03 0.  0.
<mgrwt>
<rscale>  0 0.10741402E+04</rscale>
<asrwt>0</asrwt>
<pdfrwt beam="1">  1        2 0.88244599E-01 0.10741402E+04</pdfrwt>
<pdfrwt beam="2">  1       -2 0.77365454E-01 0.10741402E+04</pdfrwt>
<totfact> 0.77637111E+01</totfact>
</mgrwt>
</event>
<event>
 4    1  0.6705655E-006  0.7316211E+03  0.7818608E-02  0.9664634E-01
          2   -1    0    0  501    0  0.00000000000E+00  0.00000000000E+00  0.53527613546E+03  0.53527613546E+03  0.25500000000E-02 0.  1.
         -2   -1    0    0    0  501 -0.00000000000E+00 -0.00000000000E+00 -0.24999683719E+03  0.24999683720E+03  0.25500000000E-02 0. -1.
   -5000001    1    1    2    0    0 -0.24015301690E+03 -0.88997814116E+02  0.61439629190E+02  0.36313759166E+03  0.25000000000E+03 0.  0.
    5000001    1    1    2    0    0  0.24015301690E+03  0.88997814116E+02  0.22383966908E+03  0.42213538100E+03  0.25000000000E+03 0.  0.
<mgrwt>
<rscale>  0 0.73162105E+03</rscale>
<asrwt>0</asrwt>
<pdfrwt beam="1">  1        2 0.82350174E-01 0.73162105E+03</pdfrwt>
<pdfrwt beam="2">  1       -2 0.38461052E-01 0.73162105E+03</pdfrwt>
<totfact> 0.36564711E+02</totfact>
</mgrwt>
</event>
<event>
 4    1  0.6705655E-006  0.6281613E+03  0.7818608E-02  0.9848643E-01
         -2   -1    0    0    0  501 -0.00000000000E+00  0.00000000000E+00  0.15004890123E+03  0.15004890126E+03  0.25500000000E-02 0. -1.
          2   -1    0    0  501    0  0.00000000000E+00 -0.00000000000E+00 -0.65743000129E+03  0.65743000130E+03  0.25500000000E-02 0.  1.
   -5000001    1    1    2    0    0  0.78643907365E+02  0.76181449047E+02 -0.53892128110E+02  0.27819568440E+03  0.25000000000E+03 0.  0.
    5000001    1    1    2    0    0 -0.78643907365E+02 -0.76181449047E+02 -0.45348897195E+03  0.52928321816E+03  0.25000000000E+03 0.  0.
<mgrwt>
<rscale>  0 0.62816128E+03</rscale>
<asrwt>0</asrwt>
<pdfrwt beam="1">  1        2 0.10114308E+00 0.62816128E+03</pdfrwt>
<pdfrwt beam="2">  1       -2 0.23084447E-01 0.62816128E+03</pdfrwt>
<totfact> 0.73748822E+02</totfact>
</mgrwt>
</event>
<event>
 4    1  0.6705655E-006  0.1235592E+04  0.7818608E-02  0.9082261E-01
          2   -1    0    0  501    0  0.00000000000E+00  0.00000000000E+00  0.26685107496E+04  0.26685107496E+04  0.25500000000E-02 0.  1.
         -2   -1    0    0    0  501 -0.00000000000E+00 -0.00000000000E+00 -0.14302810585E+03  0.14302810587E+03  0.25500000000E-02 0. -1.
   -5000001    1    1    2    0    0  0.28489285701E+03  0.48770188133E+03  0.12910680809E+04  0.14312141190E+04  0.25000000000E+03 0.  0.
    5000001    1    1    2    0    0 -0.28489285701E+03 -0.48770188133E+03  0.12344145629E+04  0.13803247365E+04  0.25000000000E+03 0.  0.
<mgrwt>
<rscale>  0 0.12355922E+04</rscale>
<asrwt>0</asrwt>
<pdfrwt beam="1">  1        2 0.41054011E+00 0.12355922E+04</pdfrwt>
<pdfrwt beam="2">  1       -2 0.22004324E-01 0.12355922E+04</pdfrwt>
<totfact> 0.49657672E+01</totfact>
</mgrwt>
</event>
<event>
 4    1  0.6705655E-006  0.6662681E+03  0.7818608E-02  0.9776723E-01
          2   -1    0    0  501    0  0.00000000000E+00  0.00000000000E+00  0.56765389165E+03  0.56765389166E+03  0.25500000000E-02 0.  1.
         -2   -1    0    0    0  501 -0.00000000000E+00 -0.00000000000E+00 -0.19550344305E+03  0.19550344307E+03  0.25500000000E-02 0. -1.
   -5000001    1    1    2    0    0 -0.16520318355E+03 -0.11448897019E+03  0.83124420583E+02  0.33137514308E+03  0.25000000000E+03 0.  0.
    5000001    1    1    2    0    0  0.16520318355E+03  0.11448897019E+03  0.28902602802E+03  0.43178219165E+03  0.25000000000E+03 0.  0.
<mgrwt>
<rscale>  0 0.66626809E+03</rscale>
<asrwt>0</asrwt>
<pdfrwt beam="1">  1        2 0.87331367E-01 0.66626809E+03</pdfrwt>
<pdfrwt beam="2">  1       -2 0.30077453E-01 0.66626809E+03</pdfrwt>
<totfact> 0.54434534E+02</totfact>
</mgrwt>
</event>
<event>
 4    1  0.6705655E-006  0.6766569E+03  0.7818608E-02  0.9758006E-01
          2   -1    0    0  501    0  0.00000000000E+00  0.00000000000E+00  0.55980912083E+03  0.55980912084E+03  0.25500000000E-02 0.  1.
         -2   -1    0    0    0  501 -0.00000000000E+00 -0.00000000000E+00 -0.20447350010E+03  0.20447350011E+03  0.25500000000E-02 0. -1.
   -5000001    1    1    2    0    0  0.19136523023E+03  0.12178169907E+03  0.15204296780E+03  0.37022762947E+03  0.25000000000E+03 0.  0.
    5000001    1    1    2    0    0 -0.19136523023E+03 -0.12178169907E+03  0.20329265294E+03  0.39405499148E+03  0.25000000000E+03 0.  0.
<mgrwt>
<rscale>  0 0.67665687E+03</rscale>
<asrwt>0</asrwt>
<pdfrwt beam="1">  1        2 0.86124479E-01 0.67665687E+03</pdfrwt>
<pdfrwt beam="2">  1       -2 0.31457462E-01 0.67665687E+03</pdfrwt>
<totfact> 0.50896234E+02</totfact>
</mgrwt>
</event>
<event>
 4    1  0.6705655E-006  0.9200427E+03  0.7818608E-02  0.9400868E-01
         -2   -1    0    0    0  501 -0.00000000000E+00  0.00000000000E+00  0.54057447919E+03  0.54057447920E+03  0.25500000000E-02 0. -1.
          2   -1    0    0  501    0  0.00000000000E+00 -0.00000000000E+00 -0.39147179784E+03  0.39147179785E+03  0.25500000000E-02 0.  1.
   -5000001    1    1    2    0    0 -0.31610128964E+03 -0.14428260174E+03  0.24521940387E+03  0.49332550158E+03  0.25000000000E+03 0.  0.
    5000001    1    1    2    0    0  0.31610128964E+03  0.14428260174E+03 -0.96116722523E+02  0.43872077547E+03  0.25000000000E+03 0.  0.
<mgrwt>
<rscale>  0 0.92004275E+03</rscale>
<asrwt>0</asrwt>
<pdfrwt beam="1">  1        2 0.60226431E-01 0.92004275E+03</pdfrwt>
<pdfrwt beam="2">  1       -2 0.83165304E-01 0.92004275E+03</pdfrwt>
<totfact> 0.10347582E+02</totfact>
</mgrwt>
</event>
<event>
 4    1  0.6705655E-006  0.6120778E+03  0.7818608E-02  0.9880661E-01
         -2   -1    0    0    0  501 -0.00000000000E+00  0.00000000000E+00  0.15890498347E+03  0.15890498349E+03  0.25500000000E-02 0. -1.
          2   -1    0    0  501    0  0.00000000000E+00 -0.00000000000E+00 -0.58940753252E+03  0.58940753253E+03  0.25500000000E-02 0.  1.
   -5000001    1    1    2    0    0  0.79612995258E+02 -0.14649440737E+03 -0.14437388947E+03  0.33338065386E+03  0.25000000000E+03 0.  0.
    5000001    1    1    2    0    0 -0.79612995258E+02  0.14649440737E+03 -0.28612865958E+03  0.41493186217E+03  0.25000000000E+03 0.  0.
<mgrwt>
<rscale>  0 0.61207775E+03</rscale>
<asrwt>0</asrwt>
<pdfrwt beam="1">  1        2 0.90678081E-01 0.61207775E+03</pdfrwt>
<pdfrwt beam="2">  1       -2 0.24446921E-01 0.61207775E+03</pdfrwt>
<totfact> 0.76021167E+02</totfact>
</mgrwt>
</event>
<event>
 4    1  0.6705655E-006  0.8221652E+03  0.7818608E-02  0.9528477E-01
         -2   -1    0    0    0  501 -0.00000000000E+00  0.00000000000E+00  0.26404051853E+03  0.26404051854E+03  0.25500000000E-02 0. -1.
          2   -1    0    0  501    0  0.00000000000E+00 -0.00000000000E+00 -0.64001123545E+03  0.64001123545E+03  0.25500000000E-02 0.  1.
   -5000001    1    1    2    0    0  0.19223484807E+03  0.25401242733E+03 -0.11013603613E+03  0.41965044562E+03  0.25000000000E+03 0.  0.
    5000001    1    1    2    0    0 -0.19223484807E+03 -0.25401242733E+03 -0.26583468078E+03  0.48440130838E+03  0.25000000000E+03 0.  0.
<mgrwt>
<rscale>  0 0.82216519E+03</rscale>
<asrwt>0</asrwt>
<pdfrwt beam="1">  1        2 0.98463266E-01 0.82216519E+03</pdfrwt>
<pdfrwt beam="2">  1       -2 0.40621618E-01 0.82216519E+03</pdfrwt>
<totfact> 0.26437775E+02</totfact>
</mgrwt>
</event>
<event>
 4    1  0.6705655E-006  0.7104193E+03  0.7818608E-02  0.9699578E-01
         -2   -1    0    0    0  501 -0.00000000000E+00  0.00000000000E+00  0.38026707608E+03  0.38026707609E+03  0.25500000000E-02 0. -1.
          2   -1    0    0  501    0  0.00000000000E+00 -0.00000000000E+00 -0.33180335524E+03  0.33180335525E+03  0.25500000000E-02 0.  1.
   -5000001    1    1    2    0    0 -0.73797728993E+02 -0.43296990746E+02  0.26217179321E+03  0.37222947676E+03  0.25000000000E+03 0.  0.
    5000001    1    1    2    0    0  0.73797728993E+02  0.43296990746E+02 -0.21370807237E+03  0.33984095458E+03  0.25000000000E+03 0.  0.
<mgrwt>
<rscale>  0 0.71041929E+03</rscale>
<asrwt>0</asrwt>
<pdfrwt beam="1">  1        2 0.51046670E-01 0.71041929E+03</pdfrwt>
<pdfrwt beam="2">  1       -2 0.58502627E-01 0.71041929E+03</pdfrwt>
<totfact> 0.27057244E+02</totfact>
</mgrwt>
</event>
<event>
 4    1  0.6705655E-006  0.7376219E+03  0.7818608E-02  0.9654972E-01
          2   -1    0    0  501    0  0.00000000000E+00  0.00000000000E+00  0.35342205646E+04  0.35342205646E+04  0.25500000000E-02 0.  1.
         -2   -1    0    0    0  501 -0.00000000000E+00 -0.00000000000E+00 -0.38486992297E+02  0.38486992382E+02  0.25500000000E-02 0. -1.
   -5000001    1    1    2    0    0 -0.23798804537E+03  0.10266500452E+02  0.23752476746E+04  0.24002177456E+04  0.25000000000E+03 0.  0.
    5000001    1    1    2    0    0  0.23798804537E+03 -0.10266500452E+02  0.11204858978E+04  0.11724898114E+04  0.25000000000E+03 0.  0.
<mgrwt>
<rscale>  0 0.73762191E+03</rscale>
<asrwt>0</asrwt>
<pdfrwt beam="1">  1        2 0.54372627E+00 0.73762191E+03</pdfrwt>
<pdfrwt beam="2">  1       -2 0.59210754E-02 0.73762191E+03</pdfrwt>
<totfact> 0.13163709E+02</totfact>
</mgrwt>
</event>
<event>
 4    1  0.6705655E-006  0.6012328E+03  0.7818608E-02  0.9902852E-01
          2   -1    0    0  501    0  0.00000000000E+00  0.00000000000E+00  0.18934303659E+04  0.18934303659E+04  0.25500000000E-02 0.  1.
         -2   -1    0    0    0  501 -0.00000000000E+00 -0.00000000000E+00 -0.47728305106E+02  0.47728305174E+02  0.25500000000E-02 0. -1.
   -5000001    1    1    2    0    0 -0.15648173692E+03  0.56102568761E+02  0.97247016323E+03  0.10177584441E+04  0.25000000000E+03 0.  0.
    5000001    1    1    2    0    0  0.15648173692E+03 -0.56102568761E+02  0.87323189754E+03  0.92340022693E+03  0.25000000000E+03 0.  0.
<mgrwt>
<rscale>  0 0.60123281E+03</rscale>
<asrwt>0</asrwt>
<pdfrwt beam="1">  1        2 0.29129695E+00 0.60123281E+03</pdfrwt>
<pdfrwt beam="2">  1       -2 0.73428170E-02 0.60123281E+03</pdfrwt>
<totfact> 0.88962778E+02</totfact>
</mgrwt>
</event>
<event>
 4    1  0.6705655E-006  0.5307320E+03  0.7818608E-02  0.1006055E+00
          2   -1    0    0  501    0  0.00000000000E+00  0.00000000000E+00  0.99265053798E+03  0.99265053799E+03  0.25500000000E-02 0.  1.
         -2   -1    0    0    0  501 -0.00000000000E+00 -0.00000000000E+00 -0.70940485369E+02  0.70940485414E+02  0.25500000000E-02 0. -1.
   -5000001    1    1    2    0    0 -0.47917959716E+02 -0.73981543484E+02  0.43633467063E+03  0.51054612370E+03  0.25000000000E+03 0.  0.
    5000001    1    1    2    0    0  0.47917959716E+02  0.73981543484E+02  0.48537538199E+03  0.55304489970E+03  0.25000000000E+03 0.  0.
<mgrwt>
<rscale>  0 0.53073199E+03</rscale>
<asrwt>0</asrwt>
<pdfrwt beam="1">  1        2 0.15271545E+00 0.53073199E+03</pdfrwt>
<pdfrwt beam="2">  1       -2 0.10913922E-01 0.53073199E+03</pdfrwt>
<totfact> 0.15259216E+03</totfact>
</mgrwt>
</event>
<event>
 4    1  0.6705655E-006  0.1021632E+04  0.7818608E-02  0.9285132E-01
         -2   -1    0    0    0  501 -0.00000000000E+00  0.00000000000E+00  0.16131411704E+03  0.16131411706E+03  0.25500000000E-02 0. -1.
          2   -1    0    0  501    0  0.00000000000E+00 -0.00000000000E+00 -0.16175467110E+04  0.16175467110E+04  0.25500000000E-02 0.  1.
   -5000001    1    1    2    0    0 -0.72330830680E+02  0.36830898723E+03 -0.31041145471E+03  0.54748381744E+03  0.25000000000E+03 0.  0.
    5000001    1    1    2    0    0  0.72330830680E+02 -0.36830898723E+03 -0.11458211393E+04  0.12313770106E+04  0.25000000000E+03 0.  0.
<mgrwt>
<rscale>  0 0.10216323E+04</rscale>
<asrwt>0</asrwt>
<pdfrwt beam="1">  1        2 0.24885333E+00 0.10216323E+04</pdfrwt>
<pdfrwt beam="2">  1       -2 0.24817558E-01 0.10216323E+04</pdfrwt>
<totfact> 0.15802506E+02</totfact>
</mgrwt>
</event>
<event>
 4    1  0.6705655E-006  0.6925215E+03  0.7818608E-02  0.9730108E-01
          2   -1    0    0  501    0  0.00000000000E+00  0.00000000000E+00  0.26649075317E+03  0.26649075318E+03  0.25500000000E-02 0.  1.
         -2   -1    0    0    0  501 -0.00000000000E+00 -0.00000000000E+00 -0.44990874091E+03  0.44990874092E+03  0.25500000000E-02 0. -1.
   -5000001    1    1    2    0    0  0.17234303383E+03 -0.71410942645E+02 -0.24720776479E+03  0.39801171215E+03  0.25000000000E+03 0.  0.
    5000001    1    1    2    0    0 -0.17234303383E+03  0.71410942645E+02  0.63789777043E+02  0.31838778195E+03  0.25000000000E+03 0.  0.
<mgrwt>
<rscale>  0 0.69252154E+03</rscale>
<asrwt>0</asrwt>
<pdfrwt beam="1">  1        2 0.40998577E-01 0.69252154E+03</pdfrwt>
<pdfrwt beam="2">  1       -2 0.69216730E-01 0.69252154E+03</pdfrwt>
<totfact> 0.24110090E+02</totfact>
</mgrwt>
</event>
<event>
 4    1  0.6705655E-006  0.9695447E+03  0.7818608E-02  0.9342593E-01
          2   -1    0    0  501    0  0.00000000000E+00  0.00000000000E+00  0.75625028612E+03  0.75625028612E+03  0.25500000000E-02 0.  1.
         -2   -1    0    0    0  501 -0.00000000000E+00 -0.00000000000E+00 -0.31074927281E+03  0.31074927282E+03  0.25500000000E-02 0. -1.
   -5000001    1    1    2    0    0  0.88853478146E+02 -0.39756960719E+03  0.13369914319E+03  0.49631844015E+03  0.25000000000E+03 0.  0.
    5000001    1    1    2    0    0 -0.88853478146E+02  0.39756960719E+03  0.31180187011E+03  0.57068111879E+03  0.25000000000E+03 0.  0.
<mgrwt>
<rscale>  0 0.96954469E+03</rscale>
<asrwt>0</asrwt>
<pdfrwt beam="1">  1        2 0.11634620E+00 0.96954469E+03</pdfrwt>
<pdfrwt beam="2">  1       -2 0.47807581E-01 0.96954469E+03</pdfrwt>
<totfact> 0.15376588E+02</totfact>
</mgrwt>
</event>
<event>
 4    1  0.6705655E-006  0.5945128E+03  0.7818608E-02  0.9916856E-01
          2   -1    0    0  501    0  0.00000000000E+00  0.00000000000E+00  0.93079685660E+03  0.93079685660E+03  0.25500000000E-02 0.  1.
         -2   -1    0    0    0  501 -0.00000000000E+00 -0.00000000000E+00 -0.94930895844E+02  0.94930895878E+02  0.25500000000E-02 0. -1.
   -5000001    1    1    2    0    0  0.24632446290E+02  0.13521095224E+03  0.27386453179E+03  0.39546243916E+03  0.25000000000E+03 0.  0.
    5000001    1    1    2    0    0 -0.24632446290E+02 -0.13521095224E+03  0.56200142896E+03  0.63026531332E+03  0.25000000000E+03 0.  0.
<mgrwt>
<rscale>  0 0.59451284E+03</rscale>
<asrwt>0</asrwt>
<pdfrwt beam="1">  1        2 0.14319951E+00 0.59451284E+03</pdfrwt>
<pdfrwt beam="2">  1       -2 0.14604754E-01 0.59451284E+03</pdfrwt>
<totfact> 0.10318372E+03</totfact>
</mgrwt>
</event>
<event>
 4    1  0.6705655E-006  0.9516917E+03  0.7818608E-02  0.9363175E-01
          2   -1    0    0  501    0  0.00000000000E+00  0.00000000000E+00  0.55397988408E+03  0.55397988409E+03  0.25500000000E-02 0.  1.
         -2   -1    0    0    0  501 -0.00000000000E+00 -0.00000000000E+00 -0.40873189824E+03  0.40873189825E+03  0.25500000000E-02 0. -1.
   -5000001    1    1    2    0    0  0.24364906194E+03 -0.31187712946E+03 -0.13787876688E+02  0.46831860395E+03  0.25000000000E+03 0.  0.
    5000001    1    1    2    0    0 -0.24364906194E+03  0.31187712946E+03  0.15903586253E+03  0.49439317838E+03  0.25000000000E+03 0.  0.
<mgrwt>
<rscale>  0 0.95169165E+03</rscale>
<asrwt>0</asrwt>
<pdfrwt beam="1">  1        2 0.85227674E-01 0.95169165E+03</pdfrwt>
<pdfrwt beam="2">  1       -2 0.62881831E-01 0.95169165E+03</pdfrwt>
<totfact> 0.12813420E+02</totfact>
</mgrwt>
</event>
<event>
 4    1  0.6705655E-006  0.6966473E+03  0.7818608E-02  0.9722983E-01
         -2   -1    0    0    0  501 -0.00000000000E+00  0.00000000000E+00  0.77339736383E+02  0.77339736425E+02  0.25500000000E-02 0. -1.
          2   -1    0    0  501    0  0.00000000000E+00 -0.00000000000E+00 -0.15687845023E+04  0.15687845023E+04  0.25500000000E-02 0.  1.
   -5000001    1    1    2    0    0  0.17544594000E+03 -0.61087732275E+02 -0.37725488600E+03  0.48921798608E+03  0.25000000000E+03 0.  0.
    5000001    1    1    2    0    0 -0.17544594000E+03  0.61087732275E+02 -0.11141898800E+04  0.11569062527E+04  0.25000000000E+03 0.  0.
<mgrwt>
<rscale>  0 0.69664734E+03</rscale>
<asrwt>0</asrwt>
<pdfrwt beam="1">  1        2 0.24135144E+00 0.69664734E+03</pdfrwt>
<pdfrwt beam="2">  1       -2 0.11898422E-01 0.69664734E+03</pdfrwt>
<totfact> 0.60919304E+02</totfact>
</mgrwt>
</event>
<event>
 4    1  0.6705655E-006  0.6377674E+03  0.7818608E-02  0.9830007E-01
         -2   -1    0    0    0  501 -0.00000000000E+00  0.00000000000E+00  0.53227030825E+02  0.53227030886E+02  0.25500000000E-02 0. -1.
          2   -1    0    0  501    0  0.00000000000E+00 -0.00000000000E+00 -0.19104356322E+04  0.19104356322E+04  0.25500000000E-02 0.  1.
   -5000001    1    1    2    0    0  0.68555705373E+02 -0.15887272764E+03 -0.12246717205E+04  0.12618483472E+04  0.25000000000E+03 0.  0.
    5000001    1    1    2    0    0 -0.68555705373E+02  0.15887272764E+03 -0.63253688091E+03  0.70181431593E+03  0.25000000000E+03 0.  0.
<mgrwt>
<rscale>  0 0.63776741E+03</rscale>
<asrwt>0</asrwt>
<pdfrwt beam="1">  1        2 0.29391312E+00 0.63776741E+03</pdfrwt>
<pdfrwt beam="2">  1       -2 0.81887754E-02 0.63776741E+03</pdfrwt>
<totfact> 0.73045537E+02</totfact>
</mgrwt>
</event>
