<event>
 4    1  0.2581031E-004  0.3806862E+03  0.7818608E-02  0.1050680E+00
         -2   -1    0    0    0  501 -0.00000000000E+00  0.00000000000E+00  0.89046171577E+01  0.89046175228E+01  0.25500000000E-02 0. -1.
          2   -1    0    0  501    0  0.00000000000E+00 -0.00000000000E+00 -0.40687317356E+04  0.40687317356E+04  0.25500000000E-02 0.  1.
    5000001    1    1    2    0    0 -0.97932814171E+02  0.52756127020E+02 -0.10883285055E+04  0.11013455320E+04  0.12700000000E+03 0.  0.
   -5000001    1    1    2    0    0  0.97932814171E+02 -0.52756127020E+02 -0.29714986130E+04  0.29762908211E+04  0.12700000000E+03 0.  0.
<mgrwt>
<rscale>  0 0.38068622E+03</rscale>
<asrwt>0</asrwt>
<pdfrwt beam="1">  1        2 0.58124620E+00 0.38068622E+03</pdfrwt>
<pdfrwt beam="2">  1       -2 0.12720908E-02 0.38068622E+03</pdfrwt>
<totfact> 0.96013636E+02</totfact>
</mgrwt>
</event>
<event>
 4    1  0.2581031E-004  0.5423246E+03  0.7818608E-02  0.1003286E+00
         -2   -1    0    0    0  501 -0.00000000000E+00  0.00000000000E+00  0.14248013659E+03  0.14248013661E+03  0.25500000000E-02 0. -1.
          2   -1    0    0  501    0  0.00000000000E+00 -0.00000000000E+00 -0.51606480775E+03  0.51606480776E+03  0.25500000000E-02 0.  1.
    5000001    1    1    2    0    0 -0.22974824151E+03  0.37825720202E+02 -0.11826291020E+03  0.29039654873E+03  0.12700000000E+03 0.  0.
   -5000001    1    1    2    0    0  0.22974824151E+03 -0.37825720202E+02 -0.25532176096E+03  0.36814839563E+03  0.12700000000E+03 0.  0.
<mgrwt>
<rscale>  0 0.54232457E+03</rscale>
<asrwt>0</asrwt>
<pdfrwt beam="1">  1        2 0.73723543E-01 0.54232457E+03</pdfrwt>
<pdfrwt beam="2">  1       -2 0.20354305E-01 0.54232457E+03</pdfrwt>
<totfact> 0.13385548E+03</totfact>
</mgrwt>
</event>
<event>
 4    1  0.2581031E-004  0.5255021E+03  0.7818608E-02  0.1007329E+00
         -2   -1    0    0    0  501 -0.00000000000E+00  0.00000000000E+00  0.60802338225E+03  0.60802338226E+03  0.25500000000E-02 0. -1.
          2   -1    0    0  501    0  0.00000000000E+00 -0.00000000000E+00 -0.11354517037E+03  0.11354517040E+03  0.25500000000E-02 0.  1.
    5000001    1    1    2    0    0 -0.50992772012E+02 -0.22029181715E+03  0.18930178781E+03  0.32108085332E+03  0.12700000000E+03 0.  0.
   -5000001    1    1    2    0    0  0.50992772012E+02  0.22029181715E+03  0.30517642408E+03  0.40048769933E+03  0.12700000000E+03 0.  0.
<mgrwt>
<rscale>  0 0.52550212E+03</rscale>
<asrwt>0</asrwt>
<pdfrwt beam="1">  1        2 0.16220738E-01 0.52550212E+03</pdfrwt>
<pdfrwt beam="2">  1       -2 0.86860485E-01 0.52550212E+03</pdfrwt>
<totfact> 0.42238464E+02</totfact>
</mgrwt>
</event>
<event>
 4    1  0.2581031E-004  0.3986362E+03  0.7818608E-02  0.1044253E+00
         -2   -1    0    0    0  501 -0.00000000000E+00  0.00000000000E+00  0.16745450853E+02  0.16745451048E+02  0.25500000000E-02 0. -1.
          2   -1    0    0  501    0  0.00000000000E+00 -0.00000000000E+00 -0.23724480756E+04  0.23724480756E+04  0.25500000000E-02 0.  1.
    5000001    1    1    2    0    0 -0.11102326536E+03  0.99391692000E+02 -0.95409213470E+03  0.97397416567E+03  0.12700000000E+03 0.  0.
   -5000001    1    1    2    0    0  0.11102326536E+03 -0.99391692000E+02 -0.14016104900E+04  0.14152193610E+04  0.12700000000E+03 0.  0.
<mgrwt>
<rscale>  0 0.39863624E+03</rscale>
<asrwt>0</asrwt>
<pdfrwt beam="1">  1        2 0.33892094E+00 0.39863624E+03</pdfrwt>
<pdfrwt beam="2">  1       -2 0.23922088E-02 0.39863624E+03</pdfrwt>
<totfact> 0.34240837E+03</totfact>
</mgrwt>
</event>
<event>
 4    1  0.2581031E-004  0.7190010E+03  0.7818608E-02  0.9685279E-01
          2   -1    0    0  501    0  0.00000000000E+00  0.00000000000E+00  0.99788177746E+03  0.99788177747E+03  0.25500000000E-02 0.  1.
         -2   -1    0    0    0  501 -0.00000000000E+00 -0.00000000000E+00 -0.12951495197E+03  0.12951495200E+03  0.25500000000E-02 0. -1.
    5000001    1    1    2    0    0 -0.17785123567E+03  0.28422322257E+03  0.39276588278E+03  0.53179689822E+03  0.12700000000E+03 0.  0.
   -5000001    1    1    2    0    0  0.17785123567E+03 -0.28422322257E+03  0.47560094271E+03  0.59559983124E+03  0.12700000000E+03 0.  0.
<mgrwt>
<rscale>  0 0.71900100E+03</rscale>
<asrwt>0</asrwt>
<pdfrwt beam="1">  1        2 0.14255455E+00 0.71900100E+03</pdfrwt>
<pdfrwt beam="2">  1       -2 0.18502135E-01 0.71900100E+03</pdfrwt>
<totfact> 0.69146605E+02</totfact>
</mgrwt>
</event>
<event>
 4    1  0.2581031E-004  0.3869239E+03  0.7818608E-02  0.1048404E+00
          2   -1    0    0  501    0  0.00000000000E+00  0.00000000000E+00  0.73891033697E+03  0.73891033697E+03  0.25500000000E-02 0.  1.
         -2   -1    0    0    0  501 -0.00000000000E+00 -0.00000000000E+00 -0.50652327410E+02  0.50652327474E+02  0.25500000000E-02 0. -1.
    5000001    1    1    2    0    0 -0.14722912713E+01 -0.13009737280E+03  0.47904180020E+03  0.51238417266E+03  0.12700000000E+03 0.  0.
   -5000001    1    1    2    0    0  0.14722912713E+01  0.13009737280E+03  0.20921620936E+03  0.27717849179E+03  0.12700000000E+03 0.  0.
<mgrwt>
<rscale>  0 0.38692391E+03</rscale>
<asrwt>0</asrwt>
<pdfrwt beam="1">  1        2 0.10555862E+00 0.38692391E+03</pdfrwt>
<pdfrwt beam="2">  1       -2 0.72360471E-02 0.38692391E+03</pdfrwt>
<totfact> 0.47874796E+03</totfact>
</mgrwt>
</event>
<event>
 4    1  0.2581031E-004  0.4845524E+03  0.7818608E-02  0.1017891E+00
         -2   -1    0    0    0  501 -0.00000000000E+00  0.00000000000E+00  0.67726248353E+02  0.67726248401E+02  0.25500000000E-02 0.  1.
          2   -1    0    0  501    0  0.00000000000E+00 -0.00000000000E+00 -0.86669135649E+03  0.86669135650E+03  0.25500000000E-02 0. -1.
    5000001    1    1    2    0    0  0.84012905152E+02  0.81944362791E+02 -0.72672087016E+03  0.74701089011E+03  0.12700000000E+03 0.  0.
   -5000001    1    1    2    0    0 -0.84012905152E+02 -0.81944362791E+02 -0.72244237984E+02  0.18740671479E+03  0.12700000000E+03 0.  0.
<mgrwt>
<rscale>  0 0.48455239E+03</rscale>
<asrwt>0</asrwt>
<pdfrwt beam="1">  1        2 0.12381304E+00 0.48455239E+03</pdfrwt>
<pdfrwt beam="2">  1       -2 0.96751789E-02 0.48455239E+03</pdfrwt>
<totfact> 0.24743704E+03</totfact>
</mgrwt>
</event>
<event>
 4    1  0.2581031E-004  0.4621882E+03  0.7818608E-02  0.1024148E+00
         -2   -1    0    0    0  501 -0.00000000000E+00  0.00000000000E+00  0.55931040406E+02  0.55931040464E+02  0.25500000000E-02 0. -1.
          2   -1    0    0  501    0  0.00000000000E+00 -0.00000000000E+00 -0.95482743959E+03  0.95482743959E+03  0.25500000000E-02 0.  1.
    5000001    1    1    2    0    0 -0.25728830911E+02  0.19038336849E+03 -0.49138263782E+03  0.54267273424E+03  0.12700000000E+03 0.  0.
   -5000001    1    1    2    0    0  0.25728830911E+02 -0.19038336849E+03 -0.40751376137E+03  0.46808574582E+03  0.12700000000E+03 0.  0.
<mgrwt>
<rscale>  0 0.46218824E+03</rscale>
<asrwt>0</asrwt>
<pdfrwt beam="1">  1        2 0.13640391E+00 0.46218824E+03</pdfrwt>
<pdfrwt beam="2">  1       -2 0.79901492E-02 0.46218824E+03</pdfrwt>
<totfact> 0.29510405E+03</totfact>
</mgrwt>
</event>
<event>
 4    1  0.2581031E-004  0.3722196E+03  0.7818608E-02  0.1053847E+00
         -2   -1    0    0    0  501 -0.00000000000E+00  0.00000000000E+00  0.84620851831E+03  0.84620851832E+03  0.25500000000E-02 0. -1.
          2   -1    0    0  501    0  0.00000000000E+00 -0.00000000000E+00 -0.40931825296E+02  0.40931825375E+02  0.25500000000E-02 0.  1.
    5000001    1    1    2    0    0  0.10215212464E+03  0.37190229790E+02  0.20770054573E+03  0.26662086650E+03  0.12700000000E+03 0.  0.
   -5000001    1    1    2    0    0 -0.10215212464E+03 -0.37190229790E+02  0.59757614729E+03  0.62051947719E+03  0.12700000000E+03 0.  0.
<mgrwt>
<rscale>  0 0.37221961E+03</rscale>
<asrwt>0</asrwt>
<pdfrwt beam="1">  1        2 0.58474039E-02 0.37221961E+03</pdfrwt>
<pdfrwt beam="2">  1       -2 0.12088693E+00 0.37221961E+03</pdfrwt>
<totfact> 0.70161417E+02</totfact>
</mgrwt>
</event>
<event>
 4    1  0.2581031E-004  0.1303994E+04  0.7818608E-02  0.9026404E-01
          2   -1    0    0  501    0  0.00000000000E+00  0.00000000000E+00  0.42584263504E+03  0.42584263505E+03  0.25500000000E-02 0.  1.
         -2   -1    0    0    0  501 -0.00000000000E+00 -0.00000000000E+00 -0.99825632713E+03  0.99825632714E+03  0.25500000000E-02 0. -1.
    5000001    1    1    2    0    0 -0.62799337473E+03  0.73749159680E+02 -0.39070990973E+03  0.75405427578E+03  0.12700000000E+03 0.  0.
   -5000001    1    1    2    0    0  0.62799337473E+03 -0.73749159680E+02 -0.18170378236E+03  0.67004468640E+03  0.12700000000E+03 0.  0.
<mgrwt>
<rscale>  0 0.13039940E+04</rscale>
<asrwt>0</asrwt>
<pdfrwt beam="1">  1        2 0.60834662E-01 0.13039940E+04</pdfrwt>
<pdfrwt beam="2">  1       -2 0.14260805E+00 0.13039940E+04</pdfrwt>
<totfact> 0.27048980E+01</totfact>
</mgrwt>
</event>
<event>
 4    1  0.2581031E-004  0.2428052E+04  0.7818608E-02  0.8429076E-01
         -2   -1    0    0    0  501 -0.00000000000E+00  0.00000000000E+00  0.49451717553E+03  0.49451717554E+03  0.25500000000E-02 0. -1.
          2   -1    0    0  501    0  0.00000000000E+00 -0.00000000000E+00 -0.29803991618E+04  0.29803991618E+04  0.25500000000E-02 0.  1.
    5000001    1    1    2    0    0  0.92746521677E+03 -0.57295396060E+03 -0.50030897960E+03  0.12061948617E+04  0.12700000000E+03 0.  0.
   -5000001    1    1    2    0    0 -0.92746521677E+03  0.57295396060E+03 -0.19855730066E+04  0.22687214756E+04  0.12700000000E+03 0.  0.
<mgrwt>
<rscale>  0 0.24280515E+04</rscale>
<asrwt>0</asrwt>
<pdfrwt beam="1">  1        2 0.42577130E+00 0.24280515E+04</pdfrwt>
<pdfrwt beam="2">  1       -2 0.70645312E-01 0.24280515E+04</pdfrwt>
<totfact> 0.39738267E+00</totfact>
</mgrwt>
</event>
<event>
 4    1  0.2581031E-004  0.3185462E+03  0.7818608E-02  0.1076320E+00
         -2   -1    0    0    0  501 -0.00000000000E+00  0.00000000000E+00  0.73103359971E+02  0.73103360016E+02  0.25500000000E-02 0. -1.
          2   -1    0    0  501    0  0.00000000000E+00 -0.00000000000E+00 -0.34701443776E+03  0.34701443777E+03  0.25500000000E-02 0.  1.
    5000001    1    1    2    0    0 -0.39248264530E+02  0.81947123701E+02 -0.95602099948E+02  0.18309702036E+03  0.12700000000E+03 0.  0.
   -5000001    1    1    2    0    0  0.39248264530E+02 -0.81947123701E+02 -0.17830897785E+03  0.23702077743E+03  0.12700000000E+03 0.  0.
<mgrwt>
<rscale>  0 0.31854621E+03</rscale>
<asrwt>0</asrwt>
<pdfrwt beam="1">  1        2 0.49573490E-01 0.31854621E+03</pdfrwt>
<pdfrwt beam="2">  1       -2 0.10443337E-01 0.31854621E+03</pdfrwt>
<totfact> 0.62606882E+03</totfact>
</mgrwt>
</event>
<event>
 4    1  0.2581031E-004  0.3283125E+03  0.7818608E-02  0.1071886E+00
         -2   -1    0    0    0  501 -0.00000000000E+00  0.00000000000E+00  0.37133495119E+02  0.37133495206E+02  0.25500000000E-02 0. -1.
          2   -1    0    0  501    0  0.00000000000E+00 -0.00000000000E+00 -0.72568658488E+03  0.72568658489E+03  0.25500000000E-02 0.  1.
    5000001    1    1    2    0    0  0.81928909350E+02  0.19887229731E+02 -0.20274708452E+03  0.25365967038E+03  0.12700000000E+03 0.  0.
   -5000001    1    1    2    0    0 -0.81928909350E+02 -0.19887229731E+02 -0.48580600524E+03  0.50916040972E+03  0.12700000000E+03 0.  0.
<mgrwt>
<rscale>  0 0.32831253E+03</rscale>
<asrwt>0</asrwt>
<pdfrwt beam="1">  1        2 0.10366950E+00 0.32831253E+03</pdfrwt>
<pdfrwt beam="2">  1       -2 0.53047854E-02 0.32831253E+03</pdfrwt>
<totfact> 0.78839822E+03</totfact>
</mgrwt>
</event>
<event>
 4    1  0.2581031E-004  0.6355070E+03  0.7818608E-02  0.9834361E-01
          2   -1    0    0  501    0  0.00000000000E+00  0.00000000000E+00  0.18278697377E+03  0.18278697378E+03  0.25500000000E-02 0.  1.
         -2   -1    0    0    0  501 -0.00000000000E+00 -0.00000000000E+00 -0.55237681438E+03  0.55237681439E+03  0.25500000000E-02 0. -1.
    5000001    1    1    2    0    0 -0.47330809518E+02  0.14596152608E+03 -0.47119314387E+03  0.51156324287E+03  0.12700000000E+03 0.  0.
   -5000001    1    1    2    0    0  0.47330809518E+02 -0.14596152608E+03  0.10160330326E+03  0.22360054530E+03  0.12700000000E+03 0.  0.
<mgrwt>
<rscale>  0 0.63550700E+03</rscale>
<asrwt>0</asrwt>
<pdfrwt beam="1">  1        2 0.26112425E-01 0.63550700E+03</pdfrwt>
<pdfrwt beam="2">  1       -2 0.78910973E-01 0.63550700E+03</pdfrwt>
<totfact> 0.30017402E+02</totfact>
</mgrwt>
</event>
<event>
 4    1  0.2581031E-004  0.4008766E+03  0.7818608E-02  0.1043477E+00
          2   -1    0    0  501    0  0.00000000000E+00  0.00000000000E+00  0.41503344066E+03  0.41503344067E+03  0.25500000000E-02 0.  1.
         -2   -1    0    0    0  501 -0.00000000000E+00 -0.00000000000E+00 -0.96800672801E+02  0.96800672834E+02  0.25500000000E-02 0. -1.
    5000001    1    1    2    0    0  0.12997744594E+03  0.47716143143E+02  0.69964549166E+02  0.20048691955E+03  0.12700000000E+03 0.  0.
   -5000001    1    1    2    0    0 -0.12997744594E+03 -0.47716143143E+02  0.24826821869E+03  0.31134719395E+03  0.12700000000E+03 0.  0.
<mgrwt>
<rscale>  0 0.40087662E+03</rscale>
<asrwt>0</asrwt>
<pdfrwt beam="1">  1        2 0.59290492E-01 0.40087662E+03</pdfrwt>
<pdfrwt beam="2">  1       -2 0.13828667E-01 0.40087662E+03</pdfrwt>
<totfact> 0.32810675E+03</totfact>
</mgrwt>
</event>
<event>
 4    1  0.2581031E-004  0.3782445E+03  0.7818608E-02  0.1051585E+00
          2   -1    0    0  501    0  0.00000000000E+00  0.00000000000E+00  0.92206843718E+03  0.92206843719E+03  0.25500000000E-02 0.  1.
         -2   -1    0    0    0  501 -0.00000000000E+00 -0.00000000000E+00 -0.38790204191E+02  0.38790204275E+02  0.25500000000E-02 0. -1.
    5000001    1    1    2    0    0 -0.82557702367E+02 -0.91010678583E+02  0.27048350180E+03  0.32309293180E+03  0.12700000000E+03 0.  0.
   -5000001    1    1    2    0    0  0.82557702367E+02  0.91010678583E+02  0.61279473119E+03  0.63776570966E+03  0.12700000000E+03 0.  0.
<mgrwt>
<rscale>  0 0.37824449E+03</rscale>
<asrwt>0</asrwt>
<pdfrwt beam="1">  1        2 0.13172404E+00 0.37824449E+03</pdfrwt>
<pdfrwt beam="2">  1       -2 0.55414587E-02 0.37824449E+03</pdfrwt>
<totfact> 0.54652728E+03</totfact>
</mgrwt>
</event>
<event>
 4    1  0.2581031E-004  0.8490204E+03  0.7818608E-02  0.9491653E-01
          2   -1    0    0  501    0  0.00000000000E+00  0.00000000000E+00  0.20383075418E+04  0.20383075418E+04  0.25500000000E-02 0.  1.
         -2   -1    0    0    0  501 -0.00000000000E+00 -0.00000000000E+00 -0.88411052638E+02  0.88411052675E+02  0.25500000000E-02 0. -1.
    5000001    1    1    2    0    0 -0.37833661202E+03  0.11660090086E+03  0.11896344571E+04  0.12601958195E+04  0.12700000000E+03 0.  0.
   -5000001    1    1    2    0    0  0.37833661202E+03 -0.11660090086E+03  0.76026203208E+03  0.86652277494E+03  0.12700000000E+03 0.  0.
<mgrwt>
<rscale>  0 0.84902041E+03</rscale>
<asrwt>0</asrwt>
<pdfrwt beam="1">  1        2 0.29118673E+00 0.84902041E+03</pdfrwt>
<pdfrwt beam="2">  1       -2 0.12630153E-01 0.84902041E+03</pdfrwt>
<totfact> 0.36336370E+02</totfact>
</mgrwt>
</event>
<event>
 4    1  0.2581031E-004  0.5487467E+03  0.7818608E-02  0.1001784E+00
         -2   -1    0    0    0  501 -0.00000000000E+00  0.00000000000E+00  0.98336976600E+02  0.98336976633E+02  0.25500000000E-02 0. -1.
          2   -1    0    0  501    0  0.00000000000E+00 -0.00000000000E+00 -0.76553838843E+03  0.76553838843E+03  0.25500000000E-02 0.  1.
    5000001    1    1    2    0    0 -0.12042056732E+03  0.34290768240E+02 -0.66184545067E+03  0.68545267553E+03  0.12700000000E+03 0.  0.
   -5000001    1    1    2    0    0  0.12042056732E+03 -0.34290768240E+02 -0.53559611604E+01  0.17842268954E+03  0.12700000000E+03 0.  0.
<mgrwt>
<rscale>  0 0.54874668E+03</rscale>
<asrwt>0</asrwt>
<pdfrwt beam="1">  1        2 0.10936262E+00 0.54874668E+03</pdfrwt>
<pdfrwt beam="2">  1       -2 0.14048140E-01 0.54874668E+03</pdfrwt>
<totfact> 0.15748467E+03</totfact>
</mgrwt>
</event>
<event>
 4    1  0.2581031E-004  0.4374791E+03  0.7818608E-02  0.1031523E+00
         -2   -1    0    0    0  501 -0.00000000000E+00  0.00000000000E+00  0.17757322522E+03  0.17757322524E+03  0.25500000000E-02 0. -1.
          2   -1    0    0  501    0  0.00000000000E+00 -0.00000000000E+00 -0.26944933362E+03  0.26944933363E+03  0.25500000000E-02 0.  1.
    5000001    1    1    2    0    0  0.16064977083E+03  0.33444860429E+02 -0.11666564125E+03  0.23804785108E+03  0.12700000000E+03 0.  0.
   -5000001    1    1    2    0    0 -0.16064977083E+03 -0.33444860429E+02  0.24789532851E+02  0.20897470779E+03  0.12700000000E+03 0.  0.
<mgrwt>
<rscale>  0 0.43747908E+03</rscale>
<asrwt>0</asrwt>
<pdfrwt beam="1">  1        2 0.38492762E-01 0.43747908E+03</pdfrwt>
<pdfrwt beam="2">  1       -2 0.25367604E-01 0.43747908E+03</pdfrwt>
<totfact> 0.18608758E+03</totfact>
</mgrwt>
</event>
<event>
 4    1  0.2581031E-004  0.3721720E+03  0.7818608E-02  0.1053866E+00
          2   -1    0    0  501    0  0.00000000000E+00  0.00000000000E+00  0.10776967361E+04  0.10776967361E+04  0.25500000000E-02 0.  1.
         -2   -1    0    0    0  501 -0.00000000000E+00 -0.00000000000E+00 -0.32131480213E+02  0.32131480314E+02  0.25500000000E-02 0. -1.
    5000001    1    1    2    0    0  0.90403548293E+02 -0.10144909060E+03  0.54024008992E+03  0.57136072169E+03  0.12700000000E+03 0.  0.
   -5000001    1    1    2    0    0 -0.90403548293E+02  0.10144909060E+03  0.50532516600E+03  0.53846749477E+03  0.12700000000E+03 0.  0.
<mgrwt>
<rscale>  0 0.37217196E+03</rscale>
<asrwt>0</asrwt>
<pdfrwt beam="1">  1        2 0.15395665E+00 0.37217196E+03</pdfrwt>
<pdfrwt beam="2">  1       -2 0.45902123E-02 0.37217196E+03</pdfrwt>
<totfact> 0.58844555E+03</totfact>
</mgrwt>
</event>
<event>
 4    1  0.2581031E-004  0.6110513E+03  0.7818608E-02  0.9882740E-01
          2   -1    0    0  501    0  0.00000000000E+00  0.00000000000E+00  0.41674352519E+03  0.41674352520E+03  0.25500000000E-02 0.  1.
         -2   -1    0    0    0  501 -0.00000000000E+00 -0.00000000000E+00 -0.22398891846E+03  0.22398891847E+03  0.25500000000E-02 0. -1.
    5000001    1    1    2    0    0  0.24269913953E+03  0.11584207725E+03  0.23017048260E+02  0.29829690529E+03  0.12700000000E+03 0.  0.
   -5000001    1    1    2    0    0 -0.24269913953E+03 -0.11584207725E+03  0.16973755847E+03  0.34243553838E+03  0.12700000000E+03 0.  0.
<mgrwt>
<rscale>  0 0.61105133E+03</rscale>
<asrwt>0</asrwt>
<pdfrwt beam="1">  1        2 0.59534790E-01 0.61105133E+03</pdfrwt>
<pdfrwt beam="2">  1       -2 0.31998417E-01 0.61105133E+03</pdfrwt>
<totfact> 0.75335220E+02</totfact>
</mgrwt>
</event>
<event>
 4    1  0.2581031E-004  0.2999434E+03  0.7818608E-02  0.1085269E+00
          2   -1    0    0  501    0  0.00000000000E+00  0.00000000000E+00  0.61811998150E+03  0.61811998150E+03  0.25500000000E-02 0.  1.
         -2   -1    0    0    0  501 -0.00000000000E+00 -0.00000000000E+00 -0.36386958105E+02  0.36386958194E+02  0.25500000000E-02 0. -1.
    5000001    1    1    2    0    0  0.23961807150E+01 -0.52599617119E+02  0.42161145731E+03  0.44346102685E+03  0.12700000000E+03 0.  0.
   -5000001    1    1    2    0    0 -0.23961807150E+01  0.52599617119E+02  0.16012156608E+03  0.21104591284E+03  0.12700000000E+03 0.  0.
<mgrwt>
<rscale>  0 0.29994337E+03</rscale>
<asrwt>0</asrwt>
<pdfrwt beam="1">  1        2 0.88302852E-01 0.29994337E+03</pdfrwt>
<pdfrwt beam="2">  1       -2 0.51981370E-02 0.29994337E+03</pdfrwt>
<totfact> 0.97978950E+03</totfact>
</mgrwt>
</event>
<event>
 4    1  0.2581031E-004  0.2710652E+03  0.7818608E-02  0.1100672E+00
         -2   -1    0    0    0  501 -0.00000000000E+00  0.00000000000E+00  0.97934259746E+01  0.97934263065E+01  0.25500000000E-02 0. -1.
          2   -1    0    0  501    0  0.00000000000E+00 -0.00000000000E+00 -0.18756545560E+04  0.18756545560E+04  0.25500000000E-02 0.  1.
    5000001    1    1    2    0    0 -0.14123647363E+02 -0.44690954715E+02 -0.97871445306E+03  0.98803225629E+03  0.12700000000E+03 0.  0.
   -5000001    1    1    2    0    0  0.14123647363E+02  0.44690954715E+02 -0.88714667700E+03  0.89741572605E+03  0.12700000000E+03 0.  0.
<mgrwt>
<rscale>  0 0.27106519E+03</rscale>
<asrwt>0</asrwt>
<pdfrwt beam="1">  1        2 0.26795042E+00 0.27106519E+03</pdfrwt>
<pdfrwt beam="2">  1       -2 0.13990621E-02 0.27106519E+03</pdfrwt>
<totfact> 0.13266985E+04</totfact>
</mgrwt>
</event>
<event>
 4    1  0.2581031E-004  0.3707295E+03  0.7818608E-02  0.1054414E+00
         -2   -1    0    0    0  501 -0.00000000000E+00  0.00000000000E+00  0.71794366168E+03  0.71794366169E+03  0.25500000000E-02 0. -1.
          2   -1    0    0  501    0  0.00000000000E+00 -0.00000000000E+00 -0.47859037189E+02  0.47859037257E+02  0.25500000000E-02 0.  1.
    5000001    1    1    2    0    0  0.89832230622E+02 -0.10010624649E+03  0.35948377218E+03  0.40428785872E+03  0.12700000000E+03 0.  0.
   -5000001    1    1    2    0    0 -0.89832230622E+02  0.10010624649E+03  0.31060085231E+03  0.36151484022E+03  0.12700000000E+03 0.  0.
<mgrwt>
<rscale>  0 0.37072951E+03</rscale>
<asrwt>0</asrwt>
<pdfrwt beam="1">  1        2 0.68370053E-02 0.37072951E+03</pdfrwt>
<pdfrwt beam="2">  1       -2 0.10256338E+00 0.37072951E+03</pdfrwt>
<totfact> 0.84758735E+02</totfact>
</mgrwt>
</event>
<event>
 4    1  0.2581031E-004  0.2704894E+03  0.7818608E-02  0.1101000E+00
         -2   -1    0    0    0  501 -0.00000000000E+00  0.00000000000E+00  0.27235696817E+03  0.27235696819E+03  0.25500000000E-02 0.  1.
          2   -1    0    0  501    0  0.00000000000E+00 -0.00000000000E+00 -0.67158646065E+02  0.67158646113E+02  0.25500000000E-02 0. -1.
    5000001    1    1    2    0    0 -0.54008296073E+01  0.24966203639E+02  0.53829812459E+02  0.14028231889E+03  0.12700000000E+03 0.  0.
   -5000001    1    1    2    0    0  0.54008296073E+01 -0.24966203639E+02  0.15136850965E+03  0.19923329541E+03  0.12700000000E+03 0.  0.
<mgrwt>
<rscale>  0 0.27048937E+03</rscale>
<asrwt>0</asrwt>
<pdfrwt beam="1">  1        2 0.95940923E-02 0.27048937E+03</pdfrwt>
<pdfrwt beam="2">  1       -2 0.38908138E-01 0.27048937E+03</pdfrwt>
<totfact> 0.42155606E+03</totfact>
</mgrwt>
</event>
<event>
 4    1  0.2581031E-004  0.4116044E+03  0.7818608E-02  0.1039834E+00
         -2   -1    0    0    0  501 -0.00000000000E+00  0.00000000000E+00  0.69064613334E+03  0.69064613334E+03  0.25500000000E-02 0. -1.
          2   -1    0    0  501    0  0.00000000000E+00 -0.00000000000E+00 -0.61325973734E+02  0.61325973787E+02  0.25500000000E-02 0.  1.
    5000001    1    1    2    0    0  0.11759669936E+03 -0.33268728561E+02  0.12054290176E+03  0.21353075461E+03  0.12700000000E+03 0.  0.
   -5000001    1    1    2    0    0 -0.11759669936E+03  0.33268728561E+02  0.50877725784E+03  0.53844135252E+03  0.12700000000E+03 0.  0.
<mgrwt>
<rscale>  0 0.41160441E+03</rscale>
<asrwt>0</asrwt>
<pdfrwt beam="1">  1        2 0.87608536E-02 0.41160441E+03</pdfrwt>
<pdfrwt beam="2">  1       -2 0.98663731E-01 0.41160441E+03</pdfrwt>
<totfact> 0.67498338E+02</totfact>
</mgrwt>
</event>
<event>
 4    1  0.2581031E-004  0.4544884E+03  0.7818608E-02  0.1026392E+00
         -2   -1    0    0    0  501 -0.00000000000E+00  0.00000000000E+00  0.20969164934E+03  0.20969164935E+03  0.25500000000E-02 0. -1.
          2   -1    0    0  501    0  0.00000000000E+00 -0.00000000000E+00 -0.24626596413E+03  0.24626596414E+03  0.25500000000E-02 0.  1.
    5000001    1    1    2    0    0  0.65277783746E+02 -0.64062074376E+02 -0.18357954636E+03  0.24123761785E+03  0.12700000000E+03 0.  0.
   -5000001    1    1    2    0    0 -0.65277783746E+02  0.64062074376E+02  0.14700523157E+03  0.21471999565E+03  0.12700000000E+03 0.  0.
<mgrwt>
<rscale>  0 0.45448835E+03</rscale>
<asrwt>0</asrwt>
<pdfrwt beam="1">  1        2 0.35180852E-01 0.45448835E+03</pdfrwt>
<pdfrwt beam="2">  1       -2 0.29955950E-01 0.45448835E+03</pdfrwt>
<totfact> 0.15208227E+03</totfact>
</mgrwt>
</event>
<event>
 4    1  0.2581031E-004  0.7064938E+03  0.7818608E-02  0.9706191E-01
          2   -1    0    0  501    0  0.00000000000E+00  0.00000000000E+00  0.24140502890E+04  0.24140502890E+04  0.25500000000E-02 0.  1.
         -2   -1    0    0    0  501 -0.00000000000E+00 -0.00000000000E+00 -0.51690458647E+02  0.51690458710E+02  0.25500000000E-02 0. -1.
    5000001    1    1    2    0    0  0.72215681801E+02 -0.31076731922E+03  0.14703104904E+04  0.15098785943E+04  0.12700000000E+03 0.  0.
   -5000001    1    1    2    0    0 -0.72215681801E+02  0.31076731922E+03  0.89204934002E+03  0.95586215346E+03  0.12700000000E+03 0.  0.
<mgrwt>
<rscale>  0 0.70649378E+03</rscale>
<asrwt>0</asrwt>
<pdfrwt beam="1">  1        2 0.34486445E+00 0.70649378E+03</pdfrwt>
<pdfrwt beam="2">  1       -2 0.73843485E-02 0.70649378E+03</pdfrwt>
<totfact> 0.56536219E+02</totfact>
</mgrwt>
</event>
<event>
 4    1  0.2581031E-004  0.8733869E+03  0.7818608E-02  0.9459474E-01
          2   -1    0    0  501    0  0.00000000000E+00  0.00000000000E+00  0.94939676870E+03  0.94939676871E+03  0.25500000000E-02 0.  1.
         -2   -1    0    0    0  501 -0.00000000000E+00 -0.00000000000E+00 -0.20086561644E+03  0.20086561646E+03  0.25500000000E-02 0. -1.
    5000001    1    1    2    0    0  0.19893442342E+03  0.20463366014E+03 -0.27633638959E+02  0.31359601032E+03  0.12700000000E+03 0.  0.
   -5000001    1    1    2    0    0 -0.19893442342E+03 -0.20463366014E+03  0.77616479122E+03  0.83666637485E+03  0.12700000000E+03 0.  0.
<mgrwt>
<rscale>  0 0.87338690E+03</rscale>
<asrwt>0</asrwt>
<pdfrwt beam="1">  1        2 0.13562811E+00 0.87338690E+03</pdfrwt>
<pdfrwt beam="2">  1       -2 0.28695089E-01 0.87338690E+03</pdfrwt>
<totfact> 0.33666451E+02</totfact>
</mgrwt>
</event>
<event>
 4    1  0.2581031E-004  0.3502694E+03  0.7818608E-02  0.1062505E+00
          2   -1    0    0  501    0  0.00000000000E+00  0.00000000000E+00  0.91972026130E+03  0.91972026130E+03  0.25500000000E-02 0.  1.
         -2   -1    0    0    0  501 -0.00000000000E+00 -0.00000000000E+00 -0.33349438617E+02  0.33349438715E+02  0.25500000000E-02 0. -1.
    5000001    1    1    2    0    0 -0.56939485700E+02  0.10587299685E+03  0.46927800059E+03  0.50080139609E+03  0.12700000000E+03 0.  0.
   -5000001    1    1    2    0    0  0.56939485700E+02 -0.10587299685E+03  0.41709282209E+03  0.45226830392E+03  0.12700000000E+03 0.  0.
<mgrwt>
<rscale>  0 0.35026935E+03</rscale>
<asrwt>0</asrwt>
<pdfrwt beam="1">  1        2 0.13138860E+00 0.35026935E+03</pdfrwt>
<pdfrwt beam="2">  1       -2 0.47642060E-02 0.35026935E+03</pdfrwt>
<totfact> 0.69037420E+03</totfact>
</mgrwt>
</event>
<event>
 4    1  0.2581031E-004  0.4688593E+03  0.7818608E-02  0.1022243E+00
         -2   -1    0    0    0  501 -0.00000000000E+00  0.00000000000E+00  0.11584926415E+03  0.11584926418E+03  0.25500000000E-02 0. -1.
          2   -1    0    0  501    0  0.00000000000E+00 -0.00000000000E+00 -0.47438596513E+03  0.47438596514E+03  0.25500000000E-02 0.  1.
    5000001    1    1    2    0    0 -0.64170685608E+02  0.17696467400E+03 -0.10592992162E+03  0.25056839591E+03  0.12700000000E+03 0.  0.
   -5000001    1    1    2    0    0  0.64170685608E+02 -0.17696467400E+03 -0.25260677936E+03  0.33966683340E+03  0.12700000000E+03 0.  0.
<mgrwt>
<rscale>  0 0.46885932E+03</rscale>
<asrwt>0</asrwt>
<pdfrwt beam="1">  1        2 0.67769422E-01 0.46885932E+03</pdfrwt>
<pdfrwt beam="2">  1       -2 0.16549895E-01 0.46885932E+03</pdfrwt>
<totfact> 0.20989013E+03</totfact>
</mgrwt>
</event>
<event>
 4    1  0.2581031E-004  0.3020392E+03  0.7818608E-02  0.1084226E+00
         -2   -1    0    0    0  501 -0.00000000000E+00  0.00000000000E+00  0.16693397287E+02  0.16693397481E+02  0.25500000000E-02 0. -1.
          2   -1    0    0  501    0  0.00000000000E+00 -0.00000000000E+00 -0.13662241037E+04  0.13662241037E+04  0.25500000000E-02 0.  1.
    5000001    1    1    2    0    0  0.12999882114E+02  0.80660530896E+02 -0.66709882165E+03  0.68397730666E+03  0.12700000000E+03 0.  0.
   -5000001    1    1    2    0    0 -0.12999882114E+02 -0.80660530896E+02 -0.68243188478E+03  0.69894019454E+03  0.12700000000E+03 0.  0.
<mgrwt>
<rscale>  0 0.30203922E+03</rscale>
<asrwt>0</asrwt>
<pdfrwt beam="1">  1        2 0.19517480E+00 0.30203922E+03</pdfrwt>
<pdfrwt beam="2">  1       -2 0.23847719E-02 0.30203922E+03</pdfrwt>
<totfact> 0.10913487E+04</totfact>
</mgrwt>
</event>
<event>
 4    1  0.2581031E-004  0.2689697E+03  0.7818608E-02  0.1101871E+00
          2   -1    0    0  501    0  0.00000000000E+00  0.00000000000E+00  0.13597194619E+04  0.13597194619E+04  0.25500000000E-02 0.  1.
         -2   -1    0    0    0  501 -0.00000000000E+00 -0.00000000000E+00 -0.13301402797E+02  0.13301403041E+02  0.25500000000E-02 0. -1.
    5000001    1    1    2    0    0 -0.39219017406E+02  0.60827594756E+01  0.57343187931E+03  0.58866650279E+03  0.12700000000E+03 0.  0.
   -5000001    1    1    2    0    0  0.39219017406E+02 -0.60827594756E+01  0.77298617978E+03  0.78435436214E+03  0.12700000000E+03 0.  0.
<mgrwt>
<rscale>  0 0.26896971E+03</rscale>
<asrwt>0</asrwt>
<pdfrwt beam="1">  1        2 0.19424574E+00 0.26896971E+03</pdfrwt>
<pdfrwt beam="2">  1       -2 0.19001994E-02 0.26896971E+03</pdfrwt>
<totfact> 0.15325123E+04</totfact>
</mgrwt>
</event>
<event>
 4    1  0.2581031E-004  0.8206343E+03  0.7818608E-02  0.9530621E-01
         -2   -1    0    0    0  501 -0.00000000000E+00  0.00000000000E+00  0.18125089377E+03  0.18125089379E+03  0.25500000000E-02 0. -1.
          2   -1    0    0  501    0  0.00000000000E+00 -0.00000000000E+00 -0.92887905001E+03  0.92887905001E+03  0.25500000000E-02 0.  1.
    5000001    1    1    2    0    0 -0.33194328444E+03  0.20386077539E+03 -0.34400402879E+03  0.53498909489E+03  0.12700000000E+03 0.  0.
   -5000001    1    1    2    0    0  0.33194328444E+03 -0.20386077539E+03 -0.40362412745E+03  0.57514084891E+03  0.12700000000E+03 0.  0.
<mgrwt>
<rscale>  0 0.82063429E+03</rscale>
<asrwt>0</asrwt>
<pdfrwt beam="1">  1        2 0.13269700E+00 0.82063429E+03</pdfrwt>
<pdfrwt beam="2">  1       -2 0.25892985E-01 0.82063429E+03</pdfrwt>
<totfact> 0.41964160E+02</totfact>
</mgrwt>
</event>
<event>
 4    1  0.2581031E-004  0.3800980E+03  0.7818608E-02  0.1050898E+00
         -2   -1    0    0    0  501 -0.00000000000E+00  0.00000000000E+00  0.19336267414E+02  0.19336267583E+02  0.25500000000E-02 0. -1.
          2   -1    0    0  501    0  0.00000000000E+00 -0.00000000000E+00 -0.18679214046E+04  0.18679214046E+04  0.25500000000E-02 0.  1.
    5000001    1    1    2    0    0  0.82583924409E+02  0.11134530849E+03 -0.10622269965E+04  0.10787367957E+04  0.12700000000E+03 0.  0.
   -5000001    1    1    2    0    0 -0.82583924409E+02 -0.11134530849E+03 -0.78635814068E+03  0.80852087648E+03  0.12700000000E+03 0.  0.
<mgrwt>
<rscale>  0 0.38009803E+03</rscale>
<asrwt>0</asrwt>
<pdfrwt beam="1">  1        2 0.26684580E+00 0.38009803E+03</pdfrwt>
<pdfrwt beam="2">  1       -2 0.27623251E-02 0.38009803E+03</pdfrwt>
<totfact> 0.49136123E+03</totfact>
</mgrwt>
</event>
<event>
 4    1  0.2581031E-004  0.4526579E+03  0.7818608E-02  0.1026932E+00
         -2   -1    0    0    0  501 -0.00000000000E+00  0.00000000000E+00  0.50260652982E+02  0.50260653047E+02  0.25500000000E-02 0. -1.
          2   -1    0    0  501    0  0.00000000000E+00 -0.00000000000E+00 -0.10191826590E+04  0.10191826590E+04  0.25500000000E-02 0.  1.
    5000001    1    1    2    0    0 -0.66133901562E+02 -0.65597371018E+02 -0.10044747391E+03  0.18680311302E+03  0.12700000000E+03 0.  0.
   -5000001    1    1    2    0    0  0.66133901562E+02  0.65597371018E+02 -0.86847453213E+03  0.88264019905E+03  0.12700000000E+03 0.  0.
<mgrwt>
<rscale>  0 0.45265787E+03</rscale>
<asrwt>0</asrwt>
<pdfrwt beam="1">  1        2 0.14559751E+00 0.45265787E+03</pdfrwt>
<pdfrwt beam="2">  1       -2 0.71800939E-02 0.45265787E+03</pdfrwt>
<totfact> 0.31922708E+03</totfact>
</mgrwt>
</event>
<event>
 4    1  0.2581031E-004  0.6408708E+03  0.7818608E-02  0.9824062E-01
          2   -1    0    0  501    0  0.00000000000E+00  0.00000000000E+00  0.11526855792E+04  0.11526855792E+04  0.25500000000E-02 0. -1.
         -2   -1    0    0    0  501 -0.00000000000E+00 -0.00000000000E+00 -0.89077943874E+02  0.89077943911E+02  0.25500000000E-02 0.  1.
    5000001    1    1    2    0    0 -0.21605112997E+03  0.18901713643E+03  0.65654032871E+03  0.72772231782E+03  0.12700000000E+03 0.  0.
   -5000001    1    1    2    0    0  0.21605112997E+03 -0.18901713643E+03  0.40706730661E+03  0.51404120529E+03  0.12700000000E+03 0.  0.
<mgrwt>
<rscale>  0 0.64087085E+03</rscale>
<asrwt>0</asrwt>
<pdfrwt beam="1">  1        2 0.16466937E+00 0.64087085E+03</pdfrwt>
<pdfrwt beam="2">  1       -2 0.12725421E-01 0.64087085E+03</pdfrwt>
<totfact> 0.10578748E+03</totfact>
</mgrwt>
</event>
<event>
 4    1  0.2581031E-004  0.3406845E+03  0.7818608E-02  0.1066505E+00
          2   -1    0    0  501    0  0.00000000000E+00  0.00000000000E+00  0.75947980552E+02  0.75947980595E+02  0.25500000000E-02 0.  1.
         -2   -1    0    0    0  501 -0.00000000000E+00 -0.00000000000E+00 -0.38205738561E+03  0.38205738562E+03  0.25500000000E-02 0. -1.
    5000001    1    1    2    0    0 -0.11749709545E+02 -0.95547448928E+02 -0.23394183008E+03  0.28306386300E+03  0.12700000000E+03 0.  0.
   -5000001    1    1    2    0    0  0.11749709545E+02  0.95547448928E+02 -0.72167574977E+02  0.17494150322E+03  0.12700000000E+03 0.  0.
<mgrwt>
<rscale>  0 0.34068453E+03</rscale>
<asrwt>0</asrwt>
<pdfrwt beam="1">  1        2 0.10849712E-01 0.34068453E+03</pdfrwt>
<pdfrwt beam="2">  1       -2 0.54579626E-01 0.34068453E+03</pdfrwt>
<totfact> 0.18703804E+03</totfact>
</mgrwt>
</event>
<event>
 4    1  0.2581031E-004  0.5767851E+03  0.7818608E-02  0.9954775E-01
         -2   -1    0    0    0  501 -0.00000000000E+00  0.00000000000E+00  0.43949087249E+03  0.43949087249E+03  0.25500000000E-02 0. -1.
          2   -1    0    0  501    0  0.00000000000E+00 -0.00000000000E+00 -0.18924232772E+03  0.18924232774E+03  0.25500000000E-02 0.  1.
    5000001    1    1    2    0    0 -0.21925350710E+03 -0.12561237960E+03  0.18669803375E+03  0.33887420393E+03  0.12700000000E+03 0.  0.
   -5000001    1    1    2    0    0  0.21925350710E+03  0.12561237960E+03  0.63550511014E+02  0.28985899630E+03  0.12700000000E+03 0.  0.
<mgrwt>
<rscale>  0 0.57678514E+03</rscale>
<asrwt>0</asrwt>
<pdfrwt beam="1">  1        2 0.27034619E-01 0.57678514E+03</pdfrwt>
<pdfrwt beam="2">  1       -2 0.62784409E-01 0.57678514E+03</pdfrwt>
<totfact> 0.47519145E+02</totfact>
</mgrwt>
</event>
<event>
 4    1  0.2581031E-004  0.3669216E+03  0.7818608E-02  0.1055876E+00
          2   -1    0    0  501    0  0.00000000000E+00  0.00000000000E+00  0.25882934835E+04  0.25882934835E+04  0.25500000000E-02 0.  1.
         -2   -1    0    0    0  501 -0.00000000000E+00 -0.00000000000E+00 -0.13003884442E+02  0.13003884692E+02  0.25500000000E-02 0. -1.
    5000001    1    1    2    0    0  0.10499438992E+03  0.78606630701E+02  0.14156582845E+04  0.14273822903E+04  0.12700000000E+03 0.  0.
   -5000001    1    1    2    0    0 -0.10499438992E+03 -0.78606630701E+02  0.11596313145E+04  0.11739150778E+04  0.12700000000E+03 0.  0.
<mgrwt>
<rscale>  0 0.36692162E+03</rscale>
<asrwt>0</asrwt>
<pdfrwt beam="1">  1        2 0.36975623E+00 0.36692162E+03</pdfrwt>
<pdfrwt beam="2">  1       -2 0.18576977E-02 0.36692162E+03</pdfrwt>
<totfact> 0.38870702E+03</totfact>
</mgrwt>
</event>
<event>
 4    1  0.2581031E-004  0.2809047E+03  0.7818608E-02  0.1095196E+00
         -2   -1    0    0    0  501 -0.00000000000E+00  0.00000000000E+00  0.61129575511E+02  0.61129575564E+02  0.25500000000E-02 0. -1.
          2   -1    0    0  501    0  0.00000000000E+00 -0.00000000000E+00 -0.32270562685E+03  0.32270562686E+03  0.25500000000E-02 0.  1.
    5000001    1    1    2    0    0  0.51250162589E+02  0.90899630913E+01 -0.17152151016E+03  0.21967666021E+03  0.12700000000E+03 0.  0.
   -5000001    1    1    2    0    0 -0.51250162589E+02 -0.90899630913E+01 -0.90054541182E+02  0.16415854221E+03  0.12700000000E+03 0.  0.
<mgrwt>
<rscale>  0 0.28090467E+03</rscale>
<asrwt>0</asrwt>
<pdfrwt beam="1">  1        2 0.46100803E-01 0.28090467E+03</pdfrwt>
<pdfrwt beam="2">  1       -2 0.87327967E-02 0.28090467E+03</pdfrwt>
<totfact> 0.89534359E+03</totfact>
</mgrwt>
</event>
<event>
 4    1  0.2581031E-004  0.3398139E+03  0.7818608E-02  0.1066875E+00
          2   -1    0    0  501    0  0.00000000000E+00  0.00000000000E+00  0.23905824356E+03  0.23905824358E+03  0.25500000000E-02 0.  1.
         -2   -1    0    0    0  501 -0.00000000000E+00 -0.00000000000E+00 -0.12075873530E+03  0.12075873532E+03  0.25500000000E-02 0. -1.
    5000001    1    1    2    0    0 -0.30241346943E+02  0.10180581556E+03  0.99614574880E+02  0.19321238748E+03  0.12700000000E+03 0.  0.
   -5000001    1    1    2    0    0  0.30241346943E+02 -0.10180581556E+03  0.18684933388E+02  0.16660459142E+03  0.12700000000E+03 0.  0.
<mgrwt>
<rscale>  0 0.33981390E+03</rscale>
<asrwt>0</asrwt>
<pdfrwt beam="1">  1        2 0.34151178E-01 0.33981390E+03</pdfrwt>
<pdfrwt beam="2">  1       -2 0.17251248E-01 0.33981390E+03</pdfrwt>
<totfact> 0.41241615E+03</totfact>
</mgrwt>
</event>
<event>
 4    1  0.2581031E-004  0.5034970E+03  0.7818608E-02  0.1012870E+00
          2   -1    0    0  501    0  0.00000000000E+00  0.00000000000E+00  0.16041457530E+03  0.16041457532E+03  0.25500000000E-02 0.  1.
         -2   -1    0    0    0  501 -0.00000000000E+00 -0.00000000000E+00 -0.39508442141E+03  0.39508442142E+03  0.25500000000E-02 0. -1.
    5000001    1    1    2    0    0  0.70705251601E+02  0.17740990306E+03 -0.23185744225E+03  0.32612939125E+03  0.12700000000E+03 0.  0.
   -5000001    1    1    2    0    0 -0.70705251601E+02 -0.17740990306E+03 -0.28124038580E+01  0.22936960549E+03  0.12700000000E+03 0.  0.
<mgrwt>
<rscale>  0 0.50349697E+03</rscale>
<asrwt>0</asrwt>
<pdfrwt beam="1">  1        2 0.22916368E-01 0.50349697E+03</pdfrwt>
<pdfrwt beam="2">  1       -2 0.56440632E-01 0.50349697E+03</pdfrwt>
<totfact> 0.71779118E+02</totfact>
</mgrwt>
</event>
<event>
 4    1  0.2581031E-004  0.5699653E+03  0.7818608E-02  0.9969755E-01
         -2   -1    0    0    0  501 -0.00000000000E+00  0.00000000000E+00  0.10981450145E+04  0.10981450145E+04  0.25500000000E-02 0. -1.
          2   -1    0    0  501    0  0.00000000000E+00 -0.00000000000E+00 -0.73956626666E+02  0.73956626710E+02  0.25500000000E-02 0.  1.
    5000001    1    1    2    0    0 -0.21274551502E+03 -0.90014980944E+02  0.28943961303E+03  0.39149411304E+03  0.12700000000E+03 0.  0.
   -5000001    1    1    2    0    0  0.21274551502E+03  0.90014980944E+02  0.73474877476E+03  0.78060752812E+03  0.12700000000E+03 0.  0.
<mgrwt>
<rscale>  0 0.56996527E+03</rscale>
<asrwt>0</asrwt>
<pdfrwt beam="1">  1        2 0.10565233E-01 0.56996527E+03</pdfrwt>
<pdfrwt beam="2">  1       -2 0.15687786E+00 0.56996527E+03</pdfrwt>
<totfact> 0.16764875E+02</totfact>
</mgrwt>
</event>
<event>
 4    1  0.2581031E-004  0.3595330E+03  0.7818608E-02  0.1058769E+00
         -2   -1    0    0    0  501 -0.00000000000E+00  0.00000000000E+00  0.10537733315E+03  0.10537733318E+03  0.25500000000E-02 0. -1.
          2   -1    0    0  501    0  0.00000000000E+00 -0.00000000000E+00 -0.30666924794E+03  0.30666924795E+03  0.25500000000E-02 0.  1.
    5000001    1    1    2    0    0 -0.92931338759E+02  0.76124717063E+02 -0.52623674024E+02  0.18256357068E+03  0.12700000000E+03 0.  0.
   -5000001    1    1    2    0    0  0.92931338759E+02 -0.76124717063E+02 -0.14866824076E+03  0.22948301045E+03  0.12700000000E+03 0.  0.
<mgrwt>
<rscale>  0 0.35953296E+03</rscale>
<asrwt>0</asrwt>
<pdfrwt beam="1">  1        2 0.43809892E-01 0.35953296E+03</pdfrwt>
<pdfrwt beam="2">  1       -2 0.15053905E-01 0.35953296E+03</pdfrwt>
<totfact> 0.39556237E+03</totfact>
</mgrwt>
</event>
<event>
 4    1  0.2581031E-004  0.3784645E+03  0.7818608E-02  0.1051503E+00
          2   -1    0    0  501    0  0.00000000000E+00  0.00000000000E+00  0.10583602502E+04  0.10583602502E+04  0.25500000000E-02 0. -1.
         -2   -1    0    0    0  501 -0.00000000000E+00 -0.00000000000E+00 -0.33834269066E+02  0.33834269162E+02  0.25500000000E-02 0.  1.
    5000001    1    1    2    0    0  0.95187649784E+02  0.10250368219E+03  0.48170123215E+03  0.51742900053E+03  0.12700000000E+03 0.  0.
   -5000001    1    1    2    0    0 -0.95187649784E+02 -0.10250368219E+03  0.54282474901E+03  0.57476551886E+03  0.12700000000E+03 0.  0.
<mgrwt>
<rscale>  0 0.37846451E+03</rscale>
<asrwt>0</asrwt>
<pdfrwt beam="1">  1        2 0.15119434E+00 0.37846451E+03</pdfrwt>
<pdfrwt beam="2">  1       -2 0.48334664E-02 0.37846451E+03</pdfrwt>
<totfact> 0.55812658E+03</totfact>
</mgrwt>
</event>
<event>
 4    1  0.2581031E-004  0.4350722E+03  0.7818608E-02  0.1032270E+00
          2   -1    0    0  501    0  0.00000000000E+00  0.00000000000E+00  0.37656250835E+03  0.37656250836E+03  0.25500000000E-02 0.  1.
         -2   -1    0    0    0  501 -0.00000000000E+00 -0.00000000000E+00 -0.12566823444E+03  0.12566823446E+03  0.25500000000E-02 0. -1.
    5000001    1    1    2    0    0 -0.13396294969E+03 -0.84045181487E+02  0.21621905232E+03  0.29646136849E+03  0.12700000000E+03 0.  0.
   -5000001    1    1    2    0    0  0.13396294969E+03  0.84045181487E+02  0.34675221597E+02  0.20576937434E+03  0.12700000000E+03 0.  0.
<mgrwt>
<rscale>  0 0.43507216E+03</rscale>
<asrwt>0</asrwt>
<pdfrwt beam="1">  1        2 0.53794644E-01 0.43507216E+03</pdfrwt>
<pdfrwt beam="2">  1       -2 0.17952605E-01 0.43507216E+03</pdfrwt>
<totfact> 0.23585777E+03</totfact>
</mgrwt>
</event>
<event>
 4    1  0.2581031E-004  0.2850804E+03  0.7818608E-02  0.1092946E+00
         -2   -1    0    0    0  501 -0.00000000000E+00  0.00000000000E+00  0.73031385365E+01  0.73031389817E+01  0.25500000000E-02 0. -1.
          2   -1    0    0  501    0  0.00000000000E+00 -0.00000000000E+00 -0.27820518527E+04  0.27820518527E+04  0.25500000000E-02 0.  1.
    5000001    1    1    2    0    0  0.64265013114E+02 -0.63106881778E+01 -0.13448440394E+04  0.13523698854E+04  0.12700000000E+03 0.  0.
   -5000001    1    1    2    0    0 -0.64265013114E+02  0.63106881778E+01 -0.14299046748E+04  0.14369851063E+04  0.12700000000E+03 0.  0.
<mgrwt>
<rscale>  0 0.28508041E+03</rscale>
<asrwt>0</asrwt>
<pdfrwt beam="1">  1        2 0.39743530E+00 0.28508041E+03</pdfrwt>
<pdfrwt beam="2">  1       -2 0.10433073E-02 0.28508041E+03</pdfrwt>
<totfact> 0.72329149E+03</totfact>
</mgrwt>
</event>
<event>
 4    1  0.2581031E-004  0.3319810E+03  0.7818608E-02  0.1070264E+00
          2   -1    0    0  501    0  0.00000000000E+00  0.00000000000E+00  0.15215662996E+03  0.15215662999E+03  0.25500000000E-02 0.  1.
         -2   -1    0    0    0  501 -0.00000000000E+00 -0.00000000000E+00 -0.18108208483E+03  0.18108208485E+03  0.25500000000E-02 0. -1.
    5000001    1    1    2    0    0  0.10399171043E+03 -0.24451946839E+02 -0.17891255585E+02  0.16691695710E+03  0.12700000000E+03 0.  0.
   -5000001    1    1    2    0    0 -0.10399171043E+03  0.24451946839E+02 -0.11034199282E+02  0.16632175773E+03  0.12700000000E+03 0.  0.
<mgrwt>
<rscale>  0 0.33198096E+03</rscale>
<asrwt>0</asrwt>
<pdfrwt beam="1">  1        2 0.21736662E-01 0.33198096E+03</pdfrwt>
<pdfrwt beam="2">  1       -2 0.25868869E-01 0.33198096E+03</pdfrwt>
<totfact> 0.33822431E+03</totfact>
</mgrwt>
</event>
<event>
 4    1  0.2581031E-004  0.3593468E+03  0.7818608E-02  0.1058843E+00
          2   -1    0    0  501    0  0.00000000000E+00  0.00000000000E+00  0.16040083308E+04  0.16040083308E+04  0.25500000000E-02 0.  1.
         -2   -1    0    0    0  501 -0.00000000000E+00 -0.00000000000E+00 -0.20126162404E+02  0.20126162565E+02  0.25500000000E-02 0. -1.
    5000001    1    1    2    0    0  0.23600979541E+02 -0.87504929893E+02  0.38922182194E+03  0.41932892300E+03  0.12700000000E+03 0.  0.
   -5000001    1    1    2    0    0 -0.23600979541E+02  0.87504929893E+02  0.11946603465E+04  0.12048055704E+04  0.12700000000E+03 0.  0.
<mgrwt>
<rscale>  0 0.35934681E+03</rscale>
<asrwt>0</asrwt>
<pdfrwt beam="1">  1        2 0.22914412E+00 0.35934681E+03</pdfrwt>
<pdfrwt beam="2">  1       -2 0.28751652E-02 0.35934681E+03</pdfrwt>
<totfact> 0.62626018E+03</totfact>
</mgrwt>
</event>
<event>
 4    1  0.2581031E-004  0.2967744E+03  0.7818608E-02  0.1086864E+00
          2   -1    0    0  501    0  0.00000000000E+00  0.00000000000E+00  0.31710078879E+03  0.31710078880E+03  0.25500000000E-02 0.  1.
         -2   -1    0    0    0  501 -0.00000000000E+00 -0.00000000000E+00 -0.69437755704E+02  0.69437755751E+02  0.25500000000E-02 0. -1.
    5000001    1    1    2    0    0  0.21352982400E+02  0.50093859529E+02  0.19426616808E+03  0.23839817256E+03  0.12700000000E+03 0.  0.
   -5000001    1    1    2    0    0 -0.21352982400E+02 -0.50093859529E+02  0.53396865000E+02  0.14814037198E+03  0.12700000000E+03 0.  0.
<mgrwt>
<rscale>  0 0.29677444E+03</rscale>
<asrwt>0</asrwt>
<pdfrwt beam="1">  1        2 0.45300112E-01 0.29677444E+03</pdfrwt>
<pdfrwt beam="2">  1       -2 0.99196796E-02 0.29677444E+03</pdfrwt>
<totfact> 0.74733262E+03</totfact>
</mgrwt>
</event>
<event>
 4    1  0.2581031E-004  0.3733730E+03  0.7818608E-02  0.1053411E+00
          2   -1    0    0  501    0  0.00000000000E+00  0.00000000000E+00  0.22473780830E+04  0.22473780830E+04  0.25500000000E-02 0.  1.
         -2   -1    0    0    0  501 -0.00000000000E+00 -0.00000000000E+00 -0.15507783460E+02  0.15507783669E+02  0.25500000000E-02 0. -1.
    5000001    1    1    2    0    0 -0.10081021430E+03  0.92426848403E+02  0.10906314242E+04  0.11064860257E+04  0.12700000000E+03 0.  0.
   -5000001    1    1    2    0    0  0.10081021430E+03 -0.92426848403E+02  0.11412388753E+04  0.11563998410E+04  0.12700000000E+03 0.  0.
<mgrwt>
<rscale>  0 0.37337302E+03</rscale>
<asrwt>0</asrwt>
<pdfrwt beam="1">  1        2 0.32105427E+00 0.37337302E+03</pdfrwt>
<pdfrwt beam="2">  1       -2 0.22153958E-02 0.37337302E+03</pdfrwt>
<totfact> 0.44359482E+03</totfact>
</mgrwt>
</event>
<event>
 4    1  0.2581031E-004  0.4428902E+03  0.7818608E-02  0.1029864E+00
         -2   -1    0    0    0  501 -0.00000000000E+00  0.00000000000E+00  0.26826196357E+02  0.26826196478E+02  0.25500000000E-02 0. -1.
          2   -1    0    0  501    0  0.00000000000E+00 -0.00000000000E+00 -0.18279867408E+04  0.18279867408E+04  0.25500000000E-02 0.  1.
    5000001    1    1    2    0    0 -0.10003059663E+03  0.16694837683E+02 -0.15305064309E+04  0.15391113581E+04  0.12700000000E+03 0.  0.
   -5000001    1    1    2    0    0  0.10003059663E+03 -0.16694837683E+02 -0.27065411356E+03  0.31570157912E+03  0.12700000000E+03 0.  0.
<mgrwt>
<rscale>  0 0.44289020E+03</rscale>
<asrwt>0</asrwt>
<pdfrwt beam="1">  1        2 0.26114088E+00 0.44289020E+03</pdfrwt>
<pdfrwt beam="2">  1       -2 0.38323149E-02 0.44289020E+03</pdfrwt>
<totfact> 0.31345684E+03</totfact>
</mgrwt>
</event>
<event>
 4    1  0.2581031E-004  0.2930388E+03  0.7818608E-02  0.1088773E+00
          2   -1    0    0  501    0  0.00000000000E+00  0.00000000000E+00  0.63228862031E+03  0.63228862032E+03  0.25500000000E-02 0.  1.
         -2   -1    0    0    0  501 -0.00000000000E+00 -0.00000000000E+00 -0.33952739618E+02  0.33952739713E+02  0.25500000000E-02 0. -1.
    5000001    1    1    2    0    0  0.68764946160E+02 -0.23557201649E+02  0.28224993863E+03  0.31792701588E+03  0.12700000000E+03 0.  0.
   -5000001    1    1    2    0    0 -0.68764946160E+02  0.23557201649E+02  0.31608594206E+03  0.34831434415E+03  0.12700000000E+03 0.  0.
<mgrwt>
<rscale>  0 0.29303878E+03</rscale>
<asrwt>0</asrwt>
<pdfrwt beam="1">  1        2 0.90326940E-01 0.29303878E+03</pdfrwt>
<pdfrwt beam="2">  1       -2 0.48503917E-02 0.29303878E+03</pdfrwt>
<totfact> 0.10597139E+04</totfact>
</mgrwt>
</event>
<event>
 4    1  0.2581031E-004  0.4497242E+03  0.7818608E-02  0.1027804E+00
         -2   -1    0    0    0  501 -0.00000000000E+00  0.00000000000E+00  0.19432460044E+03  0.19432460046E+03  0.25500000000E-02 0. -1.
          2   -1    0    0  501    0  0.00000000000E+00 -0.00000000000E+00 -0.26019844560E+03  0.26019844562E+03  0.25500000000E-02 0.  1.
    5000001    1    1    2    0    0  0.51091922126E+02 -0.17734065775E+03 -0.52478851041E+02  0.23009372700E+03  0.12700000000E+03 0.  0.
   -5000001    1    1    2    0    0 -0.51091922126E+02  0.17734065775E+03 -0.13394994119E+02  0.22442931908E+03  0.12700000000E+03 0.  0.
<mgrwt>
<rscale>  0 0.44972418E+03</rscale>
<asrwt>0</asrwt>
<pdfrwt beam="1">  1        2 0.37171207E-01 0.44972418E+03</pdfrwt>
<pdfrwt beam="2">  1       -2 0.27760657E-01 0.44972418E+03</pdfrwt>
<totfact> 0.16444775E+03</totfact>
</mgrwt>
</event>
<event>
 4    1  0.2581031E-004  0.9897757E+03  0.7818608E-02  0.9319830E-01
          2   -1    0    0  501    0  0.00000000000E+00  0.00000000000E+00  0.12892565035E+04  0.12892565035E+04  0.25500000000E-02 0.  1.
         -2   -1    0    0    0  501 -0.00000000000E+00 -0.00000000000E+00 -0.18996529593E+03  0.18996529595E+03  0.25500000000E-02 0. -1.
    5000001    1    1    2    0    0 -0.44785661140E+03  0.85634944648E+02  0.76557970857E+03  0.90008342852E+03  0.12700000000E+03 0.  0.
   -5000001    1    1    2    0    0  0.44785661140E+03 -0.85634944648E+02  0.33371149900E+03  0.57913837093E+03  0.12700000000E+03 0.  0.
<mgrwt>
<rscale>  0 0.98977572E+03</rscale>
<asrwt>0</asrwt>
<pdfrwt beam="1">  1        2 0.18417949E+00 0.98977572E+03</pdfrwt>
<pdfrwt beam="2">  1       -2 0.27137900E-01 0.98977572E+03</pdfrwt>
<totfact> 0.23408052E+02</totfact>
</mgrwt>
</event>
<event>
 4    1  0.2581031E-004  0.6128372E+03  0.7818608E-02  0.9879125E-01
          2   -1    0    0  501    0  0.00000000000E+00  0.00000000000E+00  0.57320617646E+03  0.57320617646E+03  0.25500000000E-02 0.  1.
         -2   -1    0    0    0  501 -0.00000000000E+00 -0.00000000000E+00 -0.16380206124E+03  0.16380206126E+03  0.25500000000E-02 0. -1.
    5000001    1    1    2    0    0 -0.26298565492E+03 -0.13998247315E+02  0.31496271408E+03  0.42975332097E+03  0.12700000000E+03 0.  0.
   -5000001    1    1    2    0    0  0.26298565492E+03  0.13998247315E+02  0.94441401136E+02  0.30725491675E+03  0.12700000000E+03 0.  0.
<mgrwt>
<rscale>  0 0.61283718E+03</rscale>
<asrwt>0</asrwt>
<pdfrwt beam="1">  1        2 0.81886598E-01 0.61283718E+03</pdfrwt>
<pdfrwt beam="2">  1       -2 0.23400294E-01 0.61283718E+03</pdfrwt>
<totfact> 0.92722112E+02</totfact>
</mgrwt>
</event>
<event>
 4    1  0.2581031E-004  0.3947645E+03  0.7818608E-02  0.1045608E+00
         -2   -1    0    0    0  501 -0.00000000000E+00  0.00000000000E+00  0.26006413230E+02  0.26006413355E+02  0.25500000000E-02 0. -1.
          2   -1    0    0  501    0  0.00000000000E+00 -0.00000000000E+00 -0.14980824357E+04  0.14980824357E+04  0.25500000000E-02 0.  1.
    5000001    1    1    2    0    0  0.30170338089E+02 -0.13324728152E+03 -0.48685736745E+03  0.52136760887E+03  0.12700000000E+03 0.  0.
   -5000001    1    1    2    0    0 -0.30170338089E+02  0.13324728152E+03 -0.98521865504E+03  0.10027212402E+04  0.12700000000E+03 0.  0.
<mgrwt>
<rscale>  0 0.39476449E+03</rscale>
<asrwt>0</asrwt>
<pdfrwt beam="1">  1        2 0.21401172E+00 0.39476449E+03</pdfrwt>
<pdfrwt beam="2">  1       -2 0.37152028E-02 0.39476449E+03</pdfrwt>
<totfact> 0.48207806E+03</totfact>
</mgrwt>
</event>
<event>
 4    1  0.2581031E-004  0.3610539E+03  0.7818608E-02  0.1058167E+00
         -2   -1    0    0    0  501 -0.00000000000E+00  0.00000000000E+00  0.12031969916E+02  0.12031970186E+02  0.25500000000E-02 0. -1.
          2   -1    0    0  501    0  0.00000000000E+00 -0.00000000000E+00 -0.27086153281E+04  0.27086153281E+04  0.25500000000E-02 0.  1.
    5000001    1    1    2    0    0 -0.12698332267E+03 -0.17214104362E+02 -0.13007005336E+04  0.13131534441E+04  0.12700000000E+03 0.  0.
   -5000001    1    1    2    0    0  0.12698332267E+03  0.17214104362E+02 -0.13958828246E+04  0.14074938542E+04  0.12700000000E+03 0.  0.
<mgrwt>
<rscale>  0 0.36105389E+03</rscale>
<asrwt>0</asrwt>
<pdfrwt beam="1">  1        2 0.38694466E+00 0.36105389E+03</pdfrwt>
<pdfrwt beam="2">  1       -2 0.17188546E-02 0.36105389E+03</pdfrwt>
<totfact> 0.37852674E+03</totfact>
</mgrwt>
</event>
<event>
 4    1  0.2581031E-004  0.8948370E+03  0.7818608E-02  0.9432059E-01
          2   -1    0    0  501    0  0.00000000000E+00  0.00000000000E+00  0.11740358838E+04  0.11740358838E+04  0.25500000000E-02 0.  1.
         -2   -1    0    0    0  501 -0.00000000000E+00 -0.00000000000E+00 -0.17050867925E+03  0.17050867927E+03  0.25500000000E-02 0. -1.
    5000001    1    1    2    0    0  0.38127913623E+03 -0.15393546337E+03  0.68569292544E+03  0.80955153919E+03  0.12700000000E+03 0.  0.
   -5000001    1    1    2    0    0 -0.38127913623E+03  0.15393546337E+03  0.31783427908E+03  0.53499302385E+03  0.12700000000E+03 0.  0.
<mgrwt>
<rscale>  0 0.89483699E+03</rscale>
<asrwt>0</asrwt>
<pdfrwt beam="1">  1        2 0.16771941E+00 0.89483699E+03</pdfrwt>
<pdfrwt beam="2">  1       -2 0.24358383E-01 0.89483699E+03</pdfrwt>
<totfact> 0.33232850E+02</totfact>
</mgrwt>
</event>
<event>
 4    1  0.2581031E-004  0.3848646E+03  0.7818608E-02  0.1049150E+00
          2   -1    0    0  501    0  0.00000000000E+00  0.00000000000E+00  0.34590518118E+03  0.34590518119E+03  0.25500000000E-02 0.  1.
         -2   -1    0    0    0  501 -0.00000000000E+00 -0.00000000000E+00 -0.10705298748E+03  0.10705298751E+03  0.25500000000E-02 0. -1.
    5000001    1    1    2    0    0 -0.48409377824E+02  0.11277855203E+03  0.29495236274E+02  0.17905708202E+03  0.12700000000E+03 0.  0.
   -5000001    1    1    2    0    0  0.48409377824E+02 -0.11277855203E+03  0.20935695743E+03  0.27390108668E+03  0.12700000000E+03 0.  0.
<mgrwt>
<rscale>  0 0.38486456E+03</rscale>
<asrwt>0</asrwt>
<pdfrwt beam="1">  1        2 0.49415027E-01 0.38486456E+03</pdfrwt>
<pdfrwt beam="2">  1       -2 0.15293284E-01 0.38486456E+03</pdfrwt>
<totfact> 0.33852369E+03</totfact>
</mgrwt>
</event>
<event>
 4    1  0.2581031E-004  0.7355826E+03  0.7818608E-02  0.9658244E-01
          2   -1    0    0  501    0  0.00000000000E+00  0.00000000000E+00  0.14123278256E+04  0.14123278256E+04  0.25500000000E-02 0.  1.
         -2   -1    0    0    0  501 -0.00000000000E+00 -0.00000000000E+00 -0.95778357136E+02  0.95778357170E+02  0.25500000000E-02 0. -1.
    5000001    1    1    2    0    0  0.18802060646E+03  0.12052268077E+03  0.11869680449E+03  0.28301130089E+03  0.12700000000E+03 0.  0.
   -5000001    1    1    2    0    0 -0.18802060646E+03 -0.12052268077E+03  0.11978526639E+04  0.12250948819E+04  0.12700000000E+03 0.  0.
<mgrwt>
<rscale>  0 0.73558260E+03</rscale>
<asrwt>0</asrwt>
<pdfrwt beam="1">  1        2 0.20176109E+00 0.73558260E+03</pdfrwt>
<pdfrwt beam="2">  1       -2 0.13682624E-01 0.73558260E+03</pdfrwt>
<totfact> 0.67226310E+02</totfact>
</mgrwt>
</event>
<event>
 4    1  0.2581031E-004  0.4139691E+03  0.7818608E-02  0.1039047E+00
          2   -1    0    0  501    0  0.00000000000E+00  0.00000000000E+00  0.25843011980E+04  0.25843011980E+04  0.25500000000E-02 0.  1.
         -2   -1    0    0    0  501 -0.00000000000E+00 -0.00000000000E+00 -0.16578019581E+02  0.16578019777E+02  0.25500000000E-02 0. -1.
    5000001    1    1    2    0    0 -0.90748221329E+02 -0.12874799294E+03  0.15578883841E+04  0.15709731069E+04  0.12700000000E+03 0.  0.
   -5000001    1    1    2    0    0  0.90748221329E+02  0.12874799294E+03  0.10098347943E+04  0.10299061109E+04  0.12700000000E+03 0.  0.
<mgrwt>
<rscale>  0 0.41396906E+03</rscale>
<asrwt>0</asrwt>
<pdfrwt beam="1">  1        2 0.36918590E+00 0.41396906E+03</pdfrwt>
<pdfrwt beam="2">  1       -2 0.23682885E-02 0.41396906E+03</pdfrwt>
<totfact> 0.27141816E+03</totfact>
</mgrwt>
</event>
<event>
 4    1  0.2581031E-004  0.3634805E+03  0.7818608E-02  0.1057214E+00
          2   -1    0    0  501    0  0.00000000000E+00  0.00000000000E+00  0.14390765541E+04  0.14390765541E+04  0.25500000000E-02 0. -1.
         -2   -1    0    0    0  501 -0.00000000000E+00 -0.00000000000E+00 -0.22951885412E+02  0.22951885554E+02  0.25500000000E-02 0.  1.
    5000001    1    1    2    0    0 -0.52000196103E+02 -0.28701306600E+02  0.11732035348E+04  0.11815512343E+04  0.12700000000E+03 0.  0.
   -5000001    1    1    2    0    0  0.52000196103E+02  0.28701306600E+02  0.24292113395E+03  0.28047720534E+03  0.12700000000E+03 0.  0.
<mgrwt>
<rscale>  0 0.36348051E+03</rscale>
<asrwt>0</asrwt>
<pdfrwt beam="1">  1        2 0.20558244E+00 0.36348051E+03</pdfrwt>
<pdfrwt beam="2">  1       -2 0.32788396E-02 0.36348051E+03</pdfrwt>
<totfact> 0.62395989E+03</totfact>
</mgrwt>
</event>
<event>
 4    1  0.2581031E-004  0.3748677E+03  0.7818608E-02  0.1052847E+00
          2   -1    0    0  501    0  0.00000000000E+00  0.00000000000E+00  0.17233031704E+04  0.17233031704E+04  0.25500000000E-02 0.  1.
         -2   -1    0    0    0  501 -0.00000000000E+00 -0.00000000000E+00 -0.20386115065E+02  0.20386115224E+02  0.25500000000E-02 0. -1.
    5000001    1    1    2    0    0  0.43910969290E+02 -0.13033203245E+03  0.80786224674E+03  0.82926776231E+03  0.12700000000E+03 0.  0.
   -5000001    1    1    2    0    0 -0.43910969290E+02  0.13033203245E+03  0.89505480855E+03  0.91442152327E+03  0.12700000000E+03 0.  0.
<mgrwt>
<rscale>  0 0.37486775E+03</rscale>
<asrwt>0</asrwt>
<pdfrwt beam="1">  1        2 0.24618615E+00 0.37486775E+03</pdfrwt>
<pdfrwt beam="2">  1       -2 0.29123024E-02 0.37486775E+03</pdfrwt>
<totfact> 0.53550385E+03</totfact>
</mgrwt>
</event>
<event>
 4    1  0.2581031E-004  0.3149401E+03  0.7818608E-02  0.1078002E+00
         -2   -1    0    0    0  501 -0.00000000000E+00  0.00000000000E+00  0.41467899063E+02  0.41467899141E+02  0.25500000000E-02 0. -1.
          2   -1    0    0  501    0  0.00000000000E+00 -0.00000000000E+00 -0.59797615660E+03  0.59797615661E+03  0.25500000000E-02 0.  1.
    5000001    1    1    2    0    0 -0.59547666771E+02  0.52620827333E+02 -0.37674135998E+03  0.40543547996E+03  0.12700000000E+03 0.  0.
   -5000001    1    1    2    0    0  0.59547666771E+02 -0.52620827333E+02 -0.17976689756E+03  0.23400857580E+03  0.12700000000E+03 0.  0.
<mgrwt>
<rscale>  0 0.31494009E+03</rscale>
<asrwt>0</asrwt>
<pdfrwt beam="1">  1        2 0.85425160E-01 0.31494009E+03</pdfrwt>
<pdfrwt beam="2">  1       -2 0.59239860E-02 0.31494009E+03</pdfrwt>
<totfact> 0.83450122E+03</totfact>
</mgrwt>
</event>
<event>
 4    1  0.2581031E-004  0.7216489E+03  0.7818608E-02  0.9680910E-01
          2   -1    0    0  501    0  0.00000000000E+00  0.00000000000E+00  0.12138128120E+04  0.12138128120E+04  0.25500000000E-02 0.  1.
         -2   -1    0    0    0  501 -0.00000000000E+00 -0.00000000000E+00 -0.10726058012E+03  0.10726058015E+03  0.25500000000E-02 0. -1.
    5000001    1    1    2    0    0 -0.27236954999E+03 -0.49092424161E+02  0.19891747103E+03  0.36372021961E+03  0.12700000000E+03 0.  0.
   -5000001    1    1    2    0    0  0.27236954999E+03  0.49092424161E+02  0.90763476084E+03  0.95735317253E+03  0.12700000000E+03 0.  0.
<mgrwt>
<rscale>  0 0.72164885E+03</rscale>
<asrwt>0</asrwt>
<pdfrwt beam="1">  1        2 0.17340183E+00 0.72164885E+03</pdfrwt>
<pdfrwt beam="2">  1       -2 0.15322940E-01 0.72164885E+03</pdfrwt>
<totfact> 0.71359910E+02</totfact>
</mgrwt>
</event>
<event>
 4    1  0.2581031E-004  0.3181692E+03  0.7818608E-02  0.1076495E+00
          2   -1    0    0  501    0  0.00000000000E+00  0.00000000000E+00  0.15259811382E+04  0.15259811382E+04  0.25500000000E-02 0.  1.
         -2   -1    0    0    0  501 -0.00000000000E+00 -0.00000000000E+00 -0.16584683251E+02  0.16584683447E+02  0.25500000000E-02 0. -1.
    5000001    1    1    2    0    0  0.55397869812E+02  0.54804315152E+02  0.48447690944E+03  0.50687208714E+03  0.12700000000E+03 0.  0.
   -5000001    1    1    2    0    0 -0.55397869812E+02 -0.54804315152E+02  0.10249195455E+04  0.10356937345E+04  0.12700000000E+03 0.  0.
<mgrwt>
<rscale>  0 0.31816923E+03</rscale>
<asrwt>0</asrwt>
<pdfrwt beam="1">  1        2 0.21799725E+00 0.31816923E+03</pdfrwt>
<pdfrwt beam="2">  1       -2 0.23692411E-02 0.31816923E+03</pdfrwt>
<totfact> 0.91359876E+03</totfact>
</mgrwt>
</event>
<event>
 4    1  0.2581031E-004  0.3871832E+03  0.7818608E-02  0.1048310E+00
         -2   -1    0    0    0  501 -0.00000000000E+00  0.00000000000E+00  0.21220305896E+02  0.21220306049E+02  0.25500000000E-02 0. -1.
          2   -1    0    0  501    0  0.00000000000E+00 -0.00000000000E+00 -0.17661246912E+04  0.17661246912E+04  0.25500000000E-02 0.  1.
    5000001    1    1    2    0    0  0.10802687847E+03  0.62423813553E+02 -0.52142786146E+03  0.55098326079E+03  0.12700000000E+03 0.  0.
   -5000001    1    1    2    0    0 -0.10802687847E+03 -0.62423813553E+02 -0.12234765239E+04  0.12363617365E+04  0.12700000000E+03 0.  0.
<mgrwt>
<rscale>  0 0.38718319E+03</rscale>
<asrwt>0</asrwt>
<pdfrwt beam="1">  1        2 0.25230343E+00 0.38718319E+03</pdfrwt>
<pdfrwt beam="2">  1       -2 0.30314734E-02 0.38718319E+03</pdfrwt>
<totfact> 0.48005545E+03</totfact>
</mgrwt>
</event>
<event>
 4    1  0.2581031E-004  0.4208069E+03  0.7818608E-02  0.1036804E+00
          2   -1    0    0  501    0  0.00000000000E+00  0.00000000000E+00  0.10229216649E+04  0.10229216649E+04  0.25500000000E-02 0.  1.
         -2   -1    0    0    0  501 -0.00000000000E+00 -0.00000000000E+00 -0.43277624911E+02  0.43277624986E+02  0.25500000000E-02 0. -1.
    5000001    1    1    2    0    0  0.67020334665E+02 -0.14894476252E+03  0.39286520720E+03  0.44401389457E+03  0.12700000000E+03 0.  0.
   -5000001    1    1    2    0    0 -0.67020334665E+02  0.14894476252E+03  0.58677883283E+03  0.62218539536E+03  0.12700000000E+03 0.  0.
<mgrwt>
<rscale>  0 0.42080694E+03</rscale>
<asrwt>0</asrwt>
<pdfrwt beam="1">  1        2 0.14613167E+00 0.42080694E+03</pdfrwt>
<pdfrwt beam="2">  1       -2 0.61825178E-02 0.42080694E+03</pdfrwt>
<totfact> 0.40108030E+03</totfact>
</mgrwt>
</event>
<event>
 4    1  0.2581031E-004  0.4222720E+03  0.7818608E-02  0.1036329E+00
         -2   -1    0    0    0  501 -0.00000000000E+00  0.00000000000E+00  0.59867466709E+03  0.59867466710E+03  0.25500000000E-02 0. -1.
          2   -1    0    0  501    0  0.00000000000E+00 -0.00000000000E+00 -0.74461816954E+02  0.74461816997E+02  0.25500000000E-02 0.  1.
    5000001    1    1    2    0    0  0.10439320047E+03 -0.13143959209E+03  0.28854595088E+03  0.35715832965E+03  0.12700000000E+03 0.  0.
   -5000001    1    1    2    0    0 -0.10439320047E+03  0.13143959209E+03  0.23566689926E+03  0.31597815444E+03  0.12700000000E+03 0.  0.
<mgrwt>
<rscale>  0 0.42227197E+03</rscale>
<asrwt>0</asrwt>
<pdfrwt beam="1">  1        2 0.10637402E-01 0.42227197E+03</pdfrwt>
<pdfrwt beam="2">  1       -2 0.85524952E-01 0.42227197E+03</pdfrwt>
<totfact> 0.73324700E+02</totfact>
</mgrwt>
</event>
<event>
 4    1  0.2581031E-004  0.3979696E+03  0.7818608E-02  0.1044485E+00
         -2   -1    0    0    0  501 -0.00000000000E+00  0.00000000000E+00  0.92425393058E+02  0.92425393093E+02  0.25500000000E-02 0. -1.
          2   -1    0    0  501    0  0.00000000000E+00 -0.00000000000E+00 -0.42839894702E+03  0.42839894703E+03  0.25500000000E-02 0.  1.
    5000001    1    1    2    0    0 -0.36471450032E+02 -0.71600331162E+02  0.26933465550E+01  0.15030977415E+03  0.12700000000E+03 0.  0.
   -5000001    1    1    2    0    0  0.36471450032E+02  0.71600331162E+02 -0.33866690052E+03  0.37051456597E+03  0.12700000000E+03 0.  0.
<mgrwt>
<rscale>  0 0.39796955E+03</rscale>
<asrwt>0</asrwt>
<pdfrwt beam="1">  1        2 0.61199849E-01 0.39796955E+03</pdfrwt>
<pdfrwt beam="2">  1       -2 0.13203628E-01 0.39796955E+03</pdfrwt>
<totfact> 0.34193755E+03</totfact>
</mgrwt>
</event>
<event>
 4    1  0.2581031E-004  0.3310897E+03  0.7818608E-02  0.1070656E+00
          2   -1    0    0  501    0  0.00000000000E+00  0.00000000000E+00  0.13885744652E+04  0.13885744652E+04  0.25500000000E-02 0.  1.
         -2   -1    0    0    0  501 -0.00000000000E+00 -0.00000000000E+00 -0.19736133237E+02  0.19736133402E+02  0.25500000000E-02 0. -1.
    5000001    1    1    2    0    0 -0.85851247175E+02 -0.49140077591E+02  0.52017948503E+03  0.54451894413E+03  0.12700000000E+03 0.  0.
   -5000001    1    1    2    0    0  0.85851247175E+02  0.49140077591E+02  0.84865884695E+03  0.86379165450E+03  0.12700000000E+03 0.  0.
<mgrwt>
<rscale>  0 0.33108966E+03</rscale>
<asrwt>0</asrwt>
<pdfrwt beam="1">  1        2 0.19836786E+00 0.33108966E+03</pdfrwt>
<pdfrwt beam="2">  1       -2 0.28194465E-02 0.33108966E+03</pdfrwt>
<totfact> 0.82989244E+03</totfact>
</mgrwt>
</event>
<event>
 4    1  0.2581031E-004  0.4056546E+03  0.7818608E-02  0.1041839E+00
         -2   -1    0    0    0  501 -0.00000000000E+00  0.00000000000E+00  0.47742438802E+02  0.47742438870E+02  0.25500000000E-02 0. -1.
          2   -1    0    0  501    0  0.00000000000E+00 -0.00000000000E+00 -0.86168431124E+03  0.86168431124E+03  0.25500000000E-02 0.  1.
    5000001    1    1    2    0    0  0.11388206945E+03  0.46046967926E+02 -0.63026504978E+03  0.65456281744E+03  0.12700000000E+03 0.  0.
   -5000001    1    1    2    0    0 -0.11388206945E+03 -0.46046967926E+02 -0.18367682265E+03  0.25486393267E+03  0.12700000000E+03 0.  0.
<mgrwt>
<rscale>  0 0.40565458E+03</rscale>
<asrwt>0</asrwt>
<pdfrwt beam="1">  1        2 0.12309775E+00 0.40565458E+03</pdfrwt>
<pdfrwt beam="2">  1       -2 0.68203489E-02 0.40565458E+03</pdfrwt>
<totfact> 0.43323490E+03</totfact>
</mgrwt>
</event>
<event>
 4    1  0.2581031E-004  0.4021755E+03  0.7818608E-02  0.1043029E+00
         -2   -1    0    0    0  501 -0.00000000000E+00  0.00000000000E+00  0.45852512792E+02  0.45852512863E+02  0.25500000000E-02 0. -1.
          2   -1    0    0  501    0  0.00000000000E+00 -0.00000000000E+00 -0.88187730462E+03  0.88187730463E+03  0.25500000000E-02 0.  1.
    5000001    1    1    2    0    0  0.64420167960E+02  0.13537670263E+03 -0.51670587334E+03  0.55280264941E+03  0.12700000000E+03 0.  0.
   -5000001    1    1    2    0    0 -0.64420167960E+02 -0.13537670263E+03 -0.31931891850E+03  0.37492716808E+03  0.12700000000E+03 0.  0.
<mgrwt>
<rscale>  0 0.40217554E+03</rscale>
<asrwt>0</asrwt>
<pdfrwt beam="1">  1        2 0.12598246E+00 0.40217554E+03</pdfrwt>
<pdfrwt beam="2">  1       -2 0.65503595E-02 0.40217554E+03</pdfrwt>
<totfact> 0.44767418E+03</totfact>
</mgrwt>
</event>
<event>
 4    1  0.2581031E-004  0.3290535E+03  0.7818608E-02  0.1071556E+00
         -2   -1    0    0    0  501 -0.00000000000E+00  0.00000000000E+00  0.14450173910E+03  0.14450173912E+03  0.25500000000E-02 0. -1.
          2   -1    0    0  501    0  0.00000000000E+00 -0.00000000000E+00 -0.18732687472E+03  0.18732687473E+03  0.25500000000E-02 0.  1.
    5000001    1    1    2    0    0 -0.40586338007E+02  0.63615497584E+02 -0.94451817062E+02  0.17534060600E+03  0.12700000000E+03 0.  0.
   -5000001    1    1    2    0    0  0.40586338007E+02 -0.63615497584E+02  0.51626681441E+02  0.15648800785E+03  0.12700000000E+03 0.  0.
<mgrwt>
<rscale>  0 0.32905355E+03</rscale>
<asrwt>0</asrwt>
<pdfrwt beam="1">  1        2 0.26760982E-01 0.32905355E+03</pdfrwt>
<pdfrwt beam="2">  1       -2 0.20643106E-01 0.32905355E+03</pdfrwt>
<totfact> 0.39713913E+03</totfact>
</mgrwt>
</event>
<event>
 4    1  0.2581031E-004  0.5886830E+03  0.7818608E-02  0.9929167E-01
         -2   -1    0    0    0  501 -0.00000000000E+00  0.00000000000E+00  0.12713588002E+03  0.12713588004E+03  0.25500000000E-02 0. -1.
          2   -1    0    0  501    0  0.00000000000E+00 -0.00000000000E+00 -0.68145146345E+03  0.68145146345E+03  0.25500000000E-02 0.  1.
    5000001    1    1    2    0    0 -0.25184320242E+03 -0.56047076650E+02 -0.19092252956E+03  0.34517631103E+03  0.12700000000E+03 0.  0.
   -5000001    1    1    2    0    0  0.25184320242E+03  0.56047076650E+02 -0.36339305387E+03  0.46341103246E+03  0.12700000000E+03 0.  0.
<mgrwt>
<rscale>  0 0.58868304E+03</rscale>
<asrwt>0</asrwt>
<pdfrwt beam="1">  1        2 0.97350207E-01 0.58868304E+03</pdfrwt>
<pdfrwt beam="2">  1       -2 0.18162269E-01 0.58868304E+03</pdfrwt>
<totfact> 0.11762881E+03</totfact>
</mgrwt>
</event>
<event>
 4    1  0.2581031E-004  0.7672475E+03  0.7818608E-02  0.9608674E-01
         -2   -1    0    0    0  501 -0.00000000000E+00  0.00000000000E+00  0.61193879901E+02  0.61193879954E+02  0.25500000000E-02 0. -1.
          2   -1    0    0  501    0  0.00000000000E+00 -0.00000000000E+00 -0.24049333186E+04  0.24049333186E+04  0.25500000000E-02 0.  1.
    5000001    1    1    2    0    0  0.21532325981E+03 -0.18057255470E+03 -0.43843082209E+03  0.53602345050E+03  0.12700000000E+03 0.  0.
   -5000001    1    1    2    0    0 -0.21532325981E+03  0.18057255470E+03 -0.19053086166E+04  0.19301037480E+04  0.12700000000E+03 0.  0.
<mgrwt>
<rscale>  0 0.76724755E+03</rscale>
<asrwt>0</asrwt>
<pdfrwt beam="1">  1        2 0.34356184E+00 0.76724755E+03</pdfrwt>
<pdfrwt beam="2">  1       -2 0.87419844E-02 0.76724755E+03</pdfrwt>
<totfact> 0.43418317E+02</totfact>
</mgrwt>
</event>
<event>
 4    1  0.2581031E-004  0.3707003E+03  0.7818608E-02  0.1054426E+00
         -2   -1    0    0    0  501 -0.00000000000E+00  0.00000000000E+00  0.20159789081E+02  0.20159789242E+02  0.25500000000E-02 0. -1.
          2   -1    0    0  501    0  0.00000000000E+00 -0.00000000000E+00 -0.17041190618E+04  0.17041190618E+04  0.25500000000E-02 0.  1.
    5000001    1    1    2    0    0  0.46695248999E+02  0.12232685065E+03 -0.99493791037E+03  0.10115210083E+04  0.12700000000E+03 0.  0.
   -5000001    1    1    2    0    0 -0.46695248999E+02 -0.12232685065E+03 -0.68902136234E+03  0.71275784277E+03  0.12700000000E+03 0.  0.
<mgrwt>
<rscale>  0 0.37070032E+03</rscale>
<asrwt>0</asrwt>
<pdfrwt beam="1">  1        2 0.24344549E+00 0.37070032E+03</pdfrwt>
<pdfrwt beam="2">  1       -2 0.28799710E-02 0.37070032E+03</pdfrwt>
<totfact> 0.55665488E+03</totfact>
</mgrwt>
</event>
<event>
 4    1  0.2581031E-004  0.9178271E+03  0.7818608E-02  0.9403567E-01
          2   -1    0    0  501    0  0.00000000000E+00  0.00000000000E+00  0.49411522366E+03  0.49411522366E+03  0.25500000000E-02 0.  1.
         -2   -1    0    0    0  501 -0.00000000000E+00 -0.00000000000E+00 -0.42621972244E+03  0.42621972245E+03  0.25500000000E-02 0. -1.
    5000001    1    1    2    0    0  0.16852003359E+03 -0.39765661500E+03 -0.55418535549E+02  0.45357468983E+03  0.12700000000E+03 0.  0.
   -5000001    1    1    2    0    0 -0.16852003359E+03  0.39765661500E+03  0.12331403676E+03  0.46676025628E+03  0.12700000000E+03 0.  0.
<mgrwt>
<rscale>  0 0.91782712E+03</rscale>
<asrwt>0</asrwt>
<pdfrwt beam="1">  1        2 0.70587889E-01 0.91782712E+03</pdfrwt>
<pdfrwt beam="2">  1       -2 0.60888532E-01 0.91782712E+03</pdfrwt>
<totfact> 0.17135510E+02</totfact>
</mgrwt>
</event>
<event>
 4    1  0.2581031E-004  0.3921327E+03  0.7818608E-02  0.1046538E+00
          2   -1    0    0  501    0  0.00000000000E+00  0.00000000000E+00  0.95172694723E+03  0.95172694723E+03  0.25500000000E-02 0.  1.
         -2   -1    0    0    0  501 -0.00000000000E+00 -0.00000000000E+00 -0.40391846480E+02  0.40391846561E+02  0.25500000000E-02 0. -1.
    5000001    1    1    2    0    0  0.14638350462E+03 -0.20554824294E+02  0.40126377770E+03  0.44608547445E+03  0.12700000000E+03 0.  0.
   -5000001    1    1    2    0    0 -0.14638350462E+03  0.20554824294E+02  0.51007132305E+03  0.54603331934E+03  0.12700000000E+03 0.  0.
<mgrwt>
<rscale>  0 0.39213268E+03</rscale>
<asrwt>0</asrwt>
<pdfrwt beam="1">  1        2 0.13596100E+00 0.39213268E+03</pdfrwt>
<pdfrwt beam="2">  1       -2 0.57702633E-02 0.39213268E+03</pdfrwt>
<totfact> 0.49243882E+03</totfact>
</mgrwt>
</event>
<event>
 4    1  0.2581031E-004  0.3605112E+03  0.7818608E-02  0.1058382E+00
         -2   -1    0    0    0  501 -0.00000000000E+00  0.00000000000E+00  0.21177589221E+02  0.21177589375E+02  0.25500000000E-02 0. -1.
          2   -1    0    0  501    0  0.00000000000E+00 -0.00000000000E+00 -0.15342676227E+04  0.15342676227E+04  0.25500000000E-02 0.  1.
    5000001    1    1    2    0    0  0.70468436179E+02 -0.28479270392E+02 -0.31262332746E+03  0.34588902008E+03  0.12700000000E+03 0.  0.
   -5000001    1    1    2    0    0 -0.70468436179E+02  0.28479270392E+02 -0.12004667060E+04  0.12095561920E+04  0.12700000000E+03 0.  0.
<mgrwt>
<rscale>  0 0.36051125E+03</rscale>
<asrwt>0</asrwt>
<pdfrwt beam="1">  1        2 0.21918102E+00 0.36051125E+03</pdfrwt>
<pdfrwt beam="2">  1       -2 0.30253709E-02 0.36051125E+03</pdfrwt>
<totfact> 0.62933243E+03</totfact>
</mgrwt>
</event>
<event>
 4    1  0.2581031E-004  0.2727047E+03  0.7818608E-02  0.1099742E+00
         -2   -1    0    0    0  501 -0.00000000000E+00  0.00000000000E+00  0.13597765600E+02  0.13597765839E+02  0.25500000000E-02 0. -1.
          2   -1    0    0  501    0  0.00000000000E+00 -0.00000000000E+00 -0.13672810703E+04  0.13672810703E+04  0.25500000000E-02 0.  1.
    5000001    1    1    2    0    0  0.16055957323E+02 -0.39306444678E+02 -0.54673688891E+03  0.56289698530E+03  0.12700000000E+03 0.  0.
   -5000001    1    1    2    0    0 -0.16055957323E+02  0.39306444678E+02 -0.80694641575E+03  0.81798185081E+03  0.12700000000E+03 0.  0.
<mgrwt>
<rscale>  0 0.27270473E+03</rscale>
<asrwt>0</asrwt>
<pdfrwt beam="1">  1        2 0.19532578E+00 0.27270473E+03</pdfrwt>
<pdfrwt beam="2">  1       -2 0.19425388E-02 0.27270473E+03</pdfrwt>
<totfact> 0.14710403E+04</totfact>
</mgrwt>
</event>
<event>
 4    1  0.2581031E-004  0.3670373E+03  0.7818608E-02  0.1055832E+00
         -2   -1    0    0    0  501 -0.00000000000E+00  0.00000000000E+00  0.21835700981E+02  0.21835701130E+02  0.25500000000E-02 0. -1.
          2   -1    0    0  501    0  0.00000000000E+00 -0.00000000000E+00 -0.15423863738E+04  0.15423863738E+04  0.25500000000E-02 0.  1.
    5000001    1    1    2    0    0 -0.83657627630E+02  0.10269423002E+03 -0.77016428704E+03  0.79172389920E+03  0.12700000000E+03 0.  0.
   -5000001    1    1    2    0    0  0.83657627630E+02 -0.10269423002E+03 -0.75038638578E+03  0.77249817572E+03  0.12700000000E+03 0.  0.
<mgrwt>
<rscale>  0 0.36703726E+03</rscale>
<asrwt>0</asrwt>
<pdfrwt beam="1">  1        2 0.22034084E+00 0.36703726E+03</pdfrwt>
<pdfrwt beam="2">  1       -2 0.31193868E-02 0.36703726E+03</pdfrwt>
<totfact> 0.59547524E+03</totfact>
</mgrwt>
</event>
<event>
 4    1  0.2581031E-004  0.4072726E+03  0.7818608E-02  0.1041290E+00
         -2   -1    0    0    0  501 -0.00000000000E+00  0.00000000000E+00  0.62974442194E+03  0.62974442195E+03  0.25500000000E-02 0. -1.
          2   -1    0    0  501    0  0.00000000000E+00 -0.00000000000E+00 -0.65848523951E+02  0.65848524000E+02  0.25500000000E-02 0.  1.
    5000001    1    1    2    0    0  0.60368574403E+02  0.94644466684E+02  0.47470051363E+03  0.50405507387E+03  0.12700000000E+03 0.  0.
   -5000001    1    1    2    0    0 -0.60368574403E+02 -0.94644466684E+02  0.89195384358E+02  0.19153787208E+03  0.12700000000E+03 0.  0.
<mgrwt>
<rscale>  0 0.40727259E+03</rscale>
<asrwt>0</asrwt>
<pdfrwt beam="1">  1        2 0.94069315E-02 0.40727259E+03</pdfrwt>
<pdfrwt beam="2">  1       -2 0.89963494E-01 0.40727259E+03</pdfrwt>
<totfact> 0.76290096E+02</totfact>
</mgrwt>
</event>
<event>
 4    1  0.2581031E-004  0.3744005E+03  0.7818608E-02  0.1053023E+00
          2   -1    0    0  501    0  0.00000000000E+00  0.00000000000E+00  0.18166389902E+04  0.18166389902E+04  0.25500000000E-02 0. -1.
         -2   -1    0    0    0  501 -0.00000000000E+00 -0.00000000000E+00 -0.19290536184E+02  0.19290536353E+02  0.25500000000E-02 0.  1.
    5000001    1    1    2    0    0 -0.12805448216E+03  0.22602453060E+02  0.11183073795E+04  0.11329824431E+04  0.12700000000E+03 0.  0.
   -5000001    1    1    2    0    0  0.12805448216E+03 -0.22602453060E+02  0.67904107450E+03  0.70294708346E+03  0.12700000000E+03 0.  0.
<mgrwt>
<rscale>  0 0.37440054E+03</rscale>
<asrwt>0</asrwt>
<pdfrwt beam="1">  1        2 0.25951972E+00 0.37440054E+03</pdfrwt>
<pdfrwt beam="2">  1       -2 0.27557923E-02 0.37440054E+03</pdfrwt>
<totfact> 0.52280220E+03</totfact>
</mgrwt>
</event>
<event>
 4    1  0.2581031E-004  0.4936194E+03  0.7818608E-02  0.1015458E+00
          2   -1    0    0  501    0  0.00000000000E+00  0.00000000000E+00  0.48742263303E+03  0.48742263304E+03  0.25500000000E-02 0.  1.
         -2   -1    0    0    0  501 -0.00000000000E+00 -0.00000000000E+00 -0.12497372767E+03  0.12497372770E+03  0.25500000000E-02 0. -1.
    5000001    1    1    2    0    0 -0.61147965225E+02 -0.16095628862E+03  0.28572043068E+02  0.21585032347E+03  0.12700000000E+03 0.  0.
   -5000001    1    1    2    0    0  0.61147965225E+02  0.16095628862E+03  0.33387686229E+03  0.39654603727E+03  0.12700000000E+03 0.  0.
<mgrwt>
<rscale>  0 0.49361938E+03</rscale>
<asrwt>0</asrwt>
<pdfrwt beam="1">  1        2 0.69631804E-01 0.49361938E+03</pdfrwt>
<pdfrwt beam="2">  1       -2 0.17853390E-01 0.49361938E+03</pdfrwt>
<totfact> 0.17902886E+03</totfact>
</mgrwt>
</event>
<event>
 4    1  0.2581031E-004  0.3113988E+03  0.7818608E-02  0.1079677E+00
          2   -1    0    0  501    0  0.00000000000E+00  0.00000000000E+00  0.79189282653E+03  0.79189282654E+03  0.25500000000E-02 0.  1.
         -2   -1    0    0    0  501 -0.00000000000E+00 -0.00000000000E+00 -0.30613105921E+02  0.30613106028E+02  0.25500000000E-02 0. -1.
    5000001    1    1    2    0    0  0.88997689442E+02  0.10911174270E+02  0.40330862708E+03  0.43223430119E+03  0.12700000000E+03 0.  0.
   -5000001    1    1    2    0    0 -0.88997689442E+02 -0.10911174270E+02  0.35797109353E+03  0.39027163137E+03  0.12700000000E+03 0.  0.
<mgrwt>
<rscale>  0 0.31139877E+03</rscale>
<asrwt>0</asrwt>
<pdfrwt beam="1">  1        2 0.11312756E+00 0.31139877E+03</pdfrwt>
<pdfrwt beam="2">  1       -2 0.43733004E-02 0.31139877E+03</pdfrwt>
<totfact> 0.94925479E+03</totfact>
</mgrwt>
</event>
<event>
 4    1  0.2581031E-004  0.4088703E+03  0.7818608E-02  0.1040751E+00
         -2   -1    0    0    0  501 -0.00000000000E+00  0.00000000000E+00  0.10637640575E+02  0.10637640881E+02  0.25500000000E-02 0. -1.
          2   -1    0    0  501    0  0.00000000000E+00 -0.00000000000E+00 -0.39288524837E+04  0.39288524837E+04  0.25500000000E-02 0.  1.
    5000001    1    1    2    0    0  0.61402072433E+02 -0.14491673837E+03 -0.16710777890E+04  0.16832709385E+04  0.12700000000E+03 0.  0.
   -5000001    1    1    2    0    0 -0.61402072433E+02  0.14491673837E+03 -0.22471370541E+04  0.22562191860E+04  0.12700000000E+03 0.  0.
<mgrwt>
<rscale>  0 0.40887025E+03</rscale>
<asrwt>0</asrwt>
<pdfrwt beam="1">  1        2 0.56126371E+00 0.40887025E+03</pdfrwt>
<pdfrwt beam="2">  1       -2 0.15196655E-02 0.40887025E+03</pdfrwt>
<totfact> 0.90896899E+02</totfact>
</mgrwt>
</event>
<event>
 4    1  0.2581031E-004  0.4059977E+03  0.7818608E-02  0.1041722E+00
          2   -1    0    0  501    0  0.00000000000E+00  0.00000000000E+00  0.22987977878E+03  0.22987977880E+03  0.25500000000E-02 0. -1.
         -2   -1    0    0    0  501 -0.00000000000E+00 -0.00000000000E+00 -0.17926122714E+03  0.17926122716E+03  0.25500000000E-02 0.  1.
    5000001    1    1    2    0    0 -0.65893375199E+01 -0.11350376284E+03 -0.85784910290E+02  0.19082603172E+03  0.12700000000E+03 0.  0.
   -5000001    1    1    2    0    0  0.65893375199E+01  0.11350376284E+03  0.13640346193E+03  0.21831497423E+03  0.12700000000E+03 0.  0.
<mgrwt>
<rscale>  0 0.40599769E+03</rscale>
<asrwt>0</asrwt>
<pdfrwt beam="1">  1        2 0.32839968E-01 0.40599769E+03</pdfrwt>
<pdfrwt beam="2">  1       -2 0.25608747E-01 0.40599769E+03</pdfrwt>
<totfact> 0.21772340E+03</totfact>
</mgrwt>
</event>
<event>
 4    1  0.2581031E-004  0.4862943E+03  0.7818608E-02  0.1017420E+00
         -2   -1    0    0    0  501 -0.00000000000E+00  0.00000000000E+00  0.69173331328E+02  0.69173331375E+02  0.25500000000E-02 0. -1.
          2   -1    0    0  501    0  0.00000000000E+00 -0.00000000000E+00 -0.85467224249E+03  0.85467224249E+03  0.25500000000E-02 0.  1.
    5000001    1    1    2    0    0  0.16588853056E+03  0.75364873415E+02 -0.58074628467E+03  0.62176693051E+03  0.12700000000E+03 0.  0.
   -5000001    1    1    2    0    0 -0.16588853056E+03 -0.75364873415E+02 -0.20475262649E+03  0.30207864336E+03  0.12700000000E+03 0.  0.
<mgrwt>
<rscale>  0 0.48629426E+03</rscale>
<asrwt>0</asrwt>
<pdfrwt beam="1">  1        2 0.12209603E+00 0.48629426E+03</pdfrwt>
<pdfrwt beam="2">  1       -2 0.98819050E-02 0.48629426E+03</pdfrwt>
<totfact> 0.24355138E+03</totfact>
</mgrwt>
</event>
<event>
 4    1  0.2581031E-004  0.6978243E+03  0.7818608E-02  0.9720960E-01
          2   -1    0    0  501    0  0.00000000000E+00  0.00000000000E+00  0.83607800747E+03  0.83607800747E+03  0.25500000000E-02 0.  1.
         -2   -1    0    0    0  501 -0.00000000000E+00 -0.00000000000E+00 -0.14560805879E+03  0.14560805881E+03  0.25500000000E-02 0. -1.
    5000001    1    1    2    0    0 -0.75107633678E+02 -0.24708036588E+03  0.62276986073E+03  0.68604749345E+03  0.12700000000E+03 0.  0.
   -5000001    1    1    2    0    0  0.75107633678E+02  0.24708036588E+03  0.67700087953E+02  0.29563857284E+03  0.12700000000E+03 0.  0.
<mgrwt>
<rscale>  0 0.69782432E+03</rscale>
<asrwt>0</asrwt>
<pdfrwt beam="1">  1        2 0.11943972E+00 0.69782432E+03</pdfrwt>
<pdfrwt beam="2">  1       -2 0.20801151E-01 0.69782432E+03</pdfrwt>
<totfact> 0.71701493E+02</totfact>
</mgrwt>
</event>
<event>
 4    1  0.2581031E-004  0.5793679E+03  0.7818608E-02  0.9949161E-01
         -2   -1    0    0    0  501 -0.00000000000E+00  0.00000000000E+00  0.79560449695E+02  0.79560449736E+02  0.25500000000E-02 0. -1.
          2   -1    0    0  501    0  0.00000000000E+00 -0.00000000000E+00 -0.10547549650E+04  0.10547549650E+04  0.25500000000E-02 0.  1.
    5000001    1    1    2    0    0  0.23480385338E+03 -0.29647213197E+02 -0.70005757548E+03  0.74981425420E+03  0.12700000000E+03 0.  0.
   -5000001    1    1    2    0    0 -0.23480385338E+03  0.29647213197E+02 -0.27513693986E+03  0.38450116058E+03  0.12700000000E+03 0.  0.
<mgrwt>
<rscale>  0 0.57936786E+03</rscale>
<asrwt>0</asrwt>
<pdfrwt beam="1">  1        2 0.15067927E+00 0.57936786E+03</pdfrwt>
<pdfrwt beam="2">  1       -2 0.11365779E-01 0.57936786E+03</pdfrwt>
<totfact> 0.14550222E+03</totfact>
</mgrwt>
</event>
<event>
 4    1  0.2581031E-004  0.3551714E+03  0.7818608E-02  0.1060512E+00
         -2   -1    0    0    0  501 -0.00000000000E+00  0.00000000000E+00  0.22803350654E+02  0.22803350797E+02  0.25500000000E-02 0. -1.
          2   -1    0    0  501    0  0.00000000000E+00 -0.00000000000E+00 -0.13829848450E+04  0.13829848450E+04  0.25500000000E-02 0.  1.
    5000001    1    1    2    0    0 -0.88113469504E+02 -0.76467800067E+02 -0.84784788992E+03  0.86520884901E+03  0.12700000000E+03 0.  0.
   -5000001    1    1    2    0    0  0.88113469504E+02  0.76467800067E+02 -0.51233360441E+03  0.54057934678E+03  0.12700000000E+03 0.  0.
<mgrwt>
<rscale>  0 0.35517144E+03</rscale>
<asrwt>0</asrwt>
<pdfrwt beam="1">  1        2 0.19756921E+00 0.35517144E+03</pdfrwt>
<pdfrwt beam="2">  1       -2 0.32576224E-02 0.35517144E+03</pdfrwt>
<totfact> 0.67359488E+03</totfact>
</mgrwt>
</event>
<event>
 4    1  0.2581031E-004  0.4412260E+03  0.7818608E-02  0.1030371E+00
          2   -1    0    0  501    0  0.00000000000E+00  0.00000000000E+00  0.16765137891E+04  0.16765137891E+04  0.25500000000E-02 0.  1.
         -2   -1    0    0    0  501 -0.00000000000E+00 -0.00000000000E+00 -0.29030536766E+02  0.29030536878E+02  0.25500000000E-02 0. -1.
    5000001    1    1    2    0    0 -0.15338443479E+02 -0.13863970593E+03  0.12659087483E+04  0.12798867898E+04  0.12700000000E+03 0.  0.
   -5000001    1    1    2    0    0  0.15338443479E+02  0.13863970593E+03  0.38157450412E+03  0.42565753618E+03  0.12700000000E+03 0.  0.
<mgrwt>
<rscale>  0 0.44122600E+03</rscale>
<asrwt>0</asrwt>
<pdfrwt beam="1">  1        2 0.23950202E+00 0.44122600E+03</pdfrwt>
<pdfrwt beam="2">  1       -2 0.41472188E-02 0.44122600E+03</pdfrwt>
<totfact> 0.33097100E+03</totfact>
</mgrwt>
</event>
<event>
 4    1  0.2581031E-004  0.4653449E+03  0.7818608E-02  0.1023242E+00
          2   -1    0    0  501    0  0.00000000000E+00  0.00000000000E+00  0.65560904072E+03  0.65560904072E+03  0.25500000000E-02 0.  1.
         -2   -1    0    0    0  501 -0.00000000000E+00 -0.00000000000E+00 -0.82574309060E+02  0.82574309100E+02  0.25500000000E-02 0. -1.
    5000001    1    1    2    0    0  0.71377011951E+02  0.14408743470E+03  0.46138361130E+03  0.50483631352E+03  0.12700000000E+03 0.  0.
   -5000001    1    1    2    0    0 -0.71377011951E+02 -0.14408743470E+03  0.11165112035E+03  0.23334703630E+03  0.12700000000E+03 0.  0.
<mgrwt>
<rscale>  0 0.46534488E+03</rscale>
<asrwt>0</asrwt>
<pdfrwt beam="1">  1        2 0.93658430E-01 0.46534488E+03</pdfrwt>
<pdfrwt beam="2">  1       -2 0.11796330E-01 0.46534488E+03</pdfrwt>
<totfact> 0.25385478E+03</totfact>
</mgrwt>
</event>
<event>
 4    1  0.2581031E-004  0.3830005E+03  0.7818608E-02  0.1049830E+00
         -2   -1    0    0    0  501 -0.00000000000E+00  0.00000000000E+00  0.27619971765E+02  0.27619971883E+02  0.25500000000E-02 0. -1.
          2   -1    0    0  501    0  0.00000000000E+00 -0.00000000000E+00 -0.13277473780E+04  0.13277473780E+04  0.25500000000E-02 0.  1.
    5000001    1    1    2    0    0  0.82798013802E+02  0.18374669205E+02 -0.24117825065E+03  0.28546293655E+03  0.12700000000E+03 0.  0.
   -5000001    1    1    2    0    0 -0.82798013802E+02 -0.18374669205E+02 -0.10589491556E+04  0.10699044133E+04  0.12700000000E+03 0.  0.
<mgrwt>
<rscale>  0 0.38300050E+03</rscale>
<asrwt>0</asrwt>
<pdfrwt beam="1">  1        2 0.18967816E+00 0.38300050E+03</pdfrwt>
<pdfrwt beam="2">  1       -2 0.39457111E-02 0.38300050E+03</pdfrwt>
<totfact> 0.53966269E+03</totfact>
</mgrwt>
</event>
<event>
 4    1  0.2581031E-004  0.2954248E+03  0.7818608E-02  0.1087550E+00
         -2   -1    0    0    0  501 -0.00000000000E+00  0.00000000000E+00  0.34637016457E+03  0.34637016458E+03  0.25500000000E-02 0. -1.
          2   -1    0    0  501    0  0.00000000000E+00 -0.00000000000E+00 -0.62993167967E+02  0.62993168019E+02  0.25500000000E-02 0.  1.
    5000001    1    1    2    0    0  0.73514680503E+02  0.14460548224E+02  0.15380333009E+03  0.21306801743E+03  0.12700000000E+03 0.  0.
   -5000001    1    1    2    0    0 -0.73514680503E+02 -0.14460548224E+02  0.12957366652E+03  0.19629531517E+03  0.12700000000E+03 0.  0.
<mgrwt>
<rscale>  0 0.29542481E+03</rscale>
<asrwt>0</asrwt>
<pdfrwt beam="1">  1        2 0.89990243E-02 0.29542481E+03</pdfrwt>
<pdfrwt beam="2">  1       -2 0.49481450E-01 0.29542481E+03</pdfrwt>
<totfact> 0.28694353E+03</totfact>
</mgrwt>
</event>
<event>
 4    1  0.2581031E-004  0.3814062E+03  0.7818608E-02  0.1050415E+00
          2   -1    0    0  501    0  0.00000000000E+00  0.00000000000E+00  0.73485705472E+03  0.73485705473E+03  0.25500000000E-02 0.  1.
         -2   -1    0    0    0  501 -0.00000000000E+00 -0.00000000000E+00 -0.49489447994E+02  0.49489448059E+02  0.25500000000E-02 0. -1.
    5000001    1    1    2    0    0 -0.84222045268E+02 -0.33033170396E+02  0.11690243175E+03  0.19488386748E+03  0.12700000000E+03 0.  0.
   -5000001    1    1    2    0    0  0.84222045268E+02  0.33033170396E+02  0.56846517498E+03  0.58946263531E+03  0.12700000000E+03 0.  0.
<mgrwt>
<rscale>  0 0.38140619E+03</rscale>
<asrwt>0</asrwt>
<pdfrwt beam="1">  1        2 0.10497958E+00 0.38140619E+03</pdfrwt>
<pdfrwt beam="2">  1       -2 0.70699208E-02 0.38140619E+03</pdfrwt>
<totfact> 0.49968024E+03</totfact>
</mgrwt>
</event>
<event>
 4    1  0.2581031E-004  0.3333801E+03  0.7818608E-02  0.1069651E+00
         -2   -1    0    0    0  501 -0.00000000000E+00  0.00000000000E+00  0.59384896440E+02  0.59384896494E+02  0.25500000000E-02 0. -1.
          2   -1    0    0  501    0  0.00000000000E+00 -0.00000000000E+00 -0.46788968181E+03  0.46788968181E+03  0.25500000000E-02 0.  1.
    5000001    1    1    2    0    0 -0.61045929721E+02  0.85720497279E+02 -0.16609771223E+03  0.23407703689E+03  0.12700000000E+03 0.  0.
   -5000001    1    1    2    0    0  0.61045929721E+02 -0.85720497279E+02 -0.24240707314E+03  0.29319754142E+03  0.12700000000E+03 0.  0.
<mgrwt>
<rscale>  0 0.33338015E+03</rscale>
<asrwt>0</asrwt>
<pdfrwt beam="1">  1        2 0.66841381E-01 0.33338015E+03</pdfrwt>
<pdfrwt beam="2">  1       -2 0.84835569E-02 0.33338015E+03</pdfrwt>
<totfact> 0.62964172E+03</totfact>
</mgrwt>
</event>
<event>
 4    1  0.2581031E-004  0.2872016E+03  0.7818608E-02  0.1091819E+00
          2   -1    0    0  501    0  0.00000000000E+00  0.00000000000E+00  0.12621826087E+04  0.12621826087E+04  0.25500000000E-02 0.  1.
         -2   -1    0    0    0  501 -0.00000000000E+00 -0.00000000000E+00 -0.16337727683E+02  0.16337727882E+02  0.25500000000E-02 0. -1.
    5000001    1    1    2    0    0  0.46263032694E+02  0.47784758475E+02  0.65977835180E+03  0.67517414409E+03  0.12700000000E+03 0.  0.
   -5000001    1    1    2    0    0 -0.46263032694E+02 -0.47784758475E+02  0.58606652924E+03  0.60334619253E+03  0.12700000000E+03 0.  0.
<mgrwt>
<rscale>  0 0.28720164E+03</rscale>
<asrwt>0</asrwt>
<pdfrwt beam="1">  1        2 0.18031182E+00 0.28720164E+03</pdfrwt>
<pdfrwt beam="2">  1       -2 0.23339609E-02 0.28720164E+03</pdfrwt>
<totfact> 0.12764123E+04</totfact>
</mgrwt>
</event>
<event>
 4    1  0.2581031E-004  0.2905448E+03  0.7818608E-02  0.1090065E+00
         -2   -1    0    0    0  501 -0.00000000000E+00  0.00000000000E+00  0.59310583400E+02  0.59310583454E+02  0.25500000000E-02 0. -1.
          2   -1    0    0  501    0  0.00000000000E+00 -0.00000000000E+00 -0.35582306956E+03  0.35582306957E+03  0.25500000000E-02 0.  1.
    5000001    1    1    2    0    0 -0.29480884035E+02 -0.29267830908E+02 -0.66809684939E+02  0.14939297993E+03  0.12700000000E+03 0.  0.
   -5000001    1    1    2    0    0  0.29480884035E+02  0.29267830908E+02 -0.22970280122E+03  0.26574067310E+03  0.12700000000E+03 0.  0.
<mgrwt>
<rscale>  0 0.29054483E+03</rscale>
<asrwt>0</asrwt>
<pdfrwt beam="1">  1        2 0.50831866E-01 0.29054483E+03</pdfrwt>
<pdfrwt beam="2">  1       -2 0.84729407E-02 0.29054483E+03</pdfrwt>
<totfact> 0.84617688E+03</totfact>
</mgrwt>
</event>
<event>
 4    1  0.2581031E-004  0.3597775E+03  0.7818608E-02  0.1058672E+00
          2   -1    0    0  501    0  0.00000000000E+00  0.00000000000E+00  0.57849867036E+03  0.57849867036E+03  0.25500000000E-02 0.  1.
         -2   -1    0    0    0  501 -0.00000000000E+00 -0.00000000000E+00 -0.55937842851E+02  0.55937842909E+02  0.25500000000E-02 0. -1.
    5000001    1    1    2    0    0 -0.68977493661E+02 -0.98482458181E+02  0.33555924007E+03  0.37839885412E+03  0.12700000000E+03 0.  0.
   -5000001    1    1    2    0    0  0.68977493661E+02  0.98482458181E+02  0.18700158744E+03  0.25603765915E+03  0.12700000000E+03 0.  0.
<mgrwt>
<rscale>  0 0.35977753E+03</rscale>
<asrwt>0</asrwt>
<pdfrwt beam="1">  1        2 0.82642669E-01 0.35977753E+03</pdfrwt>
<pdfrwt beam="2">  1       -2 0.79911203E-02 0.35977753E+03</pdfrwt>
<totfact> 0.54617227E+03</totfact>
</mgrwt>
</event>
<event>
 4    1  0.2581031E-004  0.4443596E+03  0.7818608E-02  0.1029418E+00
          2   -1    0    0  501    0  0.00000000000E+00  0.00000000000E+00  0.46399042082E+03  0.46399042083E+03  0.25500000000E-02 0.  1.
         -2   -1    0    0    0  501 -0.00000000000E+00 -0.00000000000E+00 -0.10638983688E+03  0.10638983691E+03  0.25500000000E-02 0. -1.
    5000001    1    1    2    0    0 -0.52670593717E+02 -0.22913060949E+02 -0.43287337487E+02  0.14595202428E+03  0.12700000000E+03 0.  0.
   -5000001    1    1    2    0    0  0.52670593717E+02  0.22913060949E+02  0.40088792143E+03  0.42442823346E+03  0.12700000000E+03 0.  0.
<mgrwt>
<rscale>  0 0.44435961E+03</rscale>
<asrwt>0</asrwt>
<pdfrwt beam="1">  1        2 0.66284345E-01 0.44435961E+03</pdfrwt>
<pdfrwt beam="2">  1       -2 0.15198548E-01 0.44435961E+03</pdfrwt>
<totfact> 0.24819350E+03</totfact>
</mgrwt>
</event>
<event>
 4    1  0.2581031E-004  0.3442246E+03  0.7818608E-02  0.1065011E+00
          2   -1    0    0  501    0  0.00000000000E+00  0.00000000000E+00  0.89328904749E+03  0.89328904749E+03  0.25500000000E-02 0.  1.
         -2   -1    0    0    0  501 -0.00000000000E+00 -0.00000000000E+00 -0.33161315319E+02  0.33161315417E+02  0.25500000000E-02 0. -1.
    5000001    1    1    2    0    0  0.90064751079E+01 -0.11123477602E+03  0.34329563608E+03  0.38266850634E+03  0.12700000000E+03 0.  0.
   -5000001    1    1    2    0    0 -0.90064751079E+01  0.11123477602E+03  0.51683209609E+03  0.54378185657E+03  0.12700000000E+03 0.  0.
<mgrwt>
<rscale>  0 0.34422458E+03</rscale>
<asrwt>0</asrwt>
<pdfrwt beam="1">  1        2 0.12761268E+00 0.34422458E+03</pdfrwt>
<pdfrwt beam="2">  1       -2 0.47373321E-02 0.34422458E+03</pdfrwt>
<totfact> 0.72325465E+03</totfact>
</mgrwt>
</event>
<event>
 4    1  0.2581031E-004  0.4778066E+03  0.7818608E-02  0.1019740E+00
         -2   -1    0    0    0  501 -0.00000000000E+00  0.00000000000E+00  0.36270812686E+02  0.36270812776E+02  0.25500000000E-02 0. -1.
          2   -1    0    0  501    0  0.00000000000E+00 -0.00000000000E+00 -0.15735732029E+04  0.15735732029E+04  0.25500000000E-02 0.  1.
    5000001    1    1    2    0    0 -0.17416206725E+03 -0.33102989643E+02 -0.10973469995E+04  0.11188063599E+04  0.12700000000E+03 0.  0.
   -5000001    1    1    2    0    0  0.17416206725E+03  0.33102989643E+02 -0.43995539068E+03  0.49103765577E+03  0.12700000000E+03 0.  0.
<mgrwt>
<rscale>  0 0.47780657E+03</rscale>
<asrwt>0</asrwt>
<pdfrwt beam="1">  1        2 0.22479613E+00 0.47780657E+03</pdfrwt>
<pdfrwt beam="2">  1       -2 0.51815457E-02 0.47780657E+03</pdfrwt>
<totfact> 0.26497893E+03</totfact>
</mgrwt>
</event>
<event>
 4    1  0.2581031E-004  0.4618050E+03  0.7818608E-02  0.1024259E+00
          2   -1    0    0  501    0  0.00000000000E+00  0.00000000000E+00  0.54592280076E+03  0.54592280077E+03  0.25500000000E-02 0.  1.
         -2   -1    0    0    0  501 -0.00000000000E+00 -0.00000000000E+00 -0.97662112803E+02  0.97662112837E+02  0.25500000000E-02 0. -1.
    5000001    1    1    2    0    0 -0.16837909379E+01  0.19006919361E+03  0.17880330902E+03  0.29022190963E+03  0.12700000000E+03 0.  0.
   -5000001    1    1    2    0    0  0.16837909379E+01 -0.19006919361E+03  0.26945737894E+03  0.35336300398E+03  0.12700000000E+03 0.  0.
<mgrwt>
<rscale>  0 0.46180504E+03</rscale>
<asrwt>0</asrwt>
<pdfrwt beam="1">  1        2 0.77988969E-01 0.46180504E+03</pdfrwt>
<pdfrwt beam="2">  1       -2 0.13951731E-01 0.46180504E+03</pdfrwt>
<totfact> 0.23835535E+03</totfact>
</mgrwt>
</event>
<event>
 4    1  0.2581031E-004  0.3423781E+03  0.7818608E-02  0.1065788E+00
          2   -1    0    0  501    0  0.00000000000E+00  0.00000000000E+00  0.28076116853E+04  0.28076116853E+04  0.25500000000E-02 0.  1.
         -2   -1    0    0    0  501 -0.00000000000E+00 -0.00000000000E+00 -0.10437941769E+02  0.10437942081E+02  0.25500000000E-02 0. -1.
    5000001    1    1    2    0    0  0.57427524181E+02  0.96742688519E+02  0.15862095642E+04  0.15952576124E+04  0.12700000000E+03 0.  0.
   -5000001    1    1    2    0    0 -0.57427524181E+02 -0.96742688519E+02  0.12109641793E+04  0.12227920150E+04  0.12700000000E+03 0.  0.
<mgrwt>
<rscale>  0 0.34237808E+03</rscale>
<asrwt>0</asrwt>
<pdfrwt beam="1">  1        2 0.40108758E+00 0.34237808E+03</pdfrwt>
<pdfrwt beam="2">  1       -2 0.14911338E-02 0.34237808E+03</pdfrwt>
<totfact> 0.41523319E+03</totfact>
</mgrwt>
</event>
<event>
 4    1  0.2581031E-004  0.3263176E+03  0.7818608E-02  0.1072778E+00
         -2   -1    0    0    0  501 -0.00000000000E+00  0.00000000000E+00  0.10826079590E+02  0.10826079890E+02  0.25500000000E-02 0. -1.
          2   -1    0    0  501    0  0.00000000000E+00 -0.00000000000E+00 -0.24589511480E+04  0.24589511480E+04  0.25500000000E-02 0.  1.
    5000001    1    1    2    0    0  0.89332002474E+02 -0.23369391655E+02 -0.15596069390E+04  0.15674913522E+04  0.12700000000E+03 0.  0.
   -5000001    1    1    2    0    0 -0.89332002474E+02  0.23369391655E+02 -0.88851812946E+03  0.90228587572E+03  0.12700000000E+03 0.  0.
<mgrwt>
<rscale>  0 0.32631764E+03</rscale>
<asrwt>0</asrwt>
<pdfrwt beam="1">  1        2 0.35127838E+00 0.32631764E+03</pdfrwt>
<pdfrwt beam="2">  1       -2 0.15465844E-02 0.32631764E+03</pdfrwt>
<totfact> 0.59278384E+03</totfact>
</mgrwt>
</event>
<event>
 4    1  0.2581031E-004  0.4327586E+03  0.7818608E-02  0.1032992E+00
          2   -1    0    0  501    0  0.00000000000E+00  0.00000000000E+00  0.29682131269E+04  0.29682131269E+04  0.25500000000E-02 0.  1.
         -2   -1    0    0    0  501 -0.00000000000E+00 -0.00000000000E+00 -0.15773800142E+02  0.15773800348E+02  0.25500000000E-02 0. -1.
    5000001    1    1    2    0    0 -0.57521616320E+02 -0.16262058842E+03  0.12651738704E+04  0.12831789098E+04  0.12700000000E+03 0.  0.
   -5000001    1    1    2    0    0  0.57521616320E+02  0.16262058842E+03  0.16872654564E+04  0.17008080175E+04  0.12700000000E+03 0.  0.
<mgrwt>
<rscale>  0 0.43275860E+03</rscale>
<asrwt>0</asrwt>
<pdfrwt beam="1">  1        2 0.42403042E+00 0.43275860E+03</pdfrwt>
<pdfrwt beam="2">  1       -2 0.22534002E-02 0.43275860E+03</pdfrwt>
<totfact> 0.18400187E+03</totfact>
</mgrwt>
</event>
<event>
 4    1  0.2581031E-004  0.2926566E+03  0.7818608E-02  0.1088970E+00
          2   -1    0    0  501    0  0.00000000000E+00  0.00000000000E+00  0.19842912302E+04  0.19842912302E+04  0.25500000000E-02 0.  1.
         -2   -1    0    0    0  501 -0.00000000000E+00 -0.00000000000E+00 -0.10790737203E+02  0.10790737504E+02  0.25500000000E-02 0. -1.
    5000001    1    1    2    0    0  0.62024526357E+02  0.36880899563E+02  0.10460722813E+04  0.10562213122E+04  0.12700000000E+03 0.  0.
   -5000001    1    1    2    0    0 -0.62024526357E+02 -0.36880899563E+02  0.92742821176E+03  0.93886065558E+03  0.12700000000E+03 0.  0.
<mgrwt>
<rscale>  0 0.29265656E+03</rscale>
<asrwt>0</asrwt>
<pdfrwt beam="1">  1        2 0.28347015E+00 0.29265656E+03</pdfrwt>
<pdfrwt beam="2">  1       -2 0.15415341E-02 0.29265656E+03</pdfrwt>
<totfact> 0.10203065E+04</totfact>
</mgrwt>
</event>
<event>
 4    1  0.2581031E-004  0.4644568E+03  0.7818608E-02  0.1023497E+00
         -2   -1    0    0    0  501 -0.00000000000E+00  0.00000000000E+00  0.45855261172E+02  0.45855261243E+02  0.25500000000E-02 0. -1.
          2   -1    0    0  501    0  0.00000000000E+00 -0.00000000000E+00 -0.11760923432E+04  0.11760923432E+04  0.25500000000E-02 0.  1.
    5000001    1    1    2    0    0  0.10376901401E+01 -0.18117840430E+03 -0.37956270626E+03  0.43934444229E+03  0.12700000000E+03 0.  0.
   -5000001    1    1    2    0    0 -0.10376901401E+01  0.18117840430E+03 -0.75067437574E+03  0.78260316213E+03  0.12700000000E+03 0.  0.
<mgrwt>
<rscale>  0 0.46445676E+03</rscale>
<asrwt>0</asrwt>
<pdfrwt beam="1">  1        2 0.16801317E+00 0.46445676E+03</pdfrwt>
<pdfrwt beam="2">  1       -2 0.65507524E-02 0.46445676E+03</pdfrwt>
<totfact> 0.29927705E+03</totfact>
</mgrwt>
</event>
<event>
 4    1  0.2581031E-004  0.3807755E+03  0.7818608E-02  0.1050647E+00
          2   -1    0    0  501    0  0.00000000000E+00  0.00000000000E+00  0.17699359149E+04  0.17699359149E+04  0.25500000000E-02 0.  1.
         -2   -1    0    0    0  501 -0.00000000000E+00 -0.00000000000E+00 -0.20479555084E+02  0.20479555243E+02  0.25500000000E-02 0. -1.
    5000001    1    1    2    0    0  0.76766880638E+02  0.94575001101E+02  0.12164237914E+04  0.12290864189E+04  0.12700000000E+03 0.  0.
   -5000001    1    1    2    0    0 -0.76766880638E+02 -0.94575001101E+02  0.53303256836E+03  0.56132905120E+03  0.12700000000E+03 0.  0.
<mgrwt>
<rscale>  0 0.38077553E+03</rscale>
<asrwt>0</asrwt>
<pdfrwt beam="1">  1        2 0.25284796E+00 0.38077553E+03</pdfrwt>
<pdfrwt beam="2">  1       -2 0.29256511E-02 0.38077553E+03</pdfrwt>
<totfact> 0.50417287E+03</totfact>
</mgrwt>
</event>
<event>
 4    1  0.2581031E-004  0.3554724E+03  0.7818608E-02  0.1060391E+00
          2   -1    0    0  501    0  0.00000000000E+00  0.00000000000E+00  0.51476779677E+03  0.51476779678E+03  0.25500000000E-02 0. -1.
         -2   -1    0    0    0  501 -0.00000000000E+00 -0.00000000000E+00 -0.61367792816E+02  0.61367792869E+02  0.25500000000E-02 0.  1.
    5000001    1    1    2    0    0 -0.73706978568E+02  0.96420505837E+02  0.18286357953E+03  0.25356995357E+03  0.12700000000E+03 0.  0.
   -5000001    1    1    2    0    0  0.73706978568E+02 -0.96420505837E+02  0.27053642442E+03  0.32256563607E+03  0.12700000000E+03 0.  0.
<mgrwt>
<rscale>  0 0.35547244E+03</rscale>
<asrwt>0</asrwt>
<pdfrwt beam="1">  1        2 0.73538256E-01 0.35547244E+03</pdfrwt>
<pdfrwt beam="2">  1       -2 0.87668276E-02 0.35547244E+03</pdfrwt>
<totfact> 0.53846236E+03</totfact>
</mgrwt>
</event>
<event>
 4    1  0.2581031E-004  0.3140745E+03  0.7818608E-02  0.1078409E+00
         -2   -1    0    0    0  501 -0.00000000000E+00  0.00000000000E+00  0.71080546252E+01  0.71080550826E+01  0.25500000000E-02 0. -1.
          2   -1    0    0  501    0  0.00000000000E+00 -0.00000000000E+00 -0.34694016631E+04  0.34694016631E+04  0.25500000000E-02 0.  1.
    5000001    1    1    2    0    0  0.52123689592E+02 -0.43284196035E+02 -0.10362339584E+04  0.10461836441E+04  0.12700000000E+03 0.  0.
   -5000001    1    1    2    0    0 -0.52123689592E+02  0.43284196035E+02 -0.24260596502E+04  0.24303260742E+04  0.12700000000E+03 0.  0.
<mgrwt>
<rscale>  0 0.31407450E+03</rscale>
<asrwt>0</asrwt>
<pdfrwt beam="1">  1        2 0.49562773E+00 0.31407450E+03</pdfrwt>
<pdfrwt beam="2">  1       -2 0.10154386E-02 0.31407450E+03</pdfrwt>
<totfact> 0.31764555E+03</totfact>
</mgrwt>
</event>
<event>
 4    1  0.2581031E-004  0.3235316E+03  0.7818608E-02  0.1074035E+00
          2   -1    0    0  501    0  0.00000000000E+00  0.00000000000E+00  0.16386943670E+03  0.16386943672E+03  0.25500000000E-02 0.  1.
         -2   -1    0    0    0  501 -0.00000000000E+00 -0.00000000000E+00 -0.15968917912E+03  0.15968917914E+03  0.25500000000E-02 0. -1.
    5000001    1    1    2    0    0  0.68481231868E+02 -0.24365268594E+02 -0.66878156419E+02  0.16088826321E+03  0.12700000000E+03 0.  0.
   -5000001    1    1    2    0    0 -0.68481231868E+02  0.24365268594E+02  0.71058413996E+02  0.16267035265E+03  0.12700000000E+03 0.  0.
<mgrwt>
<rscale>  0 0.32353161E+03</rscale>
<asrwt>0</asrwt>
<pdfrwt beam="1">  1        2 0.23409919E-01 0.32353161E+03</pdfrwt>
<pdfrwt beam="2">  1       -2 0.22812740E-01 0.32353161E+03</pdfrwt>
<totfact> 0.38783834E+03</totfact>
</mgrwt>
</event>
<event>
 4    1  0.2581031E-004  0.4816127E+03  0.7818608E-02  0.1018693E+00
         -2   -1    0    0    0  501 -0.00000000000E+00  0.00000000000E+00  0.49852487448E+02  0.49852487514E+02  0.25500000000E-02 0. -1.
          2   -1    0    0  501    0  0.00000000000E+00 -0.00000000000E+00 -0.11631857376E+04  0.11631857376E+04  0.25500000000E-02 0.  1.
    5000001    1    1    2    0    0  0.12546047474E+03  0.17020858342E+02 -0.96145450015E+03  0.97803568248E+03  0.12700000000E+03 0.  0.
   -5000001    1    1    2    0    0 -0.12546047474E+03 -0.17020858342E+02 -0.15187874997E+03  0.23500254261E+03  0.12700000000E+03 0.  0.
<mgrwt>
<rscale>  0 0.48161272E+03</rscale>
<asrwt>0</asrwt>
<pdfrwt beam="1">  1        2 0.16616937E+00 0.48161272E+03</pdfrwt>
<pdfrwt beam="2">  1       -2 0.71217847E-02 0.48161272E+03</pdfrwt>
<totfact> 0.26690692E+03</totfact>
</mgrwt>
</event>
<event>
 4    1  0.2581031E-004  0.3485811E+03  0.7818608E-02  0.1063199E+00
          2   -1    0    0  501    0  0.00000000000E+00  0.00000000000E+00  0.14893682173E+04  0.14893682173E+04  0.25500000000E-02 0.  1.
         -2   -1    0    0    0  501 -0.00000000000E+00 -0.00000000000E+00 -0.20396028965E+02  0.20396029124E+02  0.25500000000E-02 0. -1.
    5000001    1    1    2    0    0  0.60703219122E+02  0.10248028584E+03  0.70062874215E+03  0.72193955712E+03  0.12700000000E+03 0.  0.
   -5000001    1    1    2    0    0 -0.60703219122E+02 -0.10248028584E+03  0.76834344622E+03  0.78782468935E+03  0.12700000000E+03 0.  0.
<mgrwt>
<rscale>  0 0.34858111E+03</rscale>
<asrwt>0</asrwt>
<pdfrwt beam="1">  1        2 0.21276693E+00 0.34858111E+03</pdfrwt>
<pdfrwt beam="2">  1       -2 0.29137178E-02 0.34858111E+03</pdfrwt>
<totfact> 0.70158345E+03</totfact>
</mgrwt>
</event>
<event>
 4    1  0.2581031E-004  0.4452447E+03  0.7818608E-02  0.1029150E+00
         -2   -1    0    0    0  501 -0.00000000000E+00  0.00000000000E+00  0.17926437162E+02  0.17926437344E+02  0.25500000000E-02 0. -1.
          2   -1    0    0  501    0  0.00000000000E+00 -0.00000000000E+00 -0.27646712174E+04  0.27646712174E+04  0.25500000000E-02 0.  1.
    5000001    1    1    2    0    0 -0.73615431676E+01  0.18267918777E+03 -0.13884585794E+04  0.14061906359E+04  0.12700000000E+03 0.  0.
   -5000001    1    1    2    0    0  0.73615431676E+01 -0.18267918777E+03 -0.13582862008E+04  0.13764070188E+04  0.12700000000E+03 0.  0.
<mgrwt>
<rscale>  0 0.44524467E+03</rscale>
<asrwt>0</asrwt>
<pdfrwt beam="1">  1        2 0.39495276E+00 0.44524467E+03</pdfrwt>
<pdfrwt beam="2">  1       -2 0.25609214E-02 0.44524467E+03</pdfrwt>
<totfact> 0.19443296E+03</totfact>
</mgrwt>
</event>
<event>
 4    1  0.2581031E-004  0.9169776E+03  0.7818608E-02  0.9404604E-01
         -2   -1    0    0    0  501 -0.00000000000E+00  0.00000000000E+00  0.22013294940E+03  0.22013294942E+03  0.25500000000E-02 0. -1.
          2   -1    0    0  501    0  0.00000000000E+00 -0.00000000000E+00 -0.95493188323E+03  0.95493188323E+03  0.25500000000E-02 0.  1.
    5000001    1    1    2    0    0 -0.40963643191E+03 -0.99084600341E+02 -0.20297731151E+03  0.48471491968E+03  0.12700000000E+03 0.  0.
   -5000001    1    1    2    0    0  0.40963643191E+03  0.99084600341E+02 -0.53182162231E+03  0.69034991297E+03  0.12700000000E+03 0.  0.
<mgrwt>
<rscale>  0 0.91697758E+03</rscale>
<asrwt>0</asrwt>
<pdfrwt beam="1">  1        2 0.13641884E+00 0.91697758E+03</pdfrwt>
<pdfrwt beam="2">  1       -2 0.31447565E-01 0.91697758E+03</pdfrwt>
<totfact> 0.28111053E+02</totfact>
</mgrwt>
</event>
<event>
 4    1  0.2581031E-004  0.6113617E+03  0.7818608E-02  0.9882111E-01
          2   -1    0    0  501    0  0.00000000000E+00  0.00000000000E+00  0.42824585280E+03  0.42824585281E+03  0.25500000000E-02 0.  1.
         -2   -1    0    0    0  501 -0.00000000000E+00 -0.00000000000E+00 -0.21819423382E+03  0.21819423384E+03  0.25500000000E-02 0. -1.
    5000001    1    1    2    0    0 -0.83831680000E+02  0.19990327596E+03  0.28915135223E+03  0.38304905014E+03  0.12700000000E+03 0.  0.
   -5000001    1    1    2    0    0  0.83831680000E+02 -0.19990327596E+03 -0.79099733253E+02  0.26339103651E+03  0.12700000000E+03 0.  0.
<mgrwt>
<rscale>  0 0.61136168E+03</rscale>
<asrwt>0</asrwt>
<pdfrwt beam="1">  1        2 0.61177979E-01 0.61136168E+03</pdfrwt>
<pdfrwt beam="2">  1       -2 0.31170605E-01 0.61136168E+03</pdfrwt>
<totfact> 0.76737460E+02</totfact>
</mgrwt>
</event>
<event>
 4    1  0.2581031E-004  0.4015017E+03  0.7818608E-02  0.1043261E+00
          2   -1    0    0  501    0  0.00000000000E+00  0.00000000000E+00  0.48909380140E+03  0.48909380141E+03  0.25500000000E-02 0. -1.
         -2   -1    0    0    0  501 -0.00000000000E+00 -0.00000000000E+00 -0.82399135779E+02  0.82399135818E+02  0.25500000000E-02 0.  1.
    5000001    1    1    2    0    0  0.21317194755E+02  0.56530970561E+02  0.40725355665E+03  0.43085337741E+03  0.12700000000E+03 0.  0.
   -5000001    1    1    2    0    0 -0.21317194755E+02 -0.56530970561E+02 -0.55889102850E+00  0.14063955981E+03  0.12700000000E+03 0.  0.
<mgrwt>
<rscale>  0 0.40150171E+03</rscale>
<asrwt>0</asrwt>
<pdfrwt beam="1">  1        2 0.69870544E-01 0.40150171E+03</pdfrwt>
<pdfrwt beam="2">  1       -2 0.11771305E-01 0.40150171E+03</pdfrwt>
<totfact> 0.35626019E+03</totfact>
</mgrwt>
</event>
<event>
 4    1  0.2581031E-004  0.4912713E+03  0.7818608E-02  0.1016083E+00
         -2   -1    0    0    0  501 -0.00000000000E+00  0.00000000000E+00  0.42793161237E+02  0.42793161313E+02  0.25500000000E-02 0. -1.
          2   -1    0    0  501    0  0.00000000000E+00 -0.00000000000E+00 -0.14099652621E+04  0.14099652621E+04  0.25500000000E-02 0.  1.
    5000001    1    1    2    0    0 -0.14577794686E+03  0.42686998575E+02 -0.25368568846E+03  0.32180555957E+03  0.12700000000E+03 0.  0.
   -5000001    1    1    2    0    0  0.14577794686E+03 -0.42686998575E+02 -0.11134864124E+04  0.11309528638E+04  0.12700000000E+03 0.  0.
<mgrwt>
<rscale>  0 0.49127129E+03</rscale>
<asrwt>0</asrwt>
<pdfrwt beam="1">  1        2 0.20142358E+00 0.49127129E+03</pdfrwt>
<pdfrwt beam="2">  1       -2 0.61133096E-02 0.49127129E+03</pdfrwt>
<totfact> 0.24909355E+03</totfact>
</mgrwt>
</event>
<event>
 4    1  0.2581031E-004  0.2797903E+03  0.7818608E-02  0.1095804E+00
         -2   -1    0    0    0  501 -0.00000000000E+00  0.00000000000E+00  0.31773429235E+03  0.31773429236E+03  0.25500000000E-02 0. -1.
          2   -1    0    0  501    0  0.00000000000E+00 -0.00000000000E+00 -0.61594384034E+02  0.61594384087E+02  0.25500000000E-02 0.  1.
    5000001    1    1    2    0    0 -0.18310714534E+02  0.54824982816E+02  0.11447261077E+03  0.18048279592E+03  0.12700000000E+03 0.  0.
   -5000001    1    1    2    0    0  0.18310714534E+02 -0.54824982816E+02  0.14166729754E+03  0.19884588052E+03  0.12700000000E+03 0.  0.
<mgrwt>
<rscale>  0 0.27979026E+03</rscale>
<asrwt>0</asrwt>
<pdfrwt beam="1">  1        2 0.87991976E-02 0.27979026E+03</pdfrwt>
<pdfrwt beam="2">  1       -2 0.45390614E-01 0.27979026E+03</pdfrwt>
<totfact> 0.34947469E+03</totfact>
</mgrwt>
</event>
<event>
 4    1  0.2581031E-004  0.3998397E+03  0.7818608E-02  0.1043835E+00
         -2   -1    0    0    0  501 -0.00000000000E+00  0.00000000000E+00  0.16154555623E+02  0.16154555825E+02  0.25500000000E-02 0. -1.
          2   -1    0    0  501    0  0.00000000000E+00 -0.00000000000E+00 -0.24740973548E+04  0.24740973548E+04  0.25500000000E-02 0.  1.
    5000001    1    1    2    0    0  0.14757813990E+03  0.83378576163E+00 -0.94636672783E+03  0.96618786275E+03  0.12700000000E+03 0.  0.
   -5000001    1    1    2    0    0 -0.14757813990E+03 -0.83378576163E+00 -0.15115760714E+04  0.15240640479E+04  0.12700000000E+03 0.  0.
<mgrwt>
<rscale>  0 0.39983969E+03</rscale>
<asrwt>0</asrwt>
<pdfrwt beam="1">  1        2 0.35344224E+00 0.39983969E+03</pdfrwt>
<pdfrwt beam="2">  1       -2 0.23077953E-02 0.39983969E+03</pdfrwt>
<totfact> 0.32114823E+03</totfact>
</mgrwt>
</event>
<event>
 4    1  0.2581031E-004  0.5900775E+03  0.7818608E-02  0.9926209E-01
         -2   -1    0    0    0  501 -0.00000000000E+00  0.00000000000E+00  0.57812391131E+02  0.57812391187E+02  0.25500000000E-02 0. -1.
          2   -1    0    0  501    0  0.00000000000E+00 -0.00000000000E+00 -0.15056954761E+04  0.15056954761E+04  0.25500000000E-02 0.  1.
    5000001    1    1    2    0    0  0.85718115669E+02  0.12092156157E+03 -0.13771699921E+03  0.23888196098E+03  0.12700000000E+03 0.  0.
   -5000001    1    1    2    0    0 -0.85718115669E+02 -0.12092156157E+03 -0.13101660858E+04  0.13246259063E+04  0.12700000000E+03 0.  0.
<mgrwt>
<rscale>  0 0.59007747E+03</rscale>
<asrwt>0</asrwt>
<pdfrwt beam="1">  1        2 0.21509933E+00 0.59007747E+03</pdfrwt>
<pdfrwt beam="2">  1       -2 0.82589140E-02 0.59007747E+03</pdfrwt>
<totfact> 0.13772159E+03</totfact>
</mgrwt>
</event>
<event>
 4    1  0.2581031E-004  0.3185418E+03  0.7818608E-02  0.1076322E+00
         -2   -1    0    0    0  501 -0.00000000000E+00  0.00000000000E+00  0.11171121113E+02  0.11171121404E+02  0.25500000000E-02 0. -1.
          2   -1    0    0  501    0  0.00000000000E+00 -0.00000000000E+00 -0.22707861266E+04  0.22707861266E+04  0.25500000000E-02 0.  1.
    5000001    1    1    2    0    0 -0.91920404564E+02  0.27701956438E+02 -0.11629997683E+04  0.11738459099E+04  0.12700000000E+03 0.  0.
   -5000001    1    1    2    0    0  0.91920404564E+02 -0.27701956438E+02 -0.10966152372E+04  0.11081113381E+04  0.12700000000E+03 0.  0.
<mgrwt>
<rscale>  0 0.31854185E+03</rscale>
<asrwt>0</asrwt>
<pdfrwt beam="1">  1        2 0.32439772E+00 0.31854185E+03</pdfrwt>
<pdfrwt beam="2">  1       -2 0.15958759E-02 0.31854185E+03</pdfrwt>
<totfact> 0.70208022E+03</totfact>
</mgrwt>
</event>
<event>
 4    1  0.2581031E-004  0.3910300E+03  0.7818608E-02  0.1046931E+00
          2   -1    0    0  501    0  0.00000000000E+00  0.00000000000E+00  0.17567374569E+04  0.17567374569E+04  0.25500000000E-02 0.  1.
         -2   -1    0    0    0  501 -0.00000000000E+00 -0.00000000000E+00 -0.21759720849E+02  0.21759720998E+02  0.25500000000E-02 0. -1.
    5000001    1    1    2    0    0  0.56654591232E+02 -0.13742197201E+03  0.87478833067E+03  0.89636943532E+03  0.12700000000E+03 0.  0.
   -5000001    1    1    2    0    0 -0.56654591232E+02  0.13742197201E+03  0.86018940536E+03  0.88212774256E+03  0.12700000000E+03 0.  0.
<mgrwt>
<rscale>  0 0.39103001E+03</rscale>
<asrwt>0</asrwt>
<pdfrwt beam="1">  1        2 0.25096259E+00 0.39103001E+03</pdfrwt>
<pdfrwt beam="2">  1       -2 0.31085304E-02 0.39103001E+03</pdfrwt>
<totfact> 0.46726229E+03</totfact>
</mgrwt>
</event>
<event>
 4    1  0.2581031E-004  0.3858570E+03  0.7818608E-02  0.1048790E+00
          2   -1    0    0  501    0  0.00000000000E+00  0.00000000000E+00  0.13799680994E+04  0.13799680995E+04  0.25500000000E-02 0.  1.
         -2   -1    0    0    0  501 -0.00000000000E+00 -0.00000000000E+00 -0.26972658606E+02  0.26972658727E+02  0.25500000000E-02 0. -1.
    5000001    1    1    2    0    0 -0.67176447088E+02 -0.11625401662E+03  0.87835574840E+03  0.89758870992E+03  0.12700000000E+03 0.  0.
   -5000001    1    1    2    0    0  0.67176447088E+02  0.11625401662E+03  0.47463969245E+03  0.50935204826E+03  0.12700000000E+03 0.  0.
<mgrwt>
<rscale>  0 0.38585701E+03</rscale>
<asrwt>0</asrwt>
<pdfrwt beam="1">  1        2 0.19713837E+00 0.38585701E+03</pdfrwt>
<pdfrwt beam="2">  1       -2 0.38532356E-02 0.38585701E+03</pdfrwt>
<totfact> 0.52510468E+03</totfact>
</mgrwt>
</event>
<event>
 4    1  0.2581031E-004  0.4022340E+03  0.7818608E-02  0.1043009E+00
         -2   -1    0    0    0  501 -0.00000000000E+00  0.00000000000E+00  0.16384647388E+02  0.16384647587E+02  0.25500000000E-02 0. -1.
          2   -1    0    0  501    0  0.00000000000E+00 -0.00000000000E+00 -0.24686551623E+04  0.24686551623E+04  0.25500000000E-02 0.  1.
    5000001    1    1    2    0    0 -0.22786657580E+02 -0.14886694422E+03 -0.14762104570E+04  0.14892974559E+04  0.12700000000E+03 0.  0.
   -5000001    1    1    2    0    0  0.22786657580E+02  0.14886694422E+03 -0.97606005798E+03  0.99574235404E+03  0.12700000000E+03 0.  0.
<mgrwt>
<rscale>  0 0.40223398E+03</rscale>
<asrwt>0</asrwt>
<pdfrwt beam="1">  1        2 0.35266479E+00 0.40223398E+03</pdfrwt>
<pdfrwt beam="2">  1       -2 0.23406655E-02 0.40223398E+03</pdfrwt>
<totfact> 0.31639508E+03</totfact>
</mgrwt>
</event>
<event>
 4    1  0.2581031E-004  0.4509325E+03  0.7818608E-02  0.1027444E+00
         -2   -1    0    0    0  501 -0.00000000000E+00  0.00000000000E+00  0.63640810164E+02  0.63640810215E+02  0.25500000000E-02 0. -1.
          2   -1    0    0  501    0  0.00000000000E+00 -0.00000000000E+00 -0.79878037057E+03  0.79878037058E+03  0.25500000000E-02 0.  1.
    5000001    1    1    2    0    0 -0.37092424442E+02  0.17377081495E+03 -0.26050430109E+03  0.33994651780E+03  0.12700000000E+03 0.  0.
   -5000001    1    1    2    0    0  0.37092424442E+02 -0.17377081495E+03 -0.47463525932E+03  0.52247466299E+03  0.12700000000E+03 0.  0.
<mgrwt>
<rscale>  0 0.45093250E+03</rscale>
<asrwt>0</asrwt>
<pdfrwt beam="1">  1        2 0.11411148E+00 0.45093250E+03</pdfrwt>
<pdfrwt beam="2">  1       -2 0.90915448E-02 0.45093250E+03</pdfrwt>
<totfact> 0.30347958E+03</totfact>
</mgrwt>
</event>
<event>
 4    1  0.2581031E-004  0.5682602E+03  0.7818608E-02  0.9973536E-01
          2   -1    0    0  501    0  0.00000000000E+00  0.00000000000E+00  0.22100192736E+04  0.22100192736E+04  0.25500000000E-02 0.  1.
         -2   -1    0    0    0  501 -0.00000000000E+00 -0.00000000000E+00 -0.36529051347E+02  0.36529051436E+02  0.25500000000E-02 0. -1.
    5000001    1    1    2    0    0  0.21340250597E+03 -0.13006980748E+03  0.90377052668E+03  0.94624994017E+03  0.12700000000E+03 0.  0.
   -5000001    1    1    2    0    0 -0.21340250597E+03  0.13006980748E+03  0.12697196956E+04  0.13002983849E+04  0.12700000000E+03 0.  0.
<mgrwt>
<rscale>  0 0.56826018E+03</rscale>
<asrwt>0</asrwt>
<pdfrwt beam="1">  1        2 0.31571707E+00 0.56826018E+03</pdfrwt>
<pdfrwt beam="2">  1       -2 0.52184354E-02 0.56826018E+03</pdfrwt>
<totfact> 0.12498612E+03</totfact>
</mgrwt>
</event>
<event>
 4    1  0.2581031E-004  0.5098810E+03  0.7818608E-02  0.1011232E+00
          2   -1    0    0  501    0  0.00000000000E+00  0.00000000000E+00  0.98189670465E+02  0.98189670498E+02  0.25500000000E-02 0.  1.
         -2   -1    0    0    0  501 -0.00000000000E+00 -0.00000000000E+00 -0.66192974013E+03  0.66192974014E+03  0.25500000000E-02 0. -1.
    5000001    1    1    2    0    0  0.20865169617E+03  0.72829981905E+02 -0.28946078760E+03  0.38568936223E+03  0.12700000000E+03 0.  0.
   -5000001    1    1    2    0    0 -0.20865169617E+03 -0.72829981905E+02 -0.27427928207E+03  0.37443004841E+03  0.12700000000E+03 0.  0.
<mgrwt>
<rscale>  0 0.50988102E+03</rscale>
<asrwt>0</asrwt>
<pdfrwt beam="1">  1        2 0.14027096E-01 0.50988102E+03</pdfrwt>
<pdfrwt beam="2">  1       -2 0.94561389E-01 0.50988102E+03</pdfrwt>
<totfact> 0.41426588E+02</totfact>
</mgrwt>
</event>
<event>
 4    1  0.2581031E-004  0.4655317E+03  0.7818608E-02  0.1023189E+00
          2   -1    0    0  501    0  0.00000000000E+00  0.00000000000E+00  0.15336578518E+04  0.15336578518E+04  0.25500000000E-02 0.  1.
         -2   -1    0    0    0  501 -0.00000000000E+00 -0.00000000000E+00 -0.35327260262E+02  0.35327260354E+02  0.25500000000E-02 0. -1.
    5000001    1    1    2    0    0  0.16483945341E+03 -0.97415856900E+02  0.87477589623E+03  0.90444666134E+03  0.12700000000E+03 0.  0.
   -5000001    1    1    2    0    0 -0.16483945341E+03  0.97415856900E+02  0.62355469527E+03  0.66453845078E+03  0.12700000000E+03 0.  0.
<mgrwt>
<rscale>  0 0.46553165E+03</rscale>
<asrwt>0</asrwt>
<pdfrwt beam="1">  1        2 0.21909395E+00 0.46553165E+03</pdfrwt>
<pdfrwt beam="2">  1       -2 0.50467521E-02 0.46553165E+03</pdfrwt>
<totfact> 0.28935152E+03</totfact>
</mgrwt>
</event>
<event>
 4    1  0.2581031E-004  0.5646425E+03  0.7818608E-02  0.9981604E-01
         -2   -1    0    0    0  501 -0.00000000000E+00  0.00000000000E+00  0.13679680811E+03  0.13679680814E+03  0.25500000000E-02 0. -1.
          2   -1    0    0  501    0  0.00000000000E+00 -0.00000000000E+00 -0.58265469130E+03  0.58265469131E+03  0.25500000000E-02 0.  1.
    5000001    1    1    2    0    0 -0.22974810824E+03 -0.95022527337E+02 -0.16943151404E+03  0.32657236854E+03  0.12700000000E+03 0.  0.
   -5000001    1    1    2    0    0  0.22974810824E+03  0.95022527337E+02 -0.27642636915E+03  0.39287913091E+03  0.12700000000E+03 0.  0.
<mgrwt>
<rscale>  0 0.56464255E+03</rscale>
<asrwt>0</asrwt>
<pdfrwt beam="1">  1        2 0.83236383E-01 0.56464255E+03</pdfrwt>
<pdfrwt beam="2">  1       -2 0.19542401E-01 0.56464255E+03</pdfrwt>
<totfact> 0.12489841E+03</totfact>
</mgrwt>
</event>
<event>
 4    1  0.2581031E-004  0.4420416E+03  0.7818608E-02  0.1030122E+00
          2   -1    0    0  501    0  0.00000000000E+00  0.00000000000E+00  0.14340197988E+04  0.14340197988E+04  0.25500000000E-02 0.  1.
         -2   -1    0    0    0  501 -0.00000000000E+00 -0.00000000000E+00 -0.34065216711E+02  0.34065216807E+02  0.25500000000E-02 0. -1.
    5000001    1    1    2    0    0  0.85534399559E+02  0.14960845368E+03  0.51739357444E+03  0.55993207962E+03  0.12700000000E+03 0.  0.
   -5000001    1    1    2    0    0 -0.85534399559E+02 -0.14960845368E+03  0.88256100766E+03  0.90815293600E+03  0.12700000000E+03 0.  0.
<mgrwt>
<rscale>  0 0.44204161E+03</rscale>
<asrwt>0</asrwt>
<pdfrwt beam="1">  1        2 0.20485996E+00 0.44204161E+03</pdfrwt>
<pdfrwt beam="2">  1       -2 0.48664599E-02 0.44204161E+03</pdfrwt>
<totfact> 0.34465058E+03</totfact>
</mgrwt>
</event>
<event>
 4    1  0.2581031E-004  0.3944594E+03  0.7818608E-02  0.1045715E+00
         -2   -1    0    0    0  501 -0.00000000000E+00  0.00000000000E+00  0.40822893914E+02  0.40822893994E+02  0.25500000000E-02 0. -1.
          2   -1    0    0  501    0  0.00000000000E+00 -0.00000000000E+00 -0.95288581959E+03  0.95288581959E+03  0.25500000000E-02 0.  1.
    5000001    1    1    2    0    0  0.11639963532E+03 -0.56877895136E+02 -0.65094698001E+03  0.67575508939E+03  0.12700000000E+03 0.  0.
   -5000001    1    1    2    0    0 -0.11639963532E+03  0.56877895136E+02 -0.26111594566E+03  0.31795362419E+03  0.12700000000E+03 0.  0.
<mgrwt>
<rscale>  0 0.39445941E+03</rscale>
<asrwt>0</asrwt>
<pdfrwt beam="1">  1        2 0.13612653E+00 0.39445941E+03</pdfrwt>
<pdfrwt beam="2">  1       -2 0.58318426E-02 0.39445941E+03</pdfrwt>
<totfact> 0.48366911E+03</totfact>
</mgrwt>
</event>
<event>
 4    1  0.2581031E-004  0.3051072E+03  0.7818608E-02  0.1082715E+00
         -2   -1    0    0    0  501 -0.00000000000E+00  0.00000000000E+00  0.89300397659E+02  0.89300397695E+02  0.25500000000E-02 0. -1.
          2   -1    0    0  501    0  0.00000000000E+00 -0.00000000000E+00 -0.26061023173E+03  0.26061023174E+03  0.25500000000E-02 0.  1.
    5000001    1    1    2    0    0 -0.75209145331E+02 -0.38435519042E+02 -0.82047789596E+02  0.17318933120E+03  0.12700000000E+03 0.  0.
   -5000001    1    1    2    0    0  0.75209145331E+02  0.38435519042E+02 -0.89262044475E+02  0.17672129823E+03  0.12700000000E+03 0.  0.
<mgrwt>
<rscale>  0 0.30510718E+03</rscale>
<asrwt>0</asrwt>
<pdfrwt beam="1">  1        2 0.37230033E-01 0.30510718E+03</pdfrwt>
<pdfrwt beam="2">  1       -2 0.12757200E-01 0.30510718E+03</pdfrwt>
<totfact> 0.61689748E+03</totfact>
</mgrwt>
</event>
<event>
 4    1  0.2581031E-004  0.3224066E+03  0.7818608E-02  0.1074547E+00
         -2   -1    0    0    0  501 -0.00000000000E+00  0.00000000000E+00  0.59393879928E+02  0.59393879983E+02  0.25500000000E-02 0. -1.
          2   -1    0    0  501    0  0.00000000000E+00 -0.00000000000E+00 -0.43752840498E+03  0.43752840499E+03  0.25500000000E-02 0.  1.
    5000001    1    1    2    0    0 -0.87479349786E+02 -0.46792577959E+02 -0.19510148374E+03  0.25305290149E+03  0.12700000000E+03 0.  0.
   -5000001    1    1    2    0    0  0.87479349786E+02  0.46792577959E+02 -0.18303304131E+03  0.24386938349E+03  0.12700000000E+03 0.  0.
<mgrwt>
<rscale>  0 0.32240663E+03</rscale>
<asrwt>0</asrwt>
<pdfrwt beam="1">  1        2 0.62504056E-01 0.32240663E+03</pdfrwt>
<pdfrwt beam="2">  1       -2 0.84848403E-02 0.32240663E+03</pdfrwt>
<totfact> 0.67698242E+03</totfact>
</mgrwt>
</event>
<event>
 4    1  0.2581031E-004  0.3023621E+03  0.7818608E-02  0.1084066E+00
          2   -1    0    0  501    0  0.00000000000E+00  0.00000000000E+00  0.24562740642E+04  0.24562740642E+04  0.25500000000E-02 0.  1.
         -2   -1    0    0    0  501 -0.00000000000E+00 -0.00000000000E+00 -0.93050306595E+01  0.93050310089E+01  0.25500000000E-02 0. -1.
    5000001    1    1    2    0    0 -0.78405312839E+02 -0.23968176186E+01  0.14187763650E+04  0.14266073432E+04  0.12700000000E+03 0.  0.
   -5000001    1    1    2    0    0  0.78405312839E+02  0.23968176186E+01  0.10281926686E+04  0.10389717520E+04  0.12700000000E+03 0.  0.
<mgrwt>
<rscale>  0 0.30236207E+03</rscale>
<asrwt>0</asrwt>
<pdfrwt beam="1">  1        2 0.35089621E+00 0.30236207E+03</pdfrwt>
<pdfrwt beam="2">  1       -2 0.13292905E-02 0.30236207E+03</pdfrwt>
<totfact> 0.74262941E+03</totfact>
</mgrwt>
</event>
<event>
 4    1  0.2581031E-004  0.6512913E+03  0.7818608E-02  0.9804359E-01
          2   -1    0    0  501    0  0.00000000000E+00  0.00000000000E+00  0.10850596828E+03  0.10850596831E+03  0.25500000000E-02 0.  1.
         -2   -1    0    0    0  501 -0.00000000000E+00 -0.00000000000E+00 -0.97732029164E+03  0.97732029165E+03  0.25500000000E-02 0. -1.
    5000001    1    1    2    0    0 -0.17884620498E+03  0.12660555779E+03 -0.77567711780E+03  0.81597728116E+03  0.12700000000E+03 0.  0.
   -5000001    1    1    2    0    0  0.17884620498E+03 -0.12660555779E+03 -0.93137205564E+02  0.26984897880E+03  0.12700000000E+03 0.  0.
<mgrwt>
<rscale>  0 0.65129129E+03</rscale>
<asrwt>0</asrwt>
<pdfrwt beam="1">  1        2 0.15500853E-01 0.65129129E+03</pdfrwt>
<pdfrwt beam="2">  1       -2 0.13961718E+00 0.65129129E+03</pdfrwt>
<totfact> 0.14131019E+02</totfact>
</mgrwt>
</event>
<event>
 4    1  0.2581031E-004  0.3532193E+03  0.7818608E-02  0.1061301E+00
          2   -1    0    0  501    0  0.00000000000E+00  0.00000000000E+00  0.16521181308E+04  0.16521181308E+04  0.25500000000E-02 0.  1.
         -2   -1    0    0    0  501 -0.00000000000E+00 -0.00000000000E+00 -0.18879383931E+02  0.18879384104E+02  0.25500000000E-02 0. -1.
    5000001    1    1    2    0    0  0.88393930087E+02 -0.81595005337E+02  0.70163737392E+03  0.72311495369E+03  0.12700000000E+03 0.  0.
   -5000001    1    1    2    0    0 -0.88393930087E+02  0.81595005337E+02  0.93160137296E+03  0.94788256122E+03  0.12700000000E+03 0.  0.
<mgrwt>
<rscale>  0 0.35321932E+03</rscale>
<asrwt>0</asrwt>
<pdfrwt beam="1">  1        2 0.23601692E+00 0.35321932E+03</pdfrwt>
<pdfrwt beam="2">  1       -2 0.26970543E-02 0.35321932E+03</pdfrwt>
<totfact> 0.65176930E+03</totfact>
</mgrwt>
</event>
<event>
 4    1  0.2581031E-004  0.5174034E+03  0.7818608E-02  0.1009334E+00
         -2   -1    0    0    0  501 -0.00000000000E+00  0.00000000000E+00  0.41967510551E+02  0.41967510628E+02  0.25500000000E-02 0. -1.
          2   -1    0    0  501    0  0.00000000000E+00 -0.00000000000E+00 -0.15947231366E+04  0.15947231366E+04  0.25500000000E-02 0.  1.
    5000001    1    1    2    0    0 -0.17476205356E+03  0.66783378649E+02 -0.11739423942E+04  0.11955214511E+04  0.12700000000E+03 0.  0.
   -5000001    1    1    2    0    0  0.17476205356E+03 -0.66783378649E+02 -0.37881323180E+03  0.44116919613E+03  0.12700000000E+03 0.  0.
<mgrwt>
<rscale>  0 0.51740336E+03</rscale>
<asrwt>0</asrwt>
<pdfrwt beam="1">  1        2 0.22781755E+00 0.51740336E+03</pdfrwt>
<pdfrwt beam="2">  1       -2 0.59953596E-02 0.51740336E+03</pdfrwt>
<totfact> 0.20587812E+03</totfact>
</mgrwt>
</event>
<event>
 4    1  0.2581031E-004  0.4127297E+03  0.7818608E-02  0.1039459E+00
          2   -1    0    0  501    0  0.00000000000E+00  0.00000000000E+00  0.58504938949E+03  0.58504938950E+03  0.25500000000E-02 0.  1.
         -2   -1    0    0    0  501 -0.00000000000E+00 -0.00000000000E+00 -0.72791208307E+02  0.72791208352E+02  0.25500000000E-02 0. -1.
    5000001    1    1    2    0    0 -0.39868120658E+02  0.15768623538E+03  0.25890633857E+03  0.33108293224E+03  0.12700000000E+03 0.  0.
   -5000001    1    1    2    0    0  0.39868120658E+02 -0.15768623538E+03  0.25335184262E+03  0.32675766561E+03  0.12700000000E+03 0.  0.
<mgrwt>
<rscale>  0 0.41272970E+03</rscale>
<asrwt>0</asrwt>
<pdfrwt beam="1">  1        2 0.83578483E-01 0.41272970E+03</pdfrwt>
<pdfrwt beam="2">  1       -2 0.10398744E-01 0.41272970E+03</pdfrwt>
<totfact> 0.35548435E+03</totfact>
</mgrwt>
</event>
<event>
 4    1  0.2581031E-004  0.5178074E+03  0.7818608E-02  0.1009233E+00
         -2   -1    0    0    0  501 -0.00000000000E+00  0.00000000000E+00  0.41354520783E+02  0.41354520862E+02  0.25500000000E-02 0. -1.
          2   -1    0    0  501    0  0.00000000000E+00 -0.00000000000E+00 -0.16208898854E+04  0.16208898854E+04  0.25500000000E-02 0.  1.
    5000001    1    1    2    0    0  0.21760256916E+03 -0.58209503633E+02 -0.74879566865E+03  0.79218885236E+03  0.12700000000E+03 0.  0.
   -5000001    1    1    2    0    0 -0.21760256916E+03  0.58209503633E+02 -0.83073969597E+03  0.87005555390E+03  0.12700000000E+03 0.  0.
<mgrwt>
<rscale>  0 0.51780739E+03</rscale>
<asrwt>0</asrwt>
<pdfrwt beam="1">  1        2 0.23155566E+00 0.51780739E+03</pdfrwt>
<pdfrwt beam="2">  1       -2 0.59077897E-02 0.51780739E+03</pdfrwt>
<totfact> 0.20427297E+03</totfact>
</mgrwt>
</event>
<event>
 4    1  0.2581031E-004  0.4912558E+03  0.7818608E-02  0.1016087E+00
         -2   -1    0    0    0  501 -0.00000000000E+00  0.00000000000E+00  0.23390315666E+02  0.23390315805E+02  0.25500000000E-02 0. -1.
          2   -1    0    0  501    0  0.00000000000E+00 -0.00000000000E+00 -0.25794039367E+04  0.25794039367E+04  0.25500000000E-02 0.  1.
    5000001    1    1    2    0    0 -0.47632611716E+02 -0.20406896748E+03 -0.11876156738E+04  0.12126306106E+04  0.12700000000E+03 0.  0.
   -5000001    1    1    2    0    0  0.47632611716E+02  0.20406896748E+03 -0.13683979472E+04  0.13901636419E+04  0.12700000000E+03 0.  0.
<mgrwt>
<rscale>  0 0.49125583E+03</rscale>
<asrwt>0</asrwt>
<pdfrwt beam="1">  1        2 0.36848610E+00 0.49125583E+03</pdfrwt>
<pdfrwt beam="2">  1       -2 0.33414753E-02 0.49125583E+03</pdfrwt>
<totfact> 0.16171509E+03</totfact>
</mgrwt>
</event>
<event>
 4    1  0.2581031E-004  0.5281857E+03  0.7818608E-02  0.1006673E+00
          2   -1    0    0  501    0  0.00000000000E+00  0.00000000000E+00  0.11434376888E+04  0.11434376888E+04  0.25500000000E-02 0.  1.
         -2   -1    0    0    0  501 -0.00000000000E+00 -0.00000000000E+00 -0.60995908240E+02  0.60995908293E+02  0.25500000000E-02 0. -1.
    5000001    1    1    2    0    0 -0.22641620018E+03 -0.18578605656E+01  0.43071878361E+03  0.50290696744E+03  0.12700000000E+03 0.  0.
   -5000001    1    1    2    0    0  0.22641620018E+03  0.18578605656E+01  0.65172299693E+03  0.70152662963E+03  0.12700000000E+03 0.  0.
<mgrwt>
<rscale>  0 0.52818565E+03</rscale>
<asrwt>0</asrwt>
<pdfrwt beam="1">  1        2 0.16334824E+00 0.52818565E+03</pdfrwt>
<pdfrwt beam="2">  1       -2 0.87137010E-02 0.52818565E+03</pdfrwt>
<totfact> 0.19879832E+03</totfact>
</mgrwt>
</event>
<event>
 4    1  0.2581031E-004  0.3263518E+03  0.7818608E-02  0.1072763E+00
         -2   -1    0    0    0  501 -0.00000000000E+00  0.00000000000E+00  0.72376609847E+02  0.72376609892E+02  0.25500000000E-02 0. -1.
          2   -1    0    0  501    0  0.00000000000E+00 -0.00000000000E+00 -0.36788638482E+03  0.36788638483E+03  0.25500000000E-02 0.  1.
    5000001    1    1    2    0    0  0.17699938465E+01 -0.88780260316E+02 -0.78804312685E+02  0.17385104888E+03  0.12700000000E+03 0.  0.
   -5000001    1    1    2    0    0 -0.17699938465E+01  0.88780260316E+02 -0.21670546229E+03  0.26641194584E+03  0.12700000000E+03 0.  0.
<mgrwt>
<rscale>  0 0.32635177E+03</rscale>
<asrwt>0</asrwt>
<pdfrwt beam="1">  1        2 0.52555197E-01 0.32635177E+03</pdfrwt>
<pdfrwt beam="2">  1       -2 0.10339516E-01 0.32635177E+03</pdfrwt>
<totfact> 0.59761279E+03</totfact>
</mgrwt>
</event>
<event>
 4    1  0.2581031E-004  0.3263688E+03  0.7818608E-02  0.1072755E+00
          2   -1    0    0  501    0  0.00000000000E+00  0.00000000000E+00  0.80386715850E+02  0.80386715891E+02  0.25500000000E-02 0.  1.
         -2   -1    0    0    0  501 -0.00000000000E+00 -0.00000000000E+00 -0.33126306112E+03  0.33126306113E+03  0.25500000000E-02 0. -1.
    5000001    1    1    2    0    0 -0.30511973459E+02 -0.44949115378E+02 -0.15851775527E+02  0.13903842018E+03  0.12700000000E+03 0.  0.
   -5000001    1    1    2    0    0  0.30511973459E+02  0.44949115378E+02 -0.23502456974E+03  0.27261135684E+03  0.12700000000E+03 0.  0.
<mgrwt>
<rscale>  0 0.32636881E+03</rscale>
<asrwt>0</asrwt>
<pdfrwt beam="1">  1        2 0.11483817E-01 0.32636881E+03</pdfrwt>
<pdfrwt beam="2">  1       -2 0.47323294E-01 0.32636881E+03</pdfrwt>
<totfact> 0.23205596E+03</totfact>
</mgrwt>
</event>
<event>
 4    1  0.2581031E-004  0.5929127E+03  0.7818608E-02  0.9920220E-01
         -2   -1    0    0    0  501 -0.00000000000E+00  0.00000000000E+00  0.21135493858E+03  0.21135493860E+03  0.25500000000E-02 0. -1.
          2   -1    0    0  501    0  0.00000000000E+00 -0.00000000000E+00 -0.41582359049E+03  0.41582359050E+03  0.25500000000E-02 0.  1.
    5000001    1    1    2    0    0 -0.24960056899E+03  0.67252968832E+02 -0.27932686889E+02  0.28936592897E+03  0.12700000000E+03 0.  0.
   -5000001    1    1    2    0    0  0.24960056899E+03 -0.67252968832E+02 -0.17653596502E+03  0.33781260012E+03  0.12700000000E+03 0.  0.
<mgrwt>
<rscale>  0 0.59291271E+03</rscale>
<asrwt>0</asrwt>
<pdfrwt beam="1">  1        2 0.59403370E-01 0.59291271E+03</pdfrwt>
<pdfrwt beam="2">  1       -2 0.30193563E-01 0.59291271E+03</pdfrwt>
<totfact> 0.84144176E+02</totfact>
</mgrwt>
</event>
<event>
 4    1  0.2581031E-004  0.7350163E+03  0.7818608E-02  0.9659155E-01
         -2   -1    0    0    0  501 -0.00000000000E+00  0.00000000000E+00  0.26144626781E+03  0.26144626782E+03  0.25500000000E-02 0. -1.
          2   -1    0    0  501    0  0.00000000000E+00 -0.00000000000E+00 -0.51659658575E+03  0.51659658575E+03  0.25500000000E-02 0.  1.
    5000001    1    1    2    0    0  0.36388573392E+02 -0.19898824753E+03  0.16808272317E+03  0.29206378200E+03  0.12700000000E+03 0.  0.
   -5000001    1    1    2    0    0 -0.36388573392E+02  0.19898824753E+03 -0.42323304110E+03  0.48597907158E+03  0.12700000000E+03 0.  0.
<mgrwt>
<rscale>  0 0.73501632E+03</rscale>
<asrwt>0</asrwt>
<pdfrwt beam="1">  1        2 0.73799512E-01 0.73501632E+03</pdfrwt>
<pdfrwt beam="2">  1       -2 0.37349467E-01 0.73501632E+03</pdfrwt>
<totfact> 0.43955670E+02</totfact>
</mgrwt>
</event>
<event>
 4    1  0.2581031E-004  0.7991596E+03  0.7818608E-02  0.9561234E-01
          2   -1    0    0  501    0  0.00000000000E+00  0.00000000000E+00  0.65864317617E+03  0.65864317617E+03  0.25500000000E-02 0.  1.
         -2   -1    0    0    0  501 -0.00000000000E+00 -0.00000000000E+00 -0.24241351827E+03  0.24241351828E+03  0.25500000000E-02 0. -1.
    5000001    1    1    2    0    0  0.27306833182E+03 -0.88183531001E+02  0.48702683543E+03  0.57936757538E+03  0.12700000000E+03 0.  0.
   -5000001    1    1    2    0    0 -0.27306833182E+03  0.88183531001E+02 -0.70797177528E+02  0.32168911907E+03  0.12700000000E+03 0.  0.
<mgrwt>
<rscale>  0 0.79915958E+03</rscale>
<asrwt>0</asrwt>
<pdfrwt beam="1">  1        2 0.94091882E-01 0.79915958E+03</pdfrwt>
<pdfrwt beam="2">  1       -2 0.34630503E-01 0.79915958E+03</pdfrwt>
<totfact> 0.38058782E+02</totfact>
</mgrwt>
</event>
<event>
 4    1  0.2581031E-004  0.2658208E+03  0.7818608E-02  0.1103696E+00
         -2   -1    0    0    0  501 -0.00000000000E+00  0.00000000000E+00  0.11038755450E+03  0.11038755453E+03  0.25500000000E-02 0.  1.
          2   -1    0    0  501    0  0.00000000000E+00 -0.00000000000E+00 -0.16002871103E+03  0.16002871105E+03  0.25500000000E-02 0. -1.
    5000001    1    1    2    0    0  0.11170285131E+02 -0.37288949218E+02 -0.29475385402E+02  0.13606263024E+03  0.12700000000E+03 0.  0.
   -5000001    1    1    2    0    0 -0.11170285131E+02  0.37288949218E+02 -0.20165771129E+02  0.13435363534E+03  0.12700000000E+03 0.  0.
<mgrwt>
<rscale>  0 0.26582083E+03</rscale>
<asrwt>0</asrwt>
<pdfrwt beam="1">  1        2 0.22861245E-01 0.26582083E+03</pdfrwt>
<pdfrwt beam="2">  1       -2 0.15769651E-01 0.26582083E+03</pdfrwt>
<totfact> 0.74179924E+03</totfact>
</mgrwt>
</event>
<event>
 4    1  0.2581031E-004  0.5462142E+03  0.7818608E-02  0.1002374E+00
         -2   -1    0    0    0  501 -0.00000000000E+00  0.00000000000E+00  0.18540768996E+03  0.18540768998E+03  0.25500000000E-02 0. -1.
          2   -1    0    0  501    0  0.00000000000E+00 -0.00000000000E+00 -0.40228914224E+03  0.40228914225E+03  0.25500000000E-02 0.  1.
    5000001    1    1    2    0    0 -0.23645407940E+03 -0.45852463546E+02 -0.13115109389E+03  0.30222936573E+03  0.12700000000E+03 0.  0.
   -5000001    1    1    2    0    0  0.23645407940E+03  0.45852463546E+02 -0.85730358389E+02  0.28546746650E+03  0.12700000000E+03 0.  0.
<mgrwt>
<rscale>  0 0.54621425E+03</rscale>
<asrwt>0</asrwt>
<pdfrwt beam="1">  1        2 0.57469877E-01 0.54621425E+03</pdfrwt>
<pdfrwt beam="2">  1       -2 0.26486813E-01 0.54621425E+03</pdfrwt>
<totfact> 0.11094844E+03</totfact>
</mgrwt>
</event>
<event>
 4    1  0.2581031E-004  0.5341223E+03  0.7818608E-02  0.1005237E+00
          2   -1    0    0  501    0  0.00000000000E+00  0.00000000000E+00  0.29252068837E+03  0.29252068838E+03  0.25500000000E-02 0.  1.
         -2   -1    0    0    0  501 -0.00000000000E+00 -0.00000000000E+00 -0.24381747974E+03  0.24381747975E+03  0.25500000000E-02 0. -1.
    5000001    1    1    2    0    0  0.26329044064E+02 -0.20852684396E+03 -0.81040927573E+02  0.25859871453E+03  0.12700000000E+03 0.  0.
   -5000001    1    1    2    0    0 -0.26329044064E+02  0.20852684396E+03  0.12974413620E+03  0.27773945361E+03  0.12700000000E+03 0.  0.
<mgrwt>
<rscale>  0 0.53412230E+03</rscale>
<asrwt>0</asrwt>
<pdfrwt beam="1">  1        2 0.41788670E-01 0.53412230E+03</pdfrwt>
<pdfrwt beam="2">  1       -2 0.34831068E-01 0.53412230E+03</pdfrwt>
<totfact> 0.95053345E+02</totfact>
</mgrwt>
</event>
<event>
 4    1  0.2581031E-004  0.4355755E+03  0.7818608E-02  0.1032113E+00
         -2   -1    0    0    0  501 -0.00000000000E+00  0.00000000000E+00  0.66576210756E+02  0.66576210805E+02  0.25500000000E-02 0. -1.
          2   -1    0    0  501    0  0.00000000000E+00 -0.00000000000E+00 -0.71243924859E+03  0.71243924860E+03  0.25500000000E-02 0.  1.
    5000001    1    1    2    0    0  0.16924121857E+03 -0.46183293802E+02 -0.36398932306E+03  0.42354777062E+03  0.12700000000E+03 0.  0.
   -5000001    1    1    2    0    0 -0.16924121857E+03  0.46183293802E+02 -0.28187371477E+03  0.35546768879E+03  0.12700000000E+03 0.  0.
<mgrwt>
<rscale>  0 0.43557551E+03</rscale>
<asrwt>0</asrwt>
<pdfrwt beam="1">  1        2 0.10177703E+00 0.43557551E+03</pdfrwt>
<pdfrwt beam="2">  1       -2 0.95108877E-02 0.43557551E+03</pdfrwt>
<totfact> 0.32522523E+03</totfact>
</mgrwt>
</event>
<event>
 4    1  0.2581031E-004  0.3901089E+03  0.7818608E-02  0.1047259E+00
          2   -1    0    0  501    0  0.00000000000E+00  0.00000000000E+00  0.15501965610E+04  0.15501965610E+04  0.25500000000E-02 0. -1.
         -2   -1    0    0    0  501 -0.00000000000E+00 -0.00000000000E+00 -0.24542851573E+02  0.24542851705E+02  0.25500000000E-02 0.  1.
    5000001    1    1    2    0    0 -0.23973356096E+02 -0.14608796069E+03  0.75914894037E+03  0.78380643511E+03  0.12700000000E+03 0.  0.
   -5000001    1    1    2    0    0  0.23973356096E+02  0.14608796069E+03  0.76650476910E+03  0.79093297764E+03  0.12700000000E+03 0.  0.
<mgrwt>
<rscale>  0 0.39010893E+03</rscale>
<asrwt>0</asrwt>
<pdfrwt beam="1">  1        2 0.22145664E+00 0.39010893E+03</pdfrwt>
<pdfrwt beam="2">  1       -2 0.35061218E-02 0.39010893E+03</pdfrwt>
<totfact> 0.49493768E+03</totfact>
</mgrwt>
</event>
<event>
 4    1  0.2581031E-004  0.5235135E+03  0.7818608E-02  0.1007817E+00
         -2   -1    0    0    0  501 -0.00000000000E+00  0.00000000000E+00  0.21335997843E+02  0.21335997996E+02  0.25500000000E-02 0. -1.
          2   -1    0    0  501    0  0.00000000000E+00 -0.00000000000E+00 -0.32113141807E+04  0.32113141807E+04  0.25500000000E-02 0.  1.
    5000001    1    1    2    0    0  0.12652700304E+02 -0.22852881109E+03 -0.16039040015E+04  0.16251223198E+04  0.12700000000E+03 0.  0.
   -5000001    1    1    2    0    0 -0.12652700304E+02  0.22852881109E+03 -0.15860741814E+04  0.16075278590E+04  0.12700000000E+03 0.  0.
<mgrwt>
<rscale>  0 0.52351349E+03</rscale>
<asrwt>0</asrwt>
<pdfrwt beam="1">  1        2 0.45875886E+00 0.52351349E+03</pdfrwt>
<pdfrwt beam="2">  1       -2 0.30480017E-02 0.52351349E+03</pdfrwt>
<totfact> 0.85194531E+02</totfact>
</mgrwt>
</event>
<event>
 4    1  0.2581031E-004  0.3388552E+03  0.7818608E-02  0.1067285E+00
         -2   -1    0    0    0  501 -0.00000000000E+00  0.00000000000E+00  0.18145626997E+02  0.18145627176E+02  0.25500000000E-02 0. -1.
          2   -1    0    0  501    0  0.00000000000E+00 -0.00000000000E+00 -0.15819633219E+04  0.15819633219E+04  0.25500000000E-02 0.  1.
    5000001    1    1    2    0    0 -0.89162899916E+02  0.17193487680E+02 -0.47114295064E+03  0.49633690038E+03  0.12700000000E+03 0.  0.
   -5000001    1    1    2    0    0  0.89162899916E+02 -0.17193487680E+02 -0.10926747443E+04  0.11037720487E+04  0.12700000000E+03 0.  0.
<mgrwt>
<rscale>  0 0.33885523E+03</rscale>
<asrwt>0</asrwt>
<pdfrwt beam="1">  1        2 0.22599467E+00 0.33885523E+03</pdfrwt>
<pdfrwt beam="2">  1       -2 0.25922334E-02 0.33885523E+03</pdfrwt>
<totfact> 0.74957090E+03</totfact>
</mgrwt>
</event>
<event>
 4    1  0.2581031E-004  0.3622798E+03  0.7818608E-02  0.1057685E+00
          2   -1    0    0  501    0  0.00000000000E+00  0.00000000000E+00  0.22173585146E+03  0.22173585147E+03  0.25500000000E-02 0.  1.
         -2   -1    0    0    0  501 -0.00000000000E+00 -0.00000000000E+00 -0.14797639470E+03  0.14797639472E+03  0.25500000000E-02 0. -1.
    5000001    1    1    2    0    0  0.18733233344E+02  0.95737306679E+02  0.12326929061E+03  0.20209127623E+03  0.12700000000E+03 0.  0.
   -5000001    1    1    2    0    0 -0.18733233344E+02 -0.95737306679E+02 -0.49509833854E+02  0.16762096996E+03  0.12700000000E+03 0.  0.
<mgrwt>
<rscale>  0 0.36227985E+03</rscale>
<asrwt>0</asrwt>
<pdfrwt beam="1">  1        2 0.31676550E-01 0.36227985E+03</pdfrwt>
<pdfrwt beam="2">  1       -2 0.21139485E-01 0.36227985E+03</pdfrwt>
<totfact> 0.31687936E+03</totfact>
</mgrwt>
</event>
<event>
 4    1  0.2581031E-004  0.2882295E+03  0.7818608E-02  0.1091277E+00
          2   -1    0    0  501    0  0.00000000000E+00  0.00000000000E+00  0.25653597233E+04  0.25653597233E+04  0.25500000000E-02 0.  1.
         -2   -1    0    0    0  501 -0.00000000000E+00 -0.00000000000E+00 -0.80959665701E+01  0.80959669717E+01  0.25500000000E-02 0. -1.
    5000001    1    1    2    0    0 -0.12505778751E+02 -0.51834656663E+02  0.90016051689E+03  0.91063778875E+03  0.12700000000E+03 0.  0.
   -5000001    1    1    2    0    0  0.12505778751E+02  0.51834656663E+02  0.16571032398E+04  0.16628179015E+04  0.12700000000E+03 0.  0.
<mgrwt>
<rscale>  0 0.28822954E+03</rscale>
<asrwt>0</asrwt>
<pdfrwt beam="1">  1        2 0.36648058E+00 0.28822954E+03</pdfrwt>
<pdfrwt beam="2">  1       -2 0.11565647E-02 0.28822954E+03</pdfrwt>
<totfact> 0.80237652E+03</totfact>
</mgrwt>
</event>
<event>
 4    1  0.2581031E-004  0.3355423E+03  0.7818608E-02  0.1068711E+00
         -2   -1    0    0    0  501 -0.00000000000E+00  0.00000000000E+00  0.30820004703E+03  0.30820004704E+03  0.25500000000E-02 0. -1.
          2   -1    0    0  501    0  0.00000000000E+00 -0.00000000000E+00 -0.91327585650E+02  0.91327585685E+02  0.25500000000E-02 0.  1.
    5000001    1    1    2    0    0  0.75953001778E+02 -0.25762215243E+02  0.19447497394E+02  0.15145875798E+03  0.12700000000E+03 0.  0.
   -5000001    1    1    2    0    0 -0.75953001778E+02  0.25762215243E+02  0.19742496398E+03  0.24806887474E+03  0.12700000000E+03 0.  0.
<mgrwt>
<rscale>  0 0.33554234E+03</rscale>
<asrwt>0</asrwt>
<pdfrwt beam="1">  1        2 0.13046798E-01 0.33554234E+03</pdfrwt>
<pdfrwt beam="2">  1       -2 0.44028579E-01 0.33554234E+03</pdfrwt>
<totfact> 0.22899496E+03</totfact>
</mgrwt>
</event>
<event>
 4    1  0.2581031E-004  0.4790692E+03  0.7818608E-02  0.1019391E+00
         -2   -1    0    0    0  501 -0.00000000000E+00  0.00000000000E+00  0.79889885256E+02  0.79889885296E+02  0.25500000000E-02 0. -1.
          2   -1    0    0  501    0  0.00000000000E+00 -0.00000000000E+00 -0.71819895294E+03  0.71819895294E+03  0.25500000000E-02 0.  1.
    5000001    1    1    2    0    0 -0.16562107419E+03  0.57112768568E+02 -0.49031162719E+03  0.53593535086E+03  0.12700000000E+03 0.  0.
   -5000001    1    1    2    0    0  0.16562107419E+03 -0.57112768568E+02 -0.14799744049E+03  0.26215348737E+03  0.12700000000E+03 0.  0.
<mgrwt>
<rscale>  0 0.47906923E+03</rscale>
<asrwt>0</asrwt>
<pdfrwt beam="1">  1        2 0.10259985E+00 0.47906923E+03</pdfrwt>
<pdfrwt beam="2">  1       -2 0.11412841E-01 0.47906923E+03</pdfrwt>
<totfact> 0.24005917E+03</totfact>
</mgrwt>
</event>
<event>
 4    1  0.2581031E-004  0.4726261E+03  0.7818608E-02  0.1021182E+00
          2   -1    0    0  501    0  0.00000000000E+00  0.00000000000E+00  0.36842892304E+04  0.36842892304E+04  0.25500000000E-02 0.  1.
         -2   -1    0    0    0  501 -0.00000000000E+00 -0.00000000000E+00 -0.15157295289E+02  0.15157295503E+02  0.25500000000E-02 0. -1.
    5000001    1    1    2    0    0 -0.17026527031E+03  0.35878259563E+02  0.10741625900E+04  0.10955509032E+04  0.12700000000E+03 0.  0.
   -5000001    1    1    2    0    0  0.17026527031E+03 -0.35878259563E+02  0.25949693452E+04  0.26038956227E+04  0.12700000000E+03 0.  0.
<mgrwt>
<rscale>  0 0.47262611E+03</rscale>
<asrwt>0</asrwt>
<pdfrwt beam="1">  1        2 0.52632765E+00 0.47262611E+03</pdfrwt>
<pdfrwt beam="2">  1       -2 0.21653254E-02 0.47262611E+03</pdfrwt>
<totfact> 0.75840409E+02</totfact>
</mgrwt>
</event>
<event>
 4    1  0.2581031E-004  0.3053916E+03  0.7818608E-02  0.1082576E+00
         -2   -1    0    0    0  501 -0.00000000000E+00  0.00000000000E+00  0.22908358069E+03  0.22908358071E+03  0.25500000000E-02 0. -1.
          2   -1    0    0  501    0  0.00000000000E+00 -0.00000000000E+00 -0.10177947623E+03  0.10177947626E+03  0.25500000000E-02 0.  1.
    5000001    1    1    2    0    0  0.79122988069E+02  0.14262855778E+02  0.92786014608E+02  0.17664122057E+03  0.12700000000E+03 0.  0.
   -5000001    1    1    2    0    0 -0.79122988069E+02 -0.14262855778E+02  0.34518089859E+02  0.15422183640E+03  0.12700000000E+03 0.  0.
<mgrwt>
<rscale>  0 0.30539160E+03</rscale>
<asrwt>0</asrwt>
<pdfrwt beam="1">  1        2 0.14539925E-01 0.30539160E+03</pdfrwt>
<pdfrwt beam="2">  1       -2 0.32726226E-01 0.30539160E+03</pdfrwt>
<totfact> 0.35220680E+03</totfact>
</mgrwt>
</event>
<event>
 4    1  0.2581031E-004  0.4031154E+03  0.7818608E-02  0.1042706E+00
         -2   -1    0    0    0  501 -0.00000000000E+00  0.00000000000E+00  0.36179900436E+02  0.36179900526E+02  0.25500000000E-02 0. -1.
          2   -1    0    0  501    0  0.00000000000E+00 -0.00000000000E+00 -0.11228749433E+04  0.11228749433E+04  0.25500000000E-02 0.  1.
    5000001    1    1    2    0    0 -0.56681994038E+02  0.68916620897E+02 -0.91306127639E+03  0.92615994490E+03  0.12700000000E+03 0.  0.
   -5000001    1    1    2    0    0  0.56681994038E+02 -0.68916620897E+02 -0.17363376643E+03  0.23289489889E+03  0.12700000000E+03 0.  0.
<mgrwt>
<rscale>  0 0.40311539E+03</rscale>
<asrwt>0</asrwt>
<pdfrwt beam="1">  1        2 0.16041068E+00 0.40311539E+03</pdfrwt>
<pdfrwt beam="2">  1       -2 0.51685579E-02 0.40311539E+03</pdfrwt>
<totfact> 0.46276815E+03</totfact>
</mgrwt>
</event>
<event>
 4    1  0.2581031E-004  0.3534359E+03  0.7818608E-02  0.1061214E+00
         -2   -1    0    0    0  501 -0.00000000000E+00  0.00000000000E+00  0.12629858659E+03  0.12629858662E+03  0.25500000000E-02 0. -1.
          2   -1    0    0  501    0  0.00000000000E+00 -0.00000000000E+00 -0.24726513193E+03  0.24726513194E+03  0.25500000000E-02 0.  1.
    5000001    1    1    2    0    0  0.67008967843E+02 -0.81175528577E+02 -0.12750224143E+03  0.20848378781E+03  0.12700000000E+03 0.  0.
   -5000001    1    1    2    0    0 -0.67008967843E+02  0.81175528577E+02  0.65356960963E+01  0.16507993074E+03  0.12700000000E+03 0.  0.
<mgrwt>
<rscale>  0 0.35343592E+03</rscale>
<asrwt>0</asrwt>
<pdfrwt beam="1">  1        2 0.35323590E-01 0.35343592E+03</pdfrwt>
<pdfrwt beam="2">  1       -2 0.18042655E-01 0.35343592E+03</pdfrwt>
<totfact> 0.36874346E+03</totfact>
</mgrwt>
</event>
<event>
 4    1  0.2581031E-004  0.4378628E+03  0.7818608E-02  0.1031405E+00
         -2   -1    0    0    0  501 -0.00000000000E+00  0.00000000000E+00  0.53517548067E+02  0.53517548127E+02  0.25500000000E-02 0. -1.
          2   -1    0    0  501    0  0.00000000000E+00 -0.00000000000E+00 -0.89561208674E+03  0.89561208674E+03  0.25500000000E-02 0.  1.
    5000001    1    1    2    0    0  0.81010407424E+01  0.10058482943E+03 -0.73976450104E+03  0.75733972018E+03  0.12700000000E+03 0.  0.
   -5000001    1    1    2    0    0 -0.81010407424E+01 -0.10058482943E+03 -0.10233003764E+03  0.19178991469E+03  0.12700000000E+03 0.  0.
<mgrwt>
<rscale>  0 0.43786282E+03</rscale>
<asrwt>0</asrwt>
<pdfrwt beam="1">  1        2 0.12794457E+00 0.43786282E+03</pdfrwt>
<pdfrwt beam="2">  1       -2 0.76453646E-02 0.43786282E+03</pdfrwt>
<totfact> 0.34460689E+03</totfact>
</mgrwt>
</event>
<event>
 4    1  0.2581031E-004  0.3927134E+03  0.7818608E-02  0.1046332E+00
         -2   -1    0    0    0  501 -0.00000000000E+00  0.00000000000E+00  0.57821364214E+02  0.57821364270E+02  0.25500000000E-02 0. -1.
          2   -1    0    0  501    0  0.00000000000E+00 -0.00000000000E+00 -0.66681152543E+03  0.66681152544E+03  0.25500000000E-02 0.  1.
    5000001    1    1    2    0    0  0.98572470849E+02  0.86437511561E+02 -0.43805174473E+03  0.47455906531E+03  0.12700000000E+03 0.  0.
   -5000001    1    1    2    0    0 -0.98572470849E+02 -0.86437511561E+02 -0.17093841649E+03  0.25007382440E+03  0.12700000000E+03 0.  0.
<mgrwt>
<rscale>  0 0.39271339E+03</rscale>
<asrwt>0</asrwt>
<pdfrwt beam="1">  1        2 0.95258785E-01 0.39271339E+03</pdfrwt>
<pdfrwt beam="2">  1       -2 0.82601953E-02 0.39271339E+03</pdfrwt>
<totfact> 0.44006288E+03</totfact>
</mgrwt>
</event>
<event>
 4    1  0.2581031E-004  0.3911116E+03  0.7818608E-02  0.1046902E+00
          2   -1    0    0  501    0  0.00000000000E+00  0.00000000000E+00  0.27607399069E+03  0.27607399071E+03  0.25500000000E-02 0.  1.
         -2   -1    0    0    0  501 -0.00000000000E+00 -0.00000000000E+00 -0.13852111457E+03  0.13852111460E+03  0.25500000000E-02 0. -1.
    5000001    1    1    2    0    0  0.18911189263E+02 -0.14378665649E+03  0.33926308830E+02  0.19573510185E+03  0.12700000000E+03 0.  0.
   -5000001    1    1    2    0    0 -0.18911189263E+02  0.14378665649E+03  0.10362656729E+03  0.21886000346E+03  0.12700000000E+03 0.  0.
<mgrwt>
<rscale>  0 0.39111163E+03</rscale>
<asrwt>0</asrwt>
<pdfrwt beam="1">  1        2 0.39439141E-01 0.39111163E+03</pdfrwt>
<pdfrwt beam="2">  1       -2 0.19788731E-01 0.39111163E+03</pdfrwt>
<totfact> 0.27969417E+03</totfact>
</mgrwt>
</event>
<event>
 4    1  0.2581031E-004  0.4298577E+03  0.7818608E-02  0.1033905E+00
          2   -1    0    0  501    0  0.00000000000E+00  0.00000000000E+00  0.15880823550E+03  0.15880823552E+03  0.25500000000E-02 0.  1.
         -2   -1    0    0    0  501 -0.00000000000E+00 -0.00000000000E+00 -0.29088174692E+03  0.29088174693E+03  0.25500000000E-02 0. -1.
    5000001    1    1    2    0    0 -0.52937674190E+02 -0.16269090365E+03 -0.95527600121E+02  0.23350642360E+03  0.12700000000E+03 0.  0.
   -5000001    1    1    2    0    0  0.52937674190E+02  0.16269090365E+03 -0.36545911299E+02  0.21618355884E+03  0.12700000000E+03 0.  0.
<mgrwt>
<rscale>  0 0.42985773E+03</rscale>
<asrwt>0</asrwt>
<pdfrwt beam="1">  1        2 0.22686891E-01 0.42985773E+03</pdfrwt>
<pdfrwt beam="2">  1       -2 0.41554535E-01 0.42985773E+03</pdfrwt>
<totfact> 0.13406928E+03</totfact>
</mgrwt>
</event>
<event>
 4    1  0.2581031E-004  0.3483148E+03  0.7818608E-02  0.1063309E+00
          2   -1    0    0  501    0  0.00000000000E+00  0.00000000000E+00  0.13670646583E+03  0.13670646585E+03  0.25500000000E-02 0.  1.
         -2   -1    0    0    0  501 -0.00000000000E+00 -0.00000000000E+00 -0.22186804601E+03  0.22186804603E+03  0.25500000000E-02 0. -1.
    5000001    1    1    2    0    0 -0.11269991444E+03 -0.37394181141E+02 -0.32173563782E+02  0.17681553581E+03  0.12700000000E+03 0.  0.
   -5000001    1    1    2    0    0  0.11269991444E+03  0.37394181141E+02 -0.52988016405E+02  0.18175897607E+03  0.12700000000E+03 0.  0.
<mgrwt>
<rscale>  0 0.34831478E+03</rscale>
<asrwt>0</asrwt>
<pdfrwt beam="1">  1        2 0.19529495E-01 0.34831478E+03</pdfrwt>
<pdfrwt beam="2">  1       -2 0.31695435E-01 0.34831478E+03</pdfrwt>
<totfact> 0.26503000E+03</totfact>
</mgrwt>
</event>
<event>
 4    1  0.2581031E-004  0.2693120E+03  0.7818608E-02  0.1101674E+00
         -2   -1    0    0    0  501 -0.00000000000E+00  0.00000000000E+00  0.14856172357E+02  0.14856172576E+02  0.25500000000E-02 0. -1.
          2   -1    0    0  501    0  0.00000000000E+00 -0.00000000000E+00 -0.12205186038E+04  0.12205186038E+04  0.25500000000E-02 0.  1.
    5000001    1    1    2    0    0 -0.31341866253E+02 -0.31285319395E+02 -0.57304965368E+03  0.58862211084E+03  0.12700000000E+03 0.  0.
   -5000001    1    1    2    0    0  0.31341866253E+02  0.31285319395E+02 -0.63261277779E+03  0.64675266556E+03  0.12700000000E+03 0.  0.
<mgrwt>
<rscale>  0 0.26931197E+03</rscale>
<asrwt>0</asrwt>
<pdfrwt beam="1">  1        2 0.17435974E+00 0.26931197E+03</pdfrwt>
<pdfrwt beam="2">  1       -2 0.21223111E-02 0.26931197E+03</pdfrwt>
<totfact> 0.15428293E+04</totfact>
</mgrwt>
</event>
<event>
 4    1  0.2581031E-004  0.7777129E+03  0.7818608E-02  0.9592849E-01
         -2   -1    0    0    0  501 -0.00000000000E+00  0.00000000000E+00  0.34144126680E+03  0.34144126681E+03  0.25500000000E-02 0. -1.
          2   -1    0    0  501    0  0.00000000000E+00 -0.00000000000E+00 -0.44285602164E+03  0.44285602165E+03  0.25500000000E-02 0.  1.
    5000001    1    1    2    0    0 -0.27720769793E+03  0.21503204721E+03  0.59752761074E+02  0.37786542787E+03  0.12700000000E+03 0.  0.
   -5000001    1    1    2    0    0  0.27720769793E+03 -0.21503204721E+03 -0.16116751591E+03  0.40643186059E+03  0.12700000000E+03 0.  0.
<mgrwt>
<rscale>  0 0.77771285E+03</rscale>
<asrwt>0</asrwt>
<pdfrwt beam="1">  1        2 0.63265146E-01 0.77771285E+03</pdfrwt>
<pdfrwt beam="2">  1       -2 0.48777324E-01 0.77771285E+03</pdfrwt>
<totfact> 0.30896104E+02</totfact>
</mgrwt>
</event>
<event>
 4    1  0.2581031E-004  0.5340741E+03  0.7818608E-02  0.1005249E+00
          2   -1    0    0  501    0  0.00000000000E+00  0.00000000000E+00  0.36339809132E+03  0.36339809133E+03  0.25500000000E-02 0.  1.
         -2   -1    0    0    0  501 -0.00000000000E+00 -0.00000000000E+00 -0.19622774607E+03  0.19622774609E+03  0.25500000000E-02 0. -1.
    5000001    1    1    2    0    0 -0.51221706898E+02  0.10399416656E+03  0.29766681028E+03  0.34376297049E+03  0.12700000000E+03 0.  0.
   -5000001    1    1    2    0    0  0.51221706898E+02 -0.10399416656E+03 -0.13049646503E+03  0.21586286693E+03  0.12700000000E+03 0.  0.
<mgrwt>
<rscale>  0 0.53407411E+03</rscale>
<asrwt>0</asrwt>
<pdfrwt beam="1">  1        2 0.51914013E-01 0.53407411E+03</pdfrwt>
<pdfrwt beam="2">  1       -2 0.28032535E-01 0.53407411E+03</pdfrwt>
<totfact> 0.11201074E+03</totfact>
</mgrwt>
</event>
<event>
 4    1  0.2581031E-004  0.3194133E+03  0.7818608E-02  0.1075920E+00
         -2   -1    0    0    0  501 -0.00000000000E+00  0.00000000000E+00  0.25415828648E+02  0.25415828776E+02  0.25500000000E-02 0. -1.
          2   -1    0    0  501    0  0.00000000000E+00 -0.00000000000E+00 -0.10035564431E+04  0.10035564431E+04  0.25500000000E-02 0.  1.
    5000001    1    1    2    0    0  0.93860422540E+02 -0.23583002778E+02 -0.49989058469E+03  0.52477188720E+03  0.12700000000E+03 0.  0.
   -5000001    1    1    2    0    0 -0.93860422540E+02  0.23583002778E+02 -0.47825002981E+03  0.50420038472E+03  0.12700000000E+03 0.  0.
<mgrwt>
<rscale>  0 0.31941333E+03</rscale>
<asrwt>0</asrwt>
<pdfrwt beam="1">  1        2 0.14336518E+00 0.31941333E+03</pdfrwt>
<pdfrwt beam="2">  1       -2 0.36308333E-02 0.31941333E+03</pdfrwt>
<totfact> 0.92450397E+03</totfact>
</mgrwt>
</event>
<event>
 4    1  0.2581031E-004  0.3707123E+03  0.7818608E-02  0.1054421E+00
         -2   -1    0    0    0  501 -0.00000000000E+00  0.00000000000E+00  0.22522302254E+02  0.22522302398E+02  0.25500000000E-02 0. -1.
          2   -1    0    0  501    0  0.00000000000E+00 -0.00000000000E+00 -0.15254617105E+04  0.15254617105E+04  0.25500000000E-02 0.  1.
    5000001    1    1    2    0    0  0.11663243614E+03 -0.67690117292E+02 -0.77879828777E+03  0.80052535885E+03  0.12700000000E+03 0.  0.
   -5000001    1    1    2    0    0 -0.11663243614E+03  0.67690117292E+02 -0.72414112049E+03  0.74745865405E+03  0.12700000000E+03 0.  0.
<mgrwt>
<rscale>  0 0.37071234E+03</rscale>
<asrwt>0</asrwt>
<pdfrwt beam="1">  1        2 0.21792304E+00 0.37071234E+03</pdfrwt>
<pdfrwt beam="2">  1       -2 0.32174727E-02 0.37071234E+03</pdfrwt>
<totfact> 0.57981046E+03</totfact>
</mgrwt>
</event>
<event>
 4    1  0.2581031E-004  0.2690613E+03  0.7818608E-02  0.1101818E+00
         -2   -1    0    0    0  501 -0.00000000000E+00  0.00000000000E+00  0.10574911242E+03  0.10574911245E+03  0.25500000000E-02 0. -1.
          2   -1    0    0  501    0  0.00000000000E+00 -0.00000000000E+00 -0.17114561819E+03  0.17114561821E+03  0.25500000000E-02 0.  1.
    5000001    1    1    2    0    0  0.13634825717E+02  0.39184976241E+02 -0.16487622034E+02  0.13461876732E+03  0.12700000000E+03 0.  0.
   -5000001    1    1    2    0    0 -0.13634825717E+02 -0.39184976241E+02 -0.48908883739E+02  0.14227596334E+03  0.12700000000E+03 0.  0.
<mgrwt>
<rscale>  0 0.26906131E+03</rscale>
<asrwt>0</asrwt>
<pdfrwt beam="1">  1        2 0.24449374E-01 0.26906131E+03</pdfrwt>
<pdfrwt beam="2">  1       -2 0.15107016E-01 0.26906131E+03</pdfrwt>
<totfact> 0.73897280E+03</totfact>
</mgrwt>
</event>
<event>
 4    1  0.2581031E-004  0.6648838E+03  0.7818608E-02  0.9779245E-01
         -2   -1    0    0    0  501 -0.00000000000E+00  0.00000000000E+00  0.39813157901E+02  0.39813157983E+02  0.25500000000E-02 0. -1.
          2   -1    0    0  501    0  0.00000000000E+00 -0.00000000000E+00 -0.27759066334E+04  0.27759066334E+04  0.25500000000E-02 0.  1.
    5000001    1    1    2    0    0  0.94718215700E+02  0.29213957953E+03 -0.13322286224E+04  0.13730546881E+04  0.12700000000E+03 0.  0.
   -5000001    1    1    2    0    0 -0.94718215700E+02 -0.29213957953E+03 -0.14038648531E+04  0.14426651032E+04  0.12700000000E+03 0.  0.
<mgrwt>
<rscale>  0 0.66488378E+03</rscale>
<asrwt>0</asrwt>
<pdfrwt beam="1">  1        2 0.39655797E+00 0.66488378E+03</pdfrwt>
<pdfrwt beam="2">  1       -2 0.56875958E-02 0.66488378E+03</pdfrwt>
<totfact> 0.55518036E+02</totfact>
</mgrwt>
</event>
<event>
 4    1  0.2581031E-004  0.4369558E+03  0.7818608E-02  0.1031685E+00
          2   -1    0    0  501    0  0.00000000000E+00  0.00000000000E+00  0.12415150312E+04  0.12415150312E+04  0.25500000000E-02 0.  1.
         -2   -1    0    0    0  501 -0.00000000000E+00 -0.00000000000E+00 -0.38447057210E+02  0.38447057294E+02  0.25500000000E-02 0. -1.
    5000001    1    1    2    0    0 -0.10994933439E+01  0.13942680131E+03  0.27848229212E+03  0.33633677889E+03  0.12700000000E+03 0.  0.
   -5000001    1    1    2    0    0  0.10994933439E+01 -0.13942680131E+03  0.92458568185E+03  0.94362530958E+03  0.12700000000E+03 0.  0.
<mgrwt>
<rscale>  0 0.43695583E+03</rscale>
<asrwt>0</asrwt>
<pdfrwt beam="1">  1        2 0.17735929E+00 0.43695583E+03</pdfrwt>
<pdfrwt beam="2">  1       -2 0.54924367E-02 0.43695583E+03</pdfrwt>
<totfact> 0.36214211E+03</totfact>
</mgrwt>
</event>
<event>
 4    1  0.2581031E-004  0.5335969E+03  0.7818608E-02  0.1005364E+00
          2   -1    0    0  501    0  0.00000000000E+00  0.00000000000E+00  0.15225072425E+04  0.15225072425E+04  0.25500000000E-02 0.  1.
         -2   -1    0    0    0  501 -0.00000000000E+00 -0.00000000000E+00 -0.46752751476E+02  0.46752751546E+02  0.25500000000E-02 0. -1.
    5000001    1    1    2    0    0 -0.10444630867E+03  0.21008862552E+03  0.74516501622E+03  0.79148352059E+03  0.12700000000E+03 0.  0.
   -5000001    1    1    2    0    0  0.10444630867E+03 -0.21008862552E+03  0.73058947481E+03  0.77777647347E+03  0.12700000000E+03 0.  0.
<mgrwt>
<rscale>  0 0.53359686E+03</rscale>
<asrwt>0</asrwt>
<pdfrwt beam="1">  1        2 0.21750100E+00 0.53359686E+03</pdfrwt>
<pdfrwt beam="2">  1       -2 0.66789655E-02 0.53359686E+03</pdfrwt>
<totfact> 0.18928262E+03</totfact>
</mgrwt>
</event>
<event>
 4    1  0.2581031E-004  0.3291465E+03  0.7818608E-02  0.1071515E+00
         -2   -1    0    0    0  501 -0.00000000000E+00  0.00000000000E+00  0.14426767936E+03  0.14426767938E+03  0.25500000000E-02 0. -1.
          2   -1    0    0  501    0  0.00000000000E+00 -0.00000000000E+00 -0.18773683999E+03  0.18773684001E+03  0.25500000000E-02 0.  1.
    5000001    1    1    2    0    0  0.75974619556E+02 -0.32717545003E+02 -0.86422374441E+02  0.17447179535E+03  0.12700000000E+03 0.  0.
   -5000001    1    1    2    0    0 -0.75974619556E+02  0.32717545003E+02  0.42953213803E+02  0.15753272404E+03  0.12700000000E+03 0.  0.
<mgrwt>
<rscale>  0 0.32914652E+03</rscale>
<asrwt>0</asrwt>
<pdfrwt beam="1">  1        2 0.26819549E-01 0.32914652E+03</pdfrwt>
<pdfrwt beam="2">  1       -2 0.20609668E-01 0.32914652E+03</pdfrwt>
<totfact> 0.39728363E+03</totfact>
</mgrwt>
</event>
<event>
 4    1  0.2581031E-004  0.4852840E+03  0.7818608E-02  0.1017693E+00
         -2   -1    0    0    0  501 -0.00000000000E+00  0.00000000000E+00  0.87504741298E+02  0.87504741336E+02  0.25500000000E-02 0. -1.
          2   -1    0    0  501    0  0.00000000000E+00 -0.00000000000E+00 -0.67282228888E+03  0.67282228889E+03  0.25500000000E-02 0.  1.
    5000001    1    1    2    0    0 -0.14476576639E+03  0.14634965994E+03 -0.32282830875E+03  0.40338872941E+03  0.12700000000E+03 0.  0.
   -5000001    1    1    2    0    0  0.14476576639E+03 -0.14634965994E+03 -0.26248923884E+03  0.35693830081E+03  0.12700000000E+03 0.  0.
<mgrwt>
<rscale>  0 0.48528400E+03</rscale>
<asrwt>0</asrwt>
<pdfrwt beam="1">  1        2 0.96117467E-01 0.48528400E+03</pdfrwt>
<pdfrwt beam="2">  1       -2 0.12500678E-01 0.48528400E+03</pdfrwt>
<totfact> 0.22385208E+03</totfact>
</mgrwt>
</event>
<event>
 4    1  0.2581031E-004  0.2793012E+03  0.7818608E-02  0.1096071E+00
          2   -1    0    0  501    0  0.00000000000E+00  0.00000000000E+00  0.20454580499E+04  0.20454580499E+04  0.25500000000E-02 0.  1.
         -2   -1    0    0    0  501 -0.00000000000E+00 -0.00000000000E+00 -0.95344383922E+01  0.95344387332E+01  0.25500000000E-02 0. -1.
    5000001    1    1    2    0    0 -0.15229724687E+02  0.50717386424E+02  0.11934832883E+04  0.12013890116E+04  0.12700000000E+03 0.  0.
   -5000001    1    1    2    0    0  0.15229724687E+02 -0.50717386424E+02  0.84244032328E+03  0.85360347708E+03  0.12700000000E+03 0.  0.
<mgrwt>
<rscale>  0 0.27930123E+03</rscale>
<asrwt>0</asrwt>
<pdfrwt beam="1">  1        2 0.29220826E+00 0.27930123E+03</pdfrwt>
<pdfrwt beam="2">  1       -2 0.13620628E-02 0.27930123E+03</pdfrwt>
<totfact> 0.11408039E+04</totfact>
</mgrwt>
</event>
<event>
 4    1  0.2581031E-004  0.4345621E+03  0.7818608E-02  0.1032428E+00
          2   -1    0    0  501    0  0.00000000000E+00  0.00000000000E+00  0.88339678484E+02  0.88339678521E+02  0.25500000000E-02 0.  1.
         -2   -1    0    0    0  501 -0.00000000000E+00 -0.00000000000E+00 -0.53442641904E+03  0.53442641905E+03  0.25500000000E-02 0. -1.
    5000001    1    1    2    0    0 -0.15030610315E+03 -0.34531310838E+02 -0.34546742422E+03  0.39907527770E+03  0.12700000000E+03 0.  0.
   -5000001    1    1    2    0    0  0.15030610315E+03  0.34531310838E+02 -0.10061931634E+03  0.22369081987E+03  0.12700000000E+03 0.  0.
<mgrwt>
<rscale>  0 0.43456212E+03</rscale>
<asrwt>0</asrwt>
<pdfrwt beam="1">  1        2 0.12619954E-01 0.43456212E+03</pdfrwt>
<pdfrwt beam="2">  1       -2 0.76346630E-01 0.43456212E+03</pdfrwt>
<totfact> 0.76438696E+02</totfact>
</mgrwt>
</event>
<event>
 4    1  0.2581031E-004  0.3701893E+03  0.7818608E-02  0.1054621E+00
         -2   -1    0    0    0  501 -0.00000000000E+00  0.00000000000E+00  0.12447762593E+04  0.12447762593E+04  0.25500000000E-02 0. -1.
          2   -1    0    0  501    0  0.00000000000E+00 -0.00000000000E+00 -0.27523046697E+02  0.27523046815E+02  0.25500000000E-02 0.  1.
    5000001    1    1    2    0    0  0.99223067642E+02 -0.74064053047E+02  0.79050047944E+03  0.81015474392E+03  0.12700000000E+03 0.  0.
   -5000001    1    1    2    0    0 -0.99223067642E+02  0.74064053047E+02  0.42675273319E+03  0.46214456222E+03  0.12700000000E+03 0.  0.
<mgrwt>
<rscale>  0 0.37018933E+03</rscale>
<asrwt>0</asrwt>
<pdfrwt beam="1">  1        2 0.39318619E-02 0.37018933E+03</pdfrwt>
<pdfrwt beam="2">  1       -2 0.17782527E+00 0.37018933E+03</pdfrwt>
<totfact> 0.43828955E+02</totfact>
</mgrwt>
</event>
<event>
 4    1  0.2581031E-004  0.3428419E+03  0.7818608E-02  0.1065592E+00
         -2   -1    0    0    0  501 -0.00000000000E+00  0.00000000000E+00  0.16950656221E+03  0.16950656223E+03  0.25500000000E-02 0. -1.
          2   -1    0    0  501    0  0.00000000000E+00 -0.00000000000E+00 -0.17335691977E+03  0.17335691979E+03  0.25500000000E-02 0.  1.
    5000001    1    1    2    0    0  0.27875196029E+02 -0.77740756391E+02 -0.82151704660E+02  0.17233268505E+03  0.12700000000E+03 0.  0.
   -5000001    1    1    2    0    0 -0.27875196029E+02  0.77740756391E+02  0.78301347105E+02  0.17053079697E+03  0.12700000000E+03 0.  0.
<mgrwt>
<rscale>  0 0.34284186E+03</rscale>
<asrwt>0</asrwt>
<pdfrwt beam="1">  1        2 0.24765274E-01 0.34284186E+03</pdfrwt>
<pdfrwt beam="2">  1       -2 0.24215223E-01 0.34284186E+03</pdfrwt>
<totfact> 0.32825259E+03</totfact>
</mgrwt>
</event>
<event>
 4    1  0.2581031E-004  0.3441317E+03  0.7818608E-02  0.1065050E+00
          2   -1    0    0  501    0  0.00000000000E+00  0.00000000000E+00  0.32675645088E+04  0.32675645088E+04  0.25500000000E-02 0.  1.
         -2   -1    0    0    0  501 -0.00000000000E+00 -0.00000000000E+00 -0.90607706702E+01  0.90607710290E+01  0.25500000000E-02 0. -1.
    5000001    1    1    2    0    0  0.63140367562E+02  0.93832498082E+02  0.18787077686E+04  0.18863889110E+04  0.12700000000E+03 0.  0.
   -5000001    1    1    2    0    0 -0.63140367562E+02 -0.93832498082E+02  0.13797959696E+04  0.13902363689E+04  0.12700000000E+03 0.  0.
<mgrwt>
<rscale>  0 0.34413168E+03</rscale>
<asrwt>0</asrwt>
<pdfrwt beam="1">  1        2 0.46679539E+00 0.34413168E+03</pdfrwt>
<pdfrwt beam="2">  1       -2 0.12943946E-02 0.34413168E+03</pdfrwt>
<totfact> 0.28915130E+03</totfact>
</mgrwt>
</event>
<event>
 4    1  0.2581031E-004  0.5650105E+03  0.7818608E-02  0.9980781E-01
          2   -1    0    0  501    0  0.00000000000E+00  0.00000000000E+00  0.22969539497E+03  0.22969539498E+03  0.25500000000E-02 0.  1.
         -2   -1    0    0    0  501 -0.00000000000E+00 -0.00000000000E+00 -0.34745677853E+03  0.34745677854E+03  0.25500000000E-02 0. -1.
    5000001    1    1    2    0    0 -0.23859431743E+03 -0.79202522493E+02 -0.36502519760E+02  0.28401007346E+03  0.12700000000E+03 0.  0.
   -5000001    1    1    2    0    0  0.23859431743E+03  0.79202522493E+02 -0.81258863806E+02  0.29314210006E+03  0.12700000000E+03 0.  0.
<mgrwt>
<rscale>  0 0.56501052E+03</rscale>
<asrwt>0</asrwt>
<pdfrwt beam="1">  1        2 0.32813628E-01 0.56501052E+03</pdfrwt>
<pdfrwt beam="2">  1       -2 0.49636683E-01 0.56501052E+03</pdfrwt>
<totfact> 0.62185365E+02</totfact>
</mgrwt>
</event>
<event>
 4    1  0.2581031E-004  0.3648552E+03  0.7818608E-02  0.1056678E+00
         -2   -1    0    0    0  501 -0.00000000000E+00  0.00000000000E+00  0.48607224951E+02  0.48607225017E+02  0.25500000000E-02 0. -1.
          2   -1    0    0  501    0  0.00000000000E+00 -0.00000000000E+00 -0.68466841621E+03  0.68466841621E+03  0.25500000000E-02 0.  1.
    5000001    1    1    2    0    0  0.85573988566E+02 -0.15241029887E+01 -0.51724753854E+03  0.53944346000E+03  0.12700000000E+03 0.  0.
   -5000001    1    1    2    0    0 -0.85573988566E+02  0.15241029887E+01 -0.11881365272E+03  0.19383218123E+03  0.12700000000E+03 0.  0.
<mgrwt>
<rscale>  0 0.36485521E+03</rscale>
<asrwt>0</asrwt>
<pdfrwt beam="1">  1        2 0.97809768E-01 0.36485521E+03</pdfrwt>
<pdfrwt beam="2">  1       -2 0.69438897E-02 0.36485521E+03</pdfrwt>
<totfact> 0.55919334E+03</totfact>
</mgrwt>
</event>
<event>
 4    1  0.2581031E-004  0.5346832E+03  0.7818608E-02  0.1005103E+00
          2   -1    0    0  501    0  0.00000000000E+00  0.00000000000E+00  0.14553516366E+04  0.14553516366E+04  0.25500000000E-02 0.  1.
         -2   -1    0    0    0  501 -0.00000000000E+00 -0.00000000000E+00 -0.49109460062E+02  0.49109460128E+02  0.25500000000E-02 0. -1.
    5000001    1    1    2    0    0 -0.16329306781E+03  0.14730837706E+03  0.46807418055E+03  0.53252870575E+03  0.12700000000E+03 0.  0.
   -5000001    1    1    2    0    0  0.16329306781E+03 -0.14730837706E+03  0.93816799599E+03  0.97193239099E+03  0.12700000000E+03 0.  0.
<mgrwt>
<rscale>  0 0.53468321E+03</rscale>
<asrwt>0</asrwt>
<pdfrwt beam="1">  1        2 0.20790738E+00 0.53468321E+03</pdfrwt>
<pdfrwt beam="2">  1       -2 0.70156372E-02 0.53468321E+03</pdfrwt>
<totfact> 0.18984620E+03</totfact>
</mgrwt>
</event>
<event>
 4    1  0.2581031E-004  0.4194640E+03  0.7818608E-02  0.1037241E+00
          2   -1    0    0  501    0  0.00000000000E+00  0.00000000000E+00  0.10196171998E+04  0.10196171998E+04  0.25500000000E-02 0.  1.
         -2   -1    0    0    0  501 -0.00000000000E+00 -0.00000000000E+00 -0.43141206188E+02  0.43141206263E+02  0.25500000000E-02 0. -1.
    5000001    1    1    2    0    0 -0.15441797491E+03 -0.37731625158E+02  0.61717684770E+03  0.64984986563E+03  0.12700000000E+03 0.  0.
   -5000001    1    1    2    0    0  0.15441797491E+03  0.37731625158E+02  0.35929914588E+03  0.41290854041E+03  0.12700000000E+03 0.  0.
<mgrwt>
<rscale>  0 0.41946402E+03</rscale>
<asrwt>0</asrwt>
<pdfrwt beam="1">  1        2 0.14565962E+00 0.41946402E+03</pdfrwt>
<pdfrwt beam="2">  1       -2 0.61630287E-02 0.41946402E+03</pdfrwt>
<totfact> 0.40487029E+03</totfact>
</mgrwt>
</event>
<event>
 4    1  0.2581031E-004  0.3255744E+03  0.7818608E-02  0.1073112E+00
          2   -1    0    0  501    0  0.00000000000E+00  0.00000000000E+00  0.24276944564E+04  0.24276944564E+04  0.25500000000E-02 0.  1.
         -2   -1    0    0    0  501 -0.00000000000E+00 -0.00000000000E+00 -0.10915574146E+02  0.10915574444E+02  0.25500000000E-02 0. -1.
    5000001    1    1    2    0    0  0.45591568635E+02  0.89804611080E+02  0.13212949779E+04  0.13311997889E+04  0.12700000000E+03 0.  0.
   -5000001    1    1    2    0    0 -0.45591568635E+02 -0.89804611080E+02  0.10954839044E+04  0.11074102420E+04  0.12700000000E+03 0.  0.
<mgrwt>
<rscale>  0 0.32557444E+03</rscale>
<asrwt>0</asrwt>
<pdfrwt beam="1">  1        2 0.34681348E+00 0.32557444E+03</pdfrwt>
<pdfrwt beam="2">  1       -2 0.15593678E-02 0.32557444E+03</pdfrwt>
<totfact> 0.60711019E+03</totfact>
</mgrwt>
</event>
<event>
 4    1  0.2581031E-004  0.3353611E+03  0.7818608E-02  0.1068789E+00
          2   -1    0    0  501    0  0.00000000000E+00  0.00000000000E+00  0.13161677913E+04  0.13161677913E+04  0.25500000000E-02 0.  1.
         -2   -1    0    0    0  501 -0.00000000000E+00 -0.00000000000E+00 -0.21362597024E+02  0.21362597177E+02  0.25500000000E-02 0. -1.
    5000001    1    1    2    0    0  0.22008366275E+02  0.80195598018E+02  0.93144501726E+03  0.94373434943E+03  0.12700000000E+03 0.  0.
   -5000001    1    1    2    0    0 -0.22008366275E+02 -0.80195598018E+02  0.36336017706E+03  0.39379603909E+03  0.12700000000E+03 0.  0.
<mgrwt>
<rscale>  0 0.33536107E+03</rscale>
<asrwt>0</asrwt>
<pdfrwt beam="1">  1        2 0.18802394E+00 0.33536107E+03</pdfrwt>
<pdfrwt beam="2">  1       -2 0.30518001E-02 0.33536107E+03</pdfrwt>
<totfact> 0.80472552E+03</totfact>
</mgrwt>
</event>
<event>
 4    1  0.2581031E-004  0.1054827E+04  0.7818608E-02  0.9250375E-01
          2   -1    0    0  501    0  0.00000000000E+00  0.00000000000E+00  0.13130417068E+04  0.13130417068E+04  0.25500000000E-02 0.  1.
         -2   -1    0    0    0  501 -0.00000000000E+00 -0.00000000000E+00 -0.21184779781E+03  0.21184779783E+03  0.25500000000E-02 0. -1.
    5000001    1    1    2    0    0 -0.45435608136E+03  0.18427098793E+03  0.76326061259E+03  0.91601910918E+03  0.12700000000E+03 0.  0.
   -5000001    1    1    2    0    0  0.45435608136E+03 -0.18427098793E+03  0.33793329644E+03  0.60887039549E+03  0.12700000000E+03 0.  0.
<mgrwt>
<rscale>  0 0.10548270E+04</rscale>
<asrwt>0</asrwt>
<pdfrwt beam="1">  1        2 0.18757739E+00 0.10548270E+04</pdfrwt>
<pdfrwt beam="2">  1       -2 0.30263971E-01 0.10548270E+04</pdfrwt>
<totfact> 0.18498284E+02</totfact>
</mgrwt>
</event>
<event>
 4    1  0.2581031E-004  0.5465604E+03  0.7818608E-02  0.1002293E+00
          2   -1    0    0  501    0  0.00000000000E+00  0.00000000000E+00  0.34743340828E+04  0.34743340828E+04  0.25500000000E-02 0.  1.
         -2   -1    0    0    0  501 -0.00000000000E+00 -0.00000000000E+00 -0.21495365134E+02  0.21495365286E+02  0.25500000000E-02 0. -1.
    5000001    1    1    2    0    0 -0.20101336844E+03 -0.13369172005E+03  0.18321439388E+04  0.18523391328E+04  0.12700000000E+03 0.  0.
   -5000001    1    1    2    0    0  0.20101336844E+03  0.13369172005E+03  0.16206947789E+04  0.16434903153E+04  0.12700000000E+03 0.  0.
<mgrwt>
<rscale>  0 0.54656044E+03</rscale>
<asrwt>0</asrwt>
<pdfrwt beam="1">  1        2 0.49633338E+00 0.54656044E+03</pdfrwt>
<pdfrwt beam="2">  1       -2 0.30707668E-02 0.54656044E+03</pdfrwt>
<totfact> 0.59341938E+02</totfact>
</mgrwt>
</event>
<event>
 4    1  0.2581031E-004  0.3184527E+03  0.7818608E-02  0.1076364E+00
          2   -1    0    0  501    0  0.00000000000E+00  0.00000000000E+00  0.30294933891E+04  0.30294933891E+04  0.25500000000E-02 0.  1.
         -2   -1    0    0    0  501 -0.00000000000E+00 -0.00000000000E+00 -0.83687346077E+01  0.83687349962E+01  0.25500000000E-02 0. -1.
    5000001    1    1    2    0    0 -0.50925932220E+02 -0.81022070199E+02  0.14330633082E+04  0.14418590332E+04  0.12700000000E+03 0.  0.
   -5000001    1    1    2    0    0  0.50925932220E+02  0.81022070199E+02  0.15880613463E+04  0.15960030908E+04  0.12700000000E+03 0.  0.
<mgrwt>
<rscale>  0 0.31845268E+03</rscale>
<asrwt>0</asrwt>
<pdfrwt beam="1">  1        2 0.43278423E+00 0.31845268E+03</pdfrwt>
<pdfrwt beam="2">  1       -2 0.11955350E-02 0.31845268E+03</pdfrwt>
<totfact> 0.43917349E+03</totfact>
</mgrwt>
</event>
<event>
 4    1  0.2581031E-004  0.3995286E+03  0.7818608E-02  0.1043943E+00
         -2   -1    0    0    0  501 -0.00000000000E+00  0.00000000000E+00  0.34391290386E+03  0.34391290386E+03  0.25500000000E-02 0. -1.
          2   -1    0    0  501    0  0.00000000000E+00 -0.00000000000E+00 -0.11603453898E+03  0.11603453901E+03  0.25500000000E-02 0.  1.
    5000001    1    1    2    0    0  0.14597525030E+03 -0.39341523447E+02  0.14886224544E+03  0.24727615592E+03  0.12700000000E+03 0.  0.
   -5000001    1    1    2    0    0 -0.14597525030E+03  0.39341523447E+02  0.79016119431E+02  0.21267128696E+03  0.12700000000E+03 0.  0.
<mgrwt>
<rscale>  0 0.39952860E+03</rscale>
<asrwt>0</asrwt>
<pdfrwt beam="1">  1        2 0.16576363E-01 0.39952860E+03</pdfrwt>
<pdfrwt beam="2">  1       -2 0.49130414E-01 0.39952860E+03</pdfrwt>
<totfact> 0.13874333E+03</totfact>
</mgrwt>
</event>
<event>
 4    1  0.2581031E-004  0.5545337E+03  0.7818608E-02  0.1000450E+00
          2   -1    0    0  501    0  0.00000000000E+00  0.00000000000E+00  0.30179061763E+03  0.30179061764E+03  0.25500000000E-02 0.  1.
         -2   -1    0    0    0  501 -0.00000000000E+00 -0.00000000000E+00 -0.25473587989E+03  0.25473587991E+03  0.25500000000E-02 0. -1.
    5000001    1    1    2    0    0 -0.24503633452E+03  0.13936010301E+02  0.84346679303E+00  0.27634530764E+03  0.12700000000E+03 0.  0.
   -5000001    1    1    2    0    0  0.24503633452E+03 -0.13936010301E+02  0.46211270942E+02  0.28018118991E+03  0.12700000000E+03 0.  0.
<mgrwt>
<rscale>  0 0.55453367E+03</rscale>
<asrwt>0</asrwt>
<pdfrwt beam="1">  1        2 0.43112946E-01 0.55453367E+03</pdfrwt>
<pdfrwt beam="2">  1       -2 0.36390840E-01 0.55453367E+03</pdfrwt>
<totfact> 0.84510650E+02</totfact>
</mgrwt>
</event>
<event>
 4    1  0.2581031E-004  0.5221307E+03  0.7818608E-02  0.1008159E+00
          2   -1    0    0  501    0  0.00000000000E+00  0.00000000000E+00  0.13676970385E+03  0.13676970388E+03  0.25500000000E-02 0.  1.
         -2   -1    0    0    0  501 -0.00000000000E+00 -0.00000000000E+00 -0.49832028744E+03  0.49832028745E+03  0.25500000000E-02 0. -1.
    5000001    1    1    2    0    0  0.27548221097E+02 -0.18685496023E+03 -0.25233433111E+02  0.22899652136E+03  0.12700000000E+03 0.  0.
   -5000001    1    1    2    0    0 -0.27548221097E+02  0.18685496023E+03 -0.33631715047E+03  0.40609346997E+03  0.12700000000E+03 0.  0.
<mgrwt>
<rscale>  0 0.52213070E+03</rscale>
<asrwt>0</asrwt>
<pdfrwt beam="1">  1        2 0.19538529E-01 0.52213070E+03</pdfrwt>
<pdfrwt beam="2">  1       -2 0.71188611E-01 0.52213070E+03</pdfrwt>
<totfact> 0.52759648E+02</totfact>
</mgrwt>
</event>
<event>
 4    1  0.2581031E-004  0.4880583E+03  0.7818608E-02  0.1016944E+00
         -2   -1    0    0    0  501 -0.00000000000E+00  0.00000000000E+00  0.32647585601E+02  0.32647585701E+02  0.25500000000E-02 0. -1.
          2   -1    0    0  501    0  0.00000000000E+00 -0.00000000000E+00 -0.18240315855E+04  0.18240315855E+04  0.25500000000E-02 0.  1.
    5000001    1    1    2    0    0  0.75246498374E+02  0.11986572227E+03 -0.14775181950E+04  0.14897042806E+04  0.12700000000E+03 0.  0.
   -5000001    1    1    2    0    0 -0.75246498374E+02 -0.11986572227E+03 -0.31386580487E+03  0.36697489064E+03  0.12700000000E+03 0.  0.
<mgrwt>
<rscale>  0 0.48805831E+03</rscale>
<asrwt>0</asrwt>
<pdfrwt beam="1">  1        2 0.26057588E+00 0.48805831E+03</pdfrwt>
<pdfrwt beam="2">  1       -2 0.46639419E-02 0.48805831E+03</pdfrwt>
<totfact> 0.23285949E+03</totfact>
</mgrwt>
</event>
<event>
 4    1  0.2581031E-004  0.3000084E+03  0.7818608E-02  0.1085236E+00
          2   -1    0    0  501    0  0.00000000000E+00  0.00000000000E+00  0.12980113682E+04  0.12980113682E+04  0.25500000000E-02 0.  1.
         -2   -1    0    0    0  501 -0.00000000000E+00 -0.00000000000E+00 -0.17335179796E+02  0.17335179984E+02  0.25500000000E-02 0. -1.
    5000001    1    1    2    0    0  0.13561958204E+02  0.61652967824E+02  0.42612041815E+03  0.44910202172E+03  0.12700000000E+03 0.  0.
   -5000001    1    1    2    0    0 -0.13561958204E+02 -0.61652967824E+02  0.85455577026E+03  0.86624452646E+03  0.12700000000E+03 0.  0.
<mgrwt>
<rscale>  0 0.30000840E+03</rscale>
<asrwt>0</asrwt>
<pdfrwt beam="1">  1        2 0.18543020E+00 0.30000840E+03</pdfrwt>
<pdfrwt beam="2">  1       -2 0.24764542E-02 0.30000840E+03</pdfrwt>
<totfact> 0.11204060E+04</totfact>
</mgrwt>
</event>
<event>
 4    1  0.2581031E-004  0.2821254E+03  0.7818608E-02  0.1094534E+00
          2   -1    0    0  501    0  0.00000000000E+00  0.00000000000E+00  0.11752881914E+04  0.11752881914E+04  0.25500000000E-02 0.  1.
         -2   -1    0    0    0  501 -0.00000000000E+00 -0.00000000000E+00 -0.16930900444E+02  0.16930900636E+02  0.25500000000E-02 0. -1.
    5000001    1    1    2    0    0 -0.15178696666E+02  0.44090973323E+02  0.41039420090E+03  0.43211897308E+03  0.12700000000E+03 0.  0.
   -5000001    1    1    2    0    0  0.15178696666E+02 -0.44090973323E+02  0.74796309010E+03  0.76010011901E+03  0.12700000000E+03 0.  0.
<mgrwt>
<rscale>  0 0.28212542E+03</rscale>
<asrwt>0</asrwt>
<pdfrwt beam="1">  1        2 0.16789830E+00 0.28212542E+03</pdfrwt>
<pdfrwt beam="2">  1       -2 0.24187003E-02 0.28212542E+03</pdfrwt>
<totfact> 0.13483130E+04</totfact>
</mgrwt>
</event>
<event>
 4    1  0.2581031E-004  0.3507639E+03  0.7818608E-02  0.1062302E+00
         -2   -1    0    0    0  501 -0.00000000000E+00  0.00000000000E+00  0.28016103240E+03  0.28016103242E+03  0.25500000000E-02 0. -1.
          2   -1    0    0  501    0  0.00000000000E+00 -0.00000000000E+00 -0.10978982409E+03  0.10978982412E+03  0.25500000000E-02 0.  1.
    5000001    1    1    2    0    0  0.76588075658E+02 -0.93202776903E+02  0.94962380986E+02  0.19924694416E+03  0.12700000000E+03 0.  0.
   -5000001    1    1    2    0    0 -0.76588075658E+02  0.93202776903E+02  0.75408827328E+02  0.19070391237E+03  0.12700000000E+03 0.  0.
<mgrwt>
<rscale>  0 0.35076391E+03</rscale>
<asrwt>0</asrwt>
<pdfrwt beam="1">  1        2 0.15684261E-01 0.35076391E+03</pdfrwt>
<pdfrwt beam="2">  1       -2 0.40023005E-01 0.35076391E+03</pdfrwt>
<totfact> 0.22104272E+03</totfact>
</mgrwt>
</event>
<event>
 4    1  0.2581031E-004  0.7142261E+03  0.7818608E-02  0.9693208E-01
          2   -1    0    0  501    0  0.00000000000E+00  0.00000000000E+00  0.11156940784E+04  0.11156940784E+04  0.25500000000E-02 0. -1.
         -2   -1    0    0    0  501 -0.00000000000E+00 -0.00000000000E+00 -0.11430528687E+03  0.11430528690E+03  0.25500000000E-02 0.  1.
    5000001    1    1    2    0    0 -0.23152126381E+03 -0.24038562089E+03  0.49439281602E+03  0.60986932933E+03  0.12700000000E+03 0.  0.
   -5000001    1    1    2    0    0  0.23152126381E+03  0.24038562089E+03  0.50699597552E+03  0.62013003597E+03  0.12700000000E+03 0.  0.
<mgrwt>
<rscale>  0 0.71422610E+03</rscale>
<asrwt>0</asrwt>
<pdfrwt beam="1">  1        2 0.15938486E+00 0.71422610E+03</pdfrwt>
<pdfrwt beam="2">  1       -2 0.16329328E-01 0.71422610E+03</pdfrwt>
<totfact> 0.72891673E+02</totfact>
</mgrwt>
</event>
<event>
 4    1  0.2581031E-004  0.6655148E+03  0.7818608E-02  0.9778095E-01
         -2   -1    0    0    0  501 -0.00000000000E+00  0.00000000000E+00  0.47942225769E+02  0.47942225836E+02  0.25500000000E-02 0. -1.
          2   -1    0    0  501    0  0.00000000000E+00 -0.00000000000E+00 -0.23096025124E+04  0.23096025124E+04  0.25500000000E-02 0.  1.
    5000001    1    1    2    0    0  0.22555046093E+03  0.93033068948E+01 -0.39081732582E+03  0.46885684820E+03  0.12700000000E+03 0.  0.
   -5000001    1    1    2    0    0 -0.22555046093E+03 -0.93033068948E+01 -0.18708429608E+04  0.18886878900E+04  0.12700000000E+03 0.  0.
<mgrwt>
<rscale>  0 0.66551479E+03</rscale>
<asrwt>0</asrwt>
<pdfrwt beam="1">  1        2 0.32994315E+00 0.66551479E+03</pdfrwt>
<pdfrwt beam="2">  1       -2 0.68488908E-02 0.66551479E+03</pdfrwt>
<totfact> 0.72238456E+02</totfact>
</mgrwt>
</event>
<event>
 4    1  0.2581031E-004  0.2691505E+03  0.7818608E-02  0.1101767E+00
         -2   -1    0    0    0  501 -0.00000000000E+00  0.00000000000E+00  0.44116910734E+02  0.44116910808E+02  0.25500000000E-02 0. -1.
          2   -1    0    0  501    0  0.00000000000E+00 -0.00000000000E+00 -0.41051152948E+03  0.41051152949E+03  0.25500000000E-02 0.  1.
    5000001    1    1    2    0    0 -0.33515094106E+02 -0.27842721587E+02 -0.16780663817E+03  0.21491055464E+03  0.12700000000E+03 0.  0.
   -5000001    1    1    2    0    0  0.33515094106E+02  0.27842721587E+02 -0.19858798057E+03  0.23971788566E+03  0.12700000000E+03 0.  0.
<mgrwt>
<rscale>  0 0.26915052E+03</rscale>
<asrwt>0</asrwt>
<pdfrwt beam="1">  1        2 0.58644502E-01 0.26915052E+03</pdfrwt>
<pdfrwt beam="2">  1       -2 0.63024161E-02 0.26915052E+03</pdfrwt>
<totfact> 0.11446790E+04</totfact>
</mgrwt>
</event>
<event>
 4    1  0.2581031E-004  0.3855893E+03  0.7818608E-02  0.1048887E+00
          2   -1    0    0  501    0  0.00000000000E+00  0.00000000000E+00  0.38226637290E+03  0.38226637291E+03  0.25500000000E-02 0.  1.
         -2   -1    0    0    0  501 -0.00000000000E+00 -0.00000000000E+00 -0.97235265564E+02  0.97235265598E+02  0.25500000000E-02 0. -1.
    5000001    1    1    2    0    0 -0.19510241255E+02 -0.11344778660E+03  0.32760091499E+02  0.17450866280E+03  0.12700000000E+03 0.  0.
   -5000001    1    1    2    0    0  0.19510241255E+02  0.11344778660E+03  0.25227101583E+03  0.30499297570E+03  0.12700000000E+03 0.  0.
<mgrwt>
<rscale>  0 0.38558928E+03</rscale>
<asrwt>0</asrwt>
<pdfrwt beam="1">  1        2 0.54609483E-01 0.38558928E+03</pdfrwt>
<pdfrwt beam="2">  1       -2 0.13890752E-01 0.38558928E+03</pdfrwt>
<totfact> 0.35614648E+03</totfact>
</mgrwt>
</event>
<event>
 4    1  0.2581031E-004  0.3049804E+03  0.7818608E-02  0.1082777E+00
         -2   -1    0    0    0  501 -0.00000000000E+00  0.00000000000E+00  0.97838823788E+01  0.97838827111E+01  0.25500000000E-02 0. -1.
          2   -1    0    0  501    0  0.00000000000E+00 -0.00000000000E+00 -0.23766899019E+04  0.23766899019E+04  0.25500000000E-02 0.  1.
    5000001    1    1    2    0    0 -0.79057918874E+02 -0.24546669162E+02 -0.10545037740E+04  0.10653449690E+04  0.12700000000E+03 0.  0.
   -5000001    1    1    2    0    0  0.79057918874E+02  0.24546669162E+02 -0.13124022454E+04  0.13211288156E+04  0.12700000000E+03 0.  0.
<mgrwt>
<rscale>  0 0.30498036E+03</rscale>
<asrwt>0</asrwt>
<pdfrwt beam="1">  1        2 0.33952676E+00 0.30498036E+03</pdfrwt>
<pdfrwt beam="2">  1       -2 0.13976990E-02 0.30498036E+03</pdfrwt>
<totfact> 0.75590716E+03</totfact>
</mgrwt>
</event>
<event>
 4    1  0.2581031E-004  0.5037111E+03  0.7818608E-02  0.1012815E+00
          2   -1    0    0  501    0  0.00000000000E+00  0.00000000000E+00  0.16578428446E+04  0.16578428446E+04  0.25500000000E-02 0.  1.
         -2   -1    0    0    0  501 -0.00000000000E+00 -0.00000000000E+00 -0.38261300370E+02  0.38261300455E+02  0.25500000000E-02 0. -1.
    5000001    1    1    2    0    0  0.17209026740E+03 -0.15705548223E+02  0.36510787442E+03  0.42343179421E+03  0.12700000000E+03 0.  0.
   -5000001    1    1    2    0    0 -0.17209026740E+03  0.15705548223E+02  0.12544736699E+04  0.12726723509E+04  0.12700000000E+03 0.  0.
<mgrwt>
<rscale>  0 0.50371112E+03</rscale>
<asrwt>0</asrwt>
<pdfrwt beam="1">  1        2 0.23683472E+00 0.50371112E+03</pdfrwt>
<pdfrwt beam="2">  1       -2 0.54658994E-02 0.50371112E+03</pdfrwt>
<totfact> 0.22085501E+03</totfact>
</mgrwt>
</event>
<event>
 4    1  0.2581031E-004  0.4454548E+03  0.7818608E-02  0.1029086E+00
          2   -1    0    0  501    0  0.00000000000E+00  0.00000000000E+00  0.65287788680E+03  0.65287788680E+03  0.25500000000E-02 0.  1.
         -2   -1    0    0    0  501 -0.00000000000E+00 -0.00000000000E+00 -0.75982799539E+02  0.75982799582E+02  0.25500000000E-02 0. -1.
    5000001    1    1    2    0    0  0.17423174475E+03  0.51972135041E+02  0.25488770295E+03  0.33786764393E+03  0.12700000000E+03 0.  0.
   -5000001    1    1    2    0    0 -0.17423174475E+03 -0.51972135041E+02  0.32200738431E+03  0.39099304246E+03  0.12700000000E+03 0.  0.
<mgrwt>
<rscale>  0 0.44545478E+03</rscale>
<asrwt>0</asrwt>
<pdfrwt beam="1">  1        2 0.93268275E-01 0.44545478E+03</pdfrwt>
<pdfrwt beam="2">  1       -2 0.10854685E-01 0.44545478E+03</pdfrwt>
<totfact> 0.29198342E+03</totfact>
</mgrwt>
</event>
<event>
 4    1  0.2581031E-004  0.5072915E+03  0.7818608E-02  0.1011893E+00
          2   -1    0    0  501    0  0.00000000000E+00  0.00000000000E+00  0.84725725765E+03  0.84725725765E+03  0.25500000000E-02 0.  1.
         -2   -1    0    0    0  501 -0.00000000000E+00 -0.00000000000E+00 -0.75934622365E+02  0.75934622408E+02  0.25500000000E-02 0. -1.
    5000001    1    1    2    0    0  0.96940584971E+02 -0.16158825024E+03  0.18058391357E+03  0.29025469759E+03  0.12700000000E+03 0.  0.
   -5000001    1    1    2    0    0 -0.96940584971E+02  0.16158825024E+03  0.59073872171E+03  0.63293718247E+03  0.12700000000E+03 0.  0.
<mgrwt>
<rscale>  0 0.50729147E+03</rscale>
<asrwt>0</asrwt>
<pdfrwt beam="1">  1        2 0.12103674E+00 0.50729147E+03</pdfrwt>
<pdfrwt beam="2">  1       -2 0.10847804E-01 0.50729147E+03</pdfrwt>
<totfact> 0.21182715E+03</totfact>
</mgrwt>
</event>
<event>
 4    1  0.2581031E-004  0.2974392E+03  0.7818608E-02  0.1086528E+00
          2   -1    0    0  501    0  0.00000000000E+00  0.00000000000E+00  0.11044135075E+04  0.11044135075E+04  0.25500000000E-02 0.  1.
         -2   -1    0    0    0  501 -0.00000000000E+00 -0.00000000000E+00 -0.20026486352E+02  0.20026486514E+02  0.25500000000E-02 0. -1.
    5000001    1    1    2    0    0  0.31937997196E+02  0.67160690261E+02  0.46129570850E+03  0.48420380488E+03  0.12700000000E+03 0.  0.
   -5000001    1    1    2    0    0 -0.31937997196E+02 -0.67160690261E+02  0.62309131267E+03  0.64023618916E+03  0.12700000000E+03 0.  0.
<mgrwt>
<rscale>  0 0.29743922E+03</rscale>
<asrwt>0</asrwt>
<pdfrwt beam="1">  1        2 0.15777339E+00 0.29743922E+03</pdfrwt>
<pdfrwt beam="2">  1       -2 0.28609260E-02 0.29743922E+03</pdfrwt>
<totfact> 0.11525574E+04</totfact>
</mgrwt>
</event>
<event>
 4    1  0.2581031E-004  0.1575866E+04  0.7818608E-02  0.8835513E-01
          2   -1    0    0  501    0  0.00000000000E+00  0.00000000000E+00  0.96576017791E+03  0.96576017791E+03  0.25500000000E-02 0.  1.
         -2   -1    0    0    0  501 -0.00000000000E+00 -0.00000000000E+00 -0.64284923526E+03  0.64284923527E+03  0.25500000000E-02 0. -1.
    5000001    1    1    2    0    0  0.27278941723E+03  0.46052888251E+03 -0.41436504074E+03  0.68871496627E+03  0.12700000000E+03 0.  0.
   -5000001    1    1    2    0    0 -0.27278941723E+03 -0.46052888251E+03  0.73727598339E+03  0.91989444691E+03  0.12700000000E+03 0.  0.
<mgrwt>
<rscale>  0 0.15758657E+04</rscale>
<asrwt>0</asrwt>
<pdfrwt beam="1">  1        2 0.13796574E+00 0.15758657E+04</pdfrwt>
<pdfrwt beam="2">  1       -2 0.91835605E-01 0.15758657E+04</pdfrwt>
<totfact> 0.28655906E+01</totfact>
</mgrwt>
</event>
<event>
 4    1  0.2581031E-004  0.4720053E+03  0.7818608E-02  0.1021356E+00
          2   -1    0    0  501    0  0.00000000000E+00  0.00000000000E+00  0.32213513085E+03  0.32213513086E+03  0.25500000000E-02 0.  1.
         -2   -1    0    0    0  501 -0.00000000000E+00 -0.00000000000E+00 -0.17290028758E+03  0.17290028760E+03  0.25500000000E-02 0. -1.
    5000001    1    1    2    0    0 -0.15949993568E+03 -0.10987018617E+03  0.12217952663E+03  0.26185592225E+03  0.12700000000E+03 0.  0.
   -5000001    1    1    2    0    0  0.15949993568E+03  0.10987018617E+03  0.27055316644E+02  0.23317949620E+03  0.12700000000E+03 0.  0.
<mgrwt>
<rscale>  0 0.47200533E+03</rscale>
<asrwt>0</asrwt>
<pdfrwt beam="1">  1        2 0.46019305E-01 0.47200533E+03</pdfrwt>
<pdfrwt beam="2">  1       -2 0.24700041E-01 0.47200533E+03</pdfrwt>
<totfact> 0.16059058E+03</totfact>
</mgrwt>
</event>
<event>
 4    1  0.2581031E-004  0.4286401E+03  0.7818608E-02  0.1034290E+00
         -2   -1    0    0    0  501 -0.00000000000E+00  0.00000000000E+00  0.11567689034E+04  0.11567689034E+04  0.25500000000E-02 0. -1.
          2   -1    0    0  501    0  0.00000000000E+00 -0.00000000000E+00 -0.39708095401E+02  0.39708095483E+02  0.25500000000E-02 0.  1.
    5000001    1    1    2    0    0 -0.47398581128E+02 -0.91984892471E+02  0.17279854894E+03  0.23810960596E+03  0.12700000000E+03 0.  0.
   -5000001    1    1    2    0    0  0.47398581128E+02  0.91984892471E+02  0.94426225905E+03  0.95836739292E+03  0.12700000000E+03 0.  0.
<mgrwt>
<rscale>  0 0.42864013E+03</rscale>
<asrwt>0</asrwt>
<pdfrwt beam="1">  1        2 0.56725855E-02 0.42864013E+03</pdfrwt>
<pdfrwt beam="2">  1       -2 0.16525269E+00 0.42864013E+03</pdfrwt>
<totfact> 0.32757350E+02</totfact>
</mgrwt>
</event>
<event>
 4    1  0.2581031E-004  0.2730304E+03  0.7818608E-02  0.1099558E+00
         -2   -1    0    0    0  501 -0.00000000000E+00  0.00000000000E+00  0.29934873627E+03  0.29934873628E+03  0.25500000000E-02 0. -1.
          2   -1    0    0  501    0  0.00000000000E+00 -0.00000000000E+00 -0.62256489924E+02  0.62256489976E+02  0.25500000000E-02 0.  1.
    5000001    1    1    2    0    0 -0.49315540229E+02  0.46446736503E+01  0.12826104708E+03  0.18717235827E+03  0.12700000000E+03 0.  0.
   -5000001    1    1    2    0    0  0.49315540229E+02 -0.46446736503E+01  0.10883119927E+03  0.17443286799E+03  0.12700000000E+03 0.  0.
<mgrwt>
<rscale>  0 0.27303041E+03</rscale>
<asrwt>0</asrwt>
<pdfrwt beam="1">  1        2 0.88937843E-02 0.27303041E+03</pdfrwt>
<pdfrwt beam="2">  1       -2 0.42764105E-01 0.27303041E+03</pdfrwt>
<totfact> 0.38687564E+03</totfact>
</mgrwt>
</event>
<event>
 4    1  0.2581031E-004  0.4570080E+03  0.7818608E-02  0.1025653E+00
         -2   -1    0    0    0  501 -0.00000000000E+00  0.00000000000E+00  0.21912805149E+03  0.21912805150E+03  0.25500000000E-02 0. -1.
          2   -1    0    0  501    0  0.00000000000E+00 -0.00000000000E+00 -0.23828109429E+03  0.23828109431E+03  0.25500000000E-02 0.  1.
    5000001    1    1    2    0    0  0.14284489862E+03 -0.68282552040E+02 -0.11463484794E+03  0.23310366865E+03  0.12700000000E+03 0.  0.
   -5000001    1    1    2    0    0 -0.14284489862E+03  0.68282552040E+02  0.95481805134E+02  0.22430547716E+03  0.12700000000E+03 0.  0.
<mgrwt>
<rscale>  0 0.45700797E+03</rscale>
<asrwt>0</asrwt>
<pdfrwt beam="1">  1        2 0.34040156E-01 0.45700797E+03</pdfrwt>
<pdfrwt beam="2">  1       -2 0.31304008E-01 0.45700797E+03</pdfrwt>
<totfact> 0.14543774E+03</totfact>
</mgrwt>
</event>
<event>
 4    1  0.2581031E-004  0.4819539E+03  0.7818608E-02  0.1018600E+00
         -2   -1    0    0    0  501 -0.00000000000E+00  0.00000000000E+00  0.18959038900E+02  0.18959039072E+02  0.25500000000E-02 0. -1.
          2   -1    0    0  501    0  0.00000000000E+00 -0.00000000000E+00 -0.30629128713E+04  0.30629128713E+04  0.25500000000E-02 0.  1.
    5000001    1    1    2    0    0 -0.10663441204E+03 -0.16915958454E+03 -0.18047153809E+04  0.18201957227E+04  0.12700000000E+03 0.  0.
   -5000001    1    1    2    0    0  0.10663441204E+03  0.16915958454E+03 -0.12392384515E+04  0.12616761877E+04  0.12700000000E+03 0.  0.
<mgrwt>
<rscale>  0 0.48195388E+03</rscale>
<asrwt>0</asrwt>
<pdfrwt beam="1">  1        2 0.43755867E+00 0.48195388E+03</pdfrwt>
<pdfrwt beam="2">  1       -2 0.27084361E-02 0.48195388E+03</pdfrwt>
<totfact> 0.12353049E+03</totfact>
</mgrwt>
</event>
<event>
 4    1  0.2581031E-004  0.3338368E+03  0.7818608E-02  0.1069452E+00
         -2   -1    0    0    0  501 -0.00000000000E+00  0.00000000000E+00  0.89684797617E+03  0.89684797618E+03  0.25500000000E-02 0. -1.
          2   -1    0    0  501    0  0.00000000000E+00 -0.00000000000E+00 -0.31066307413E+02  0.31066307518E+02  0.25500000000E-02 0.  1.
    5000001    1    1    2    0    0  0.19900515405E+02 -0.10645061419E+03  0.42668105210E+03  0.45816316307E+03  0.12700000000E+03 0.  0.
   -5000001    1    1    2    0    0 -0.19900515405E+02  0.10645061419E+03  0.43910061666E+03  0.46975112063E+03  0.12700000000E+03 0.  0.
<mgrwt>
<rscale>  0 0.33383682E+03</rscale>
<asrwt>0</asrwt>
<pdfrwt beam="1">  1        2 0.44380438E-02 0.33383682E+03</pdfrwt>
<pdfrwt beam="2">  1       -2 0.12812114E+00 0.33383682E+03</pdfrwt>
<totfact> 0.87621149E+02</totfact>
</mgrwt>
</event>
<event>
 4    1  0.2581031E-004  0.5604861E+03  0.7818608E-02  0.9990955E-01
         -2   -1    0    0    0  501 -0.00000000000E+00  0.00000000000E+00  0.25596682114E+02  0.25596682241E+02  0.25500000000E-02 0. -1.
          2   -1    0    0  501    0  0.00000000000E+00 -0.00000000000E+00 -0.30682171235E+04  0.30682171235E+04  0.25500000000E-02 0.  1.
    5000001    1    1    2    0    0 -0.20727933063E+03  0.90789573455E+02 -0.21054714143E+04  0.21214019760E+04  0.12700000000E+03 0.  0.
   -5000001    1    1    2    0    0  0.20727933063E+03 -0.90789573455E+02 -0.93714902711E+03  0.97241182972E+03  0.12700000000E+03 0.  0.
<mgrwt>
<rscale>  0 0.56048614E+03</rscale>
<asrwt>0</asrwt>
<pdfrwt beam="1">  1        2 0.43831650E+00 0.56048614E+03</pdfrwt>
<pdfrwt beam="2">  1       -2 0.36566708E-02 0.56048614E+03</pdfrwt>
<totfact> 0.77221933E+02</totfact>
</mgrwt>
</event>
<event>
 4    1  0.2581031E-004  0.3459039E+03  0.7818608E-02  0.1064309E+00
          2   -1    0    0  501    0  0.00000000000E+00  0.00000000000E+00  0.56227314041E+02  0.56227314098E+02  0.25500000000E-02 0. -1.
         -2   -1    0    0    0  501 -0.00000000000E+00 -0.00000000000E+00 -0.53199021813E+03  0.53199021814E+03  0.25500000000E-02 0.  1.
    5000001    1    1    2    0    0  0.72288577777E+02  0.84188440650E+02 -0.17268133256E+03  0.24137351684E+03  0.12700000000E+03 0.  0.
   -5000001    1    1    2    0    0 -0.72288577777E+02 -0.84188440650E+02 -0.30308157153E+03  0.34684401540E+03  0.12700000000E+03 0.  0.
<mgrwt>
<rscale>  0 0.34590392E+03</rscale>
<asrwt>0</asrwt>
<pdfrwt beam="1">  1        2 0.80324737E-02 0.34590392E+03</pdfrwt>
<pdfrwt beam="2">  1       -2 0.75998600E-01 0.34590392E+03</pdfrwt>
<totfact> 0.13573381E+03</totfact>
</mgrwt>
</event>
<event>
 4    1  0.2581031E-004  0.3464378E+03  0.7818608E-02  0.1064087E+00
         -2   -1    0    0    0  501 -0.00000000000E+00  0.00000000000E+00  0.16797478867E+02  0.16797479061E+02  0.25500000000E-02 0. -1.
          2   -1    0    0  501    0  0.00000000000E+00 -0.00000000000E+00 -0.17862670632E+04  0.17862670632E+04  0.25500000000E-02 0.  1.
    5000001    1    1    2    0    0  0.11429096435E+03  0.17191814019E+02 -0.10031662917E+04  0.10177571379E+04  0.12700000000E+03 0.  0.
   -5000001    1    1    2    0    0 -0.11429096435E+03 -0.17191814019E+02 -0.76630329270E+03  0.78530740440E+03  0.12700000000E+03 0.  0.
<mgrwt>
<rscale>  0 0.34643778E+03</rscale>
<asrwt>0</asrwt>
<pdfrwt beam="1">  1        2 0.25518089E+00 0.34643778E+03</pdfrwt>
<pdfrwt beam="2">  1       -2 0.23996410E-02 0.34643778E+03</pdfrwt>
<totfact> 0.66523280E+03</totfact>
</mgrwt>
</event>
<event>
 4    1  0.2581031E-004  0.8746047E+03  0.7818608E-02  0.9457896E-01
          2   -1    0    0  501    0  0.00000000000E+00  0.00000000000E+00  0.19119858275E+04  0.19119858275E+04  0.25500000000E-02 0.  1.
         -2   -1    0    0    0  501 -0.00000000000E+00 -0.00000000000E+00 -0.10001818782E+03  0.10001818785E+03  0.25500000000E-02 0. -1.
    5000001    1    1    2    0    0 -0.13546294090E+03  0.39071600574E+03  0.10531988128E+04  0.11385806712E+04  0.12700000000E+03 0.  0.
   -5000001    1    1    2    0    0  0.13546294090E+03 -0.39071600574E+03  0.75876882687E+03  0.87342334416E+03  0.12700000000E+03 0.  0.
<mgrwt>
<rscale>  0 0.87460473E+03</rscale>
<asrwt>0</asrwt>
<pdfrwt beam="1">  1        2 0.27314081E+00 0.87460473E+03</pdfrwt>
<pdfrwt beam="2">  1       -2 0.14288314E-01 0.87460473E+03</pdfrwt>
<totfact> 0.34202329E+02</totfact>
</mgrwt>
</event>
<event>
 4    1  0.2581031E-004  0.4383542E+03  0.7818608E-02  0.1031253E+00
          2   -1    0    0  501    0  0.00000000000E+00  0.00000000000E+00  0.17600846047E+04  0.17600846047E+04  0.25500000000E-02 0.  1.
         -2   -1    0    0    0  501 -0.00000000000E+00 -0.00000000000E+00 -0.27293349735E+02  0.27293349854E+02  0.25500000000E-02 0. -1.
    5000001    1    1    2    0    0 -0.26783572022E+02  0.14425951450E+03  0.12818467686E+04  0.12964521995E+04  0.12700000000E+03 0.  0.
   -5000001    1    1    2    0    0  0.26783572022E+02 -0.14425951450E+03  0.45094448635E+03  0.49092575510E+03  0.12700000000E+03 0.  0.
<mgrwt>
<rscale>  0 0.43835422E+03</rscale>
<asrwt>0</asrwt>
<pdfrwt beam="1">  1        2 0.25144058E+00 0.43835422E+03</pdfrwt>
<pdfrwt beam="2">  1       -2 0.38990512E-02 0.43835422E+03</pdfrwt>
<totfact> 0.33015353E+03</totfact>
</mgrwt>
</event>
<event>
 4    1  0.2581031E-004  0.4192434E+03  0.7818608E-02  0.1037313E+00
         -2   -1    0    0    0  501 -0.00000000000E+00  0.00000000000E+00  0.20755129252E+03  0.20755129254E+03  0.25500000000E-02 0. -1.
          2   -1    0    0  501    0  0.00000000000E+00 -0.00000000000E+00 -0.21171277753E+03  0.21171277755E+03  0.25500000000E-02 0.  1.
    5000001    1    1    2    0    0 -0.46864428864E+02 -0.11087586411E+03 -0.11750968752E+03  0.21077774692E+03  0.12700000000E+03 0.  0.
   -5000001    1    1    2    0    0  0.46864428864E+02  0.11087586411E+03  0.11334820251E+03  0.20848632317E+03  0.12700000000E+03 0.  0.
<mgrwt>
<rscale>  0 0.41924342E+03</rscale>
<asrwt>0</asrwt>
<pdfrwt beam="1">  1        2 0.30244682E-01 0.41924342E+03</pdfrwt>
<pdfrwt beam="2">  1       -2 0.29650185E-01 0.41924342E+03</pdfrwt>
<totfact> 0.18307355E+03</totfact>
</mgrwt>
</event>
<event>
 4    1  0.2581031E-004  0.6122056E+03  0.7818608E-02  0.9880402E-01
          2   -1    0    0  501    0  0.00000000000E+00  0.00000000000E+00  0.49166851405E+03  0.49166851406E+03  0.25500000000E-02 0.  1.
         -2   -1    0    0    0  501 -0.00000000000E+00 -0.00000000000E+00 -0.19057334375E+03  0.19057334376E+03  0.25500000000E-02 0. -1.
    5000001    1    1    2    0    0  0.26993163990E+03 -0.67347237685E+02  0.16512758721E+03  0.34755555052E+03  0.12700000000E+03 0.  0.
   -5000001    1    1    2    0    0 -0.26993163990E+03  0.67347237685E+02  0.13596758309E+03  0.33468630730E+03  0.12700000000E+03 0.  0.
<mgrwt>
<rscale>  0 0.61220556E+03</rscale>
<asrwt>0</asrwt>
<pdfrwt beam="1">  1        2 0.70238359E-01 0.61220556E+03</pdfrwt>
<pdfrwt beam="2">  1       -2 0.27224764E-01 0.61220556E+03</pdfrwt>
<totfact> 0.84251446E+02</totfact>
</mgrwt>
</event>
<event>
 4    1  0.2581031E-004  0.3149182E+03  0.7818608E-02  0.1078012E+00
          2   -1    0    0  501    0  0.00000000000E+00  0.00000000000E+00  0.50505192237E+03  0.50505192237E+03  0.25500000000E-02 0.  1.
         -2   -1    0    0    0  501 -0.00000000000E+00 -0.00000000000E+00 -0.49090719099E+02  0.49090719165E+02  0.25500000000E-02 0. -1.
    5000001    1    1    2    0    0 -0.45260877227E+02  0.78190916574E+02  0.26740579496E+03  0.30951126898E+03  0.12700000000E+03 0.  0.
   -5000001    1    1    2    0    0  0.45260877227E+02 -0.78190916574E+02  0.18855540830E+03  0.24463137256E+03  0.12700000000E+03 0.  0.
<mgrwt>
<rscale>  0 0.31491816E+03</rscale>
<asrwt>0</asrwt>
<pdfrwt beam="1">  1        2 0.72150270E-01 0.31491816E+03</pdfrwt>
<pdfrwt beam="2">  1       -2 0.70129603E-02 0.31491816E+03</pdfrwt>
<totfact> 0.77789555E+03</totfact>
</mgrwt>
</event>
<event>
 4    1  0.2581031E-004  0.3884838E+03  0.7818608E-02  0.1047842E+00
         -2   -1    0    0    0  501 -0.00000000000E+00  0.00000000000E+00  0.89238776278E+03  0.89238776278E+03  0.25500000000E-02 0. -1.
          2   -1    0    0  501    0  0.00000000000E+00 -0.00000000000E+00 -0.42279735885E+02  0.42279735962E+02  0.25500000000E-02 0.  1.
    5000001    1    1    2    0    0 -0.20496300363E+02 -0.12024290108E+03  0.22778971328E+03  0.28791597223E+03  0.12700000000E+03 0.  0.
   -5000001    1    1    2    0    0  0.20496300363E+02  0.12024290108E+03  0.62231831362E+03  0.64675152652E+03  0.12700000000E+03 0.  0.
<mgrwt>
<rscale>  0 0.38848382E+03</rscale>
<asrwt>0</asrwt>
<pdfrwt beam="1">  1        2 0.60399621E-02 0.38848382E+03</pdfrwt>
<pdfrwt beam="2">  1       -2 0.12748397E+00 0.38848382E+03</pdfrwt>
<totfact> 0.58983181E+02</totfact>
</mgrwt>
</event>
<event>
 4    1  0.2581031E-004  0.4914449E+03  0.7818608E-02  0.1016036E+00
         -2   -1    0    0    0  501 -0.00000000000E+00  0.00000000000E+00  0.68162616240E+02  0.68162616287E+02  0.25500000000E-02 0. -1.
          2   -1    0    0  501    0  0.00000000000E+00 -0.00000000000E+00 -0.88581592401E+03  0.88581592401E+03  0.25500000000E-02 0.  1.
    5000001    1    1    2    0    0 -0.17484143325E+03  0.39312278920E+02 -0.62266887362E+03  0.66027305582E+03  0.12700000000E+03 0.  0.
   -5000001    1    1    2    0    0  0.17484143325E+03 -0.39312278920E+02 -0.19498443414E+03  0.29370548448E+03  0.12700000000E+03 0.  0.
<mgrwt>
<rscale>  0 0.49144493E+03</rscale>
<asrwt>0</asrwt>
<pdfrwt beam="1">  1        2 0.12654513E+00 0.49144493E+03</pdfrwt>
<pdfrwt beam="2">  1       -2 0.97375171E-02 0.49144493E+03</pdfrwt>
<totfact> 0.23798422E+03</totfact>
</mgrwt>
</event>
<event>
 4    1  0.2581031E-004  0.4220354E+03  0.7818608E-02  0.1036406E+00
          2   -1    0    0  501    0  0.00000000000E+00  0.00000000000E+00  0.13891845791E+04  0.13891845791E+04  0.25500000000E-02 0.  1.
         -2   -1    0    0    0  501 -0.00000000000E+00 -0.00000000000E+00 -0.32053672977E+02  0.32053673078E+02  0.25500000000E-02 0. -1.
    5000001    1    1    2    0    0 -0.10869629077E+03  0.18905252807E+01  0.24493126791E+03  0.29654474150E+03  0.12700000000E+03 0.  0.
   -5000001    1    1    2    0    0  0.10869629077E+03 -0.18905252807E+01  0.11121996382E+04  0.11246935107E+04  0.12700000000E+03 0.  0.
<mgrwt>
<rscale>  0 0.42203539E+03</rscale>
<asrwt>0</asrwt>
<pdfrwt beam="1">  1        2 0.19845490E+00 0.42203539E+03</pdfrwt>
<pdfrwt beam="2">  1       -2 0.45790970E-02 0.42203539E+03</pdfrwt>
<totfact> 0.39938515E+03</totfact>
</mgrwt>
</event>
<event>
 4    1  0.2581031E-004  0.2692207E+03  0.7818608E-02  0.1101726E+00
         -2   -1    0    0    0  501 -0.00000000000E+00  0.00000000000E+00  0.10432740807E+04  0.10432740807E+04  0.25500000000E-02 0. -1.
          2   -1    0    0  501    0  0.00000000000E+00 -0.00000000000E+00 -0.17368351072E+02  0.17368351259E+02  0.25500000000E-02 0.  1.
    5000001    1    1    2    0    0  0.43472099212E+02  0.99041386488E+01  0.50608920003E+03  0.52368234051E+03  0.12700000000E+03 0.  0.
   -5000001    1    1    2    0    0 -0.43472099212E+02 -0.99041386488E+01  0.51981652961E+03  0.53696009147E+03  0.12700000000E+03 0.  0.
<mgrwt>
<rscale>  0 0.26922073E+03</rscale>
<asrwt>0</asrwt>
<pdfrwt beam="1">  1        2 0.24811934E-02 0.26922073E+03</pdfrwt>
<pdfrwt beam="2">  1       -2 0.14903913E+00 0.26922073E+03</pdfrwt>
<totfact> 0.13104978E+03</totfact>
</mgrwt>
</event>
<event>
 4    1  0.2581031E-004  0.4655641E+03  0.7818608E-02  0.1023180E+00
          2   -1    0    0  501    0  0.00000000000E+00  0.00000000000E+00  0.12009961099E+04  0.12009961099E+04  0.25500000000E-02 0.  1.
         -2   -1    0    0    0  501 -0.00000000000E+00 -0.00000000000E+00 -0.45118780816E+02  0.45118780888E+02  0.25500000000E-02 0. -1.
    5000001    1    1    2    0    0 -0.51276206608E+02 -0.15262765246E+03  0.28310222695E+03  0.34957162436E+03  0.12700000000E+03 0.  0.
   -5000001    1    1    2    0    0  0.51276206608E+02  0.15262765246E+03  0.87277510215E+03  0.89654326644E+03  0.12700000000E+03 0.  0.
<mgrwt>
<rscale>  0 0.46556409E+03</rscale>
<asrwt>0</asrwt>
<pdfrwt beam="1">  1        2 0.17157089E+00 0.46556409E+03</pdfrwt>
<pdfrwt beam="2">  1       -2 0.64455395E-02 0.46556409E+03</pdfrwt>
<totfact> 0.29730010E+03</totfact>
</mgrwt>
</event>
<event>
 4    1  0.2581031E-004  0.3583900E+03  0.7818608E-02  0.1059223E+00
         -2   -1    0    0    0  501 -0.00000000000E+00  0.00000000000E+00  0.21967739368E+03  0.21967739370E+03  0.25500000000E-02 0. -1.
          2   -1    0    0  501    0  0.00000000000E+00 -0.00000000000E+00 -0.14617275531E+03  0.14617275533E+03  0.25500000000E-02 0.  1.
    5000001    1    1    2    0    0 -0.59402275169E+02  0.18764507591E+02  0.14904720976E+03  0.20548675816E+03  0.12700000000E+03 0.  0.
   -5000001    1    1    2    0    0  0.59402275169E+02 -0.18764507591E+02 -0.75542571387E+02  0.16036339087E+03  0.12700000000E+03 0.  0.
<mgrwt>
<rscale>  0 0.35839001E+03</rscale>
<asrwt>0</asrwt>
<pdfrwt beam="1">  1        2 0.20881822E-01 0.35839001E+03</pdfrwt>
<pdfrwt beam="2">  1       -2 0.31382485E-01 0.35839001E+03</pdfrwt>
<totfact> 0.25001213E+03</totfact>
</mgrwt>
</event>
<event>
 4    1  0.2581031E-004  0.6376079E+03  0.7818608E-02  0.9830314E-01
         -2   -1    0    0    0  501 -0.00000000000E+00  0.00000000000E+00  0.33235136433E+02  0.33235136531E+02  0.25500000000E-02 0. -1.
          2   -1    0    0  501    0  0.00000000000E+00 -0.00000000000E+00 -0.30580875848E+04  0.30580875848E+04  0.25500000000E-02 0.  1.
    5000001    1    1    2    0    0 -0.18778209026E+03  0.18093976632E+03 -0.21539012098E+04  0.21733432159E+04  0.12700000000E+03 0.  0.
   -5000001    1    1    2    0    0  0.18778209026E+03 -0.18093976632E+03 -0.87095123854E+03  0.91797950542E+03  0.12700000000E+03 0.  0.
<mgrwt>
<rscale>  0 0.63760790E+03</rscale>
<asrwt>0</asrwt>
<pdfrwt beam="1">  1        2 0.43686948E+00 0.63760790E+03</pdfrwt>
<pdfrwt beam="2">  1       -2 0.47478786E-02 0.63760790E+03</pdfrwt>
<totfact> 0.51939059E+02</totfact>
</mgrwt>
</event>
<event>
 4    1  0.2581031E-004  0.3174690E+03  0.7818608E-02  0.1076820E+00
         -2   -1    0    0    0  501 -0.00000000000E+00  0.00000000000E+00  0.30201595180E+03  0.30201595181E+03  0.25500000000E-02 0. -1.
          2   -1    0    0  501    0  0.00000000000E+00 -0.00000000000E+00 -0.83428205639E+02  0.83428205678E+02  0.25500000000E-02 0.  1.
    5000001    1    1    2    0    0  0.24305067585E+02 -0.91785246013E+02  0.11808102215E+03  0.19770532489E+03  0.12700000000E+03 0.  0.
   -5000001    1    1    2    0    0 -0.24305067585E+02  0.91785246013E+02  0.10050672401E+03  0.18773883260E+03  0.12700000000E+03 0.  0.
<mgrwt>
<rscale>  0 0.31746905E+03</rscale>
<asrwt>0</asrwt>
<pdfrwt beam="1">  1        2 0.11918315E-01 0.31746905E+03</pdfrwt>
<pdfrwt beam="2">  1       -2 0.43145136E-01 0.31746905E+03</pdfrwt>
<totfact> 0.26562485E+03</totfact>
</mgrwt>
</event>
<event>
 4    1  0.2581031E-004  0.3860915E+03  0.7818608E-02  0.1048705E+00
         -2   -1    0    0    0  501 -0.00000000000E+00  0.00000000000E+00  0.10952613273E+03  0.10952613276E+03  0.25500000000E-02 0. -1.
          2   -1    0    0  501    0  0.00000000000E+00 -0.00000000000E+00 -0.34025358866E+03  0.34025358867E+03  0.25500000000E-02 0.  1.
    5000001    1    1    2    0    0  0.10574233684E+03 -0.80808126703E+02 -0.47173822284E+02  0.18990988561E+03  0.12700000000E+03 0.  0.
   -5000001    1    1    2    0    0 -0.10574233684E+03  0.80808126703E+02 -0.18355363365E+03  0.25986983582E+03  0.12700000000E+03 0.  0.
<mgrwt>
<rscale>  0 0.38609149E+03</rscale>
<asrwt>0</asrwt>
<pdfrwt beam="1">  1        2 0.48607655E-01 0.38609149E+03</pdfrwt>
<pdfrwt beam="2">  1       -2 0.15646591E-01 0.38609149E+03</pdfrwt>
<totfact> 0.33176295E+03</totfact>
</mgrwt>
</event>
<event>
 4    1  0.2581031E-004  0.3222371E+03  0.7818608E-02  0.1074624E+00
          2   -1    0    0  501    0  0.00000000000E+00  0.00000000000E+00  0.11587375551E+02  0.11587375832E+02  0.25500000000E-02 0.  1.
         -2   -1    0    0    0  501 -0.00000000000E+00 -0.00000000000E+00 -0.22402995720E+04  0.22402995720E+04  0.25500000000E-02 0. -1.
    5000001    1    1    2    0    0 -0.68269849038E+02 -0.62361750862E+02 -0.86429314921E+03  0.87845398743E+03  0.12700000000E+03 0.  0.
   -5000001    1    1    2    0    0  0.68269849038E+02  0.62361750862E+02 -0.13644190472E+04  0.13734329604E+04  0.12700000000E+03 0.  0.
<mgrwt>
<rscale>  0 0.32223714E+03</rscale>
<asrwt>0</asrwt>
<pdfrwt beam="1">  1        2 0.16553408E-02 0.32223714E+03</pdfrwt>
<pdfrwt beam="2">  1       -2 0.32004252E+00 0.32223714E+03</pdfrwt>
<totfact> 0.19832310E+02</totfact>
</mgrwt>
</event>
<event>
 4    1  0.2581031E-004  0.3734305E+03  0.7818608E-02  0.1053389E+00
          2   -1    0    0  501    0  0.00000000000E+00  0.00000000000E+00  0.61220721597E+03  0.61220721598E+03  0.25500000000E-02 0.  1.
         -2   -1    0    0    0  501 -0.00000000000E+00 -0.00000000000E+00 -0.56945713017E+02  0.56945713074E+02  0.25500000000E-02 0. -1.
    5000001    1    1    2    0    0 -0.13643415590E+03  0.47916919903E+01  0.29521860128E+03  0.34917082030E+03  0.12700000000E+03 0.  0.
   -5000001    1    1    2    0    0  0.13643415590E+03 -0.47916919903E+01  0.26004290167E+03  0.31998210875E+03  0.12700000000E+03 0.  0.
<mgrwt>
<rscale>  0 0.37343046E+03</rscale>
<asrwt>0</asrwt>
<pdfrwt beam="1">  1        2 0.87458177E-01 0.37343046E+03</pdfrwt>
<pdfrwt beam="2">  1       -2 0.81351015E-02 0.37343046E+03</pdfrwt>
<totfact> 0.49786909E+03</totfact>
</mgrwt>
</event>
<event>
 4    1  0.2581031E-004  0.3098135E+03  0.7818608E-02  0.1080435E+00
          2   -1    0    0  501    0  0.00000000000E+00  0.00000000000E+00  0.88638009839E+03  0.88638009840E+03  0.25500000000E-02 0.  1.
         -2   -1    0    0    0  501 -0.00000000000E+00 -0.00000000000E+00 -0.27072018479E+02  0.27072018599E+02  0.25500000000E-02 0. -1.
    5000001    1    1    2    0    0  0.44593357917E+02 -0.47164695819E+02  0.60788004544E+03  0.62438788085E+03  0.12700000000E+03 0.  0.
   -5000001    1    1    2    0    0 -0.44593357917E+02  0.47164695819E+02  0.25142803447E+03  0.28906423615E+03  0.12700000000E+03 0.  0.
<mgrwt>
<rscale>  0 0.30981348E+03</rscale>
<asrwt>0</asrwt>
<pdfrwt beam="1">  1        2 0.12662574E+00 0.30981348E+03</pdfrwt>
<pdfrwt beam="2">  1       -2 0.38674309E-02 0.30981348E+03</pdfrwt>
<totfact> 0.99082223E+03</totfact>
</mgrwt>
</event>
<event>
 4    1  0.2581031E-004  0.3444964E+03  0.7818608E-02  0.1064897E+00
         -2   -1    0    0    0  501 -0.00000000000E+00  0.00000000000E+00  0.20576961004E+02  0.20576961162E+02  0.25500000000E-02 0. -1.
          2   -1    0    0  501    0  0.00000000000E+00 -0.00000000000E+00 -0.14418767429E+04  0.14418767429E+04  0.25500000000E-02 0.  1.
    5000001    1    1    2    0    0 -0.62392404710E+02  0.95788742798E+02 -0.61840640628E+03  0.64157912898E+03  0.12700000000E+03 0.  0.
   -5000001    1    1    2    0    0  0.62392404710E+02 -0.95788742798E+02 -0.80289337557E+03  0.82087457504E+03  0.12700000000E+03 0.  0.
<mgrwt>
<rscale>  0 0.34449640E+03</rscale>
<asrwt>0</asrwt>
<pdfrwt beam="1">  1        2 0.20598233E+00 0.34449640E+03</pdfrwt>
<pdfrwt beam="2">  1       -2 0.29395668E-02 0.34449640E+03</pdfrwt>
<totfact> 0.73220473E+03</totfact>
</mgrwt>
</event>
<event>
 4    1  0.2581031E-004  0.3428746E+03  0.7818608E-02  0.1065578E+00
         -2   -1    0    0    0  501 -0.00000000000E+00  0.00000000000E+00  0.22745500920E+03  0.22745500921E+03  0.25500000000E-02 0. -1.
          2   -1    0    0  501    0  0.00000000000E+00 -0.00000000000E+00 -0.12921567737E+03  0.12921567739E+03  0.25500000000E-02 0.  1.
    5000001    1    1    2    0    0 -0.11470490580E+03 -0.63564456802E+01  0.40789113978E+02  0.17604082377E+03  0.12700000000E+03 0.  0.
   -5000001    1    1    2    0    0  0.11470490580E+03  0.63564456802E+01  0.57450217853E+02  0.18062986283E+03  0.12700000000E+03 0.  0.
<mgrwt>
<rscale>  0 0.34287463E+03</rscale>
<asrwt>0</asrwt>
<pdfrwt beam="1">  1        2 0.18459383E-01 0.34287463E+03</pdfrwt>
<pdfrwt beam="2">  1       -2 0.32493572E-01 0.34287463E+03</pdfrwt>
<totfact> 0.27015417E+03</totfact>
</mgrwt>
</event>
<event>
 4    1  0.2581031E-004  0.3409489E+03  0.7818608E-02  0.1066393E+00
         -2   -1    0    0    0  501 -0.00000000000E+00  0.00000000000E+00  0.13954463219E+02  0.13954463452E+02  0.25500000000E-02 0. -1.
          2   -1    0    0  501    0  0.00000000000E+00 -0.00000000000E+00 -0.20825976589E+04  0.20825976589E+04  0.25500000000E-02 0.  1.
    5000001    1    1    2    0    0 -0.33812994338E+02  0.10834978641E+03 -0.10776013835E+04  0.10909797141E+04  0.12700000000E+03 0.  0.
   -5000001    1    1    2    0    0  0.33812994338E+02 -0.10834978641E+03 -0.99104181218E+03  0.10055724083E+04  0.12700000000E+03 0.  0.
<mgrwt>
<rscale>  0 0.34094887E+03</rscale>
<asrwt>0</asrwt>
<pdfrwt beam="1">  1        2 0.29751375E+00 0.34094887E+03</pdfrwt>
<pdfrwt beam="2">  1       -2 0.19934961E-02 0.34094887E+03</pdfrwt>
<totfact> 0.62597236E+03</totfact>
</mgrwt>
</event>
<event>
 4    1  0.2581031E-004  0.2991986E+03  0.7818608E-02  0.1085642E+00
         -2   -1    0    0    0  501 -0.00000000000E+00  0.00000000000E+00  0.25291455872E+02  0.25291456001E+02  0.25500000000E-02 0. -1.
          2   -1    0    0  501    0  0.00000000000E+00 -0.00000000000E+00 -0.88488184110E+03  0.88488184110E+03  0.25500000000E-02 0.  1.
    5000001    1    1    2    0    0  0.11568675752E+02  0.69117053554E+02 -0.31844047252E+03  0.34992047080E+03  0.12700000000E+03 0.  0.
   -5000001    1    1    2    0    0 -0.11568675752E+02 -0.69117053554E+02 -0.54114991271E+03  0.56025282630E+03  0.12700000000E+03 0.  0.
<mgrwt>
<rscale>  0 0.29919860E+03</rscale>
<asrwt>0</asrwt>
<pdfrwt beam="1">  1        2 0.12641167E+00 0.29919860E+03</pdfrwt>
<pdfrwt beam="2">  1       -2 0.36130657E-02 0.29919860E+03</pdfrwt>
<totfact> 0.10987873E+04</totfact>
</mgrwt>
</event>
<event>
 4    1  0.2581031E-004  0.2807010E+03  0.7818608E-02  0.1095307E+00
          2   -1    0    0  501    0  0.00000000000E+00  0.00000000000E+00  0.60971015106E+02  0.60971015159E+02  0.25500000000E-02 0.  1.
         -2   -1    0    0    0  501 -0.00000000000E+00 -0.00000000000E+00 -0.32307577494E+03  0.32307577495E+03  0.25500000000E-02 0. -1.
    5000001    1    1    2    0    0  0.21400953037E+02  0.33788421886E+02 -0.19177202449E+03  0.23346341817E+03  0.12700000000E+03 0.  0.
   -5000001    1    1    2    0    0 -0.21400953037E+02 -0.33788421886E+02 -0.70332735339E+02  0.15058337194E+03  0.12700000000E+03 0.  0.
<mgrwt>
<rscale>  0 0.28070097E+03</rscale>
<asrwt>0</asrwt>
<pdfrwt beam="1">  1        2 0.87101452E-02 0.28070097E+03</pdfrwt>
<pdfrwt beam="2">  1       -2 0.46153681E-01 0.28070097E+03</pdfrwt>
<totfact> 0.34263794E+03</totfact>
</mgrwt>
</event>
<event>
 4    1  0.2581031E-004  0.6101158E+03  0.7818608E-02  0.9884639E-01
         -2   -1    0    0    0  501 -0.00000000000E+00  0.00000000000E+00  0.12650370060E+03  0.12650370062E+03  0.25500000000E-02 0. -1.
          2   -1    0    0  501    0  0.00000000000E+00 -0.00000000000E+00 -0.73563309493E+03  0.73563309494E+03  0.25500000000E-02 0.  1.
    5000001    1    1    2    0    0  0.11494170973E+03 -0.24314303019E+03 -0.40041610738E+03  0.49879072648E+03  0.12700000000E+03 0.  0.
   -5000001    1    1    2    0    0 -0.11494170973E+03  0.24314303019E+03 -0.20871328695E+03  0.36334606908E+03  0.12700000000E+03 0.  0.
<mgrwt>
<rscale>  0 0.61011576E+03</rscale>
<asrwt>0</asrwt>
<pdfrwt beam="1">  1        2 0.10509044E+00 0.61011576E+03</pdfrwt>
<pdfrwt beam="2">  1       -2 0.18071958E-01 0.61011576E+03</pdfrwt>
<totfact> 0.10796828E+03</totfact>
</mgrwt>
</event>
<event>
 4    1  0.2581031E-004  0.4773069E+03  0.7818608E-02  0.1019878E+00
         -2   -1    0    0    0  501 -0.00000000000E+00  0.00000000000E+00  0.13847470828E+04  0.13847470828E+04  0.25500000000E-02 0. -1.
          2   -1    0    0  501    0  0.00000000000E+00 -0.00000000000E+00 -0.41130590474E+02  0.41130590553E+02  0.25500000000E-02 0.  1.
    5000001    1    1    2    0    0  0.10882573587E+03  0.96589722490E+02  0.10906099013E+04  0.11075791493E+04  0.12700000000E+03 0.  0.
   -5000001    1    1    2    0    0 -0.10882573587E+03 -0.96589722490E+02  0.25300659104E+03  0.31829852401E+03  0.12700000000E+03 0.  0.
<mgrwt>
<rscale>  0 0.47730688E+03</rscale>
<asrwt>0</asrwt>
<pdfrwt beam="1">  1        2 0.58757996E-02 0.47730688E+03</pdfrwt>
<pdfrwt beam="2">  1       -2 0.19782098E+00 0.47730688E+03</pdfrwt>
<totfact> 0.18814287E+02</totfact>
</mgrwt>
</event>
<event>
 4    1  0.2581031E-004  0.3312563E+03  0.7818608E-02  0.1070582E+00
         -2   -1    0    0    0  501 -0.00000000000E+00  0.00000000000E+00  0.80897328346E+01  0.80897332365E+01  0.25500000000E-02 0. -1.
          2   -1    0    0  501    0  0.00000000000E+00 -0.00000000000E+00 -0.33910488151E+04  0.33910488151E+04  0.25500000000E-02 0.  1.
    5000001    1    1    2    0    0  0.77225891468E+02  0.73042122790E+02 -0.17137010366E+04  0.17216849981E+04  0.12700000000E+03 0.  0.
   -5000001    1    1    2    0    0 -0.77225891468E+02 -0.73042122790E+02 -0.16692580457E+04  0.16774535502E+04  0.12700000000E+03 0.  0.
<mgrwt>
<rscale>  0 0.33125627E+03</rscale>
<asrwt>0</asrwt>
<pdfrwt beam="1">  1        2 0.48443463E+00 0.33125627E+03</pdfrwt>
<pdfrwt beam="2">  1       -2 0.11556783E-02 0.33125627E+03</pdfrwt>
<totfact> 0.29115366E+03</totfact>
</mgrwt>
</event>
<event>
 4    1  0.2581031E-004  0.3153673E+03  0.7818608E-02  0.1077801E+00
         -2   -1    0    0    0  501 -0.00000000000E+00  0.00000000000E+00  0.52919707242E+02  0.52919707304E+02  0.25500000000E-02 0. -1.
          2   -1    0    0  501    0  0.00000000000E+00 -0.00000000000E+00 -0.46984637965E+03  0.46984637966E+03  0.25500000000E-02 0.  1.
    5000001    1    1    2    0    0 -0.75859253719E+02 -0.46573564289E+02 -0.16124498418E+03  0.22372453640E+03  0.12700000000E+03 0.  0.
   -5000001    1    1    2    0    0  0.75859253719E+02  0.46573564289E+02 -0.25568168823E+03  0.29904155056E+03  0.12700000000E+03 0.  0.
<mgrwt>
<rscale>  0 0.31536730E+03</rscale>
<asrwt>0</asrwt>
<pdfrwt beam="1">  1        2 0.67120909E-01 0.31536730E+03</pdfrwt>
<pdfrwt beam="2">  1       -2 0.75599584E-02 0.31536730E+03</pdfrwt>
<totfact> 0.74969056E+03</totfact>
</mgrwt>
</event>
<event>
 4    1  0.2581031E-004  0.4545618E+03  0.7818608E-02  0.1026370E+00
          2   -1    0    0  501    0  0.00000000000E+00  0.00000000000E+00  0.21318366036E+04  0.21318366036E+04  0.25500000000E-02 0.  1.
         -2   -1    0    0    0  501 -0.00000000000E+00 -0.00000000000E+00 -0.24231033182E+02  0.24231033316E+02  0.25500000000E-02 0. -1.
    5000001    1    1    2    0    0  0.40958673703E+02 -0.15660262372E+03  0.59575787632E+03  0.63028441350E+03  0.12700000000E+03 0.  0.
   -5000001    1    1    2    0    0 -0.40958673703E+02  0.15660262372E+03  0.15118476941E+04  0.15257832234E+04  0.12700000000E+03 0.  0.
<mgrwt>
<rscale>  0 0.45456178E+03</rscale>
<asrwt>0</asrwt>
<pdfrwt beam="1">  1        2 0.30454793E+00 0.45456178E+03</pdfrwt>
<pdfrwt beam="2">  1       -2 0.34615779E-02 0.45456178E+03</pdfrwt>
<totfact> 0.25825608E+03</totfact>
</mgrwt>
</event>
<event>
 4    1  0.2581031E-004  0.4022943E+03  0.7818608E-02  0.1042988E+00
          2   -1    0    0  501    0  0.00000000000E+00  0.00000000000E+00  0.80608303488E+02  0.80608303528E+02  0.25500000000E-02 0.  1.
         -2   -1    0    0    0  501 -0.00000000000E+00 -0.00000000000E+00 -0.50193557752E+03  0.50193557753E+03  0.25500000000E-02 0. -1.
    5000001    1    1    2    0    0 -0.15393763096E+03  0.34732875427E+01 -0.24678721416E+03  0.31739846727E+03  0.12700000000E+03 0.  0.
   -5000001    1    1    2    0    0  0.15393763096E+03 -0.34732875427E+01 -0.17454005987E+03  0.26514541379E+03  0.12700000000E+03 0.  0.
<mgrwt>
<rscale>  0 0.40229430E+03</rscale>
<asrwt>0</asrwt>
<pdfrwt beam="1">  1        2 0.11515472E-01 0.40229430E+03</pdfrwt>
<pdfrwt beam="2">  1       -2 0.71705081E-01 0.40229430E+03</pdfrwt>
<totfact> 0.98097896E+02</totfact>
</mgrwt>
</event>
<event>
 4    1  0.2581031E-004  0.3776814E+03  0.7818608E-02  0.1051794E+00
         -2   -1    0    0    0  501 -0.00000000000E+00  0.00000000000E+00  0.34055310879E+02  0.34055310974E+02  0.25500000000E-02 0. -1.
          2   -1    0    0  501    0  0.00000000000E+00 -0.00000000000E+00 -0.10471440560E+04  0.10471440560E+04  0.25500000000E-02 0.  1.
    5000001    1    1    2    0    0 -0.39468183792E+02  0.13405646496E+03 -0.50163324160E+03  0.53599793134E+03  0.12700000000E+03 0.  0.
   -5000001    1    1    2    0    0  0.39468183792E+02 -0.13405646496E+03 -0.51145550348E+03  0.54520143559E+03  0.12700000000E+03 0.  0.
<mgrwt>
<rscale>  0 0.37768143E+03</rscale>
<asrwt>0</asrwt>
<pdfrwt beam="1">  1        2 0.14959199E+00 0.37768143E+03</pdfrwt>
<pdfrwt beam="2">  1       -2 0.48650451E-02 0.37768143E+03</pdfrwt>
<totfact> 0.56095672E+03</totfact>
</mgrwt>
</event>
<event>
 4    1  0.2581031E-004  0.4970771E+03  0.7818608E-02  0.1014545E+00
          2   -1    0    0  501    0  0.00000000000E+00  0.00000000000E+00  0.15698068740E+03  0.15698068742E+03  0.25500000000E-02 0.  1.
         -2   -1    0    0    0  501 -0.00000000000E+00 -0.00000000000E+00 -0.39349683256E+03  0.39349683257E+03  0.25500000000E-02 0. -1.
    5000001    1    1    2    0    0  0.10697720282E+03  0.12968311124E+03 -0.26425640373E+03  0.33796786560E+03  0.12700000000E+03 0.  0.
   -5000001    1    1    2    0    0 -0.10697720282E+03 -0.12968311124E+03  0.27740258566E+02  0.21250965439E+03  0.12700000000E+03 0.  0.
<mgrwt>
<rscale>  0 0.49707707E+03</rscale>
<asrwt>0</asrwt>
<pdfrwt beam="1">  1        2 0.22425813E-01 0.49707707E+03</pdfrwt>
<pdfrwt beam="2">  1       -2 0.56213833E-01 0.49707707E+03</pdfrwt>
<totfact> 0.74204572E+02</totfact>
</mgrwt>
</event>
<event>
 4    1  0.2581031E-004  0.3105650E+03  0.7818608E-02  0.1080075E+00
          2   -1    0    0  501    0  0.00000000000E+00  0.00000000000E+00  0.80974623231E+03  0.80974623231E+03  0.25500000000E-02 0.  1.
         -2   -1    0    0    0  501 -0.00000000000E+00 -0.00000000000E+00 -0.29778040477E+02  0.29778040586E+02  0.25500000000E-02 0. -1.
    5000001    1    1    2    0    0 -0.42333285313E+02 -0.77128211328E+02  0.34786350700E+03  0.38062959361E+03  0.12700000000E+03 0.  0.
   -5000001    1    1    2    0    0  0.42333285313E+02  0.77128211328E+02  0.43210468483E+03  0.45889467929E+03  0.12700000000E+03 0.  0.
<mgrwt>
<rscale>  0 0.31056501E+03</rscale>
<asrwt>0</asrwt>
<pdfrwt beam="1">  1        2 0.11567803E+00 0.31056501E+03</pdfrwt>
<pdfrwt beam="2">  1       -2 0.42540060E-02 0.31056501E+03</pdfrwt>
<totfact> 0.96267967E+03</totfact>
</mgrwt>
</event>
<event>
 4    1  0.2581031E-004  0.4683715E+03  0.7818608E-02  0.1022381E+00
         -2   -1    0    0    0  501 -0.00000000000E+00  0.00000000000E+00  0.14678638436E+03  0.14678638438E+03  0.25500000000E-02 0. -1.
          2   -1    0    0  501    0  0.00000000000E+00 -0.00000000000E+00 -0.37362430568E+03  0.37362430569E+03  0.25500000000E-02 0.  1.
    5000001    1    1    2    0    0 -0.15016624450E+03  0.10410406619E+03 -0.19450998613E+03  0.29555150530E+03  0.12700000000E+03 0.  0.
   -5000001    1    1    2    0    0  0.15016624450E+03 -0.10410406619E+03 -0.32327935196E+02  0.22485918477E+03  0.12700000000E+03 0.  0.
<mgrwt>
<rscale>  0 0.46837148E+03</rscale>
<asrwt>0</asrwt>
<pdfrwt beam="1">  1        2 0.53374901E-01 0.46837148E+03</pdfrwt>
<pdfrwt beam="2">  1       -2 0.20969484E-01 0.46837148E+03</pdfrwt>
<totfact> 0.18213619E+03</totfact>
</mgrwt>
</event>
<event>
 4    1  0.2581031E-004  0.4172288E+03  0.7818608E-02  0.1037972E+00
          2   -1    0    0  501    0  0.00000000000E+00  0.00000000000E+00  0.35785624385E+04  0.35785624385E+04  0.25500000000E-02 0.  1.
         -2   -1    0    0    0  501 -0.00000000000E+00 -0.00000000000E+00 -0.12161296782E+02  0.12161297049E+02  0.25500000000E-02 0. -1.
    5000001    1    1    2    0    0  0.13754795847E+03 -0.87202352065E+02  0.20366461550E+04  0.20470906799E+04  0.12700000000E+03 0.  0.
   -5000001    1    1    2    0    0 -0.13754795847E+03  0.87202352065E+02  0.15297549868E+04  0.15436330557E+04  0.12700000000E+03 0.  0.
<mgrwt>
<rscale>  0 0.41722876E+03</rscale>
<asrwt>0</asrwt>
<pdfrwt beam="1">  1        2 0.51122291E+00 0.41722876E+03</pdfrwt>
<pdfrwt beam="2">  1       -2 0.17373291E-02 0.41722876E+03</pdfrwt>
<totfact> 0.12289855E+03</totfact>
</mgrwt>
</event>
<event>
 4    1  0.2581031E-004  0.2757536E+03  0.7818608E-02  0.1098031E+00
          2   -1    0    0  501    0  0.00000000000E+00  0.00000000000E+00  0.29121594594E+03  0.29121594596E+03  0.25500000000E-02 0.  1.
         -2   -1    0    0    0  501 -0.00000000000E+00 -0.00000000000E+00 -0.65278075062E+02  0.65278075112E+02  0.25500000000E-02 0. -1.
    5000001    1    1    2    0    0  0.34331229648E+02  0.47111790110E+01  0.59976981968E+02  0.14466190550E+03  0.12700000000E+03 0.  0.
   -5000001    1    1    2    0    0 -0.34331229648E+02 -0.47111790110E+01  0.16596088891E+03  0.21183211557E+03  0.12700000000E+03 0.  0.
<mgrwt>
<rscale>  0 0.27575363E+03</rscale>
<asrwt>0</asrwt>
<pdfrwt beam="1">  1        2 0.41602279E-01 0.27575363E+03</pdfrwt>
<pdfrwt beam="2">  1       -2 0.93254391E-02 0.27575363E+03</pdfrwt>
<totfact> 0.90087918E+03</totfact>
</mgrwt>
</event>
<event>
 4    1  0.2581031E-004  0.3083195E+03  0.7818608E-02  0.1081154E+00
         -2   -1    0    0    0  501 -0.00000000000E+00  0.00000000000E+00  0.28068923093E+03  0.28068923094E+03  0.25500000000E-02 0. -1.
          2   -1    0    0  501    0  0.00000000000E+00 -0.00000000000E+00 -0.84667395821E+02  0.84667395860E+02  0.25500000000E-02 0.  1.
    5000001    1    1    2    0    0  0.21332077572E+02  0.60019699746E+02  0.16890092048E+03  0.22071235314E+03  0.12700000000E+03 0.  0.
   -5000001    1    1    2    0    0 -0.21332077572E+02 -0.60019699746E+02  0.27120914626E+02  0.14464427366E+03  0.12700000000E+03 0.  0.
<mgrwt>
<rscale>  0 0.30831949E+03</rscale>
<asrwt>0</asrwt>
<pdfrwt beam="1">  1        2 0.12095342E-01 0.30831949E+03</pdfrwt>
<pdfrwt beam="2">  1       -2 0.40098463E-01 0.30831949E+03</pdfrwt>
<totfact> 0.30025013E+03</totfact>
</mgrwt>
</event>
<event>
 4    1  0.2581031E-004  0.5770991E+03  0.7818608E-02  0.9954091E-01
          2   -1    0    0  501    0  0.00000000000E+00  0.00000000000E+00  0.74254041267E+03  0.74254041268E+03  0.25500000000E-02 0.  1.
         -2   -1    0    0    0  501 -0.00000000000E+00 -0.00000000000E+00 -0.11212972544E+03  0.11212972547E+03  0.25500000000E-02 0. -1.
    5000001    1    1    2    0    0  0.20809569452E+02 -0.10768387458E+03 -0.32439442271E+02  0.17090983716E+03  0.12700000000E+03 0.  0.
   -5000001    1    1    2    0    0 -0.20809569452E+02  0.10768387458E+03  0.66285012950E+03  0.68376030098E+03  0.12700000000E+03 0.  0.
<mgrwt>
<rscale>  0 0.57709913E+03</rscale>
<asrwt>0</asrwt>
<pdfrwt beam="1">  1        2 0.10607720E+00 0.57709913E+03</pdfrwt>
<pdfrwt beam="2">  1       -2 0.16018533E-01 0.57709913E+03</pdfrwt>
<totfact> 0.13117298E+03</totfact>
</mgrwt>
</event>
<event>
 4    1  0.2581031E-004  0.5741414E+03  0.7818608E-02  0.9960556E-01
         -2   -1    0    0    0  501 -0.00000000000E+00  0.00000000000E+00  0.35672502659E+02  0.35672502750E+02  0.25500000000E-02 0. -1.
          2   -1    0    0  501    0  0.00000000000E+00 -0.00000000000E+00 -0.23101712472E+04  0.23101712472E+04  0.25500000000E-02 0.  1.
    5000001    1    1    2    0    0 -0.13728352383E+03 -0.16319390053E+03 -0.54796039406E+03  0.60155515836E+03  0.12700000000E+03 0.  0.
   -5000001    1    1    2    0    0  0.13728352383E+03  0.16319390053E+03 -0.17265383505E+04  0.17442885916E+04  0.12700000000E+03 0.  0.
<mgrwt>
<rscale>  0 0.57414141E+03</rscale>
<asrwt>0</asrwt>
<pdfrwt beam="1">  1        2 0.33002437E+00 0.57414141E+03</pdfrwt>
<pdfrwt beam="2">  1       -2 0.50960733E-02 0.57414141E+03</pdfrwt>
<totfact> 0.11539667E+03</totfact>
</mgrwt>
</event>
<event>
 4    1  0.2581031E-004  0.4328996E+03  0.7818608E-02  0.1032948E+00
          2   -1    0    0  501    0  0.00000000000E+00  0.00000000000E+00  0.34983373087E+04  0.34983373087E+04  0.25500000000E-02 0.  1.
         -2   -1    0    0    0  501 -0.00000000000E+00 -0.00000000000E+00 -0.13392223617E+02  0.13392223860E+02  0.25500000000E-02 0. -1.
    5000001    1    1    2    0    0 -0.12973759978E+03 -0.70142119736E+02  0.97418437216E+03  0.99343643617E+03  0.12700000000E+03 0.  0.
   -5000001    1    1    2    0    0  0.12973759978E+03  0.70142119736E+02  0.25107607129E+04  0.25182930964E+04  0.12700000000E+03 0.  0.
<mgrwt>
<rscale>  0 0.43289960E+03</rscale>
<asrwt>0</asrwt>
<pdfrwt beam="1">  1        2 0.49976246E+00 0.43289960E+03</pdfrwt>
<pdfrwt beam="2">  1       -2 0.19131749E-02 0.43289960E+03</pdfrwt>
<totfact> 0.11857998E+03</totfact>
</mgrwt>
</event>
<event>
 4    1  0.2581031E-004  0.4584312E+03  0.7818608E-02  0.1025237E+00
         -2   -1    0    0    0  501 -0.00000000000E+00  0.00000000000E+00  0.38931049888E+03  0.38931049889E+03  0.25500000000E-02 0. -1.
          2   -1    0    0  501    0  0.00000000000E+00 -0.00000000000E+00 -0.13495603531E+03  0.13495603533E+03  0.25500000000E-02 0.  1.
    5000001    1    1    2    0    0 -0.16511139928E+03  0.73574139699E+02  0.19707671944E+03  0.29604587744E+03  0.12700000000E+03 0.  0.
   -5000001    1    1    2    0    0  0.16511139928E+03 -0.73574139699E+02  0.57277744133E+02  0.22822065677E+03  0.12700000000E+03 0.  0.
<mgrwt>
<rscale>  0 0.45843124E+03</rscale>
<asrwt>0</asrwt>
<pdfrwt beam="1">  1        2 0.19279434E-01 0.45843124E+03</pdfrwt>
<pdfrwt beam="2">  1       -2 0.55615786E-01 0.45843124E+03</pdfrwt>
<totfact> 0.90376640E+02</totfact>
</mgrwt>
</event>
<event>
 4    1  0.2581031E-004  0.4325158E+03  0.7818608E-02  0.1033068E+00
          2   -1    0    0  501    0  0.00000000000E+00  0.00000000000E+00  0.54777993623E+03  0.54777993624E+03  0.25500000000E-02 0.  1.
         -2   -1    0    0    0  501 -0.00000000000E+00 -0.00000000000E+00 -0.85376381465E+02  0.85376381503E+02  0.25500000000E-02 0. -1.
    5000001    1    1    2    0    0 -0.69028946630E+02  0.15416390751E+03  0.16400669873E+03  0.26750458515E+03  0.12700000000E+03 0.  0.
   -5000001    1    1    2    0    0  0.69028946630E+02 -0.15416390751E+03  0.29839685604E+03  0.36565173259E+03  0.12700000000E+03 0.  0.
<mgrwt>
<rscale>  0 0.43251575E+03</rscale>
<asrwt>0</asrwt>
<pdfrwt beam="1">  1        2 0.78254275E-01 0.43251575E+03</pdfrwt>
<pdfrwt beam="2">  1       -2 0.12196626E-01 0.43251575E+03</pdfrwt>
<totfact> 0.29612781E+03</totfact>
</mgrwt>
</event>
<event>
 4    1  0.2581031E-004  0.7192249E+03  0.7818608E-02  0.9684908E-01
         -2   -1    0    0    0  501 -0.00000000000E+00  0.00000000000E+00  0.11613117116E+03  0.11613117119E+03  0.25500000000E-02 0. -1.
          2   -1    0    0  501    0  0.00000000000E+00 -0.00000000000E+00 -0.11135778190E+04  0.11135778190E+04  0.25500000000E-02 0.  1.
    5000001    1    1    2    0    0  0.91185867623E+02  0.31310223676E+03 -0.35727436820E+03  0.50012183245E+03  0.12700000000E+03 0.  0.
   -5000001    1    1    2    0    0 -0.91185867623E+02 -0.31310223676E+03 -0.64017227962E+03  0.72958715772E+03  0.12700000000E+03 0.  0.
<mgrwt>
<rscale>  0 0.71922485E+03</rscale>
<asrwt>0</asrwt>
<pdfrwt beam="1">  1        2 0.15908254E+00 0.71922485E+03</pdfrwt>
<pdfrwt beam="2">  1       -2 0.16590168E-01 0.71922485E+03</pdfrwt>
<totfact> 0.71135617E+02</totfact>
</mgrwt>
</event>
<event>
 4    1  0.2581031E-004  0.3231025E+03  0.7818608E-02  0.1074230E+00
         -2   -1    0    0    0  501 -0.00000000000E+00  0.00000000000E+00  0.37036322505E+02  0.37036322593E+02  0.25500000000E-02 0. -1.
          2   -1    0    0  501    0  0.00000000000E+00 -0.00000000000E+00 -0.70468142020E+03  0.70468142021E+03  0.25500000000E-02 0.  1.
    5000001    1    1    2    0    0 -0.97309365260E+02  0.17201877720E+02 -0.30097114060E+03  0.34128821345E+03  0.12700000000E+03 0.  0.
   -5000001    1    1    2    0    0  0.97309365260E+02 -0.17201877720E+02 -0.36667395710E+03  0.40042952935E+03  0.12700000000E+03 0.  0.
<mgrwt>
<rscale>  0 0.32310251E+03</rscale>
<asrwt>0</asrwt>
<pdfrwt beam="1">  1        2 0.10066877E+00 0.32310251E+03</pdfrwt>
<pdfrwt beam="2">  1       -2 0.52909036E-02 0.32310251E+03</pdfrwt>
<totfact> 0.81963469E+03</totfact>
</mgrwt>
</event>
<event>
 4    1  0.2581031E-004  0.3523424E+03  0.7818608E-02  0.1061658E+00
         -2   -1    0    0    0  501 -0.00000000000E+00  0.00000000000E+00  0.16681149615E+02  0.16681149810E+02  0.25500000000E-02 0. -1.
          2   -1    0    0  501    0  0.00000000000E+00 -0.00000000000E+00 -0.18605602895E+04  0.18605602895E+04  0.25500000000E-02 0.  1.
    5000001    1    1    2    0    0 -0.67226440486E+02  0.77838281638E+02 -0.57138656167E+03  0.59429773282E+03  0.12700000000E+03 0.  0.
   -5000001    1    1    2    0    0  0.67226440486E+02 -0.77838281638E+02 -0.12724925782E+04  0.12829437065E+04  0.12700000000E+03 0.  0.
<mgrwt>
<rscale>  0 0.35234236E+03</rscale>
<asrwt>0</asrwt>
<pdfrwt beam="1">  1        2 0.26579420E+00 0.35234236E+03</pdfrwt>
<pdfrwt beam="2">  1       -2 0.23830226E-02 0.35234236E+03</pdfrwt>
<totfact> 0.61772723E+03</totfact>
</mgrwt>
</event>
<event>
 4    1  0.2581031E-004  0.3408377E+03  0.7818608E-02  0.1066440E+00
         -2   -1    0    0    0  501 -0.00000000000E+00  0.00000000000E+00  0.76555644816E+02  0.76555644858E+02  0.25500000000E-02 0. -1.
          2   -1    0    0  501    0  0.00000000000E+00 -0.00000000000E+00 -0.37936578903E+03  0.37936578904E+03  0.25500000000E-02 0.  1.
    5000001    1    1    2    0    0 -0.66948181286E+02  0.59133749698E+02 -0.57438331068E+02  0.16555066054E+03  0.12700000000E+03 0.  0.
   -5000001    1    1    2    0    0  0.66948181286E+02 -0.59133749698E+02 -0.24537181315E+03  0.29037077336E+03  0.12700000000E+03 0.  0.
<mgrwt>
<rscale>  0 0.34083775E+03</rscale>
<asrwt>0</asrwt>
<pdfrwt beam="1">  1        2 0.54195112E-01 0.34083775E+03</pdfrwt>
<pdfrwt beam="2">  1       -2 0.10936521E-01 0.34083775E+03</pdfrwt>
<totfact> 0.52886078E+03</totfact>
</mgrwt>
</event>
<event>
 4    1  0.2581031E-004  0.3415064E+03  0.7818608E-02  0.1066156E+00
         -2   -1    0    0    0  501 -0.00000000000E+00  0.00000000000E+00  0.46146096750E+02  0.46146096821E+02  0.25500000000E-02 0. -1.
          2   -1    0    0  501    0  0.00000000000E+00 -0.00000000000E+00 -0.63183352570E+03  0.63183352570E+03  0.25500000000E-02 0.  1.
    5000001    1    1    2    0    0  0.53057795763E+02  0.79156903398E+02 -0.41756345909E+03  0.44673167272E+03  0.12700000000E+03 0.  0.
   -5000001    1    1    2    0    0 -0.53057795763E+02 -0.79156903398E+02 -0.16812396986E+03  0.23124794980E+03  0.12700000000E+03 0.  0.
<mgrwt>
<rscale>  0 0.34150637E+03</rscale>
<asrwt>0</asrwt>
<pdfrwt beam="1">  1        2 0.90261927E-01 0.34150637E+03</pdfrwt>
<pdfrwt beam="2">  1       -2 0.65923000E-02 0.34150637E+03</pdfrwt>
<totfact> 0.66542961E+03</totfact>
</mgrwt>
</event>
<event>
 4    1  0.2581031E-004  0.4502925E+03  0.7818608E-02  0.1027635E+00
         -2   -1    0    0    0  501 -0.00000000000E+00  0.00000000000E+00  0.71523656036E+02  0.71523656082E+02  0.25500000000E-02 0. -1.
          2   -1    0    0  501    0  0.00000000000E+00 -0.00000000000E+00 -0.70872811884E+03  0.70872811885E+03  0.25500000000E-02 0.  1.
    5000001    1    1    2    0    0 -0.18566046108E+03 -0.95404910024E+01 -0.31687081942E+03  0.38871190357E+03  0.12700000000E+03 0.  0.
   -5000001    1    1    2    0    0  0.18566046108E+03  0.95404910024E+01 -0.32033364338E+03  0.39153987136E+03  0.12700000000E+03 0.  0.
<mgrwt>
<rscale>  0 0.45029247E+03</rscale>
<asrwt>0</asrwt>
<pdfrwt beam="1">  1        2 0.10124687E+00 0.45029247E+03</pdfrwt>
<pdfrwt beam="2">  1       -2 0.10217666E-01 0.45029247E+03</pdfrwt>
<totfact> 0.29177273E+03</totfact>
</mgrwt>
</event>
<event>
 4    1  0.2581031E-004  0.6574788E+03  0.7818608E-02  0.9792846E-01
         -2   -1    0    0    0  501 -0.00000000000E+00  0.00000000000E+00  0.15626832342E+03  0.15626832344E+03  0.25500000000E-02 0. -1.
          2   -1    0    0  501    0  0.00000000000E+00 -0.00000000000E+00 -0.69156420685E+03  0.69156420686E+03  0.25500000000E-02 0.  1.
    5000001    1    1    2    0    0  0.34137855561E+01  0.29434438606E+03 -0.17385529031E+03  0.36469841446E+03  0.12700000000E+03 0.  0.
   -5000001    1    1    2    0    0 -0.34137855561E+01 -0.29434438606E+03 -0.36144059312E+03  0.48313411584E+03  0.12700000000E+03 0.  0.
<mgrwt>
<rscale>  0 0.65747876E+03</rscale>
<asrwt>0</asrwt>
<pdfrwt beam="1">  1        2 0.98794886E-01 0.65747876E+03</pdfrwt>
<pdfrwt beam="2">  1       -2 0.22324046E-01 0.65747876E+03</pdfrwt>
<totfact> 0.80513162E+02</totfact>
</mgrwt>
</event>
<event>
 4    1  0.2581031E-004  0.3748365E+03  0.7818608E-02  0.1052859E+00
          2   -1    0    0  501    0  0.00000000000E+00  0.00000000000E+00  0.12324086321E+04  0.12324086321E+04  0.25500000000E-02 0.  1.
         -2   -1    0    0    0  501 -0.00000000000E+00 -0.00000000000E+00 -0.28501583138E+02  0.28501583252E+02  0.25500000000E-02 0. -1.
    5000001    1    1    2    0    0 -0.12345227341E+03  0.43934616711E+02  0.74569389455E+03  0.76769727024E+03  0.12700000000E+03 0.  0.
   -5000001    1    1    2    0    0  0.12345227341E+03 -0.43934616711E+02  0.45821315437E+03  0.49321294508E+03  0.12700000000E+03 0.  0.
<mgrwt>
<rscale>  0 0.37483648E+03</rscale>
<asrwt>0</asrwt>
<pdfrwt beam="1">  1        2 0.17605837E+00 0.37483648E+03</pdfrwt>
<pdfrwt beam="2">  1       -2 0.40716549E-02 0.37483648E+03</pdfrwt>
<totfact> 0.57876701E+03</totfact>
</mgrwt>
</event>
<event>
 4    1  0.2581031E-004  0.4093445E+03  0.7818608E-02  0.1040591E+00
         -2   -1    0    0    0  501 -0.00000000000E+00  0.00000000000E+00  0.14838123046E+03  0.14838123048E+03  0.25500000000E-02 0. -1.
          2   -1    0    0  501    0  0.00000000000E+00 -0.00000000000E+00 -0.28231818906E+03  0.28231818907E+03  0.25500000000E-02 0.  1.
    5000001    1    1    2    0    0  0.73590474394E+02  0.14183255789E+03 -0.82914576875E+02  0.22030855512E+03  0.12700000000E+03 0.  0.
   -5000001    1    1    2    0    0 -0.73590474394E+02 -0.14183255789E+03 -0.51022381729E+02  0.21039086443E+03  0.12700000000E+03 0.  0.
<mgrwt>
<rscale>  0 0.40934445E+03</rscale>
<asrwt>0</asrwt>
<pdfrwt beam="1">  1        2 0.40331170E-01 0.40934445E+03</pdfrwt>
<pdfrwt beam="2">  1       -2 0.21197319E-01 0.40934445E+03</pdfrwt>
<totfact> 0.24250200E+03</totfact>
</mgrwt>
</event>
<event>
 4    1  0.2581031E-004  0.5772108E+03  0.7818608E-02  0.9953848E-01
          2   -1    0    0  501    0  0.00000000000E+00  0.00000000000E+00  0.29899549360E+03  0.29899549361E+03  0.25500000000E-02 0.  1.
         -2   -1    0    0    0  501 -0.00000000000E+00 -0.00000000000E+00 -0.27857638794E+03  0.27857638796E+03  0.25500000000E-02 0. -1.
    5000001    1    1    2    0    0  0.37951827107E+02 -0.23654393535E+03 -0.88699179818E+02  0.28528918492E+03  0.12700000000E+03 0.  0.
   -5000001    1    1    2    0    0 -0.37951827107E+02  0.23654393535E+03  0.10911828548E+03  0.29228269665E+03  0.12700000000E+03 0.  0.
<mgrwt>
<rscale>  0 0.57721083E+03</rscale>
<asrwt>0</asrwt>
<pdfrwt beam="1">  1        2 0.42713642E-01 0.57721083E+03</pdfrwt>
<pdfrwt beam="2">  1       -2 0.39796627E-01 0.57721083E+03</pdfrwt>
<totfact> 0.71883080E+02</totfact>
</mgrwt>
</event>
<event>
 4    1  0.2581031E-004  0.2925347E+03  0.7818608E-02  0.1089033E+00
         -2   -1    0    0    0  501 -0.00000000000E+00  0.00000000000E+00  0.22728702192E+03  0.22728702193E+03  0.25500000000E-02 0. -1.
          2   -1    0    0  501    0  0.00000000000E+00 -0.00000000000E+00 -0.94128316477E+02  0.94128316512E+02  0.25500000000E-02 0.  1.
    5000001    1    1    2    0    0 -0.22123403951E+02 -0.53504347053E+02  0.18523656615E+02  0.14079874293E+03  0.12700000000E+03 0.  0.
   -5000001    1    1    2    0    0  0.22123403951E+02  0.53504347053E+02  0.11463504882E+03  0.18061659551E+03  0.12700000000E+03 0.  0.
<mgrwt>
<rscale>  0 0.29253475E+03</rscale>
<asrwt>0</asrwt>
<pdfrwt beam="1">  1        2 0.13446902E-01 0.29253475E+03</pdfrwt>
<pdfrwt beam="2">  1       -2 0.32469575E-01 0.29253475E+03</pdfrwt>
<totfact> 0.39195178E+03</totfact>
</mgrwt>
</event>
<event>
 4    1  0.2581031E-004  0.5162356E+03  0.7818608E-02  0.1009626E+00
          2   -1    0    0  501    0  0.00000000000E+00  0.00000000000E+00  0.17166285898E+04  0.17166285898E+04  0.25500000000E-02 0.  1.
         -2   -1    0    0    0  501 -0.00000000000E+00 -0.00000000000E+00 -0.38811423795E+02  0.38811423879E+02  0.25500000000E-02 0. -1.
    5000001    1    1    2    0    0 -0.21027472347E+03 -0.32034855250E+02  0.10853919158E+04  0.11133042271E+04  0.12700000000E+03 0.  0.
   -5000001    1    1    2    0    0  0.21027472347E+03  0.32034855250E+02  0.59242525027E+03  0.64213578660E+03  0.12700000000E+03 0.  0.
<mgrwt>
<rscale>  0 0.51623560E+03</rscale>
<asrwt>0</asrwt>
<pdfrwt beam="1">  1        2 0.24523271E+00 0.51623560E+03</pdfrwt>
<pdfrwt beam="2">  1       -2 0.55444879E-02 0.51623560E+03</pdfrwt>
<totfact> 0.20163197E+03</totfact>
</mgrwt>
</event>
<event>
 4    1  0.2581031E-004  0.3616673E+03  0.7818608E-02  0.1057926E+00
          2   -1    0    0  501    0  0.00000000000E+00  0.00000000000E+00  0.54358978226E+02  0.54358978286E+02  0.25500000000E-02 0.  1.
         -2   -1    0    0    0  501 -0.00000000000E+00 -0.00000000000E+00 -0.60157130867E+03  0.60157130868E+03  0.25500000000E-02 0. -1.
    5000001    1    1    2    0    0  0.89806705248E+02 -0.86119773474E+02 -0.21373052324E+03  0.27801366199E+03  0.12700000000E+03 0.  0.
   -5000001    1    1    2    0    0 -0.89806705248E+02  0.86119773474E+02 -0.33348180721E+03  0.37791662497E+03  0.12700000000E+03 0.  0.
<mgrwt>
<rscale>  0 0.36166726E+03</rscale>
<asrwt>0</asrwt>
<pdfrwt beam="1">  1        2 0.77655687E-02 0.36166726E+03</pdfrwt>
<pdfrwt beam="2">  1       -2 0.85938754E-01 0.36166726E+03</pdfrwt>
<totfact> 0.10794422E+03</totfact>
</mgrwt>
</event>
<event>
 4    1  0.2581031E-004  0.4700057E+03  0.7818608E-02  0.1021919E+00
         -2   -1    0    0    0  501 -0.00000000000E+00  0.00000000000E+00  0.21343396914E+03  0.21343396915E+03  0.25500000000E-02 0. -1.
          2   -1    0    0  501    0  0.00000000000E+00 -0.00000000000E+00 -0.25875144581E+03  0.25875144582E+03  0.25500000000E-02 0.  1.
    5000001    1    1    2    0    0  0.17505824884E+02  0.16935800365E+03 -0.12366734251E+03  0.24578689735E+03  0.12700000000E+03 0.  0.
   -5000001    1    1    2    0    0 -0.17505824884E+02 -0.16935800365E+03  0.78349865840E+02  0.22639851762E+03  0.12700000000E+03 0.  0.
<mgrwt>
<rscale>  0 0.47000574E+03</rscale>
<asrwt>0</asrwt>
<pdfrwt beam="1">  1        2 0.36964492E-01 0.47000574E+03</pdfrwt>
<pdfrwt beam="2">  1       -2 0.30490567E-01 0.47000574E+03</pdfrwt>
<totfact> 0.13943156E+03</totfact>
</mgrwt>
</event>
<event>
 4    1  0.2581031E-004  0.4245936E+03  0.7818608E-02  0.1035582E+00
         -2   -1    0    0    0  501 -0.00000000000E+00  0.00000000000E+00  0.87135491259E+02  0.87135491297E+02  0.25500000000E-02 0.  1.
          2   -1    0    0  501    0  0.00000000000E+00 -0.00000000000E+00 -0.51723962002E+03  0.51723962003E+03  0.25500000000E-02 0. -1.
    5000001    1    1    2    0    0 -0.14299410947E+02 -0.13761631748E+03 -0.35595057080E+03  0.40245811316E+03  0.12700000000E+03 0.  0.
   -5000001    1    1    2    0    0  0.14299410947E+02  0.13761631748E+03 -0.74153557958E+02  0.20191699817E+03  0.12700000000E+03 0.  0.
<mgrwt>
<rscale>  0 0.42459359E+03</rscale>
<asrwt>0</asrwt>
<pdfrwt beam="1">  1        2 0.73891373E-01 0.42459359E+03</pdfrwt>
<pdfrwt beam="2">  1       -2 0.12447928E-01 0.42459359E+03</pdfrwt>
<totfact> 0.30562111E+03</totfact>
</mgrwt>
</event>
<event>
 4    1  0.2581031E-004  0.5889599E+03  0.7818608E-02  0.9928579E-01
         -2   -1    0    0    0  501 -0.00000000000E+00  0.00000000000E+00  0.22116693403E+02  0.22116693550E+02  0.25500000000E-02 0. -1.
          2   -1    0    0  501    0  0.00000000000E+00 -0.00000000000E+00 -0.39209493282E+04  0.39209493282E+04  0.25500000000E-02 0.  1.
    5000001    1    1    2    0    0 -0.11017894501E+02  0.24085666514E+03 -0.12022117653E+04  0.12327106132E+04  0.12700000000E+03 0.  0.
   -5000001    1    1    2    0    0  0.11017894501E+02 -0.24085666514E+03 -0.26966208694E+04  0.27103554086E+04  0.12700000000E+03 0.  0.
<mgrwt>
<rscale>  0 0.58895988E+03</rscale>
<asrwt>0</asrwt>
<pdfrwt beam="1">  1        2 0.56013518E+00 0.58895988E+03</pdfrwt>
<pdfrwt beam="2">  1       -2 0.31595301E-02 0.58895988E+03</pdfrwt>
<totfact> 0.29886708E+02</totfact>
</mgrwt>
</event>
<event>
 4    1  0.2581031E-004  0.3486242E+03  0.7818608E-02  0.1063181E+00
         -2   -1    0    0    0  501 -0.00000000000E+00  0.00000000000E+00  0.29640504096E+02  0.29640504206E+02  0.25500000000E-02 0. -1.
          2   -1    0    0  501    0  0.00000000000E+00 -0.00000000000E+00 -0.10251075478E+04  0.10251075479E+04  0.25500000000E-02 0.  1.
    5000001    1    1    2    0    0  0.65251933680E+02  0.96294016206E+02 -0.57921627066E+03  0.60427712236E+03  0.12700000000E+03 0.  0.
   -5000001    1    1    2    0    0 -0.65251933680E+02 -0.96294016206E+02 -0.41625077309E+03  0.45047092970E+03  0.12700000000E+03 0.  0.
<mgrwt>
<rscale>  0 0.34862418E+03</rscale>
<asrwt>0</asrwt>
<pdfrwt beam="1">  1        2 0.14644391E+00 0.34862418E+03</pdfrwt>
<pdfrwt beam="2">  1       -2 0.42343584E-02 0.34862418E+03</pdfrwt>
<totfact> 0.71312706E+03</totfact>
</mgrwt>
</event>
<event>
 4    1  0.2581031E-004  0.3859417E+03  0.7818608E-02  0.1048759E+00
          2   -1    0    0  501    0  0.00000000000E+00  0.00000000000E+00  0.75809224898E+03  0.75809224899E+03  0.25500000000E-02 0.  1.
         -2   -1    0    0    0  501 -0.00000000000E+00 -0.00000000000E+00 -0.49120327531E+02  0.49120327597E+02  0.25500000000E-02 0. -1.
    5000001    1    1    2    0    0 -0.59513816372E+02 -0.97294363616E+02  0.16623974334E+03  0.23827030825E+03  0.12700000000E+03 0.  0.
   -5000001    1    1    2    0    0  0.59513816372E+02  0.97294363616E+02  0.54273217811E+03  0.56894226833E+03  0.12700000000E+03 0.  0.
<mgrwt>
<rscale>  0 0.38594165E+03</rscale>
<asrwt>0</asrwt>
<pdfrwt beam="1">  1        2 0.10829889E+00 0.38594165E+03</pdfrwt>
<pdfrwt beam="2">  1       -2 0.70171896E-02 0.38594165E+03</pdfrwt>
<totfact> 0.48672785E+03</totfact>
</mgrwt>
</event>
<event>
 4    1  0.2581031E-004  0.4184383E+03  0.7818608E-02  0.1037576E+00
          2   -1    0    0  501    0  0.00000000000E+00  0.00000000000E+00  0.80836800075E+03  0.80836800075E+03  0.25500000000E-02 0.  1.
         -2   -1    0    0    0  501 -0.00000000000E+00 -0.00000000000E+00 -0.54149418720E+02  0.54149418780E+02  0.25500000000E-02 0. -1.
    5000001    1    1    2    0    0 -0.48274232152E+02  0.15475425939E+03  0.30097096679E+03  0.36468041507E+03  0.12700000000E+03 0.  0.
   -5000001    1    1    2    0    0  0.48274232152E+02 -0.15475425939E+03  0.45324761524E+03  0.49783700446E+03  0.12700000000E+03 0.  0.
<mgrwt>
<rscale>  0 0.41843832E+03</rscale>
<asrwt>0</asrwt>
<pdfrwt beam="1">  1        2 0.11548115E+00 0.41843832E+03</pdfrwt>
<pdfrwt beam="2">  1       -2 0.77356311E-02 0.41843832E+03</pdfrwt>
<totfact> 0.38597432E+03</totfact>
</mgrwt>
</event>
<event>
 4    1  0.2581031E-004  0.3668991E+03  0.7818608E-02  0.1055885E+00
         -2   -1    0    0    0  501 -0.00000000000E+00  0.00000000000E+00  0.32132729815E+02  0.32132729916E+02  0.25500000000E-02 0. -1.
          2   -1    0    0  501    0  0.00000000000E+00 -0.00000000000E+00 -0.10473351991E+04  0.10473351991E+04  0.25500000000E-02 0.  1.
    5000001    1    1    2    0    0 -0.72291408485E+02  0.69432049714E+02 -0.25318056928E+03  0.30046007710E+03  0.12700000000E+03 0.  0.
   -5000001    1    1    2    0    0  0.72291408485E+02 -0.69432049714E+02 -0.76202190001E+03  0.77900785192E+03  0.12700000000E+03 0.  0.
<mgrwt>
<rscale>  0 0.36689911E+03</rscale>
<asrwt>0</asrwt>
<pdfrwt beam="1">  1        2 0.14961929E+00 0.36689911E+03</pdfrwt>
<pdfrwt beam="2">  1       -2 0.45903906E-02 0.36689911E+03</pdfrwt>
<totfact> 0.61261395E+03</totfact>
</mgrwt>
</event>
<event>
 4    1  0.2581031E-004  0.5459703E+03  0.7818608E-02  0.1002431E+00
         -2   -1    0    0    0  501 -0.00000000000E+00  0.00000000000E+00  0.95486135256E+02  0.95486135290E+02  0.25500000000E-02 0. -1.
          2   -1    0    0  501    0  0.00000000000E+00 -0.00000000000E+00 -0.78043666415E+03  0.78043666416E+03  0.25500000000E-02 0.  1.
    5000001    1    1    2    0    0 -0.24127152580E+03 -0.11930971320E+02 -0.35231076161E+03  0.44565252158E+03  0.12700000000E+03 0.  0.
   -5000001    1    1    2    0    0  0.24127152580E+03  0.11930971320E+02 -0.33263976728E+03  0.43027027787E+03  0.12700000000E+03 0.  0.
<mgrwt>
<rscale>  0 0.54597026E+03</rscale>
<asrwt>0</asrwt>
<pdfrwt beam="1">  1        2 0.11149095E+00 0.54597026E+03</pdfrwt>
<pdfrwt beam="2">  1       -2 0.13640877E-01 0.54597026E+03</pdfrwt>
<totfact> 0.16143664E+03</totfact>
</mgrwt>
</event>
<event>
 4    1  0.2581031E-004  0.3773487E+03  0.7818608E-02  0.1051918E+00
          2   -1    0    0  501    0  0.00000000000E+00  0.00000000000E+00  0.35976135286E+03  0.35976135286E+03  0.25500000000E-02 0.  1.
         -2   -1    0    0    0  501 -0.00000000000E+00 -0.00000000000E+00 -0.98948965722E+02  0.98948965754E+02  0.25500000000E-02 0. -1.
    5000001    1    1    2    0    0  0.12868713600E+03  0.49871445283E+02  0.10544985330E+03  0.21516554461E+03  0.12700000000E+03 0.  0.
   -5000001    1    1    2    0    0 -0.12868713600E+03 -0.49871445283E+02  0.15536253383E+03  0.24354477401E+03  0.12700000000E+03 0.  0.
<mgrwt>
<rscale>  0 0.37734872E+03</rscale>
<asrwt>0</asrwt>
<pdfrwt beam="1">  1        2 0.51394480E-01 0.37734872E+03</pdfrwt>
<pdfrwt beam="2">  1       -2 0.14135566E-01 0.37734872E+03</pdfrwt>
<totfact> 0.36953199E+03</totfact>
</mgrwt>
</event>
<event>
 4    1  0.2581031E-004  0.3604472E+03  0.7818608E-02  0.1058407E+00
         -2   -1    0    0    0  501 -0.00000000000E+00  0.00000000000E+00  0.45171336885E+02  0.45171336957E+02  0.25500000000E-02 0. -1.
          2   -1    0    0  501    0  0.00000000000E+00 -0.00000000000E+00 -0.71905200506E+03  0.71905200506E+03  0.25500000000E-02 0.  1.
    5000001    1    1    2    0    0  0.12043144455E+03 -0.32192055933E+02 -0.39733760919E+03  0.43536908133E+03  0.12700000000E+03 0.  0.
   -5000001    1    1    2    0    0 -0.12043144455E+03  0.32192055933E+02 -0.27654305898E+03  0.32885426069E+03  0.12700000000E+03 0.  0.
<mgrwt>
<rscale>  0 0.36044717E+03</rscale>
<asrwt>0</asrwt>
<pdfrwt beam="1">  1        2 0.10272171E+00 0.36044717E+03</pdfrwt>
<pdfrwt beam="2">  1       -2 0.64530486E-02 0.36044717E+03</pdfrwt>
<totfact> 0.59077308E+03</totfact>
</mgrwt>
</event>
<event>
 4    1  0.2581031E-004  0.2621580E+03  0.7818608E-02  0.1105854E+00
          2   -1    0    0  501    0  0.00000000000E+00  0.00000000000E+00  0.67316533710E+03  0.67316533710E+03  0.25500000000E-02 0.  1.
         -2   -1    0    0    0  501 -0.00000000000E+00 -0.00000000000E+00 -0.25523757439E+02  0.25523757566E+02  0.25500000000E-02 0. -1.
    5000001    1    1    2    0    0 -0.21664190513E+02 -0.19735985104E+02  0.36092880899E+03  0.38374138611E+03  0.12700000000E+03 0.  0.
   -5000001    1    1    2    0    0  0.21664190513E+02  0.19735985104E+02  0.28671277067E+03  0.31494770855E+03  0.12700000000E+03 0.  0.
<mgrwt>
<rscale>  0 0.26215803E+03</rscale>
<asrwt>0</asrwt>
<pdfrwt beam="1">  1        2 0.96166459E-01 0.26215803E+03</pdfrwt>
<pdfrwt beam="2">  1       -2 0.36462517E-02 0.26215803E+03</pdfrwt>
<totfact> 0.15078807E+04</totfact>
</mgrwt>
</event>
<event>
 4    1  0.2581031E-004  0.3525614E+03  0.7818608E-02  0.1061569E+00
          2   -1    0    0  501    0  0.00000000000E+00  0.00000000000E+00  0.13915761294E+04  0.13915761294E+04  0.25500000000E-02 0.  1.
         -2   -1    0    0    0  501 -0.00000000000E+00 -0.00000000000E+00 -0.22330707008E+02  0.22330707153E+02  0.25500000000E-02 0. -1.
    5000001    1    1    2    0    0 -0.57786105523E+02  0.89823623224E+02  0.92317697626E+03  0.93797241259E+03  0.12700000000E+03 0.  0.
   -5000001    1    1    2    0    0  0.57786105523E+02 -0.89823623224E+02  0.44606844612E+03  0.47593442395E+03  0.12700000000E+03 0.  0.
<mgrwt>
<rscale>  0 0.35256136E+03</rscale>
<asrwt>0</asrwt>
<pdfrwt beam="1">  1        2 0.19879656E+00 0.35256136E+03</pdfrwt>
<pdfrwt beam="2">  1       -2 0.31901015E-02 0.35256136E+03</pdfrwt>
<totfact> 0.68793615E+03</totfact>
</mgrwt>
</event>
<event>
 4    1  0.2581031E-004  0.3128080E+03  0.7818608E-02  0.1079008E+00
         -2   -1    0    0    0  501 -0.00000000000E+00  0.00000000000E+00  0.62189347787E+02  0.62189347839E+02  0.25500000000E-02 0. -1.
          2   -1    0    0  501    0  0.00000000000E+00 -0.00000000000E+00 -0.39335058191E+03  0.39335058191E+03  0.25500000000E-02 0.  1.
    5000001    1    1    2    0    0  0.36324986070E+02 -0.54409606715E+02 -0.25829631324E+03  0.29517095953E+03  0.12700000000E+03 0.  0.
   -5000001    1    1    2    0    0 -0.36324986070E+02  0.54409606715E+02 -0.72864920879E+02  0.16036897022E+03  0.12700000000E+03 0.  0.
<mgrwt>
<rscale>  0 0.31280803E+03</rscale>
<asrwt>0</asrwt>
<pdfrwt beam="1">  1        2 0.56192939E-01 0.31280803E+03</pdfrwt>
<pdfrwt beam="2">  1       -2 0.88841928E-02 0.31280803E+03</pdfrwt>
<totfact> 0.70636270E+03</totfact>
</mgrwt>
</event>
<event>
 4    1  0.2581031E-004  0.4022639E+03  0.7818608E-02  0.1042999E+00
          2   -1    0    0  501    0  0.00000000000E+00  0.00000000000E+00  0.57108572324E+03  0.57108572325E+03  0.25500000000E-02 0.  1.
         -2   -1    0    0    0  501 -0.00000000000E+00 -0.00000000000E+00 -0.70837124976E+02  0.70837125022E+02  0.25500000000E-02 0. -1.
    5000001    1    1    2    0    0 -0.98504866344E+02 -0.71794957053E+02  0.40539369136E+03  0.44196240739E+03  0.12700000000E+03 0.  0.
   -5000001    1    1    2    0    0  0.98504866344E+02  0.71794957053E+02  0.94854906903E+02  0.19996044088E+03  0.12700000000E+03 0.  0.
<mgrwt>
<rscale>  0 0.40226395E+03</rscale>
<asrwt>0</asrwt>
<pdfrwt beam="1">  1        2 0.81583671E-01 0.40226395E+03</pdfrwt>
<pdfrwt beam="2">  1       -2 0.10119590E-01 0.40226395E+03</pdfrwt>
<totfact> 0.38170739E+03</totfact>
</mgrwt>
</event>
<event>
 4    1  0.2581031E-004  0.4281231E+03  0.7818608E-02  0.1034454E+00
         -2   -1    0    0    0  501 -0.00000000000E+00  0.00000000000E+00  0.17715595280E+02  0.17715595463E+02  0.25500000000E-02 0. -1.
          2   -1    0    0  501    0  0.00000000000E+00 -0.00000000000E+00 -0.25865546210E+04  0.25865546210E+04  0.25500000000E-02 0.  1.
    5000001    1    1    2    0    0  0.26450448745E+02 -0.16458926866E+03 -0.10189819443E+04  0.10403088274E+04  0.12700000000E+03 0.  0.
   -5000001    1    1    2    0    0 -0.26450448745E+02  0.16458926866E+03 -0.15498570815E+04  0.15639613891E+04  0.12700000000E+03 0.  0.
<mgrwt>
<rscale>  0 0.42812314E+03</rscale>
<asrwt>0</asrwt>
<pdfrwt beam="1">  1        2 0.36950756E+00 0.42812314E+03</pdfrwt>
<pdfrwt beam="2">  1       -2 0.25308010E-02 0.42812314E+03</pdfrwt>
<totfact> 0.24489185E+03</totfact>
</mgrwt>
</event>
<event>
 4    1  0.2581031E-004  0.4340729E+03  0.7818608E-02  0.1032581E+00
          2   -1    0    0  501    0  0.00000000000E+00  0.00000000000E+00  0.75197863847E+03  0.75197863847E+03  0.25500000000E-02 0.  1.
         -2   -1    0    0    0  501 -0.00000000000E+00 -0.00000000000E+00 -0.62641180313E+02  0.62641180365E+02  0.25500000000E-02 0. -1.
    5000001    1    1    2    0    0 -0.79008776888E+02  0.15203015066E+03  0.42021042902E+03  0.47123386783E+03  0.12700000000E+03 0.  0.
   -5000001    1    1    2    0    0  0.79008776888E+02 -0.15203015066E+03  0.26912702914E+03  0.34338595101E+03  0.12700000000E+03 0.  0.
<mgrwt>
<rscale>  0 0.43407294E+03</rscale>
<asrwt>0</asrwt>
<pdfrwt beam="1">  1        2 0.10742553E+00 0.43407294E+03</pdfrwt>
<pdfrwt beam="2">  1       -2 0.89487393E-02 0.43407294E+03</pdfrwt>
<totfact> 0.33551402E+03</totfact>
</mgrwt>
</event>
<event>
 4    1  0.2581031E-004  0.5057603E+03  0.7818608E-02  0.1012286E+00
          2   -1    0    0  501    0  0.00000000000E+00  0.00000000000E+00  0.24258729940E+03  0.24258729941E+03  0.25500000000E-02 0.  1.
         -2   -1    0    0    0  501 -0.00000000000E+00 -0.00000000000E+00 -0.26360967246E+03  0.26360967247E+03  0.25500000000E-02 0. -1.
    5000001    1    1    2    0    0  0.12513599321E+03  0.14316156332E+03 -0.11860957972E+03  0.25758781495E+03  0.12700000000E+03 0.  0.
   -5000001    1    1    2    0    0 -0.12513599321E+03 -0.14316156332E+03  0.97587206657E+02  0.24860915693E+03  0.12700000000E+03 0.  0.
<mgrwt>
<rscale>  0 0.50576025E+03</rscale>
<asrwt>0</asrwt>
<pdfrwt beam="1">  1        2 0.34655328E-01 0.50576025E+03</pdfrwt>
<pdfrwt beam="2">  1       -2 0.37658525E-01 0.50576025E+03</pdfrwt>
<totfact> 0.10075559E+03</totfact>
</mgrwt>
</event>
<event>
 4    1  0.2581031E-004  0.2754818E+03  0.7818608E-02  0.1098183E+00
          2   -1    0    0  501    0  0.00000000000E+00  0.00000000000E+00  0.32904680508E+02  0.32904680607E+02  0.25500000000E-02 0.  1.
         -2   -1    0    0    0  501 -0.00000000000E+00 -0.00000000000E+00 -0.57659129269E+03  0.57659129269E+03  0.25500000000E-02 0. -1.
    5000001    1    1    2    0    0  0.32184695826E+02 -0.12214706063E+02 -0.36194553239E+03  0.38512156796E+03  0.12700000000E+03 0.  0.
   -5000001    1    1    2    0    0 -0.32184695826E+02  0.12214706063E+02 -0.18174107979E+03  0.22437440534E+03  0.12700000000E+03 0.  0.
<mgrwt>
<rscale>  0 0.27548178E+03</rscale>
<asrwt>0</asrwt>
<pdfrwt beam="1">  1        2 0.47006690E-02 0.27548178E+03</pdfrwt>
<pdfrwt beam="2">  1       -2 0.82370179E-01 0.27548178E+03</pdfrwt>
<totfact> 0.22747225E+03</totfact>
</mgrwt>
</event>
<event>
 4    1  0.2581031E-004  0.4681735E+03  0.7818608E-02  0.1022437E+00
          2   -1    0    0  501    0  0.00000000000E+00  0.00000000000E+00  0.10174267271E+04  0.10174267271E+04  0.25500000000E-02 0.  1.
         -2   -1    0    0    0  501 -0.00000000000E+00 -0.00000000000E+00 -0.53858043192E+02  0.53858043253E+02  0.25500000000E-02 0. -1.
    5000001    1    1    2    0    0 -0.79331960217E+02 -0.17960764510E+03  0.50633841566E+03  0.55772758338E+03  0.12700000000E+03 0.  0.
   -5000001    1    1    2    0    0  0.79331960217E+02  0.17960764510E+03  0.45723026825E+03  0.51355718697E+03  0.12700000000E+03 0.  0.
<mgrwt>
<rscale>  0 0.46817353E+03</rscale>
<asrwt>0</asrwt>
<pdfrwt beam="1">  1        2 0.14534667E+00 0.46817353E+03</pdfrwt>
<pdfrwt beam="2">  1       -2 0.76940065E-02 0.46817353E+03</pdfrwt>
<totfact> 0.28700128E+03</totfact>
</mgrwt>
</event>
<event>
 4    1  0.2581031E-004  0.5979490E+03  0.7818608E-02  0.9909670E-01
          2   -1    0    0  501    0  0.00000000000E+00  0.00000000000E+00  0.76200078592E+03  0.76200078593E+03  0.25500000000E-02 0.  1.
         -2   -1    0    0    0  501 -0.00000000000E+00 -0.00000000000E+00 -0.11730399967E+03  0.11730399970E+03  0.25500000000E-02 0. -1.
    5000001    1    1    2    0    0 -0.30693054213E+02  0.17487833739E+03  0.21940605004E+02  0.21939664221E+03  0.12700000000E+03 0.  0.
   -5000001    1    1    2    0    0  0.30693054213E+02 -0.17487833739E+03  0.62275618125E+03  0.65990814342E+03  0.12700000000E+03 0.  0.
<mgrwt>
<rscale>  0 0.59794896E+03</rscale>
<asrwt>0</asrwt>
<pdfrwt beam="1">  1        2 0.10885726E+00 0.59794896E+03</pdfrwt>
<pdfrwt beam="2">  1       -2 0.16757713E-01 0.59794896E+03</pdfrwt>
<totfact> 0.11759772E+03</totfact>
</mgrwt>
</event>
<event>
 4    1  0.2581031E-004  0.3658470E+03  0.7818608E-02  0.1056292E+00
         -2   -1    0    0    0  501 -0.00000000000E+00  0.00000000000E+00  0.99926624980E+02  0.99926625012E+02  0.25500000000E-02 0. -1.
          2   -1    0    0  501    0  0.00000000000E+00 -0.00000000000E+00 -0.33485578282E+03  0.33485578283E+03  0.25500000000E-02 0.  1.
    5000001    1    1    2    0    0  0.98012378475E+02 -0.67471229293E+02 -0.50518951828E+02  0.18121798368E+03  0.12700000000E+03 0.  0.
   -5000001    1    1    2    0    0 -0.98012378475E+02  0.67471229293E+02 -0.18441020601E+03  0.25356442416E+03  0.12700000000E+03 0.  0.
<mgrwt>
<rscale>  0 0.36584701E+03</rscale>
<asrwt>0</asrwt>
<pdfrwt beam="1">  1        2 0.47836540E-01 0.36584701E+03</pdfrwt>
<pdfrwt beam="2">  1       -2 0.14275232E-01 0.36584701E+03</pdfrwt>
<totfact> 0.39282072E+03</totfact>
</mgrwt>
</event>
<event>
 4    1  0.2581031E-004  0.5348344E+03  0.7818608E-02  0.1005066E+00
         -2   -1    0    0    0  501 -0.00000000000E+00  0.00000000000E+00  0.59346583717E+02  0.59346583772E+02  0.25500000000E-02 0. -1.
          2   -1    0    0  501    0  0.00000000000E+00 -0.00000000000E+00 -0.12049884624E+04  0.12049884624E+04  0.25500000000E-02 0.  1.
    5000001    1    1    2    0    0  0.14482778211E+03 -0.54414005597E+02 -0.99203161535E+03  0.10120235651E+04  0.12700000000E+03 0.  0.
   -5000001    1    1    2    0    0 -0.14482778211E+03  0.54414005597E+02 -0.15361026332E+03  0.25231148106E+03  0.12700000000E+03 0.  0.
<mgrwt>
<rscale>  0 0.53483436E+03</rscale>
<asrwt>0</asrwt>
<pdfrwt beam="1">  1        2 0.17214119E+00 0.53483436E+03</pdfrwt>
<pdfrwt beam="2">  1       -2 0.84780841E-02 0.53483436E+03</pdfrwt>
<totfact> 0.19175114E+03</totfact>
</mgrwt>
</event>
<event>
 4    1  0.2581031E-004  0.5260404E+03  0.7818608E-02  0.1007197E+00
          2   -1    0    0  501    0  0.00000000000E+00  0.00000000000E+00  0.23055039038E+04  0.23055039038E+04  0.25500000000E-02 0.  1.
         -2   -1    0    0    0  501 -0.00000000000E+00 -0.00000000000E+00 -0.30006293276E+02  0.30006293385E+02  0.25500000000E-02 0. -1.
    5000001    1    1    2    0    0  0.20347819947E+03  0.15024396195E+02  0.16122360558E+04  0.16300500635E+04  0.12700000000E+03 0.  0.
   -5000001    1    1    2    0    0 -0.20347819947E+03 -0.15024396195E+02  0.66326155472E+03  0.70546013361E+03  0.12700000000E+03 0.  0.
<mgrwt>
<rscale>  0 0.52604040E+03</rscale>
<asrwt>0</asrwt>
<pdfrwt beam="1">  1        2 0.32935768E+00 0.52604040E+03</pdfrwt>
<pdfrwt beam="2">  1       -2 0.42866136E-02 0.52604040E+03</pdfrwt>
<totfact> 0.15198788E+03</totfact>
</mgrwt>
</event>
<event>
 4    1  0.2581031E-004  0.6165597E+03  0.7818608E-02  0.9871633E-01
          2   -1    0    0  501    0  0.00000000000E+00  0.00000000000E+00  0.80693736841E+03  0.80693736842E+03  0.25500000000E-02 0.  1.
         -2   -1    0    0    0  501 -0.00000000000E+00 -0.00000000000E+00 -0.11777429458E+03  0.11777429461E+03  0.25500000000E-02 0. -1.
    5000001    1    1    2    0    0  0.21767824615E+03 -0.17251684444E+03  0.28163313862E+03  0.41544206002E+03  0.12700000000E+03 0.  0.
   -5000001    1    1    2    0    0 -0.21767824615E+03  0.17251684444E+03  0.40752993521E+03  0.50926960301E+03  0.12700000000E+03 0.  0.
<mgrwt>
<rscale>  0 0.61655974E+03</rscale>
<asrwt>0</asrwt>
<pdfrwt beam="1">  1        2 0.11527677E+00 0.61655974E+03</pdfrwt>
<pdfrwt beam="2">  1       -2 0.16824899E-01 0.61655974E+03</pdfrwt>
<totfact> 0.10856975E+03</totfact>
</mgrwt>
</event>
<event>
 4    1  0.2581031E-004  0.4215504E+03  0.7818608E-02  0.1036563E+00
          2   -1    0    0  501    0  0.00000000000E+00  0.00000000000E+00  0.21651219064E+03  0.21651219065E+03  0.25500000000E-02 0.  1.
         -2   -1    0    0    0  501 -0.00000000000E+00 -0.00000000000E+00 -0.20519026750E+03  0.20519026752E+03  0.25500000000E-02 0. -1.
    5000001    1    1    2    0    0  0.11111579364E+03  0.56035589221E+02 -0.10756327705E+03  0.20781136981E+03  0.12700000000E+03 0.  0.
   -5000001    1    1    2    0    0 -0.11111579364E+03 -0.56035589221E+02  0.11888520018E+03  0.21389108835E+03  0.12700000000E+03 0.  0.
<mgrwt>
<rscale>  0 0.42155044E+03</rscale>
<asrwt>0</asrwt>
<pdfrwt beam="1">  1        2 0.30930313E-01 0.42155044E+03</pdfrwt>
<pdfrwt beam="2">  1       -2 0.29312895E-01 0.42155044E+03</pdfrwt>
<totfact> 0.18235649E+03</totfact>
</mgrwt>
</event>
<event>
 4    1  0.2581031E-004  0.5838432E+03  0.7818608E-02  0.9939505E-01
          2   -1    0    0  501    0  0.00000000000E+00  0.00000000000E+00  0.31233195386E+03  0.31233195387E+03  0.25500000000E-02 0.  1.
         -2   -1    0    0    0  501 -0.00000000000E+00 -0.00000000000E+00 -0.27284504744E+03  0.27284504745E+03  0.25500000000E-02 0. -1.
    5000001    1    1    2    0    0  0.58211884652E+02  0.25536323188E+03 -0.24481090049E+01  0.29109104581E+03  0.12700000000E+03 0.  0.
   -5000001    1    1    2    0    0 -0.58211884652E+02 -0.25536323188E+03  0.41935015419E+02  0.29408595551E+03  0.12700000000E+03 0.  0.
<mgrwt>
<rscale>  0 0.58384322E+03</rscale>
<asrwt>0</asrwt>
<pdfrwt beam="1">  1        2 0.44618851E-01 0.58384322E+03</pdfrwt>
<pdfrwt beam="2">  1       -2 0.38977864E-01 0.58384322E+03</pdfrwt>
<totfact> 0.71312457E+02</totfact>
</mgrwt>
</event>
<event>
 4    1  0.2581031E-004  0.7583110E+03  0.7818608E-02  0.9622401E-01
          2   -1    0    0  501    0  0.00000000000E+00  0.00000000000E+00  0.41029917911E+02  0.41029917990E+02  0.25500000000E-02 0.  1.
         -2   -1    0    0    0  501 -0.00000000000E+00 -0.00000000000E+00 -0.35037581875E+04  0.35037581875E+04  0.25500000000E-02 0. -1.
    5000001    1    1    2    0    0 -0.13983785942E+03 -0.31113484397E+03 -0.12351005310E+04  0.12876186701E+04  0.12700000000E+03 0.  0.
   -5000001    1    1    2    0    0  0.13983785942E+03  0.31113484397E+03 -0.22276277386E+04  0.22571694353E+04  0.12700000000E+03 0.  0.
<mgrwt>
<rscale>  0 0.75831105E+03</rscale>
<asrwt>0</asrwt>
<pdfrwt beam="1">  1        2 0.58614191E-02 0.75831105E+03</pdfrwt>
<pdfrwt beam="2">  1       -2 0.50053669E+00 0.75831105E+03</pdfrwt>
<totfact> 0.23190406E+00</totfact>
</mgrwt>
</event>
<event>
 4    1  0.2581031E-004  0.3196740E+03  0.7818608E-02  0.1075799E+00
         -2   -1    0    0    0  501 -0.00000000000E+00  0.00000000000E+00  0.81058660865E+02  0.81058660905E+02  0.25500000000E-02 0. -1.
          2   -1    0    0  501    0  0.00000000000E+00 -0.00000000000E+00 -0.31517751683E+03  0.31517751684E+03  0.25500000000E-02 0.  1.
    5000001    1    1    2    0    0  0.22151231459E+02 -0.93413552172E+02 -0.13468034620E+03  0.20852952893E+03  0.12700000000E+03 0.  0.
   -5000001    1    1    2    0    0 -0.22151231459E+02  0.93413552172E+02 -0.99438509772E+02  0.18770664882E+03  0.12700000000E+03 0.  0.
<mgrwt>
<rscale>  0 0.31967401E+03</rscale>
<asrwt>0</asrwt>
<pdfrwt beam="1">  1        2 0.45025359E-01 0.31967401E+03</pdfrwt>
<pdfrwt beam="2">  1       -2 0.11579809E-01 0.31967401E+03</pdfrwt>
<totfact> 0.58845057E+03</totfact>
</mgrwt>
</event>
<event>
 4    1  0.2581031E-004  0.4742020E+03  0.7818608E-02  0.1020741E+00
         -2   -1    0    0    0  501 -0.00000000000E+00  0.00000000000E+00  0.71819721908E+02  0.71819721953E+02  0.25500000000E-02 0. -1.
          2   -1    0    0  501    0  0.00000000000E+00 -0.00000000000E+00 -0.78274986891E+03  0.78274986891E+03  0.25500000000E-02 0.  1.
    5000001    1    1    2    0    0 -0.11026610967E+03 -0.16592620173E+03 -0.31952376800E+03  0.39738464701E+03  0.12700000000E+03 0.  0.
   -5000001    1    1    2    0    0  0.11026610967E+03  0.16592620173E+03 -0.39140637900E+03  0.45718494385E+03  0.12700000000E+03 0.  0.
<mgrwt>
<rscale>  0 0.47420197E+03</rscale>
<asrwt>0</asrwt>
<pdfrwt beam="1">  1        2 0.11182141E+00 0.47420197E+03</pdfrwt>
<pdfrwt beam="2">  1       -2 0.10259961E-01 0.47420197E+03</pdfrwt>
<totfact> 0.25645513E+03</totfact>
</mgrwt>
</event>
<event>
 4    1  0.2581031E-004  0.3970477E+03  0.7818608E-02  0.1044807E+00
         -2   -1    0    0    0  501 -0.00000000000E+00  0.00000000000E+00  0.30101790589E+02  0.30101790697E+02  0.25500000000E-02 0. -1.
          2   -1    0    0  501    0  0.00000000000E+00 -0.00000000000E+00 -0.13092817475E+04  0.13092817475E+04  0.25500000000E-02 0.  1.
    5000001    1    1    2    0    0  0.13573093480E+03 -0.36902361814E+01 -0.40475443680E+03  0.44541178544E+03  0.12700000000E+03 0.  0.
   -5000001    1    1    2    0    0 -0.13573093480E+03  0.36902361814E+01 -0.87442552015E+03  0.89397175279E+03  0.12700000000E+03 0.  0.
<mgrwt>
<rscale>  0 0.39704773E+03</rscale>
<asrwt>0</asrwt>
<pdfrwt beam="1">  1        2 0.18704021E+00 0.39704773E+03</pdfrwt>
<pdfrwt beam="2">  1       -2 0.43002566E-02 0.39704773E+03</pdfrwt>
<totfact> 0.48444442E+03</totfact>
</mgrwt>
</event>
<event>
 4    1  0.2581031E-004  0.4878706E+03  0.7818608E-02  0.1016994E+00
          2   -1    0    0  501    0  0.00000000000E+00  0.00000000000E+00  0.20503533228E+04  0.20503533228E+04  0.25500000000E-02 0.  1.
         -2   -1    0    0    0  501 -0.00000000000E+00 -0.00000000000E+00 -0.29021550078E+02  0.29021550190E+02  0.25500000000E-02 0. -1.
    5000001    1    1    2    0    0 -0.10746668145E+03  0.69116495296E+02  0.17116461455E+04  0.17211007249E+04  0.12700000000E+03 0.  0.
   -5000001    1    1    2    0    0  0.10746668145E+03 -0.69116495296E+02  0.30968562721E+03  0.35827414816E+03  0.12700000000E+03 0.  0.
<mgrwt>
<rscale>  0 0.48787060E+03</rscale>
<asrwt>0</asrwt>
<pdfrwt beam="1">  1        2 0.29290760E+00 0.48787060E+03</pdfrwt>
<pdfrwt beam="2">  1       -2 0.41459360E-02 0.48787060E+03</pdfrwt>
<totfact> 0.21509643E+03</totfact>
</mgrwt>
</event>
<event>
 4    1  0.2581031E-004  0.6165090E+03  0.7818608E-02  0.9871735E-01
         -2   -1    0    0    0  501 -0.00000000000E+00  0.00000000000E+00  0.25340443997E+02  0.25340444125E+02  0.25500000000E-02 0. -1.
          2   -1    0    0  501    0  0.00000000000E+00 -0.00000000000E+00 -0.37497702704E+04  0.37497702704E+04  0.25500000000E-02 0.  1.
    5000001    1    1    2    0    0  0.10484726171E+03  0.16417831416E+03 -0.62316903362E+03  0.66514367741E+03  0.12700000000E+03 0.  0.
   -5000001    1    1    2    0    0 -0.10484726171E+03 -0.16417831416E+03 -0.31012607927E+04  0.31099670371E+04  0.12700000000E+03 0.  0.
<mgrwt>
<rscale>  0 0.61650902E+03</rscale>
<asrwt>0</asrwt>
<pdfrwt beam="1">  1        2 0.53568111E+00 0.61650902E+03</pdfrwt>
<pdfrwt beam="2">  1       -2 0.36200658E-02 0.61650902E+03</pdfrwt>
<totfact> 0.31132428E+02</totfact>
</mgrwt>
</event>
<event>
 4    1  0.2581031E-004  0.5921821E+03  0.7818608E-02  0.9921760E-01
          2   -1    0    0  501    0  0.00000000000E+00  0.00000000000E+00  0.81792597147E+03  0.81792597147E+03  0.25500000000E-02 0.  1.
         -2   -1    0    0    0  501 -0.00000000000E+00 -0.00000000000E+00 -0.10718562964E+03  0.10718562967E+03  0.25500000000E-02 0. -1.
    5000001    1    1    2    0    0 -0.18742642010E+03 -0.18376649889E+03  0.27507023140E+03  0.40086334488E+03  0.12700000000E+03 0.  0.
   -5000001    1    1    2    0    0  0.18742642010E+03  0.18376649889E+03  0.43567011043E+03  0.52424825626E+03  0.12700000000E+03 0.  0.
<mgrwt>
<rscale>  0 0.59218210E+03</rscale>
<asrwt>0</asrwt>
<pdfrwt beam="1">  1        2 0.11684657E+00 0.59218210E+03</pdfrwt>
<pdfrwt beam="2">  1       -2 0.15312232E-01 0.59218210E+03</pdfrwt>
<totfact> 0.12523882E+03</totfact>
</mgrwt>
</event>
<event>
 4    1  0.2581031E-004  0.4184770E+03  0.7818608E-02  0.1037563E+00
          2   -1    0    0  501    0  0.00000000000E+00  0.00000000000E+00  0.33133940170E+04  0.33133940170E+04  0.25500000000E-02 0.  1.
         -2   -1    0    0    0  501 -0.00000000000E+00 -0.00000000000E+00 -0.13213266529E+02  0.13213266775E+02  0.25500000000E-02 0. -1.
    5000001    1    1    2    0    0  0.12027798992E+03  0.11408333014E+03  0.15464568689E+04  0.15604933991E+04  0.12700000000E+03 0.  0.
   -5000001    1    1    2    0    0 -0.12027798992E+03 -0.11408333014E+03  0.17537238816E+04  0.17661138847E+04  0.12700000000E+03 0.  0.
<mgrwt>
<rscale>  0 0.41847704E+03</rscale>
<asrwt>0</asrwt>
<pdfrwt beam="1">  1        2 0.47334206E+00 0.41847704E+03</pdfrwt>
<pdfrwt beam="2">  1       -2 0.18876093E-02 0.41847704E+03</pdfrwt>
<totfact> 0.15491656E+03</totfact>
</mgrwt>
</event>
<event>
 4    1  0.2581031E-004  0.1253739E+04  0.7818608E-02  0.9067077E-01
          2   -1    0    0  501    0  0.00000000000E+00  0.00000000000E+00  0.36380247447E+03  0.36380247448E+03  0.25500000000E-02 0.  1.
         -2   -1    0    0    0  501 -0.00000000000E+00 -0.00000000000E+00 -0.10801621474E+04  0.10801621474E+04  0.25500000000E-02 0. -1.
    5000001    1    1    2    0    0  0.11113600038E+03 -0.45985690320E+03 -0.80870516392E+03  0.94549067904E+03  0.12700000000E+03 0.  0.
   -5000001    1    1    2    0    0 -0.11113600038E+03  0.45985690320E+03  0.92345490985E+02  0.49847394285E+03  0.12700000000E+03 0.  0.
<mgrwt>
<rscale>  0 0.12537395E+04</rscale>
<asrwt>0</asrwt>
<pdfrwt beam="1">  1        2 0.51971783E-01 0.12537395E+04</pdfrwt>
<pdfrwt beam="2">  1       -2 0.15430888E+00 0.12537395E+04</pdfrwt>
<totfact> 0.26279309E+01</totfact>
</mgrwt>
</event>
<event>
 4    1  0.2581031E-004  0.2952079E+03  0.7818608E-02  0.1087661E+00
          2   -1    0    0  501    0  0.00000000000E+00  0.00000000000E+00  0.13118661939E+04  0.13118661939E+04  0.25500000000E-02 0.  1.
         -2   -1    0    0    0  501 -0.00000000000E+00 -0.00000000000E+00 -0.16607585287E+02  0.16607585483E+02  0.25500000000E-02 0. -1.
    5000001    1    1    2    0    0  0.17665237906E+02 -0.67371350728E+02  0.77546547416E+03  0.78887683522E+03  0.12700000000E+03 0.  0.
   -5000001    1    1    2    0    0 -0.17665237906E+02  0.67371350728E+02  0.51979313442E+03  0.53959694413E+03  0.12700000000E+03 0.  0.
<mgrwt>
<rscale>  0 0.29520793E+03</rscale>
<asrwt>0</asrwt>
<pdfrwt beam="1">  1        2 0.18740946E+00 0.29520793E+03</pdfrwt>
<pdfrwt beam="2">  1       -2 0.23725121E-02 0.29520793E+03</pdfrwt>
<totfact> 0.11734746E+04</totfact>
</mgrwt>
</event>
<event>
 4    1  0.2581031E-004  0.4287454E+03  0.7818608E-02  0.1034257E+00
         -2   -1    0    0    0  501 -0.00000000000E+00  0.00000000000E+00  0.33681184855E+03  0.33681184855E+03  0.25500000000E-02 0. -1.
          2   -1    0    0  501    0  0.00000000000E+00 -0.00000000000E+00 -0.13644313384E+03  0.13644313386E+03  0.25500000000E-02 0.  1.
    5000001    1    1    2    0    0 -0.44981342127E+02  0.91221185859E+02  0.25425250875E+03  0.30185752284E+03  0.12700000000E+03 0.  0.
   -5000001    1    1    2    0    0  0.44981342127E+02 -0.91221185859E+02 -0.53883794043E+02  0.17139745958E+03  0.12700000000E+03 0.  0.
<mgrwt>
<rscale>  0 0.42874544E+03</rscale>
<asrwt>0</asrwt>
<pdfrwt beam="1">  1        2 0.19491877E-01 0.42874544E+03</pdfrwt>
<pdfrwt beam="2">  1       -2 0.48115978E-01 0.42874544E+03</pdfrwt>
<totfact> 0.11966976E+03</totfact>
</mgrwt>
</event>
<event>
 4    1  0.2581031E-004  0.2801391E+03  0.7818608E-02  0.1095613E+00
          2   -1    0    0  501    0  0.00000000000E+00  0.00000000000E+00  0.47568463109E+03  0.47568463109E+03  0.25500000000E-02 0.  1.
         -2   -1    0    0    0  501 -0.00000000000E+00 -0.00000000000E+00 -0.41244724035E+02  0.41244724114E+02  0.25500000000E-02 0. -1.
    5000001    1    1    2    0    0 -0.50450175258E+02 -0.28938129986E+02  0.19805714881E+03  0.24235979399E+03  0.12700000000E+03 0.  0.
   -5000001    1    1    2    0    0  0.50450175258E+02  0.28938129986E+02  0.23638275825E+03  0.27456956122E+03  0.12700000000E+03 0.  0.
<mgrwt>
<rscale>  0 0.28013912E+03</rscale>
<asrwt>0</asrwt>
<pdfrwt beam="1">  1        2 0.67954941E-01 0.28013912E+03</pdfrwt>
<pdfrwt beam="2">  1       -2 0.58921040E-02 0.28013912E+03</pdfrwt>
<totfact> 0.10829057E+04</totfact>
</mgrwt>
</event>
<event>
 4    1  0.2581031E-004  0.5867120E+03  0.7818608E-02  0.9933364E-01
         -2   -1    0    0    0  501 -0.00000000000E+00  0.00000000000E+00  0.96736944967E+02  0.96736945001E+02  0.25500000000E-02 0. -1.
          2   -1    0    0  501    0  0.00000000000E+00 -0.00000000000E+00 -0.88960580630E+03  0.88960580630E+03  0.25500000000E-02 0.  1.
    5000001    1    1    2    0    0  0.24448924316E+03  0.79638152783E+02 -0.29264524134E+03  0.40974072616E+03  0.12700000000E+03 0.  0.
   -5000001    1    1    2    0    0 -0.24448924316E+03 -0.79638152783E+02 -0.50022361999E+03  0.57660202514E+03  0.12700000000E+03 0.  0.
<mgrwt>
<rscale>  0 0.58671202E+03</rscale>
<asrwt>0</asrwt>
<pdfrwt beam="1">  1        2 0.12708654E+00 0.58671202E+03</pdfrwt>
<pdfrwt beam="2">  1       -2 0.13819564E-01 0.58671202E+03</pdfrwt>
<totfact> 0.13327905E+03</totfact>
</mgrwt>
</event>
<event>
 4    1  0.2581031E-004  0.2782442E+03  0.7818608E-02  0.1096652E+00
          2   -1    0    0  501    0  0.00000000000E+00  0.00000000000E+00  0.90170032740E+02  0.90170032776E+02  0.25500000000E-02 0.  1.
         -2   -1    0    0    0  501 -0.00000000000E+00 -0.00000000000E+00 -0.21464951761E+03  0.21464951762E+03  0.25500000000E-02 0. -1.
    5000001    1    1    2    0    0 -0.18804219763E+02 -0.39338143961E+02 -0.22364559095E+02  0.13612590405E+03  0.12700000000E+03 0.  0.
   -5000001    1    1    2    0    0  0.18804219763E+02  0.39338143961E+02 -0.10211492577E+03  0.16869364634E+03  0.12700000000E+03 0.  0.
<mgrwt>
<rscale>  0 0.27824417E+03</rscale>
<asrwt>0</asrwt>
<pdfrwt beam="1">  1        2 0.12881433E-01 0.27824417E+03</pdfrwt>
<pdfrwt beam="2">  1       -2 0.30664216E-01 0.27824417E+03</pdfrwt>
<totfact> 0.45767642E+03</totfact>
</mgrwt>
</event>
<event>
 4    1  0.2581031E-004  0.4288249E+03  0.7818608E-02  0.1034232E+00
         -2   -1    0    0    0  501 -0.00000000000E+00  0.00000000000E+00  0.26931730081E+02  0.26931730202E+02  0.25500000000E-02 0. -1.
          2   -1    0    0  501    0  0.00000000000E+00 -0.00000000000E+00 -0.17070089696E+04  0.17070089696E+04  0.25500000000E-02 0.  1.
    5000001    1    1    2    0    0 -0.16877331763E+03  0.36806576263E+02 -0.84866185580E+03  0.87532571212E+03  0.12700000000E+03 0.  0.
   -5000001    1    1    2    0    0  0.16877331763E+03 -0.36806576263E+02 -0.83141538375E+03  0.85861498772E+03  0.12700000000E+03 0.  0.
<mgrwt>
<rscale>  0 0.42882493E+03</rscale>
<asrwt>0</asrwt>
<pdfrwt beam="1">  1        2 0.24385836E+00 0.42882493E+03</pdfrwt>
<pdfrwt beam="2">  1       -2 0.38473911E-02 0.42882493E+03</pdfrwt>
<totfact> 0.35825056E+03</totfact>
</mgrwt>
</event>
<event>
 4    1  0.2581031E-004  0.4833526E+03  0.7818608E-02  0.1018218E+00
         -2   -1    0    0    0  501 -0.00000000000E+00  0.00000000000E+00  0.21568158311E+03  0.21568158312E+03  0.25500000000E-02 0. -1.
          2   -1    0    0  501    0  0.00000000000E+00 -0.00000000000E+00 -0.27080404786E+03  0.27080404787E+03  0.25500000000E-02 0.  1.
    5000001    1    1    2    0    0 -0.13924362236E+03  0.14976885277E+03 -0.59992510824E+01  0.24079968156E+03  0.12700000000E+03 0.  0.
   -5000001    1    1    2    0    0  0.13924362236E+03 -0.14976885277E+03 -0.49123213668E+02  0.24568594943E+03  0.12700000000E+03 0.  0.
<mgrwt>
<rscale>  0 0.48335265E+03</rscale>
<asrwt>0</asrwt>
<pdfrwt beam="1">  1        2 0.38686293E-01 0.48335265E+03</pdfrwt>
<pdfrwt beam="2">  1       -2 0.30811655E-01 0.48335265E+03</pdfrwt>
<totfact> 0.13009352E+03</totfact>
</mgrwt>
</event>
<event>
 4    1  0.2581031E-004  0.4580948E+03  0.7818608E-02  0.1025335E+00
          2   -1    0    0  501    0  0.00000000000E+00  0.00000000000E+00  0.11517246101E+04  0.11517246101E+04  0.25500000000E-02 0.  1.
         -2   -1    0    0    0  501 -0.00000000000E+00 -0.00000000000E+00 -0.45551442869E+02  0.45551442941E+02  0.25500000000E-02 0. -1.
    5000001    1    1    2    0    0 -0.60041190314E+02 -0.27582960289E+02  0.10203871699E+04  0.10303808716E+04  0.12700000000E+03 0.  0.
   -5000001    1    1    2    0    0  0.60041190314E+02  0.27582960289E+02  0.85785997387E+02  0.16689518142E+03  0.12700000000E+03 0.  0.
<mgrwt>
<rscale>  0 0.45809483E+03</rscale>
<asrwt>0</asrwt>
<pdfrwt beam="1">  1        2 0.16453207E+00 0.45809483E+03</pdfrwt>
<pdfrwt beam="2">  1       -2 0.65073496E-02 0.45809483E+03</pdfrwt>
<totfact> 0.31208310E+03</totfact>
</mgrwt>
</event>
<event>
 4    1  0.2581031E-004  0.4446944E+03  0.7818608E-02  0.1029316E+00
         -2   -1    0    0    0  501 -0.00000000000E+00  0.00000000000E+00  0.36304371697E+02  0.36304371786E+02  0.25500000000E-02 0. -1.
          2   -1    0    0  501    0  0.00000000000E+00 -0.00000000000E+00 -0.13617721785E+04  0.13617721785E+04  0.25500000000E-02 0.  1.
    5000001    1    1    2    0    0 -0.13204183776E+03 -0.11354009197E+03 -0.49102712248E+03  0.53624904141E+03  0.12700000000E+03 0.  0.
   -5000001    1    1    2    0    0  0.13204183776E+03  0.11354009197E+03 -0.83444068433E+03  0.86182750888E+03  0.12700000000E+03 0.  0.
<mgrwt>
<rscale>  0 0.44469443E+03</rscale>
<asrwt>0</asrwt>
<pdfrwt beam="1">  1        2 0.19453885E+00 0.44469443E+03</pdfrwt>
<pdfrwt beam="2">  1       -2 0.51863397E-02 0.44469443E+03</pdfrwt>
<totfact> 0.34098343E+03</totfact>
</mgrwt>
</event>
<event>
 4    1  0.2581031E-004  0.3365026E+03  0.7818608E-02  0.1068295E+00
         -2   -1    0    0    0  501 -0.00000000000E+00  0.00000000000E+00  0.20943777999E+02  0.20943778154E+02  0.25500000000E-02 0. -1.
          2   -1    0    0  501    0  0.00000000000E+00 -0.00000000000E+00 -0.13516426600E+04  0.13516426600E+04  0.25500000000E-02 0.  1.
    5000001    1    1    2    0    0  0.66779216357E+01  0.52063377147E+02 -0.10613320599E+04  0.10701915395E+04  0.12700000000E+03 0.  0.
   -5000001    1    1    2    0    0 -0.66779216357E+01 -0.52063377147E+02 -0.26936682213E+03  0.30239489867E+03  0.12700000000E+03 0.  0.
<mgrwt>
<rscale>  0 0.33650262E+03</rscale>
<asrwt>0</asrwt>
<pdfrwt beam="1">  1        2 0.19309175E+00 0.33650262E+03</pdfrwt>
<pdfrwt beam="2">  1       -2 0.29919692E-02 0.33650262E+03</pdfrwt>
<totfact> 0.79408382E+03</totfact>
</mgrwt>
</event>
<event>
 4    1  0.2581031E-004  0.5831074E+03  0.7818608E-02  0.9941086E-01
          2   -1    0    0  501    0  0.00000000000E+00  0.00000000000E+00  0.21087790463E+04  0.21087790463E+04  0.25500000000E-02 0.  1.
         -2   -1    0    0    0  501 -0.00000000000E+00 -0.00000000000E+00 -0.40309371382E+02  0.40309371462E+02  0.25500000000E-02 0. -1.
    5000001    1    1    2    0    0  0.23352748822E+03 -0.19828202540E+02  0.14694814820E+04  0.14934634483E+04  0.12700000000E+03 0.  0.
   -5000001    1    1    2    0    0 -0.23352748822E+03  0.19828202540E+02  0.59898819288E+03  0.65562496946E+03  0.12700000000E+03 0.  0.
<mgrwt>
<rscale>  0 0.58310739E+03</rscale>
<asrwt>0</asrwt>
<pdfrwt beam="1">  1        2 0.30125412E+00 0.58310739E+03</pdfrwt>
<pdfrwt beam="2">  1       -2 0.57584823E-02 0.58310739E+03</pdfrwt>
<totfact> 0.12043745E+03</totfact>
</mgrwt>
</event>
<event>
 4    1  0.2581031E-004  0.2804617E+03  0.7818608E-02  0.1095437E+00
         -2   -1    0    0    0  501 -0.00000000000E+00  0.00000000000E+00  0.14164976344E+02  0.14164976573E+02  0.25500000000E-02 0. -1.
          2   -1    0    0  501    0  0.00000000000E+00 -0.00000000000E+00 -0.13882619638E+04  0.13882619638E+04  0.25500000000E-02 0.  1.
    5000001    1    1    2    0    0 -0.46026225808E+02 -0.37572357324E+02 -0.67521265214E+03  0.68961672044E+03  0.12700000000E+03 0.  0.
   -5000001    1    1    2    0    0  0.46026225808E+02  0.37572357324E+02 -0.69888433530E+03  0.71281021992E+03  0.12700000000E+03 0.  0.
<mgrwt>
<rscale>  0 0.28046175E+03</rscale>
<asrwt>0</asrwt>
<pdfrwt beam="1">  1        2 0.19832305E+00 0.28046175E+03</pdfrwt>
<pdfrwt beam="2">  1       -2 0.20235690E-02 0.28046175E+03</pdfrwt>
<totfact> 0.13522244E+04</totfact>
</mgrwt>
</event>
<event>
 4    1  0.2581031E-004  0.3503484E+03  0.7818608E-02  0.1062472E+00
         -2   -1    0    0    0  501 -0.00000000000E+00  0.00000000000E+00  0.18870337446E+02  0.18870337619E+02  0.25500000000E-02 0. -1.
          2   -1    0    0  501    0  0.00000000000E+00 -0.00000000000E+00 -0.16261498716E+04  0.16261498716E+04  0.25500000000E-02 0.  1.
    5000001    1    1    2    0    0 -0.91923348319E+02  0.26348210981E+02 -0.45819008922E+03  0.48498586376E+03  0.12700000000E+03 0.  0.
   -5000001    1    1    2    0    0  0.91923348319E+02 -0.26348210981E+02 -0.11490894449E+04  0.11600343455E+04  0.12700000000E+03 0.  0.
<mgrwt>
<rscale>  0 0.35034838E+03</rscale>
<asrwt>0</asrwt>
<pdfrwt beam="1">  1        2 0.23230704E+00 0.35034838E+03</pdfrwt>
<pdfrwt beam="2">  1       -2 0.26957635E-02 0.35034838E+03</pdfrwt>
<totfact> 0.67202375E+03</totfact>
</mgrwt>
</event>
<event>
 4    1  0.2581031E-004  0.4596638E+03  0.7818608E-02  0.1024879E+00
          2   -1    0    0  501    0  0.00000000000E+00  0.00000000000E+00  0.29674403617E+04  0.29674403617E+04  0.25500000000E-02 0. -1.
         -2   -1    0    0    0  501 -0.00000000000E+00 -0.00000000000E+00 -0.17800764936E+02  0.17800765119E+02  0.25500000000E-02 0.  1.
    5000001    1    1    2    0    0  0.15739182616E+03 -0.10865041834E+03  0.14046898117E+04  0.14233269362E+04  0.12700000000E+03 0.  0.
   -5000001    1    1    2    0    0 -0.15739182616E+03  0.10865041834E+03  0.15449497851E+04  0.15619141906E+04  0.12700000000E+03 0.  0.
<mgrwt>
<rscale>  0 0.45966383E+03</rscale>
<asrwt>0</asrwt>
<pdfrwt beam="1">  1        2 0.42392027E+00 0.45966383E+03</pdfrwt>
<pdfrwt beam="2">  1       -2 0.25429651E-02 0.45966383E+03</pdfrwt>
<totfact> 0.15329806E+03</totfact>
</mgrwt>
</event>
<event>
 4    1  0.2581031E-004  0.4443474E+03  0.7818608E-02  0.1029421E+00
          2   -1    0    0  501    0  0.00000000000E+00  0.00000000000E+00  0.18137317776E+04  0.18137317776E+04  0.25500000000E-02 0.  1.
         -2   -1    0    0    0  501 -0.00000000000E+00 -0.00000000000E+00 -0.27215244448E+02  0.27215244567E+02  0.25500000000E-02 0. -1.
    5000001    1    1    2    0    0 -0.14999716985E+03  0.74928894461E+02  0.11896710562E+04  0.12081223913E+04  0.12700000000E+03 0.  0.
   -5000001    1    1    2    0    0  0.14999716985E+03 -0.74928894461E+02  0.59684547692E+03  0.63282463092E+03  0.12700000000E+03 0.  0.
<mgrwt>
<rscale>  0 0.44434740E+03</rscale>
<asrwt>0</asrwt>
<pdfrwt beam="1">  1        2 0.25910446E+00 0.44434740E+03</pdfrwt>
<pdfrwt beam="2">  1       -2 0.38878933E-02 0.44434740E+03</pdfrwt>
<totfact> 0.31171286E+03</totfact>
</mgrwt>
</event>
<event>
 4    1  0.2581031E-004  0.3481665E+03  0.7818608E-02  0.1063370E+00
         -2   -1    0    0    0  501 -0.00000000000E+00  0.00000000000E+00  0.26485764580E+02  0.26485764703E+02  0.25500000000E-02 0. -1.
          2   -1    0    0  501    0  0.00000000000E+00 -0.00000000000E+00 -0.11441987160E+04  0.11441987160E+04  0.25500000000E-02 0.  1.
    5000001    1    1    2    0    0 -0.53204620553E+02 -0.10620989415E+03 -0.58590356739E+03  0.61116549604E+03  0.12700000000E+03 0.  0.
   -5000001    1    1    2    0    0  0.53204620553E+02  0.10620989415E+03 -0.53180938402E+03  0.55951898466E+03  0.12700000000E+03 0.  0.
<mgrwt>
<rscale>  0 0.34816650E+03</rscale>
<asrwt>0</asrwt>
<pdfrwt beam="1">  1        2 0.16345693E+00 0.34816650E+03</pdfrwt>
<pdfrwt beam="2">  1       -2 0.37836814E-02 0.34816650E+03</pdfrwt>
<totfact> 0.72260359E+03</totfact>
</mgrwt>
</event>
<event>
 4    1  0.2581031E-004  0.3806968E+03  0.7818608E-02  0.1050677E+00
         -2   -1    0    0    0  501 -0.00000000000E+00  0.00000000000E+00  0.60531829637E+02  0.60531829691E+02  0.25500000000E-02 0. -1.
          2   -1    0    0  501    0  0.00000000000E+00 -0.00000000000E+00 -0.59856952510E+03  0.59856952511E+03  0.25500000000E-02 0.  1.
    5000001    1    1    2    0    0  0.13035739293E+03  0.23104052898E+02 -0.35690120183E+03  0.40129081103E+03  0.12700000000E+03 0.  0.
   -5000001    1    1    2    0    0 -0.13035739293E+03 -0.23104052898E+02 -0.18113649364E+03  0.25781054377E+03  0.12700000000E+03 0.  0.
<mgrwt>
<rscale>  0 0.38069677E+03</rscale>
<asrwt>0</asrwt>
<pdfrwt beam="1">  1        2 0.85509929E-01 0.38069677E+03</pdfrwt>
<pdfrwt beam="2">  1       -2 0.86474046E-02 0.38069677E+03</pdfrwt>
<totfact> 0.46419681E+03</totfact>
</mgrwt>
</event>
<event>
 4    1  0.2581031E-004  0.4975236E+03  0.7818608E-02  0.1014427E+00
          2   -1    0    0  501    0  0.00000000000E+00  0.00000000000E+00  0.84687849668E+03  0.84687849668E+03  0.25500000000E-02 0.  1.
         -2   -1    0    0    0  501 -0.00000000000E+00 -0.00000000000E+00 -0.73071193548E+02  0.73071193592E+02  0.25500000000E-02 0. -1.
    5000001    1    1    2    0    0  0.10733631438E+03 -0.36677812944E+01  0.72894874032E+03  0.74768295622E+03  0.12700000000E+03 0.  0.
   -5000001    1    1    2    0    0 -0.10733631438E+03  0.36677812944E+01  0.44858562803E+02  0.17226673405E+03  0.12700000000E+03 0.  0.
<mgrwt>
<rscale>  0 0.49752356E+03</rscale>
<asrwt>0</asrwt>
<pdfrwt beam="1">  1        2 0.12098264E+00 0.49752356E+03</pdfrwt>
<pdfrwt beam="2">  1       -2 0.10438742E-01 0.49752356E+03</pdfrwt>
<totfact> 0.22558842E+03</totfact>
</mgrwt>
</event>
<event>
 4    1  0.2581031E-004  0.4096987E+03  0.7818608E-02  0.1040472E+00
          2   -1    0    0  501    0  0.00000000000E+00  0.00000000000E+00  0.21409676743E+03  0.21409676744E+03  0.25500000000E-02 0.  1.
         -2   -1    0    0    0  501 -0.00000000000E+00 -0.00000000000E+00 -0.19600138917E+03  0.19600138919E+03  0.25500000000E-02 0. -1.
    5000001    1    1    2    0    0 -0.13995679148E+03 -0.27103840890E+02  0.83361175856E+02  0.20832812415E+03  0.12700000000E+03 0.  0.
   -5000001    1    1    2    0    0  0.13995679148E+03  0.27103840890E+02 -0.65265797596E+02  0.20177003248E+03  0.12700000000E+03 0.  0.
<mgrwt>
<rscale>  0 0.40969874E+03</rscale>
<asrwt>0</asrwt>
<pdfrwt beam="1">  1        2 0.30585253E-01 0.40969874E+03</pdfrwt>
<pdfrwt beam="2">  1       -2 0.28000198E-01 0.40969874E+03</pdfrwt>
<totfact> 0.20062985E+03</totfact>
</mgrwt>
</event>
<event>
 4    1  0.2581031E-004  0.6114805E+03  0.7818608E-02  0.9881870E-01
         -2   -1    0    0    0  501 -0.00000000000E+00  0.00000000000E+00  0.11445289750E+03  0.11445289753E+03  0.25500000000E-02 0. -1.
          2   -1    0    0  501    0  0.00000000000E+00 -0.00000000000E+00 -0.81672975795E+03  0.81672975796E+03  0.25500000000E-02 0.  1.
    5000001    1    1    2    0    0  0.22237647136E+03  0.79483889515E+02 -0.12743687856E+03  0.29688068600E+03  0.12700000000E+03 0.  0.
   -5000001    1    1    2    0    0 -0.22237647136E+03 -0.79483889515E+02 -0.57483998190E+03  0.63430196948E+03  0.12700000000E+03 0.  0.
<mgrwt>
<rscale>  0 0.61148046E+03</rscale>
<asrwt>0</asrwt>
<pdfrwt beam="1">  1        2 0.11667568E+00 0.61148046E+03</pdfrwt>
<pdfrwt beam="2">  1       -2 0.16350414E-01 0.61148046E+03</pdfrwt>
<totfact> 0.11224644E+03</totfact>
</mgrwt>
</event>
<event>
 4    1  0.2581031E-004  0.3474258E+03  0.7818608E-02  0.1063677E+00
         -2   -1    0    0    0  501 -0.00000000000E+00  0.00000000000E+00  0.21080618178E+02  0.21080618333E+02  0.25500000000E-02 0. -1.
          2   -1    0    0  501    0  0.00000000000E+00 -0.00000000000E+00 -0.14314655587E+04  0.14314655587E+04  0.25500000000E-02 0.  1.
    5000001    1    1    2    0    0  0.11649208834E+03  0.15945925153E+02 -0.64282865788E+03  0.66571943232E+03  0.12700000000E+03 0.  0.
   -5000001    1    1    2    0    0 -0.11649208834E+03 -0.15945925153E+02 -0.76755628261E+03  0.78682674469E+03  0.12700000000E+03 0.  0.
<mgrwt>
<rscale>  0 0.34742584E+03</rscale>
<asrwt>0</asrwt>
<pdfrwt beam="1">  1        2 0.20449502E+00 0.34742584E+03</pdfrwt>
<pdfrwt beam="2">  1       -2 0.30115178E-02 0.34742584E+03</pdfrwt>
<totfact> 0.71502316E+03</totfact>
</mgrwt>
</event>
<event>
 4    1  0.2581031E-004  0.4382579E+03  0.7818608E-02  0.1031283E+00
         -2   -1    0    0    0  501 -0.00000000000E+00  0.00000000000E+00  0.17270289345E+02  0.17270289533E+02  0.25500000000E-02 0.  1.
          2   -1    0    0  501    0  0.00000000000E+00 -0.00000000000E+00 -0.27803522066E+04  0.27803522066E+04  0.25500000000E-02 0. -1.
    5000001    1    1    2    0    0  0.58269865450E+02 -0.13061966809E+03 -0.20640574456E+04  0.20729011105E+04  0.12700000000E+03 0.  0.
   -5000001    1    1    2    0    0 -0.58269865450E+02  0.13061966809E+03 -0.69902447160E+03  0.72472138565E+03  0.12700000000E+03 0.  0.
<mgrwt>
<rscale>  0 0.43825786E+03</rscale>
<asrwt>0</asrwt>
<pdfrwt beam="1">  1        2 0.39719289E+00 0.43825786E+03</pdfrwt>
<pdfrwt beam="2">  1       -2 0.24671860E-02 0.43825786E+03</pdfrwt>
<totfact> 0.20188320E+03</totfact>
</mgrwt>
</event>
<event>
 4    1  0.2581031E-004  0.4341229E+03  0.7818608E-02  0.1032565E+00
         -2   -1    0    0    0  501 -0.00000000000E+00  0.00000000000E+00  0.91184516083E+01  0.91184519649E+01  0.25500000000E-02 0. -1.
          2   -1    0    0  501    0  0.00000000000E+00 -0.00000000000E+00 -0.51670688410E+04  0.51670688410E+04  0.25500000000E-02 0.  1.
    5000001    1    1    2    0    0 -0.14301242431E+03 -0.95478215472E+02 -0.30279678627E+04  0.30355044096E+04  0.12700000000E+03 0.  0.
   -5000001    1    1    2    0    0  0.14301242431E+03  0.95478215472E+02 -0.21299825267E+04  0.21406828833E+04  0.12700000000E+03 0.  0.
<mgrwt>
<rscale>  0 0.43412288E+03</rscale>
<asrwt>0</asrwt>
<pdfrwt beam="1">  1        2 0.73815082E+00 0.43412288E+03</pdfrwt>
<pdfrwt beam="2">  1       -2 0.13026393E-02 0.43412288E+03</pdfrwt>
<totfact> 0.11761757E+02</totfact>
</mgrwt>
</event>
<event>
 4    1  0.2581031E-004  0.5941060E+03  0.7818608E-02  0.9917710E-01
          2   -1    0    0  501    0  0.00000000000E+00  0.00000000000E+00  0.13061585691E+04  0.13061585691E+04  0.25500000000E-02 0.  1.
         -2   -1    0    0    0  501 -0.00000000000E+00 -0.00000000000E+00 -0.67557254711E+02  0.67557254759E+02  0.25500000000E-02 0. -1.
    5000001    1    1    2    0    0  0.13411948102E+02 -0.26600838338E+03  0.54017112035E+03  0.61551131561E+03  0.12700000000E+03 0.  0.
   -5000001    1    1    2    0    0 -0.13411948102E+02  0.26600838338E+03  0.69843019399E+03  0.75820450820E+03  0.12700000000E+03 0.  0.
<mgrwt>
<rscale>  0 0.59410601E+03</rscale>
<asrwt>0</asrwt>
<pdfrwt beam="1">  1        2 0.18659409E+00 0.59410601E+03</pdfrwt>
<pdfrwt beam="2">  1       -2 0.96510361E-02 0.59410601E+03</pdfrwt>
<totfact> 0.13682611E+03</totfact>
</mgrwt>
</event>
<event>
 4    1  0.2581031E-004  0.4657811E+03  0.7818608E-02  0.1023118E+00
         -2   -1    0    0    0  501 -0.00000000000E+00  0.00000000000E+00  0.13202654625E+02  0.13202654872E+02  0.25500000000E-02 0. -1.
          2   -1    0    0  501    0  0.00000000000E+00 -0.00000000000E+00 -0.41081143070E+04  0.41081143070E+04  0.25500000000E-02 0.  1.
    5000001    1    1    2    0    0  0.17175987941E+03  0.78776814770E+02 -0.16138251181E+04  0.16298060481E+04  0.12700000000E+03 0.  0.
   -5000001    1    1    2    0    0 -0.17175987941E+03 -0.78776814770E+02 -0.24810865343E+04  0.24915109138E+04  0.12700000000E+03 0.  0.
<mgrwt>
<rscale>  0 0.46578113E+03</rscale>
<asrwt>0</asrwt>
<pdfrwt beam="1">  1        2 0.58687266E+00 0.46578113E+03</pdfrwt>
<pdfrwt beam="2">  1       -2 0.18860962E-02 0.46578113E+03</pdfrwt>
<totfact> 0.49685513E+02</totfact>
</mgrwt>
</event>
<event>
 4    1  0.2581031E-004  0.3934003E+03  0.7818608E-02  0.1046089E+00
         -2   -1    0    0    0  501 -0.00000000000E+00  0.00000000000E+00  0.72640624854E+02  0.72640624899E+02  0.25500000000E-02 0. -1.
          2   -1    0    0  501    0  0.00000000000E+00 -0.00000000000E+00 -0.53263519743E+03  0.53263519743E+03  0.25500000000E-02 0.  1.
    5000001    1    1    2    0    0 -0.12518549660E+03  0.79897647113E+02 -0.19535676072E+03  0.27631197320E+03  0.12700000000E+03 0.  0.
   -5000001    1    1    2    0    0  0.12518549660E+03 -0.79897647113E+02 -0.26463781185E+03  0.32896384913E+03  0.12700000000E+03 0.  0.
<mgrwt>
<rscale>  0 0.39340032E+03</rscale>
<asrwt>0</asrwt>
<pdfrwt beam="1">  1        2 0.76090740E-01 0.39340032E+03</pdfrwt>
<pdfrwt beam="2">  1       -2 0.10377232E-01 0.39340032E+03</pdfrwt>
<totfact> 0.39674146E+03</totfact>
</mgrwt>
</event>
<event>
 4    1  0.2581031E-004  0.3769170E+03  0.7818608E-02  0.1052079E+00
         -2   -1    0    0    0  501 -0.00000000000E+00  0.00000000000E+00  0.16812971211E+03  0.16812971212E+03  0.25500000000E-02 0. -1.
          2   -1    0    0  501    0  0.00000000000E+00 -0.00000000000E+00 -0.21124523132E+03  0.21124523134E+03  0.25500000000E-02 0.  1.
    5000001    1    1    2    0    0  0.97546567049E+02  0.89803549785E+02 -0.64350773784E+02  0.19455084781E+03  0.12700000000E+03 0.  0.
   -5000001    1    1    2    0    0 -0.97546567049E+02 -0.89803549785E+02  0.21235254567E+02  0.18482409565E+03  0.12700000000E+03 0.  0.
<mgrwt>
<rscale>  0 0.37691697E+03</rscale>
<asrwt>0</asrwt>
<pdfrwt beam="1">  1        2 0.30177890E-01 0.37691697E+03</pdfrwt>
<pdfrwt beam="2">  1       -2 0.24018531E-01 0.37691697E+03</pdfrwt>
<totfact> 0.26756894E+03</totfact>
</mgrwt>
</event>
<event>
 4    1  0.2581031E-004  0.4096461E+03  0.7818608E-02  0.1040490E+00
         -2   -1    0    0    0  501 -0.00000000000E+00  0.00000000000E+00  0.10877972737E+03  0.10877972740E+03  0.25500000000E-02 0. -1.
          2   -1    0    0  501    0  0.00000000000E+00 -0.00000000000E+00 -0.38566452301E+03  0.38566452302E+03  0.25500000000E-02 0.  1.
    5000001    1    1    2    0    0 -0.91780988990E+02  0.13099825800E+03 -0.15710956125E+03  0.25767558630E+03  0.12700000000E+03 0.  0.
   -5000001    1    1    2    0    0  0.91780988990E+02 -0.13099825800E+03 -0.11977523439E+03  0.23676866413E+03  0.12700000000E+03 0.  0.
<mgrwt>
<rscale>  0 0.40964610E+03</rscale>
<asrwt>0</asrwt>
<pdfrwt beam="1">  1        2 0.55094931E-01 0.40964610E+03</pdfrwt>
<pdfrwt beam="2">  1       -2 0.15539961E-01 0.40964610E+03</pdfrwt>
<totfact> 0.29298374E+03</totfact>
</mgrwt>
</event>
<event>
 4    1  0.2581031E-004  0.2854586E+03  0.7818608E-02  0.1092744E+00
         -2   -1    0    0    0  501 -0.00000000000E+00  0.00000000000E+00  0.16601790895E+02  0.16601791091E+02  0.25500000000E-02 0. -1.
          2   -1    0    0  501    0  0.00000000000E+00 -0.00000000000E+00 -0.12270758782E+04  0.12270758782E+04  0.25500000000E-02 0.  1.
    5000001    1    1    2    0    0  0.52675237964E+02  0.34634944799E+02 -0.53386081016E+03  0.55236819670E+03  0.12700000000E+03 0.  0.
   -5000001    1    1    2    0    0 -0.52675237964E+02 -0.34634944799E+02 -0.67661327715E+03  0.69130947260E+03  0.12700000000E+03 0.  0.
<mgrwt>
<rscale>  0 0.28545863E+03</rscale>
<asrwt>0</asrwt>
<pdfrwt beam="1">  1        2 0.17529650E+00 0.28545863E+03</pdfrwt>
<pdfrwt beam="2">  1       -2 0.23716852E-02 0.28545863E+03</pdfrwt>
<totfact> 0.13014533E+04</totfact>
</mgrwt>
</event>
<event>
 4    1  0.2581031E-004  0.2619438E+03  0.7818608E-02  0.1105981E+00
         -2   -1    0    0    0  501 -0.00000000000E+00  0.00000000000E+00  0.29764239805E+02  0.29764239914E+02  0.25500000000E-02 0. -1.
          2   -1    0    0  501    0  0.00000000000E+00 -0.00000000000E+00 -0.57631692395E+03  0.57631692396E+03  0.25500000000E-02 0.  1.
    5000001    1    1    2    0    0 -0.27088829740E+02 -0.14999047634E+02 -0.29205352304E+03  0.31997349335E+03  0.12700000000E+03 0.  0.
   -5000001    1    1    2    0    0  0.27088829740E+02  0.14999047634E+02 -0.25449916110E+03  0.28610767052E+03  0.12700000000E+03 0.  0.
<mgrwt>
<rscale>  0 0.26194377E+03</rscale>
<asrwt>0</asrwt>
<pdfrwt beam="1">  1        2 0.82330982E-01 0.26194377E+03</pdfrwt>
<pdfrwt beam="2">  1       -2 0.42520346E-02 0.26194377E+03</pdfrwt>
<totfact> 0.14312247E+04</totfact>
</mgrwt>
</event>
<event>
 4    1  0.2581031E-004  0.4445480E+03  0.7818608E-02  0.1029360E+00
         -2   -1    0    0    0  501 -0.00000000000E+00  0.00000000000E+00  0.32089105655E+02  0.32089105757E+02  0.25500000000E-02 0. -1.
          2   -1    0    0  501    0  0.00000000000E+00 -0.00000000000E+00 -0.15396416706E+04  0.15396416706E+04  0.25500000000E-02 0.  1.
    5000001    1    1    2    0    0  0.14809227157E+03 -0.10553588203E+03 -0.80471562696E+03  0.83472473521E+03  0.12700000000E+03 0.  0.
   -5000001    1    1    2    0    0 -0.14809227157E+03  0.10553588203E+03 -0.70283693797E+03  0.73700604113E+03  0.12700000000E+03 0.  0.
<mgrwt>
<rscale>  0 0.44454797E+03</rscale>
<asrwt>0</asrwt>
<pdfrwt beam="1">  1        2 0.21994876E+00 0.44454797E+03</pdfrwt>
<pdfrwt beam="2">  1       -2 0.45841589E-02 0.44454797E+03</pdfrwt>
<totfact> 0.33318442E+03</totfact>
</mgrwt>
</event>
<event>
 4    1  0.2581031E-004  0.4984572E+03  0.7818608E-02  0.1014182E+00
         -2   -1    0    0    0  501 -0.00000000000E+00  0.00000000000E+00  0.34978204564E+02  0.34978204657E+02  0.25500000000E-02 0. -1.
          2   -1    0    0  501    0  0.00000000000E+00 -0.00000000000E+00 -0.17758174761E+04  0.17758174761E+04  0.25500000000E-02 0.  1.
    5000001    1    1    2    0    0  0.16526457827E+02 -0.21000812252E+03 -0.10161565986E+04  0.10455045520E+04  0.12700000000E+03 0.  0.
   -5000001    1    1    2    0    0 -0.16526457827E+02  0.21000812252E+03 -0.72468267292E+03  0.76529112876E+03  0.12700000000E+03 0.  0.
<mgrwt>
<rscale>  0 0.49845725E+03</rscale>
<asrwt>0</asrwt>
<pdfrwt beam="1">  1        2 0.25368815E+00 0.49845725E+03</pdfrwt>
<pdfrwt beam="2">  1       -2 0.49968875E-02 0.49845725E+03</pdfrwt>
<totfact> 0.22128810E+03</totfact>
</mgrwt>
</event>
<event>
 4    1  0.2581031E-004  0.3413112E+03  0.7818608E-02  0.1066239E+00
          2   -1    0    0  501    0  0.00000000000E+00  0.00000000000E+00  0.25038001173E+04  0.25038001173E+04  0.25500000000E-02 0.  1.
         -2   -1    0    0    0  501 -0.00000000000E+00 -0.00000000000E+00 -0.11631655051E+02  0.11631655331E+02  0.25500000000E-02 0. -1.
    5000001    1    1    2    0    0  0.74984230453E+02  0.64148097097E+02  0.16666680889E+04  0.16744100847E+04  0.12700000000E+03 0.  0.
   -5000001    1    1    2    0    0 -0.74984230453E+02 -0.64148097097E+02  0.82550037336E+03  0.84102168794E+03  0.12700000000E+03 0.  0.
<mgrwt>
<rscale>  0 0.34131123E+03</rscale>
<asrwt>0</asrwt>
<pdfrwt beam="1">  1        2 0.35768559E+00 0.34131123E+03</pdfrwt>
<pdfrwt beam="2">  1       -2 0.16616657E-02 0.34131123E+03</pdfrwt>
<totfact> 0.50620917E+03</totfact>
</mgrwt>
</event>
<event>
 4    1  0.2581031E-004  0.3047083E+03  0.7818608E-02  0.1082910E+00
         -2   -1    0    0    0  501 -0.00000000000E+00  0.00000000000E+00  0.11156118862E+03  0.11156118865E+03  0.25500000000E-02 0. -1.
          2   -1    0    0  501    0  0.00000000000E+00 -0.00000000000E+00 -0.20806321940E+03  0.20806321941E+03  0.25500000000E-02 0.  1.
    5000001    1    1    2    0    0 -0.54121842504E+01  0.61774922463E+02 -0.10793397663E+03  0.17783187592E+03  0.12700000000E+03 0.  0.
   -5000001    1    1    2    0    0  0.54121842504E+01 -0.61774922463E+02  0.11431945848E+02  0.14179253214E+03  0.12700000000E+03 0.  0.
<mgrwt>
<rscale>  0 0.30470825E+03</rscale>
<asrwt>0</asrwt>
<pdfrwt beam="1">  1        2 0.29723317E-01 0.30470825E+03</pdfrwt>
<pdfrwt beam="2">  1       -2 0.15937313E-01 0.30470825E+03</pdfrwt>
<totfact> 0.54683483E+03</totfact>
</mgrwt>
</event>
<event>
 4    1  0.2581031E-004  0.4564475E+03  0.7818608E-02  0.1025817E+00
          2   -1    0    0  501    0  0.00000000000E+00  0.00000000000E+00  0.31474137382E+03  0.31474137383E+03  0.25500000000E-02 0.  1.
         -2   -1    0    0    0  501 -0.00000000000E+00 -0.00000000000E+00 -0.16548851928E+03  0.16548851930E+03  0.25500000000E-02 0. -1.
    5000001    1    1    2    0    0 -0.17404304526E+03  0.62514948703E+02  0.11873934042E+03  0.25382500149E+03  0.12700000000E+03 0.  0.
   -5000001    1    1    2    0    0  0.17404304526E+03 -0.62514948703E+02  0.30513514122E+02  0.22640489164E+03  0.12700000000E+03 0.  0.
<mgrwt>
<rscale>  0 0.45644752E+03</rscale>
<asrwt>0</asrwt>
<pdfrwt beam="1">  1        2 0.44963053E-01 0.45644752E+03</pdfrwt>
<pdfrwt beam="2">  1       -2 0.23641217E-01 0.45644752E+03</pdfrwt>
<totfact> 0.17801657E+03</totfact>
</mgrwt>
</event>
<event>
 4    1  0.2581031E-004  0.3150411E+03  0.7818608E-02  0.1077954E+00
          2   -1    0    0  501    0  0.00000000000E+00  0.00000000000E+00  0.20941314587E+04  0.20941314587E+04  0.25500000000E-02 0.  1.
         -2   -1    0    0    0  501 -0.00000000000E+00 -0.00000000000E+00 -0.11848690716E+02  0.11848690991E+02  0.25500000000E-02 0. -1.
    5000001    1    1    2    0    0 -0.63820910807E+02  0.66424884752E+02  0.94699691979E+03  0.95990496407E+03  0.12700000000E+03 0.  0.
   -5000001    1    1    2    0    0  0.63820910807E+02 -0.66424884752E+02  0.11352858482E+04  0.11460751856E+04  0.12700000000E+03 0.  0.
<mgrwt>
<rscale>  0 0.31504105E+03</rscale>
<asrwt>0</asrwt>
<pdfrwt beam="1">  1        2 0.29916187E+00 0.31504105E+03</pdfrwt>
<pdfrwt beam="2">  1       -2 0.16926688E-02 0.31504105E+03</pdfrwt>
<totfact> 0.78639024E+03</totfact>
</mgrwt>
</event>
<event>
 4    1  0.2581031E-004  0.3890583E+03  0.7818608E-02  0.1047636E+00
         -2   -1    0    0    0  501 -0.00000000000E+00  0.00000000000E+00  0.27880811658E+02  0.27880811774E+02  0.25500000000E-02 0. -1.
          2   -1    0    0  501    0  0.00000000000E+00 -0.00000000000E+00 -0.13572628081E+04  0.13572628081E+04  0.25500000000E-02 0.  1.
    5000001    1    1    2    0    0  0.65572809210E+02 -0.12721267522E+03 -0.53984197542E+03  0.57274882494E+03  0.12700000000E+03 0.  0.
   -5000001    1    1    2    0    0 -0.65572809210E+02  0.12721267522E+03 -0.78954002099E+03  0.81239479490E+03  0.12700000000E+03 0.  0.
<mgrwt>
<rscale>  0 0.38905829E+03</rscale>
<asrwt>0</asrwt>
<pdfrwt beam="1">  1        2 0.19389465E+00 0.38905829E+03</pdfrwt>
<pdfrwt beam="2">  1       -2 0.39829740E-02 0.38905829E+03</pdfrwt>
<totfact> 0.51331176E+03</totfact>
</mgrwt>
</event>
<event>
 4    1  0.2581031E-004  0.6474945E+03  0.7818608E-02  0.9811492E-01
          2   -1    0    0  501    0  0.00000000000E+00  0.00000000000E+00  0.10052496230E+04  0.10052496230E+04  0.25500000000E-02 0.  1.
         -2   -1    0    0    0  501 -0.00000000000E+00 -0.00000000000E+00 -0.10426493211E+03  0.10426493214E+03  0.25500000000E-02 0. -1.
    5000001    1    1    2    0    0  0.25793548787E+03  0.99838321766E+02  0.26134184410E+03  0.40115703393E+03  0.12700000000E+03 0.  0.
   -5000001    1    1    2    0    0 -0.25793548787E+03 -0.99838321766E+02  0.63964284679E+03  0.70835752120E+03  0.12700000000E+03 0.  0.
<mgrwt>
<rscale>  0 0.64749451E+03</rscale>
<asrwt>0</asrwt>
<pdfrwt beam="1">  1        2 0.14360708E+00 0.64749451E+03</pdfrwt>
<pdfrwt beam="2">  1       -2 0.14894991E-01 0.64749451E+03</pdfrwt>
<totfact> 0.99300873E+02</totfact>
</mgrwt>
</event>
<event>
 4    1  0.2581031E-004  0.4845038E+03  0.7818608E-02  0.1017905E+00
          2   -1    0    0  501    0  0.00000000000E+00  0.00000000000E+00  0.19494197648E+04  0.19494197648E+04  0.25500000000E-02 0.  1.
         -2   -1    0    0    0  501 -0.00000000000E+00 -0.00000000000E+00 -0.30104328009E+02  0.30104328117E+02  0.25500000000E-02 0. -1.
    5000001    1    1    2    0    0  0.19498737745E+03 -0.30319047040E+02  0.12053983261E+04  0.12280282759E+04  0.12700000000E+03 0.  0.
   -5000001    1    1    2    0    0 -0.19498737745E+03  0.30319047040E+02  0.71391711072E+03  0.75149581700E+03  0.12700000000E+03 0.  0.
<mgrwt>
<rscale>  0 0.48450375E+03</rscale>
<asrwt>0</asrwt>
<pdfrwt beam="1">  1        2 0.27848857E+00 0.48450375E+03</pdfrwt>
<pdfrwt beam="2">  1       -2 0.43006178E-02 0.48450375E+03</pdfrwt>
<totfact> 0.22836448E+03</totfact>
</mgrwt>
</event>
<event>
 4    1  0.2581031E-004  0.2980974E+03  0.7818608E-02  0.1086196E+00
         -2   -1    0    0    0  501 -0.00000000000E+00  0.00000000000E+00  0.13648645794E+02  0.13648646032E+02  0.25500000000E-02 0. -1.
          2   -1    0    0  501    0  0.00000000000E+00 -0.00000000000E+00 -0.16276717626E+04  0.16276717626E+04  0.25500000000E-02 0.  1.
    5000001    1    1    2    0    0  0.18879027809E+02  0.74504575599E+02 -0.88071080856E+03  0.89313374014E+03  0.12700000000E+03 0.  0.
   -5000001    1    1    2    0    0 -0.18879027809E+02 -0.74504575599E+02 -0.73331230826E+03  0.74818666850E+03  0.12700000000E+03 0.  0.
<mgrwt>
<rscale>  0 0.29809740E+03</rscale>
<asrwt>0</asrwt>
<pdfrwt beam="1">  1        2 0.23252441E+00 0.29809740E+03</pdfrwt>
<pdfrwt beam="2">  1       -2 0.19498076E-02 0.29809740E+03</pdfrwt>
<totfact> 0.10822137E+04</totfact>
</mgrwt>
</event>
<event>
 4    1  0.2581031E-004  0.3570796E+03  0.7818608E-02  0.1059746E+00
         -2   -1    0    0    0  501 -0.00000000000E+00  0.00000000000E+00  0.62718978223E+03  0.62718978224E+03  0.25500000000E-02 0. -1.
          2   -1    0    0  501    0  0.00000000000E+00 -0.00000000000E+00 -0.50824264654E+02  0.50824264718E+02  0.25500000000E-02 0.  1.
    5000001    1    1    2    0    0 -0.11586248309E+03 -0.22260127984E+02  0.20700413177E+03  0.26999877566E+03  0.12700000000E+03 0.  0.
   -5000001    1    1    2    0    0  0.11586248309E+03  0.22260127984E+02  0.36936138581E+03  0.40801527130E+03  0.12700000000E+03 0.  0.
<mgrwt>
<rscale>  0 0.35707960E+03</rscale>
<asrwt>0</asrwt>
<pdfrwt beam="1">  1        2 0.72606094E-02 0.35707960E+03</pdfrwt>
<pdfrwt beam="2">  1       -2 0.89598539E-01 0.35707960E+03</pdfrwt>
<totfact> 0.10710240E+03</totfact>
</mgrwt>
</event>
<event>
 4    1  0.2581031E-004  0.2821882E+03  0.7818608E-02  0.1094500E+00
         -2   -1    0    0    0  501 -0.00000000000E+00  0.00000000000E+00  0.20585581229E+03  0.20585581231E+03  0.25500000000E-02 0. -1.
          2   -1    0    0  501    0  0.00000000000E+00 -0.00000000000E+00 -0.96706226199E+02  0.96706226232E+02  0.25500000000E-02 0.  1.
    5000001    1    1    2    0    0  0.13504208358E+02  0.58156664990E+02  0.70258894375E+02  0.15693907597E+03  0.12700000000E+03 0.  0.
   -5000001    1    1    2    0    0 -0.13504208358E+02 -0.58156664990E+02  0.38890691715E+02  0.14562296257E+03  0.12700000000E+03 0.  0.
<mgrwt>
<rscale>  0 0.28218816E+03</rscale>
<asrwt>0</asrwt>
<pdfrwt beam="1">  1        2 0.13815175E-01 0.28218816E+03</pdfrwt>
<pdfrwt beam="2">  1       -2 0.29407973E-01 0.28218816E+03</pdfrwt>
<totfact> 0.45418284E+03</totfact>
</mgrwt>
</event>
<event>
 4    1  0.2581031E-004  0.3842109E+03  0.7818608E-02  0.1049388E+00
          2   -1    0    0  501    0  0.00000000000E+00  0.00000000000E+00  0.70169866929E+03  0.70169866929E+03  0.25500000000E-02 0.  1.
         -2   -1    0    0    0  501 -0.00000000000E+00 -0.00000000000E+00 -0.52593091584E+02  0.52593091646E+02  0.25500000000E-02 0. -1.
    5000001    1    1    2    0    0  0.12787073146E+03  0.34423246451E+02  0.21281074017E+03  0.28098628968E+03  0.12700000000E+03 0.  0.
   -5000001    1    1    2    0    0 -0.12787073146E+03 -0.34423246451E+02  0.43629483754E+03  0.47330547126E+03  0.12700000000E+03 0.  0.
<mgrwt>
<rscale>  0 0.38421089E+03</rscale>
<asrwt>0</asrwt>
<pdfrwt beam="1">  1        2 0.10024266E+00 0.38421089E+03</pdfrwt>
<pdfrwt beam="2">  1       -2 0.75132990E-02 0.38421089E+03</pdfrwt>
<totfact> 0.48048474E+03</totfact>
</mgrwt>
</event>
<event>
 4    1  0.2581031E-004  0.2806689E+03  0.7818608E-02  0.1095324E+00
         -2   -1    0    0    0  501 -0.00000000000E+00  0.00000000000E+00  0.51460203236E+02  0.51460203299E+02  0.25500000000E-02 0. -1.
          2   -1    0    0  501    0  0.00000000000E+00 -0.00000000000E+00 -0.38269886082E+03  0.38269886083E+03  0.25500000000E-02 0.  1.
    5000001    1    1    2    0    0 -0.33620443681E+02  0.47233213330E+02 -0.14355534547E+03  0.20024596847E+03  0.12700000000E+03 0.  0.
   -5000001    1    1    2    0    0  0.33620443681E+02 -0.47233213330E+02 -0.18768331212E+03  0.23391309566E+03  0.12700000000E+03 0.  0.
<mgrwt>
<rscale>  0 0.28066892E+03</rscale>
<asrwt>0</asrwt>
<pdfrwt beam="1">  1        2 0.54671264E-01 0.28066892E+03</pdfrwt>
<pdfrwt beam="2">  1       -2 0.73514578E-02 0.28066892E+03</pdfrwt>
<totfact> 0.97514013E+03</totfact>
</mgrwt>
</event>
<event>
 4    1  0.2581031E-004  0.3230869E+03  0.7818608E-02  0.1074237E+00
          2   -1    0    0  501    0  0.00000000000E+00  0.00000000000E+00  0.86835383870E+02  0.86835383907E+02  0.25500000000E-02 0.  1.
         -2   -1    0    0    0  501 -0.00000000000E+00 -0.00000000000E+00 -0.30052601969E+03  0.30052601970E+03  0.25500000000E-02 0. -1.
    5000001    1    1    2    0    0  0.45207460014E+02 -0.80361373972E+02 -0.60945735172E+02  0.16835987498E+03  0.12700000000E+03 0.  0.
   -5000001    1    1    2    0    0 -0.45207460014E+02  0.80361373972E+02 -0.15274490065E+03  0.21900152863E+03  0.12700000000E+03 0.  0.
<mgrwt>
<rscale>  0 0.32308694E+03</rscale>
<asrwt>0</asrwt>
<pdfrwt beam="1">  1        2 0.12405055E-01 0.32308694E+03</pdfrwt>
<pdfrwt beam="2">  1       -2 0.42932288E-01 0.32308694E+03</pdfrwt>
<totfact> 0.25550704E+03</totfact>
</mgrwt>
</event>
<event>
 4    1  0.2581031E-004  0.3126261E+03  0.7818608E-02  0.1079094E+00
         -2   -1    0    0    0  501 -0.00000000000E+00  0.00000000000E+00  0.10119062511E+02  0.10119062832E+02  0.25500000000E-02 0. -1.
          2   -1    0    0  501    0  0.00000000000E+00 -0.00000000000E+00 -0.24146275757E+04  0.24146275757E+04  0.25500000000E-02 0.  1.
    5000001    1    1    2    0    0  0.71883141980E+02 -0.13879237572E+02 -0.16231552945E+04  0.16297613106E+04  0.12700000000E+03 0.  0.
   -5000001    1    1    2    0    0 -0.71883141980E+02  0.13879237572E+02 -0.78135321867E+03  0.79498532795E+03  0.12700000000E+03 0.  0.
<mgrwt>
<rscale>  0 0.31262609E+03</rscale>
<asrwt>0</asrwt>
<pdfrwt beam="1">  1        2 0.34494643E+00 0.31262609E+03</pdfrwt>
<pdfrwt beam="2">  1       -2 0.14455819E-02 0.31262609E+03</pdfrwt>
<totfact> 0.68892140E+03</totfact>
</mgrwt>
</event>
<event>
 4    1  0.2581031E-004  0.5353799E+03  0.7818608E-02  0.1004936E+00
         -2   -1    0    0    0  501 -0.00000000000E+00  0.00000000000E+00  0.64801851299E+02  0.64801851349E+02  0.25500000000E-02 0. -1.
          2   -1    0    0  501    0  0.00000000000E+00 -0.00000000000E+00 -0.11058003239E+04  0.11058003239E+04  0.25500000000E-02 0.  1.
    5000001    1    1    2    0    0 -0.87810302342E+02 -0.21856729208E+03 -0.53542477718E+03  0.59857414109E+03  0.12700000000E+03 0.  0.
   -5000001    1    1    2    0    0  0.87810302342E+02  0.21856729208E+03 -0.50557369544E+03  0.57202803418E+03  0.12700000000E+03 0.  0.
<mgrwt>
<rscale>  0 0.53537990E+03</rscale>
<asrwt>0</asrwt>
<pdfrwt beam="1">  1        2 0.15797146E+00 0.53537990E+03</pdfrwt>
<pdfrwt beam="2">  1       -2 0.92574080E-02 0.53537990E+03</pdfrwt>
<totfact> 0.18959069E+03</totfact>
</mgrwt>
</event>
<event>
 4    1  0.2581031E-004  0.3798257E+03  0.7818608E-02  0.1050998E+00
          2   -1    0    0  501    0  0.00000000000E+00  0.00000000000E+00  0.10291047018E+03  0.10291047021E+03  0.25500000000E-02 0.  1.
         -2   -1    0    0    0  501 -0.00000000000E+00 -0.00000000000E+00 -0.35046867009E+03  0.35046867010E+03  0.25500000000E-02 0. -1.
    5000001    1    1    2    0    0 -0.40293985658E+02  0.12242987771E+03 -0.54947629330E+02  0.18910558481E+03  0.12700000000E+03 0.  0.
   -5000001    1    1    2    0    0  0.40293985658E+02 -0.12242987771E+03 -0.19261057058E+03  0.26427355550E+03  0.12700000000E+03 0.  0.
<mgrwt>
<rscale>  0 0.37982573E+03</rscale>
<asrwt>0</asrwt>
<pdfrwt beam="1">  1        2 0.14701496E-01 0.37982573E+03</pdfrwt>
<pdfrwt beam="2">  1       -2 0.50066952E-01 0.37982573E+03</pdfrwt>
<totfact> 0.15403699E+03</totfact>
</mgrwt>
</event>
<event>
 4    1  0.2581031E-004  0.2942305E+03  0.7818608E-02  0.1088161E+00
         -2   -1    0    0    0  501 -0.00000000000E+00  0.00000000000E+00  0.41048508524E+02  0.41048508603E+02  0.25500000000E-02 0. -1.
          2   -1    0    0  501    0  0.00000000000E+00 -0.00000000000E+00 -0.52725177613E+03  0.52725177614E+03  0.25500000000E-02 0.  1.
    5000001    1    1    2    0    0  0.44272758822E+02 -0.48900766105E+02 -0.17724590746E+03  0.22780797574E+03  0.12700000000E+03 0.  0.
   -5000001    1    1    2    0    0 -0.44272758822E+02  0.48900766105E+02 -0.30895736015E+03  0.34049230900E+03  0.12700000000E+03 0.  0.
<mgrwt>
<rscale>  0 0.29423052E+03</rscale>
<asrwt>0</asrwt>
<pdfrwt beam="1">  1        2 0.75321678E-01 0.29423052E+03</pdfrwt>
<pdfrwt beam="2">  1       -2 0.58640730E-02 0.29423052E+03</pdfrwt>
<totfact> 0.97511886E+03</totfact>
</mgrwt>
</event>
<event>
 4    1  0.2581031E-004  0.4656998E+03  0.7818608E-02  0.1023141E+00
         -2   -1    0    0    0  501 -0.00000000000E+00  0.00000000000E+00  0.39933915244E+03  0.39933915245E+03  0.25500000000E-02 0. -1.
          2   -1    0    0  501    0  0.00000000000E+00 -0.00000000000E+00 -0.13577199543E+03  0.13577199545E+03  0.25500000000E-02 0.  1.
    5000001    1    1    2    0    0  0.18211724135E+03  0.51007673635E+02  0.18714812773E+03  0.29482519241E+03  0.12700000000E+03 0.  0.
   -5000001    1    1    2    0    0 -0.18211724135E+03 -0.51007673635E+02  0.76419029282E+02  0.24028595549E+03  0.12700000000E+03 0.  0.
<mgrwt>
<rscale>  0 0.46569979E+03</rscale>
<asrwt>0</asrwt>
<pdfrwt beam="1">  1        2 0.19396000E-01 0.46569979E+03</pdfrwt>
<pdfrwt beam="2">  1       -2 0.57048450E-01 0.46569979E+03</pdfrwt>
<totfact> 0.85152715E+02</totfact>
</mgrwt>
</event>
<event>
 4    1  0.2581031E-004  0.3379531E+03  0.7818608E-02  0.1067671E+00
          2   -1    0    0  501    0  0.00000000000E+00  0.00000000000E+00  0.79970302862E+03  0.79970302862E+03  0.25500000000E-02 0.  1.
         -2   -1    0    0    0  501 -0.00000000000E+00 -0.00000000000E+00 -0.35704604157E+02  0.35704604248E+02  0.25500000000E-02 0. -1.
    5000001    1    1    2    0    0  0.23675055735E+02 -0.72494980886E+02  0.58294486190E+03  0.60147297739E+03  0.12700000000E+03 0.  0.
   -5000001    1    1    2    0    0 -0.23675055735E+02  0.72494980886E+02  0.18105356256E+03  0.23393465548E+03  0.12700000000E+03 0.  0.
<mgrwt>
<rscale>  0 0.33795313E+03</rscale>
<asrwt>0</asrwt>
<pdfrwt beam="1">  1        2 0.11424329E+00 0.33795313E+03</pdfrwt>
<pdfrwt beam="2">  1       -2 0.51006578E-02 0.33795313E+03</pdfrwt>
<totfact> 0.74368854E+03</totfact>
</mgrwt>
</event>
<event>
 4    1  0.2581031E-004  0.3661980E+03  0.7818608E-02  0.1056156E+00
         -2   -1    0    0    0  501 -0.00000000000E+00  0.00000000000E+00  0.24794893694E+02  0.24794893825E+02  0.25500000000E-02 0. -1.
          2   -1    0    0  501    0  0.00000000000E+00 -0.00000000000E+00 -0.13521029292E+04  0.13521029292E+04  0.25500000000E-02 0.  1.
    5000001    1    1    2    0    0  0.10354106795E+03  0.56847557021E+02 -0.44300200616E+03  0.47574381231E+03  0.12700000000E+03 0.  0.
   -5000001    1    1    2    0    0 -0.10354106795E+03 -0.56847557021E+02 -0.88430602939E+03  0.90115401076E+03  0.12700000000E+03 0.  0.
<mgrwt>
<rscale>  0 0.36619803E+03</rscale>
<asrwt>0</asrwt>
<pdfrwt beam="1">  1        2 0.19315752E+00 0.36619803E+03</pdfrwt>
<pdfrwt beam="2">  1       -2 0.35421285E-02 0.36619803E+03</pdfrwt>
<totfact> 0.61654785E+03</totfact>
</mgrwt>
</event>
<event>
 4    1  0.2581031E-004  0.4791488E+03  0.7818608E-02  0.1019369E+00
         -2   -1    0    0    0  501 -0.00000000000E+00  0.00000000000E+00  0.25751816816E+02  0.25751816942E+02  0.25500000000E-02 0. -1.
          2   -1    0    0  501    0  0.00000000000E+00 -0.00000000000E+00 -0.22288096423E+04  0.22288096423E+04  0.25500000000E-02 0.  1.
    5000001    1    1    2    0    0  0.13387603815E+03  0.13107955124E+03 -0.14708988149E+04  0.14882126750E+04  0.12700000000E+03 0.  0.
   -5000001    1    1    2    0    0 -0.13387603815E+03 -0.13107955124E+03 -0.73215901065E+03  0.76634878431E+03  0.12700000000E+03 0.  0.
<mgrwt>
<rscale>  0 0.47914882E+03</rscale>
<asrwt>0</asrwt>
<pdfrwt beam="1">  1        2 0.31840126E+00 0.47914882E+03</pdfrwt>
<pdfrwt beam="2">  1       -2 0.36788324E-02 0.47914882E+03</pdfrwt>
<totfact> 0.21037020E+03</totfact>
</mgrwt>
</event>
<event>
 4    1  0.2581031E-004  0.4479436E+03  0.7818608E-02  0.1028337E+00
          2   -1    0    0  501    0  0.00000000000E+00  0.00000000000E+00  0.11857739806E+03  0.11857739808E+03  0.25500000000E-02 0.  1.
         -2   -1    0    0    0  501 -0.00000000000E+00 -0.00000000000E+00 -0.42304333442E+03  0.42304333443E+03  0.25500000000E-02 0. -1.
    5000001    1    1    2    0    0 -0.97409745331E+02 -0.15649465591E+03 -0.14325427001E+03  0.26576309317E+03  0.12700000000E+03 0.  0.
   -5000001    1    1    2    0    0  0.97409745331E+02  0.15649465591E+03 -0.16121166635E+03  0.27585763934E+03  0.12700000000E+03 0.  0.
<mgrwt>
<rscale>  0 0.44794365E+03</rscale>
<asrwt>0</asrwt>
<pdfrwt beam="1">  1        2 0.16939629E-01 0.44794365E+03</pdfrwt>
<pdfrwt beam="2">  1       -2 0.60434761E-01 0.44794365E+03</pdfrwt>
<totfact> 0.88548423E+02</totfact>
</mgrwt>
</event>
<event>
 4    1  0.2581031E-004  0.4043702E+03  0.7818608E-02  0.1042277E+00
         -2   -1    0    0    0  501 -0.00000000000E+00  0.00000000000E+00  0.65485695624E+02  0.65485695673E+02  0.25500000000E-02 0. -1.
          2   -1    0    0  501    0  0.00000000000E+00 -0.00000000000E+00 -0.62424028205E+03  0.62424028206E+03  0.25500000000E-02 0.  1.
    5000001    1    1    2    0    0 -0.15230637414E+03  0.32982775114E+02 -0.24260756839E+03  0.31507543113E+03  0.12700000000E+03 0.  0.
   -5000001    1    1    2    0    0  0.15230637414E+03 -0.32982775114E+02 -0.31614701803E+03  0.37465054660E+03  0.12700000000E+03 0.  0.
<mgrwt>
<rscale>  0 0.40437017E+03</rscale>
<asrwt>0</asrwt>
<pdfrwt beam="1">  1        2 0.89177180E-01 0.40437017E+03</pdfrwt>
<pdfrwt beam="2">  1       -2 0.93550998E-02 0.40437017E+03</pdfrwt>
<totfact> 0.39051564E+03</totfact>
</mgrwt>
</event>
<event>
 4    1  0.2581031E-004  0.6781080E+03  0.7818608E-02  0.9755421E-01
          2   -1    0    0  501    0  0.00000000000E+00  0.00000000000E+00  0.42385216780E+04  0.42385216780E+04  0.25500000000E-02 0.  1.
         -2   -1    0    0    0  501 -0.00000000000E+00 -0.00000000000E+00 -0.27122097529E+02  0.27122097649E+02  0.25500000000E-02 0. -1.
    5000001    1    1    2    0    0  0.17900431270E+03  0.14545685848E+03  0.34494024062E+04  0.34594372666E+04  0.12700000000E+03 0.  0.
   -5000001    1    1    2    0    0 -0.17900431270E+03 -0.14545685848E+03  0.76199717433E+03  0.80620650911E+03  0.12700000000E+03 0.  0.
<mgrwt>
<rscale>  0 0.67810795E+03</rscale>
<asrwt>0</asrwt>
<pdfrwt beam="1">  1        2 0.60550312E+00 0.67810795E+03</pdfrwt>
<pdfrwt beam="2">  1       -2 0.38745852E-02 0.67810795E+03</pdfrwt>
<totfact> 0.13103332E+02</totfact>
</mgrwt>
</event>
<event>
 4    1  0.2581031E-004  0.3478418E+03  0.7818608E-02  0.1063504E+00
         -2   -1    0    0    0  501 -0.00000000000E+00  0.00000000000E+00  0.14369703507E+03  0.14369703510E+03  0.25500000000E-02 0. -1.
          2   -1    0    0  501    0  0.00000000000E+00 -0.00000000000E+00 -0.21050178255E+03  0.21050178256E+03  0.25500000000E-02 0.  1.
    5000001    1    1    2    0    0  0.35741306697E+02  0.10392894597E+03  0.12598614451E+02  0.16842325226E+03  0.12700000000E+03 0.  0.
   -5000001    1    1    2    0    0 -0.35741306697E+02 -0.10392894597E+03 -0.79403361925E+02  0.18577556540E+03  0.12700000000E+03 0.  0.
<mgrwt>
<rscale>  0 0.34784181E+03</rscale>
<asrwt>0</asrwt>
<pdfrwt beam="1">  1        2 0.30071683E-01 0.34784181E+03</pdfrwt>
<pdfrwt beam="2">  1       -2 0.20528148E-01 0.34784181E+03</pdfrwt>
<totfact> 0.35277077E+03</totfact>
</mgrwt>
</event>
<event>
 4    1  0.2581031E-004  0.4339416E+03  0.7818608E-02  0.1032622E+00
         -2   -1    0    0    0  501 -0.00000000000E+00  0.00000000000E+00  0.44915851770E+02  0.44915851842E+02  0.25500000000E-02 0. -1.
          2   -1    0    0  501    0  0.00000000000E+00 -0.00000000000E+00 -0.10481004516E+04  0.10481004516E+04  0.25500000000E-02 0.  1.
    5000001    1    1    2    0    0 -0.20878030191E+02  0.13123369568E+03 -0.21122750177E+03  0.28000755799E+03  0.12700000000E+03 0.  0.
   -5000001    1    1    2    0    0  0.20878030191E+02 -0.13123369568E+03 -0.79195709807E+03  0.81300874547E+03  0.12700000000E+03 0.  0.
<mgrwt>
<rscale>  0 0.43394158E+03</rscale>
<asrwt>0</asrwt>
<pdfrwt beam="1">  1        2 0.14972862E+00 0.43394158E+03</pdfrwt>
<pdfrwt beam="2">  1       -2 0.64165509E-02 0.43394158E+03</pdfrwt>
<totfact> 0.36586771E+03</totfact>
</mgrwt>
</event>
<event>
 4    1  0.2581031E-004  0.3315765E+03  0.7818608E-02  0.1070441E+00
          2   -1    0    0  501    0  0.00000000000E+00  0.00000000000E+00  0.65725004082E+03  0.65725004082E+03  0.25500000000E-02 0.  1.
         -2   -1    0    0    0  501 -0.00000000000E+00 -0.00000000000E+00 -0.41819306578E+02  0.41819306656E+02  0.25500000000E-02 0. -1.
    5000001    1    1    2    0    0  0.92017008832E+02 -0.24220796613E+02  0.40889197657E+03  0.43860623047E+03  0.12700000000E+03 0.  0.
   -5000001    1    1    2    0    0 -0.92017008832E+02  0.24220796613E+02  0.20653875767E+03  0.26046311701E+03  0.12700000000E+03 0.  0.
<mgrwt>
<rscale>  0 0.33157648E+03</rscale>
<asrwt>0</asrwt>
<pdfrwt beam="1">  1        2 0.93892863E-01 0.33157648E+03</pdfrwt>
<pdfrwt beam="2">  1       -2 0.59741867E-02 0.33157648E+03</pdfrwt>
<totfact> 0.73931360E+03</totfact>
</mgrwt>
</event>
<event>
 4    1  0.2581031E-004  0.6685264E+03  0.7818608E-02  0.9772624E-01
         -2   -1    0    0    0  501 -0.00000000000E+00  0.00000000000E+00  0.84665323766E+02  0.84665323804E+02  0.25500000000E-02 0. -1.
          2   -1    0    0  501    0  0.00000000000E+00 -0.00000000000E+00 -0.13196888833E+04  0.13196888833E+04  0.25500000000E-02 0.  1.
    5000001    1    1    2    0    0 -0.23956027945E+03 -0.83037575257E+02 -0.98926840313E+03  0.10291090029E+04  0.12700000000E+03 0.  0.
   -5000001    1    1    2    0    0  0.23956027945E+03  0.83037575257E+02 -0.24575515641E+03  0.37524520423E+03  0.12700000000E+03 0.  0.
<mgrwt>
<rscale>  0 0.66852640E+03</rscale>
<asrwt>0</asrwt>
<pdfrwt beam="1">  1        2 0.18852697E+00 0.66852640E+03</pdfrwt>
<pdfrwt beam="2">  1       -2 0.12095047E-01 0.66852640E+03</pdfrwt>
<totfact> 0.92820005E+02</totfact>
</mgrwt>
</event>
<event>
 4    1  0.2581031E-004  0.4249194E+03  0.7818608E-02  0.1035477E+00
         -2   -1    0    0    0  501 -0.00000000000E+00  0.00000000000E+00  0.28894528012E+02  0.28894528124E+02  0.25500000000E-02 0. -1.
          2   -1    0    0  501    0  0.00000000000E+00 -0.00000000000E+00 -0.15622031578E+04  0.15622031578E+04  0.25500000000E-02 0.  1.
    5000001    1    1    2    0    0  0.14700828360E+03  0.84762412730E+02 -0.82143385953E+03  0.84833878118E+03  0.12700000000E+03 0.  0.
   -5000001    1    1    2    0    0 -0.14700828360E+03 -0.84762412730E+02 -0.71187477025E+03  0.74275890475E+03  0.12700000000E+03 0.  0.
<mgrwt>
<rscale>  0 0.42491939E+03</rscale>
<asrwt>0</asrwt>
<pdfrwt beam="1">  1        2 0.22317183E+00 0.42491939E+03</pdfrwt>
<pdfrwt beam="2">  1       -2 0.41277907E-02 0.42491939E+03</pdfrwt>
<totfact> 0.38094651E+03</totfact>
</mgrwt>
</event>
<event>
 4    1  0.2581031E-004  0.4447115E+03  0.7818608E-02  0.1029311E+00
         -2   -1    0    0    0  501 -0.00000000000E+00  0.00000000000E+00  0.23772211081E+03  0.23772211082E+03  0.25500000000E-02 0. -1.
          2   -1    0    0  501    0  0.00000000000E+00 -0.00000000000E+00 -0.20798263114E+03  0.20798263116E+03  0.25500000000E-02 0.  1.
    5000001    1    1    2    0    0 -0.48193786122E+02 -0.12522068707E+03 -0.10914105470E+03  0.21457779781E+03  0.12700000000E+03 0.  0.
   -5000001    1    1    2    0    0  0.48193786122E+02  0.12522068707E+03  0.13888053437E+03  0.23112694416E+03  0.12700000000E+03 0.  0.
<mgrwt>
<rscale>  0 0.44471146E+03</rscale>
<asrwt>0</asrwt>
<pdfrwt beam="1">  1        2 0.29711804E-01 0.44471146E+03</pdfrwt>
<pdfrwt beam="2">  1       -2 0.33960302E-01 0.44471146E+03</pdfrwt>
<totfact> 0.14531426E+03</totfact>
</mgrwt>
</event>
<event>
 4    1  0.2581031E-004  0.4235740E+03  0.7818608E-02  0.1035909E+00
          2   -1    0    0  501    0  0.00000000000E+00  0.00000000000E+00  0.78418694984E+03  0.78418694985E+03  0.25500000000E-02 0.  1.
         -2   -1    0    0    0  501 -0.00000000000E+00 -0.00000000000E+00 -0.57197760550E+02  0.57197760607E+02  0.25500000000E-02 0. -1.
    5000001    1    1    2    0    0 -0.72023685342E+02  0.11435618197E+03  0.16033799619E+03  0.24515713456E+03  0.12700000000E+03 0.  0.
   -5000001    1    1    2    0    0  0.72023685342E+02 -0.11435618197E+03  0.56665119310E+03  0.59622757589E+03  0.12700000000E+03 0.  0.
<mgrwt>
<rscale>  0 0.42357402E+03</rscale>
<asrwt>0</asrwt>
<pdfrwt beam="1">  1        2 0.11202671E+00 0.42357402E+03</pdfrwt>
<pdfrwt beam="2">  1       -2 0.81711088E-02 0.42357402E+03</pdfrwt>
<totfact> 0.36783074E+03</totfact>
</mgrwt>
</event>
<event>
 4    1  0.2581031E-004  0.2908429E+03  0.7818608E-02  0.1089910E+00
         -2   -1    0    0    0  501 -0.00000000000E+00  0.00000000000E+00  0.42394913211E+02  0.42394913288E+02  0.25500000000E-02 0. -1.
          2   -1    0    0  501    0  0.00000000000E+00 -0.00000000000E+00 -0.49881923369E+03  0.49881923369E+03  0.25500000000E-02 0.  1.
    5000001    1    1    2    0    0 -0.10807465974E+02 -0.67696570581E+02 -0.19498829315E+03  0.24258825498E+03  0.12700000000E+03 0.  0.
   -5000001    1    1    2    0    0  0.10807465974E+02  0.67696570581E+02 -0.26143602732E+03  0.29862589200E+03  0.12700000000E+03 0.  0.
<mgrwt>
<rscale>  0 0.29084290E+03</rscale>
<asrwt>0</asrwt>
<pdfrwt beam="1">  1        2 0.71259887E-01 0.29084290E+03</pdfrwt>
<pdfrwt beam="2">  1       -2 0.60564165E-02 0.29084290E+03</pdfrwt>
<totfact> 0.98657466E+03</totfact>
</mgrwt>
</event>
<event>
 4    1  0.2581031E-004  0.3561411E+03  0.7818608E-02  0.1060122E+00
          2   -1    0    0  501    0  0.00000000000E+00  0.00000000000E+00  0.86091125980E+03  0.86091125980E+03  0.25500000000E-02 0.  1.
         -2   -1    0    0    0  501 -0.00000000000E+00 -0.00000000000E+00 -0.36832051698E+02  0.36832051786E+02  0.25500000000E-02 0. -1.
    5000001    1    1    2    0    0 -0.29953579377E+01  0.10773196030E+03  0.57076651617E+03  0.59457427073E+03  0.12700000000E+03 0.  0.
   -5000001    1    1    2    0    0  0.29953579377E+01 -0.10773196030E+03  0.25331269193E+03  0.30316904086E+03  0.12700000000E+03 0.  0.
<mgrwt>
<rscale>  0 0.35614114E+03</rscale>
<asrwt>0</asrwt>
<pdfrwt beam="1">  1        2 0.12298733E+00 0.35614114E+03</pdfrwt>
<pdfrwt beam="2">  1       -2 0.52617212E-02 0.35614114E+03</pdfrwt>
<totfact> 0.64661072E+03</totfact>
</mgrwt>
</event>
<event>
 4    1  0.2581031E-004  0.5162690E+03  0.7818608E-02  0.1009618E+00
         -2   -1    0    0    0  501 -0.00000000000E+00  0.00000000000E+00  0.56062650014E+03  0.56062650015E+03  0.25500000000E-02 0. -1.
          2   -1    0    0  501    0  0.00000000000E+00 -0.00000000000E+00 -0.11885528898E+03  0.11885528900E+03  0.25500000000E-02 0.  1.
    5000001    1    1    2    0    0 -0.27991631866E+02 -0.22216831280E+03  0.24593149305E+03  0.35602470412E+03  0.12700000000E+03 0.  0.
   -5000001    1    1    2    0    0  0.27991631866E+02  0.22216831280E+03  0.19583971812E+03  0.32345708504E+03  0.12700000000E+03 0.  0.
<mgrwt>
<rscale>  0 0.51626902E+03</rscale>
<asrwt>0</asrwt>
<pdfrwt beam="1">  1        2 0.16979327E-01 0.51626902E+03</pdfrwt>
<pdfrwt beam="2">  1       -2 0.80089500E-01 0.51626902E+03</pdfrwt>
<totfact> 0.48026045E+02</totfact>
</mgrwt>
</event>
<event>
 4    1  0.2581031E-004  0.3018787E+03  0.7818608E-02  0.1084305E+00
         -2   -1    0    0    0  501 -0.00000000000E+00  0.00000000000E+00  0.11350207879E+02  0.11350208165E+02  0.25500000000E-02 0. -1.
          2   -1    0    0  501    0  0.00000000000E+00 -0.00000000000E+00 -0.20072478791E+04  0.20072478791E+04  0.25500000000E-02 0.  1.
    5000001    1    1    2    0    0  0.31904212185E+02  0.61567600796E+02 -0.71071008739E+03  0.72529047736E+03  0.12700000000E+03 0.  0.
   -5000001    1    1    2    0    0 -0.31904212185E+02 -0.61567600796E+02 -0.12851875838E+04  0.12933076099E+04  0.12700000000E+03 0.  0.
<mgrwt>
<rscale>  0 0.30187866E+03</rscale>
<asrwt>0</asrwt>
<pdfrwt beam="1">  1        2 0.28674947E+00 0.30187866E+03</pdfrwt>
<pdfrwt beam="2">  1       -2 0.16214596E-02 0.30187866E+03</pdfrwt>
<totfact> 0.92357302E+03</totfact>
</mgrwt>
</event>
<event>
 4    1  0.2581031E-004  0.3535716E+03  0.7818608E-02  0.1061159E+00
          2   -1    0    0  501    0  0.00000000000E+00  0.00000000000E+00  0.15143307612E+04  0.15143307612E+04  0.25500000000E-02 0.  1.
         -2   -1    0    0    0  501 -0.00000000000E+00 -0.00000000000E+00 -0.20638306596E+02  0.20638306754E+02  0.25500000000E-02 0. -1.
    5000001    1    1    2    0    0 -0.59576017946E+02  0.81613749512E+02  0.10511763629E+04  0.10636309755E+04  0.12700000000E+03 0.  0.
   -5000001    1    1    2    0    0  0.59576017946E+02 -0.81613749512E+02  0.44251609164E+03  0.47133809244E+03  0.12700000000E+03 0.  0.
<mgrwt>
<rscale>  0 0.35357162E+03</rscale>
<asrwt>0</asrwt>
<pdfrwt beam="1">  1        2 0.21633301E+00 0.35357162E+03</pdfrwt>
<pdfrwt beam="2">  1       -2 0.29483289E-02 0.35357162E+03</pdfrwt>
<totfact> 0.66947645E+03</totfact>
</mgrwt>
</event>
<event>
 4    1  0.2581031E-004  0.4713394E+03  0.7818608E-02  0.1021543E+00
          2   -1    0    0  501    0  0.00000000000E+00  0.00000000000E+00  0.35397229241E+03  0.35397229241E+03  0.25500000000E-02 0.  1.
         -2   -1    0    0    0  501 -0.00000000000E+00 -0.00000000000E+00 -0.15690550137E+03  0.15690550139E+03  0.25500000000E-02 0. -1.
    5000001    1    1    2    0    0 -0.38679393020E+02 -0.18993152207E+03  0.14504106045E+03  0.27337883557E+03  0.12700000000E+03 0.  0.
   -5000001    1    1    2    0    0  0.38679393020E+02  0.18993152207E+03  0.52025730583E+02  0.23749895824E+03  0.12700000000E+03 0.  0.
<mgrwt>
<rscale>  0 0.47133937E+03</rscale>
<asrwt>0</asrwt>
<pdfrwt beam="1">  1        2 0.50567470E-01 0.47133937E+03</pdfrwt>
<pdfrwt beam="2">  1       -2 0.22415072E-01 0.47133937E+03</pdfrwt>
<totfact> 0.17198918E+03</totfact>
</mgrwt>
</event>
<event>
 4    1  0.2581031E-004  0.1004720E+04  0.7818608E-02  0.9303383E-01
         -2   -1    0    0    0  501 -0.00000000000E+00  0.00000000000E+00  0.12169251003E+03  0.12169251006E+03  0.25500000000E-02 0. -1.
          2   -1    0    0  501    0  0.00000000000E+00 -0.00000000000E+00 -0.20737959711E+04  0.20737959711E+04  0.25500000000E-02 0.  1.
    5000001    1    1    2    0    0  0.34023268964E+02 -0.42119217265E+03 -0.15008396461E+04  0.15643558011E+04  0.12700000000E+03 0.  0.
   -5000001    1    1    2    0    0 -0.34023268964E+02  0.42119217265E+03 -0.45126381495E+03  0.63113268004E+03  0.12700000000E+03 0.  0.
<mgrwt>
<rscale>  0 0.10047197E+04</rscale>
<asrwt>0</asrwt>
<pdfrwt beam="1">  1        2 0.29625655E+00 0.10047197E+04</pdfrwt>
<pdfrwt beam="2">  1       -2 0.17384646E-01 0.10047197E+04</pdfrwt>
<totfact> 0.20069657E+02</totfact>
</mgrwt>
</event>
<event>
 4    1  0.2581031E-004  0.3908208E+03  0.7818608E-02  0.1047005E+00
         -2   -1    0    0    0  501 -0.00000000000E+00  0.00000000000E+00  0.24634950950E+02  0.24634951082E+02  0.25500000000E-02 0. -1.
          2   -1    0    0  501    0  0.00000000000E+00 -0.00000000000E+00 -0.15500429666E+04  0.15500429666E+04  0.25500000000E-02 0.  1.
    5000001    1    1    2    0    0 -0.10976177706E+03  0.53159443088E+02 -0.42123080363E+03  0.45655006738E+03  0.12700000000E+03 0.  0.
   -5000001    1    1    2    0    0  0.10976177706E+03 -0.53159443088E+02 -0.11041772120E+04  0.11181278503E+04  0.12700000000E+03 0.  0.
<mgrwt>
<rscale>  0 0.39082084E+03</rscale>
<asrwt>0</asrwt>
<pdfrwt beam="1">  1        2 0.22143465E+00 0.39082084E+03</pdfrwt>
<pdfrwt beam="2">  1       -2 0.35192797E-02 0.39082084E+03</pdfrwt>
<totfact> 0.49223525E+03</totfact>
</mgrwt>
</event>
<event>
 4    1  0.2581031E-004  0.3953589E+03  0.7818608E-02  0.1045399E+00
          2   -1    0    0  501    0  0.00000000000E+00  0.00000000000E+00  0.17112522649E+03  0.17112522651E+03  0.25500000000E-02 0.  1.
         -2   -1    0    0    0  501 -0.00000000000E+00 -0.00000000000E+00 -0.22835422882E+03  0.22835422884E+03  0.25500000000E-02 0. -1.
    5000001    1    1    2    0    0  0.14153014980E+02 -0.15057021793E+03 -0.37450398310E+02  0.20100554891E+03  0.12700000000E+03 0.  0.
   -5000001    1    1    2    0    0 -0.14153014980E+02  0.15057021793E+03 -0.19778604020E+02  0.19847390644E+03  0.12700000000E+03 0.  0.
<mgrwt>
<rscale>  0 0.39535892E+03</rscale>
<asrwt>0</asrwt>
<pdfrwt beam="1">  1        2 0.24446461E-01 0.39535892E+03</pdfrwt>
<pdfrwt beam="2">  1       -2 0.32622033E-01 0.39535892E+03</pdfrwt>
<totfact> 0.19476769E+03</totfact>
</mgrwt>
</event>
<event>
 4    1  0.2581031E-004  0.5794563E+03  0.7818608E-02  0.9948969E-01
          2   -1    0    0  501    0  0.00000000000E+00  0.00000000000E+00  0.70519417107E+03  0.70519417107E+03  0.25500000000E-02 0.  1.
         -2   -1    0    0    0  501 -0.00000000000E+00 -0.00000000000E+00 -0.11903444416E+03  0.11903444419E+03  0.25500000000E-02 0. -1.
    5000001    1    1    2    0    0  0.16993988303E+03 -0.11549237589E+03  0.65513802513E+02  0.25027806746E+03  0.12700000000E+03 0.  0.
   -5000001    1    1    2    0    0 -0.16993988303E+03  0.11549237589E+03  0.52064592439E+03  0.57395054780E+03  0.12700000000E+03 0.  0.
<mgrwt>
<rscale>  0 0.57945628E+03</rscale>
<asrwt>0</asrwt>
<pdfrwt beam="1">  1        2 0.10074203E+00 0.57945628E+03</pdfrwt>
<pdfrwt beam="2">  1       -2 0.17004920E-01 0.57945628E+03</pdfrwt>
<totfact> 0.12629584E+03</totfact>
</mgrwt>
</event>
<event>
 4    1  0.2581031E-004  0.3637957E+03  0.7818608E-02  0.1057091E+00
          2   -1    0    0  501    0  0.00000000000E+00  0.00000000000E+00  0.12051591438E+04  0.12051591438E+04  0.25500000000E-02 0.  1.
         -2   -1    0    0    0  501 -0.00000000000E+00 -0.00000000000E+00 -0.27454325970E+02  0.27454326089E+02  0.25500000000E-02 0. -1.
    5000001    1    1    2    0    0  0.82282476639E+02  0.93547678340E+02  0.46044634135E+03  0.49362071203E+03  0.12700000000E+03 0.  0.
   -5000001    1    1    2    0    0 -0.82282476639E+02 -0.93547678340E+02  0.71725847644E+03  0.73899275782E+03  0.12700000000E+03 0.  0.
<mgrwt>
<rscale>  0 0.36379572E+03</rscale>
<asrwt>0</asrwt>
<pdfrwt beam="1">  1        2 0.17216559E+00 0.36379572E+03</pdfrwt>
<pdfrwt beam="2">  1       -2 0.39220467E-02 0.36379572E+03</pdfrwt>
<totfact> 0.63367905E+03</totfact>
</mgrwt>
</event>
<event>
 4    1  0.2581031E-004  0.4955795E+03  0.7818608E-02  0.1014939E+00
          2   -1    0    0  501    0  0.00000000000E+00  0.00000000000E+00  0.27042464903E+03  0.27042464904E+03  0.25500000000E-02 0.  1.
         -2   -1    0    0    0  501 -0.00000000000E+00 -0.00000000000E+00 -0.22704945430E+03  0.22704945431E+03  0.25500000000E-02 0. -1.
    5000001    1    1    2    0    0 -0.11385902355E+03  0.17763528404E+03  0.49225986548E+02  0.25113814750E+03  0.12700000000E+03 0.  0.
   -5000001    1    1    2    0    0  0.11385902355E+03 -0.17763528404E+03 -0.58507918179E+01  0.24633595585E+03  0.12700000000E+03 0.  0.
<mgrwt>
<rscale>  0 0.49557954E+03</rscale>
<asrwt>0</asrwt>
<pdfrwt beam="1">  1        2 0.38632093E-01 0.49557954E+03</pdfrwt>
<pdfrwt beam="2">  1       -2 0.32435636E-01 0.49557954E+03</pdfrwt>
<totfact> 0.11846218E+03</totfact>
</mgrwt>
</event>
<event>
 4    1  0.2581031E-004  0.3014966E+03  0.7818608E-02  0.1084495E+00
          2   -1    0    0  501    0  0.00000000000E+00  0.00000000000E+00  0.57953645086E+03  0.57953645087E+03  0.25500000000E-02 0.  1.
         -2   -1    0    0    0  501 -0.00000000000E+00 -0.00000000000E+00 -0.39212451480E+02  0.39212451563E+02  0.25500000000E-02 0. -1.
    5000001    1    1    2    0    0  0.64840882582E+02  0.23761064208E+02  0.18243864713E+03  0.23276981804E+03  0.12700000000E+03 0.  0.
   -5000001    1    1    2    0    0 -0.64840882582E+02 -0.23761064208E+02  0.35788535225E+03  0.38597908439E+03  0.12700000000E+03 0.  0.
<mgrwt>
<rscale>  0 0.30149657E+03</rscale>
<asrwt>0</asrwt>
<pdfrwt beam="1">  1        2 0.82790919E-01 0.30149657E+03</pdfrwt>
<pdfrwt beam="2">  1       -2 0.56017790E-02 0.30149657E+03</pdfrwt>
<totfact> 0.94104612E+03</totfact>
</mgrwt>
</event>
<event>
 4    1  0.2581031E-004  0.3860076E+03  0.7818608E-02  0.1048735E+00
         -2   -1    0    0    0  501 -0.00000000000E+00  0.00000000000E+00  0.32106281444E+02  0.32106281545E+02  0.25500000000E-02 0. -1.
          2   -1    0    0  501    0  0.00000000000E+00 -0.00000000000E+00 -0.11602237395E+04  0.11602237395E+04  0.25500000000E-02 0.  1.
    5000001    1    1    2    0    0  0.14175190482E+03  0.16892216939E+02 -0.47988921512E+03  0.51652841965E+03  0.12700000000E+03 0.  0.
   -5000001    1    1    2    0    0 -0.14175190482E+03 -0.16892216939E+02 -0.64822824290E+03  0.67580160136E+03  0.12700000000E+03 0.  0.
<mgrwt>
<rscale>  0 0.38600762E+03</rscale>
<asrwt>0</asrwt>
<pdfrwt beam="1">  1        2 0.16574622E+00 0.38600762E+03</pdfrwt>
<pdfrwt beam="2">  1       -2 0.45866124E-02 0.38600762E+03</pdfrwt>
<totfact> 0.52924936E+03</totfact>
</mgrwt>
</event>
<event>
 4    1  0.2581031E-004  0.5093372E+03  0.7818608E-02  0.1011370E+00
          2   -1    0    0  501    0  0.00000000000E+00  0.00000000000E+00  0.12758123647E+04  0.12758123647E+04  0.25500000000E-02 0.  1.
         -2   -1    0    0    0  501 -0.00000000000E+00 -0.00000000000E+00 -0.50835133158E+02  0.50835133222E+02  0.25500000000E-02 0. -1.
    5000001    1    1    2    0    0  0.18185232218E+03  0.11823353646E+03  0.50580406769E+03  0.56481518315E+03  0.12700000000E+03 0.  0.
   -5000001    1    1    2    0    0 -0.18185232218E+03 -0.11823353646E+03  0.71917316387E+03  0.76183231479E+03  0.12700000000E+03 0.  0.
<mgrwt>
<rscale>  0 0.50933718E+03</rscale>
<asrwt>0</asrwt>
<pdfrwt beam="1">  1        2 0.18225889E+00 0.50933718E+03</pdfrwt>
<pdfrwt beam="2">  1       -2 0.72621626E-02 0.50933718E+03</pdfrwt>
<totfact> 0.22418698E+03</totfact>
</mgrwt>
</event>
<event>
 4    1  0.2581031E-004  0.4693707E+03  0.7818608E-02  0.1022098E+00
         -2   -1    0    0    0  501 -0.00000000000E+00  0.00000000000E+00  0.52112111271E+02  0.52112111333E+02  0.25500000000E-02 0. -1.
          2   -1    0    0  501    0  0.00000000000E+00 -0.00000000000E+00 -0.10568983836E+04  0.10568983836E+04  0.25500000000E-02 0.  1.
    5000001    1    1    2    0    0  0.14828033854E+03 -0.12366312030E+03 -0.59890778544E+03  0.64194950081E+03  0.12700000000E+03 0.  0.
   -5000001    1    1    2    0    0 -0.14828033854E+03  0.12366312030E+03 -0.40587848684E+03  0.46706099409E+03  0.12700000000E+03 0.  0.
<mgrwt>
<rscale>  0 0.46937067E+03</rscale>
<asrwt>0</asrwt>
<pdfrwt beam="1">  1        2 0.15098547E+00 0.46937067E+03</pdfrwt>
<pdfrwt beam="2">  1       -2 0.74445880E-02 0.46937067E+03</pdfrwt>
<totfact> 0.28647533E+03</totfact>
</mgrwt>
</event>
<event>
 4    1  0.2581031E-004  0.6118982E+03  0.7818608E-02  0.9881024E-01
          2   -1    0    0  501    0  0.00000000000E+00  0.00000000000E+00  0.42411275631E+04  0.42411275631E+04  0.25500000000E-02 0.  1.
         -2   -1    0    0    0  501 -0.00000000000E+00 -0.00000000000E+00 -0.22070743738E+02  0.22070743885E+02  0.25500000000E-02 0. -1.
    5000001    1    1    2    0    0 -0.14119280111E+03  0.21469235571E+03  0.13640860149E+04  0.13938751274E+04  0.12700000000E+03 0.  0.
   -5000001    1    1    2    0    0  0.14119280111E+03 -0.21469235571E+03  0.28549708045E+04  0.28693231796E+04  0.12700000000E+03 0.  0.
<mgrwt>
<rscale>  0 0.61189816E+03</rscale>
<asrwt>0</asrwt>
<pdfrwt beam="1">  1        2 0.60587528E+00 0.61189816E+03</pdfrwt>
<pdfrwt beam="2">  1       -2 0.31529638E-02 0.61189816E+03</pdfrwt>
<totfact> 0.18068877E+02</totfact>
</mgrwt>
</event>
<event>
 4    1  0.2581031E-004  0.4743425E+03  0.7818608E-02  0.1020702E+00
          2   -1    0    0  501    0  0.00000000000E+00  0.00000000000E+00  0.20280940734E+04  0.20280940734E+04  0.25500000000E-02 0.  1.
         -2   -1    0    0    0  501 -0.00000000000E+00 -0.00000000000E+00 -0.27735503300E+02  0.27735503417E+02  0.25500000000E-02 0. -1.
    5000001    1    1    2    0    0  0.11565505926E+03 -0.15902722021E+03  0.11655258778E+04  0.11887999501E+04  0.12700000000E+03 0.  0.
   -5000001    1    1    2    0    0 -0.11565505926E+03  0.15902722021E+03  0.83483269231E+03  0.86702962674E+03  0.12700000000E+03 0.  0.
<mgrwt>
<rscale>  0 0.47434253E+03</rscale>
<asrwt>0</asrwt>
<pdfrwt beam="1">  1        2 0.28972780E+00 0.47434253E+03</pdfrwt>
<pdfrwt beam="2">  1       -2 0.39622137E-02 0.47434253E+03</pdfrwt>
<totfact> 0.23662359E+03</totfact>
</mgrwt>
</event>
<event>
 4    1  0.2581031E-004  0.4724428E+03  0.7818608E-02  0.1021233E+00
         -2   -1    0    0    0  501 -0.00000000000E+00  0.00000000000E+00  0.41838580758E+02  0.41838580835E+02  0.25500000000E-02 0. -1.
          2   -1    0    0  501    0  0.00000000000E+00 -0.00000000000E+00 -0.13337106632E+04  0.13337106632E+04  0.25500000000E-02 0.  1.
    5000001    1    1    2    0    0 -0.18019141507E+03  0.71620464928E+02 -0.51336778846E+03  0.56327073711E+03  0.12700000000E+03 0.  0.
   -5000001    1    1    2    0    0  0.18019141507E+03 -0.71620464928E+02 -0.77850429397E+03  0.81227850691E+03  0.12700000000E+03 0.  0.
<mgrwt>
<rscale>  0 0.47244285E+03</rscale>
<asrwt>0</asrwt>
<pdfrwt beam="1">  1        2 0.19053007E+00 0.47244285E+03</pdfrwt>
<pdfrwt beam="2">  1       -2 0.59769410E-02 0.47244285E+03</pdfrwt>
<totfact> 0.28322317E+03</totfact>
</mgrwt>
</event>
<event>
 4    1  0.2581031E-004  0.3772921E+03  0.7818608E-02  0.1051939E+00
          2   -1    0    0  501    0  0.00000000000E+00  0.00000000000E+00  0.90236110933E+02  0.90236110969E+02  0.25500000000E-02 0.  1.
         -2   -1    0    0    0  501 -0.00000000000E+00 -0.00000000000E+00 -0.39438009883E+03  0.39438009884E+03  0.25500000000E-02 0. -1.
    5000001    1    1    2    0    0 -0.52250335823E+02 -0.12359675697E+03 -0.20101764406E+03  0.27302627923E+03  0.12700000000E+03 0.  0.
   -5000001    1    1    2    0    0  0.52250335823E+02  0.12359675697E+03 -0.10312634384E+03  0.21158993058E+03  0.12700000000E+03 0.  0.
<mgrwt>
<rscale>  0 0.37729207E+03</rscale>
<asrwt>0</asrwt>
<pdfrwt beam="1">  1        2 0.12890873E-01 0.37729207E+03</pdfrwt>
<pdfrwt beam="2">  1       -2 0.56340013E-01 0.37729207E+03</pdfrwt>
<totfact> 0.14202525E+03</totfact>
</mgrwt>
</event>
<event>
 4    1  0.2581031E-004  0.4065122E+03  0.7818608E-02  0.1041548E+00
          2   -1    0    0  501    0  0.00000000000E+00  0.00000000000E+00  0.24412986913E+02  0.24412987046E+02  0.25500000000E-02 0.  1.
         -2   -1    0    0    0  501 -0.00000000000E+00 -0.00000000000E+00 -0.16922568324E+04  0.16922568324E+04  0.25500000000E-02 0. -1.
    5000001    1    1    2    0    0 -0.14479221831E+03  0.61059559660E+02 -0.92749447777E+03  0.94924604956E+03  0.12700000000E+03 0.  0.
   -5000001    1    1    2    0    0  0.14479221831E+03 -0.61059559660E+02 -0.74034936768E+03  0.76742376985E+03  0.12700000000E+03 0.  0.
<mgrwt>
<rscale>  0 0.40651221E+03</rscale>
<asrwt>0</asrwt>
<pdfrwt beam="1">  1        2 0.34875707E-02 0.40651221E+03</pdfrwt>
<pdfrwt beam="2">  1       -2 0.24175090E+00 0.40651221E+03</pdfrwt>
<totfact> 0.20395535E+02</totfact>
</mgrwt>
</event>
<event>
 4    1  0.2581031E-004  0.1062591E+04  0.7818608E-02  0.9242440E-01
         -2   -1    0    0    0  501 -0.00000000000E+00  0.00000000000E+00  0.15510516156E+03  0.15510516158E+03  0.25500000000E-02 0. -1.
          2   -1    0    0  501    0  0.00000000000E+00 -0.00000000000E+00 -0.18198940492E+04  0.18198940492E+04  0.25500000000E-02 0.  1.
    5000001    1    1    2    0    0  0.46558936048E+03 -0.19590641014E+03 -0.10272723251E+04  0.11517682945E+04  0.12700000000E+03 0.  0.
   -5000001    1    1    2    0    0 -0.46558936048E+03  0.19590641014E+03 -0.63751656250E+03  0.82323091632E+03  0.12700000000E+03 0.  0.
<mgrwt>
<rscale>  0 0.10625911E+04</rscale>
<asrwt>0</asrwt>
<pdfrwt beam="1">  1        2 0.25998485E+00 0.10625911E+04</pdfrwt>
<pdfrwt beam="2">  1       -2 0.22157881E-01 0.10625911E+04</pdfrwt>
<totfact> 0.17619933E+02</totfact>
</mgrwt>
</event>
<event>
 4    1  0.2581031E-004  0.3711404E+03  0.7818608E-02  0.1054258E+00
          2   -1    0    0  501    0  0.00000000000E+00  0.00000000000E+00  0.36516489539E+03  0.36516489539E+03  0.25500000000E-02 0.  1.
         -2   -1    0    0    0  501 -0.00000000000E+00 -0.00000000000E+00 -0.94303425871E+02  0.94303425906E+02  0.25500000000E-02 0. -1.
    5000001    1    1    2    0    0  0.85141246584E+02 -0.70250322653E+02  0.38557194759E+02  0.17262617696E+03  0.12700000000E+03 0.  0.
   -5000001    1    1    2    0    0 -0.85141246584E+02  0.70250322653E+02  0.23230427476E+03  0.28684214434E+03  0.12700000000E+03 0.  0.
<mgrwt>
<rscale>  0 0.37114041E+03</rscale>
<asrwt>0</asrwt>
<pdfrwt beam="1">  1        2 0.52166414E-01 0.37114041E+03</pdfrwt>
<pdfrwt beam="2">  1       -2 0.13471918E-01 0.37114041E+03</pdfrwt>
<totfact> 0.39346739E+03</totfact>
</mgrwt>
</event>
<event>
 4    1  0.2581031E-004  0.4302867E+03  0.7818608E-02  0.1033769E+00
         -2   -1    0    0    0  501 -0.00000000000E+00  0.00000000000E+00  0.36060169556E+02  0.36060169646E+02  0.25500000000E-02 0. -1.
          2   -1    0    0  501    0  0.00000000000E+00 -0.00000000000E+00 -0.12835955046E+04  0.12835955046E+04  0.25500000000E-02 0.  1.
    5000001    1    1    2    0    0 -0.46678888676E+02  0.16704125302E+03 -0.65049967341E+03  0.68509891546E+03  0.12700000000E+03 0.  0.
   -5000001    1    1    2    0    0  0.46678888676E+02 -0.16704125302E+03 -0.59703566163E+03  0.63455675879E+03  0.12700000000E+03 0.  0.
<mgrwt>
<rscale>  0 0.43028675E+03</rscale>
<asrwt>0</asrwt>
<pdfrwt beam="1">  1        2 0.18337076E+00 0.43028675E+03</pdfrwt>
<pdfrwt beam="2">  1       -2 0.51514536E-02 0.43028675E+03</pdfrwt>
<totfact> 0.37930704E+03</totfact>
</mgrwt>
</event>
<event>
 4    1  0.2581031E-004  0.2831328E+03  0.7818608E-02  0.1093990E+00
         -2   -1    0    0    0  501 -0.00000000000E+00  0.00000000000E+00  0.68149495843E+01  0.68149500614E+01  0.25500000000E-02 0. -1.
          2   -1    0    0  501    0  0.00000000000E+00 -0.00000000000E+00 -0.29407478649E+04  0.29407478649E+04  0.25500000000E-02 0.  1.
    5000001    1    1    2    0    0 -0.30844252566E+02  0.52645917055E+02 -0.16101211447E+04  0.16162741293E+04  0.12700000000E+03 0.  0.
   -5000001    1    1    2    0    0  0.30844252566E+02 -0.52645917055E+02 -0.13238117706E+04  0.13312886856E+04  0.12700000000E+03 0.  0.
<mgrwt>
<rscale>  0 0.28313282E+03</rscale>
<asrwt>0</asrwt>
<pdfrwt beam="1">  1        2 0.42010603E+00 0.28313282E+03</pdfrwt>
<pdfrwt beam="2">  1       -2 0.97356614E-03 0.28313282E+03</pdfrwt>
<totfact> 0.66133420E+03</totfact>
</mgrwt>
</event>
<event>
 4    1  0.2581031E-004  0.3282337E+03  0.7818608E-02  0.1071921E+00
          2   -1    0    0  501    0  0.00000000000E+00  0.00000000000E+00  0.71739772669E+03  0.71739772670E+03  0.25500000000E-02 0.  1.
         -2   -1    0    0    0  501 -0.00000000000E+00 -0.00000000000E+00 -0.37544505597E+02  0.37544505683E+02  0.25500000000E-02 0. -1.
    5000001    1    1    2    0    0 -0.75085174419E+02 -0.49111831090E+02  0.46066285013E+03  0.48619853646E+03  0.12700000000E+03 0.  0.
   -5000001    1    1    2    0    0  0.75085174419E+02  0.49111831090E+02  0.21919037097E+03  0.26874369592E+03  0.12700000000E+03 0.  0.
<mgrwt>
<rscale>  0 0.32823372E+03</rscale>
<asrwt>0</asrwt>
<pdfrwt beam="1">  1        2 0.10248539E+00 0.32823372E+03</pdfrwt>
<pdfrwt beam="2">  1       -2 0.53635007E-02 0.32823372E+03</pdfrwt>
<totfact> 0.78602601E+03</totfact>
</mgrwt>
</event>
<event>
 4    1  0.2581031E-004  0.3421975E+03  0.7818608E-02  0.1065864E+00
         -2   -1    0    0    0  501 -0.00000000000E+00  0.00000000000E+00  0.11823327722E+02  0.11823327997E+02  0.25500000000E-02 0. -1.
          2   -1    0    0  501    0  0.00000000000E+00 -0.00000000000E+00 -0.24760181731E+04  0.24760181731E+04  0.25500000000E-02 0.  1.
    5000001    1    1    2    0    0 -0.85082717747E+02  0.52806693151E+02 -0.16380684654E+04  0.16460330838E+04  0.12700000000E+03 0.  0.
   -5000001    1    1    2    0    0  0.85082717747E+02 -0.52806693151E+02 -0.82612637996E+03  0.84180841726E+03  0.12700000000E+03 0.  0.
<mgrwt>
<rscale>  0 0.34219746E+03</rscale>
<asrwt>0</asrwt>
<pdfrwt beam="1">  1        2 0.35371655E+00 0.34219746E+03</pdfrwt>
<pdfrwt beam="2">  1       -2 0.16890484E-02 0.34219746E+03</pdfrwt>
<totfact> 0.51029132E+03</totfact>
</mgrwt>
</event>
<event>
 4    1  0.2581031E-004  0.3451470E+03  0.7818608E-02  0.1064625E+00
          2   -1    0    0  501    0  0.00000000000E+00  0.00000000000E+00  0.15964973413E+02  0.15964973617E+02  0.25500000000E-02 0.  1.
         -2   -1    0    0    0  501 -0.00000000000E+00 -0.00000000000E+00 -0.18654343644E+04  0.18654343644E+04  0.25500000000E-02 0. -1.
    5000001    1    1    2    0    0  0.82797278031E+02 -0.53854875001E+02 -0.12650136210E+04  0.12752035909E+04  0.12700000000E+03 0.  0.
   -5000001    1    1    2    0    0 -0.82797278031E+02  0.53854875001E+02 -0.58445577000E+03  0.60619574717E+03  0.12700000000E+03 0.  0.
<mgrwt>
<rscale>  0 0.34514698E+03</rscale>
<asrwt>0</asrwt>
<pdfrwt beam="1">  1        2 0.22807117E-02 0.34514698E+03</pdfrwt>
<pdfrwt beam="2">  1       -2 0.26649048E+00 0.34514698E+03</pdfrwt>
<totfact> 0.26192016E+02</totfact>
</mgrwt>
</event>
<event>
 4    1  0.2581031E-004  0.1772637E+04  0.7818608E-02  0.8720987E-01
         -2   -1    0    0    0  501 -0.00000000000E+00  0.00000000000E+00  0.68884457257E+03  0.68884457257E+03  0.25500000000E-02 0. -1.
          2   -1    0    0  501    0  0.00000000000E+00 -0.00000000000E+00 -0.11404037194E+04  0.11404037194E+04  0.25500000000E-02 0.  1.
    5000001    1    1    2    0    0 -0.17253735652E+03 -0.84092738142E+03 -0.39733482621E+02  0.86869773216E+03  0.12700000000E+03 0.  0.
   -5000001    1    1    2    0    0  0.17253735652E+03  0.84092738142E+03 -0.41182566419E+03  0.96055055979E+03  0.12700000000E+03 0.  0.
<mgrwt>
<rscale>  0 0.17726375E+04</rscale>
<asrwt>0</asrwt>
<pdfrwt beam="1">  1        2 0.16291482E+00 0.17726375E+04</pdfrwt>
<pdfrwt beam="2">  1       -2 0.98406368E-01 0.17726375E+04</pdfrwt>
<totfact> 0.18837887E+01</totfact>
</mgrwt>
</event>
<event>
 4    1  0.2581031E-004  0.3840210E+03  0.7818608E-02  0.1049458E+00
          2   -1    0    0  501    0  0.00000000000E+00  0.00000000000E+00  0.54718382842E+03  0.54718382843E+03  0.25500000000E-02 0.  1.
         -2   -1    0    0    0  501 -0.00000000000E+00 -0.00000000000E+00 -0.67377769434E+02  0.67377769482E+02  0.25500000000E-02 0. -1.
    5000001    1    1    2    0    0  0.79845519736E+02 -0.11983102084E+03  0.23660569473E+03  0.30470647410E+03  0.12700000000E+03 0.  0.
   -5000001    1    1    2    0    0 -0.79845519736E+02  0.11983102084E+03  0.24320036426E+03  0.30985512382E+03  0.12700000000E+03 0.  0.
<mgrwt>
<rscale>  0 0.38402097E+03</rscale>
<asrwt>0</asrwt>
<pdfrwt beam="1">  1        2 0.78169119E-01 0.38402097E+03</pdfrwt>
<pdfrwt beam="2">  1       -2 0.96253955E-02 0.38402097E+03</pdfrwt>
<totfact> 0.43391413E+03</totfact>
</mgrwt>
</event>
<event>
 4    1  0.2581031E-004  0.6096172E+03  0.7818608E-02  0.9885652E-01
         -2   -1    0    0    0  501 -0.00000000000E+00  0.00000000000E+00  0.19792831976E+03  0.19792831978E+03  0.25500000000E-02 0. -1.
          2   -1    0    0  501    0  0.00000000000E+00 -0.00000000000E+00 -0.46940360941E+03  0.46940360942E+03  0.25500000000E-02 0.  1.
    5000001    1    1    2    0    0 -0.26119831602E+03 -0.83634056012E+02 -0.17897451791E+03  0.35125502655E+03  0.12700000000E+03 0.  0.
   -5000001    1    1    2    0    0  0.26119831602E+03  0.83634056012E+02 -0.92500771738E+02  0.31607690265E+03  0.12700000000E+03 0.  0.
<mgrwt>
<rscale>  0 0.60961715E+03</rscale>
<asrwt>0</asrwt>
<pdfrwt beam="1">  1        2 0.67057658E-01 0.60961715E+03</pdfrwt>
<pdfrwt beam="2">  1       -2 0.28275474E-01 0.60961715E+03</pdfrwt>
<totfact> 0.82864020E+02</totfact>
</mgrwt>
</event>
<event>
 4    1  0.2581031E-004  0.4651673E+03  0.7818608E-02  0.1023293E+00
         -2   -1    0    0    0  501 -0.00000000000E+00  0.00000000000E+00  0.68857247779E+02  0.68857247826E+02  0.25500000000E-02 0. -1.
          2   -1    0    0  501    0  0.00000000000E+00 -0.00000000000E+00 -0.78561306010E+03  0.78561306010E+03  0.25500000000E-02 0.  1.
    5000001    1    1    2    0    0  0.16752585390E+03 -0.86499152823E+02 -0.26802999334E+03  0.35144856308E+03  0.12700000000E+03 0.  0.
   -5000001    1    1    2    0    0 -0.16752585390E+03  0.86499152823E+02 -0.44872581898E+03  0.50302174484E+03  0.12700000000E+03 0.  0.
<mgrwt>
<rscale>  0 0.46516730E+03</rscale>
<asrwt>0</asrwt>
<pdfrwt beam="1">  1        2 0.11223043E+00 0.46516730E+03</pdfrwt>
<pdfrwt beam="2">  1       -2 0.98367502E-02 0.46516730E+03</pdfrwt>
<totfact> 0.27318787E+03</totfact>
</mgrwt>
</event>
<event>
 4    1  0.2581031E-004  0.6516324E+03  0.7818608E-02  0.9803721E-01
         -2   -1    0    0    0  501 -0.00000000000E+00  0.00000000000E+00  0.20167160919E+03  0.20167160921E+03  0.25500000000E-02 0. -1.
          2   -1    0    0  501    0  0.00000000000E+00 -0.00000000000E+00 -0.52638149221E+03  0.52638149221E+03  0.25500000000E-02 0.  1.
    5000001    1    1    2    0    0  0.21014020622E+02 -0.29598211190E+03 -0.11263676103E+03  0.34185236515E+03  0.12700000000E+03 0.  0.
   -5000001    1    1    2    0    0 -0.21014020622E+02  0.29598211190E+03 -0.21207312199E+03  0.38620073627E+03  0.12700000000E+03 0.  0.
<mgrwt>
<rscale>  0 0.65163242E+03</rscale>
<asrwt>0</asrwt>
<pdfrwt beam="1">  1        2 0.75197355E-01 0.65163242E+03</pdfrwt>
<pdfrwt beam="2">  1       -2 0.28810230E-01 0.65163242E+03</pdfrwt>
<totfact> 0.70217931E+02</totfact>
</mgrwt>
</event>
<event>
 4    1  0.2581031E-004  0.6890027E+03  0.7818608E-02  0.9736226E-01
          2   -1    0    0  501    0  0.00000000000E+00  0.00000000000E+00  0.25004422903E+04  0.25004422903E+04  0.25500000000E-02 0.  1.
         -2   -1    0    0    0  501 -0.00000000000E+00 -0.00000000000E+00 -0.47464074412E+02  0.47464074480E+02  0.25500000000E-02 0. -1.
    5000001    1    1    2    0    0 -0.14513032802E+03  0.26189377605E+03  0.16465135032E+04  0.16783285967E+04  0.12700000000E+03 0.  0.
   -5000001    1    1    2    0    0  0.14513032802E+03 -0.26189377605E+03  0.80646471262E+03  0.86957776809E+03  0.12700000000E+03 0.  0.
<mgrwt>
<rscale>  0 0.68900270E+03</rscale>
<asrwt>0</asrwt>
<pdfrwt beam="1">  1        2 0.35720608E+00 0.68900270E+03</pdfrwt>
<pdfrwt beam="2">  1       -2 0.67805814E-02 0.68900270E+03</pdfrwt>
<totfact> 0.58517101E+02</totfact>
</mgrwt>
</event>
<event>
 4    1  0.2581031E-004  0.4007473E+03  0.7818608E-02  0.1043521E+00
          2   -1    0    0  501    0  0.00000000000E+00  0.00000000000E+00  0.16695658648E+04  0.16695658648E+04  0.25500000000E-02 0.  1.
         -2   -1    0    0    0  501 -0.00000000000E+00 -0.00000000000E+00 -0.24047930369E+02  0.24047930504E+02  0.25500000000E-02 0. -1.
    5000001    1    1    2    0    0 -0.52211237737E+01 -0.14816536637E+03  0.10136554784E+04  0.10322822602E+04  0.12700000000E+03 0.  0.
   -5000001    1    1    2    0    0  0.52211237737E+01  0.14816536637E+03  0.63186245608E+03  0.66133153511E+03  0.12700000000E+03 0.  0.
<mgrwt>
<rscale>  0 0.40074732E+03</rscale>
<asrwt>0</asrwt>
<pdfrwt beam="1">  1        2 0.23850945E+00 0.40074732E+03</pdfrwt>
<pdfrwt beam="2">  1       -2 0.34354180E-02 0.40074732E+03</pdfrwt>
<totfact> 0.44426523E+03</totfact>
</mgrwt>
</event>
<event>
 4    1  0.2581031E-004  0.3757552E+03  0.7818608E-02  0.1052514E+00
          2   -1    0    0  501    0  0.00000000000E+00  0.00000000000E+00  0.25448710921E+04  0.25448710921E+04  0.25500000000E-02 0.  1.
         -2   -1    0    0    0  501 -0.00000000000E+00 -0.00000000000E+00 -0.13870245999E+02  0.13870246234E+02  0.25500000000E-02 0. -1.
    5000001    1    1    2    0    0  0.32718054258E+02  0.99265532559E+02  0.18838205079E+04  0.18909872614E+04  0.12700000000E+03 0.  0.
   -5000001    1    1    2    0    0 -0.32718054258E+02 -0.99265532559E+02  0.64718033826E+03  0.66775407694E+03  0.12700000000E+03 0.  0.
<mgrwt>
<rscale>  0 0.37575518E+03</rscale>
<asrwt>0</asrwt>
<pdfrwt beam="1">  1        2 0.36355308E+00 0.37575518E+03</pdfrwt>
<pdfrwt beam="2">  1       -2 0.19814634E-02 0.37575518E+03</pdfrwt>
<totfact> 0.37150485E+03</totfact>
</mgrwt>
</event>
<event>
 4    1  0.2581031E-004  0.5463852E+03  0.7818608E-02  0.1002334E+00
          2   -1    0    0  501    0  0.00000000000E+00  0.00000000000E+00  0.56124505830E+02  0.56124505888E+02  0.25500000000E-02 0.  1.
         -2   -1    0    0    0  501 -0.00000000000E+00 -0.00000000000E+00 -0.13297970462E+04  0.13297970462E+04  0.25500000000E-02 0. -1.
    5000001    1    1    2    0    0 -0.16570837616E+03  0.17617556125E+03 -0.62961370874E+03  0.68632318666E+03  0.12700000000E+03 0.  0.
   -5000001    1    1    2    0    0  0.16570837616E+03 -0.17617556125E+03 -0.64405883158E+03  0.69959836538E+03  0.12700000000E+03 0.  0.
<mgrwt>
<rscale>  0 0.54638522E+03</rscale>
<asrwt>0</asrwt>
<pdfrwt beam="1">  1        2 0.80177874E-02 0.54638522E+03</pdfrwt>
<pdfrwt beam="2">  1       -2 0.18997099E+00 0.54638522E+03</pdfrwt>
<totfact> 0.14040926E+02</totfact>
</mgrwt>
</event>
<event>
 4    1  0.2581031E-004  0.3608214E+03  0.7818608E-02  0.1058259E+00
          2   -1    0    0  501    0  0.00000000000E+00  0.00000000000E+00  0.28662632631E+04  0.28662632631E+04  0.25500000000E-02 0.  1.
         -2   -1    0    0    0  501 -0.00000000000E+00 -0.00000000000E+00 -0.11355557526E+02  0.11355557812E+02  0.25500000000E-02 0. -1.
    5000001    1    1    2    0    0 -0.11252253993E+03 -0.22550228327E+02  0.18820524413E+04  0.18898201572E+04  0.12700000000E+03 0.  0.
   -5000001    1    1    2    0    0  0.11252253993E+03  0.22550228327E+02  0.97285526428E+03  0.98779866371E+03  0.12700000000E+03 0.  0.
<mgrwt>
<rscale>  0 0.36082138E+03</rscale>
<asrwt>0</asrwt>
<pdfrwt beam="1">  1        2 0.40946621E+00 0.36082138E+03</pdfrwt>
<pdfrwt beam="2">  1       -2 0.16222224E-02 0.36082138E+03</pdfrwt>
<totfact> 0.34140339E+03</totfact>
</mgrwt>
</event>
<event>
 4    1  0.2581031E-004  0.3598355E+03  0.7818608E-02  0.1058649E+00
          2   -1    0    0  501    0  0.00000000000E+00  0.00000000000E+00  0.10519275733E+03  0.10519275736E+03  0.25500000000E-02 0.  1.
         -2   -1    0    0    0  501 -0.00000000000E+00 -0.00000000000E+00 -0.30772452980E+03  0.30772452981E+03  0.25500000000E-02 0. -1.
    5000001    1    1    2    0    0  0.80442791064E+02 -0.98411223512E+02 -0.90650253976E+02  0.20125178283E+03  0.12700000000E+03 0.  0.
   -5000001    1    1    2    0    0 -0.80442791064E+02  0.98411223512E+02 -0.11188151850E+03  0.21166550434E+03  0.12700000000E+03 0.  0.
<mgrwt>
<rscale>  0 0.35983547E+03</rscale>
<asrwt>0</asrwt>
<pdfrwt beam="1">  1        2 0.15027537E-01 0.35983547E+03</pdfrwt>
<pdfrwt beam="2">  1       -2 0.43960647E-01 0.35983547E+03</pdfrwt>
<totfact> 0.19400888E+03</totfact>
</mgrwt>
</event>
<event>
 4    1  0.2581031E-004  0.5799006E+03  0.7818608E-02  0.9948006E-01
         -2   -1    0    0    0  501 -0.00000000000E+00  0.00000000000E+00  0.41840509458E+03  0.41840509459E+03  0.25500000000E-02 0. -1.
          2   -1    0    0  501    0  0.00000000000E+00 -0.00000000000E+00 -0.20093251773E+03  0.20093251775E+03  0.25500000000E-02 0.  1.
    5000001    1    1    2    0    0  0.23588509073E+01 -0.12089694456E+03 -0.13787967792E+03  0.22307272573E+03  0.12700000000E+03 0.  0.
   -5000001    1    1    2    0    0 -0.23588509073E+01  0.12089694456E+03  0.35535225477E+03  0.39626488660E+03  0.12700000000E+03 0.  0.
<mgrwt>
<rscale>  0 0.57990064E+03</rscale>
<asrwt>0</asrwt>
<pdfrwt beam="1">  1        2 0.28704645E-01 0.57990064E+03</pdfrwt>
<pdfrwt beam="2">  1       -2 0.59772156E-01 0.57990064E+03</pdfrwt>
<totfact> 0.49259941E+02</totfact>
</mgrwt>
</event>
<event>
 4    1  0.2581031E-004  0.3869510E+03  0.7818608E-02  0.1048394E+00
          2   -1    0    0  501    0  0.00000000000E+00  0.00000000000E+00  0.26888369694E+04  0.26888369694E+04  0.25500000000E-02 0.  1.
         -2   -1    0    0    0  501 -0.00000000000E+00 -0.00000000000E+00 -0.13921547105E+02  0.13921547338E+02  0.25500000000E-02 0. -1.
    5000001    1    1    2    0    0  0.57603224792E+02  0.12959144720E+03  0.10963372701E+04  0.11127427756E+04  0.12700000000E+03 0.  0.
   -5000001    1    1    2    0    0 -0.57603224792E+02 -0.12959144720E+03  0.15785781522E+04  0.15900157412E+04  0.12700000000E+03 0.  0.
<mgrwt>
<rscale>  0 0.38695101E+03</rscale>
<asrwt>0</asrwt>
<pdfrwt beam="1">  1        2 0.38411992E+00 0.38695101E+03</pdfrwt>
<pdfrwt beam="2">  1       -2 0.19887906E-02 0.38695101E+03</pdfrwt>
<totfact> 0.31173739E+03</totfact>
</mgrwt>
</event>
<event>
 4    1  0.2581031E-004  0.5198354E+03  0.7818608E-02  0.1008727E+00
          2   -1    0    0  501    0  0.00000000000E+00  0.00000000000E+00  0.21218161007E+04  0.21218161007E+04  0.25500000000E-02 0.  1.
         -2   -1    0    0    0  501 -0.00000000000E+00 -0.00000000000E+00 -0.31839336756E+02  0.31839336858E+02  0.25500000000E-02 0. -1.
    5000001    1    1    2    0    0 -0.21554842834E+03 -0.85697281512E+01  0.75516934908E+03  0.79557797292E+03  0.12700000000E+03 0.  0.
   -5000001    1    1    2    0    0  0.21554842834E+03  0.85697281512E+01  0.13348074149E+04  0.13580774647E+04  0.12700000000E+03 0.  0.
<mgrwt>
<rscale>  0 0.51983543E+03</rscale>
<asrwt>0</asrwt>
<pdfrwt beam="1">  1        2 0.30311656E+00 0.51983543E+03</pdfrwt>
<pdfrwt beam="2">  1       -2 0.45484771E-02 0.51983543E+03</pdfrwt>
<totfact> 0.17160369E+03</totfact>
</mgrwt>
</event>
<event>
 4    1  0.2581031E-004  0.4207738E+03  0.7818608E-02  0.1036815E+00
         -2   -1    0    0    0  501 -0.00000000000E+00  0.00000000000E+00  0.57063643481E+03  0.57063643481E+03  0.25500000000E-02 0. -1.
          2   -1    0    0  501    0  0.00000000000E+00 -0.00000000000E+00 -0.77567170761E+02  0.77567170803E+02  0.25500000000E-02 0.  1.
    5000001    1    1    2    0    0  0.16058315141E+03  0.43783420848E+02  0.21460057028E+03  0.29981050886E+03  0.12700000000E+03 0.  0.
   -5000001    1    1    2    0    0 -0.16058315141E+03 -0.43783420848E+02  0.27846869377E+03  0.34839309676E+03  0.12700000000E+03 0.  0.
<mgrwt>
<rscale>  0 0.42077383E+03</rscale>
<asrwt>0</asrwt>
<pdfrwt beam="1">  1        2 0.11081025E-01 0.42077383E+03</pdfrwt>
<pdfrwt beam="2">  1       -2 0.81519489E-01 0.42077383E+03</pdfrwt>
<totfact> 0.77602041E+02</totfact>
</mgrwt>
</event>
<event>
 4    1  0.2581031E-004  0.2859790E+03  0.7818608E-02  0.1092467E+00
          2   -1    0    0  501    0  0.00000000000E+00  0.00000000000E+00  0.94021917650E+03  0.94021917650E+03  0.25500000000E-02 0.  1.
         -2   -1    0    0    0  501 -0.00000000000E+00 -0.00000000000E+00 -0.21745987026E+02  0.21745987176E+02  0.25500000000E-02 0. -1.
    5000001    1    1    2    0    0 -0.50423290757E+02  0.16330564474E+02  0.32862044206E+03  0.35627179305E+03  0.12700000000E+03 0.  0.
   -5000001    1    1    2    0    0  0.50423290757E+02 -0.16330564474E+02  0.58985274741E+03  0.60569337062E+03  0.12700000000E+03 0.  0.
<mgrwt>
<rscale>  0 0.28597898E+03</rscale>
<asrwt>0</asrwt>
<pdfrwt beam="1">  1        2 0.13431705E+00 0.28597898E+03</pdfrwt>
<pdfrwt beam="2">  1       -2 0.31065689E-02 0.28597898E+03</pdfrwt>
<totfact> 0.12705452E+04</totfact>
</mgrwt>
</event>
<event>
 4    1  0.2581031E-004  0.2869140E+03  0.7818608E-02  0.1091971E+00
          2   -1    0    0  501    0  0.00000000000E+00  0.00000000000E+00  0.25801185898E+04  0.25801185898E+04  0.25500000000E-02 0.  1.
         -2   -1    0    0    0  501 -0.00000000000E+00 -0.00000000000E+00 -0.79763428347E+01  0.79763432423E+01  0.25500000000E-02 0. -1.
    5000001    1    1    2    0    0  0.30090892200E+01  0.65774606500E+02  0.13830389113E+04  0.13904175573E+04  0.12700000000E+03 0.  0.
   -5000001    1    1    2    0    0 -0.30090892200E+01 -0.65774606500E+02  0.11891033357E+04  0.11976773758E+04  0.12700000000E+03 0.  0.
<mgrwt>
<rscale>  0 0.28691400E+03</rscale>
<asrwt>0</asrwt>
<pdfrwt beam="1">  1        2 0.36858842E+00 0.28691400E+03</pdfrwt>
<pdfrwt beam="2">  1       -2 0.11394774E-02 0.28691400E+03</pdfrwt>
<totfact> 0.80606245E+03</totfact>
</mgrwt>
</event>
<event>
 4    1  0.2581031E-004  0.3318890E+03  0.7818608E-02  0.1070304E+00
          2   -1    0    0  501    0  0.00000000000E+00  0.00000000000E+00  0.23768810318E+04  0.23768810318E+04  0.25500000000E-02 0.  1.
         -2   -1    0    0    0  501 -0.00000000000E+00 -0.00000000000E+00 -0.11585591457E+02  0.11585591737E+02  0.25500000000E-02 0. -1.
    5000001    1    1    2    0    0 -0.95861474385E+02  0.35566856886E+02  0.14049451935E+04  0.14143742151E+04  0.12700000000E+03 0.  0.
   -5000001    1    1    2    0    0  0.95861474385E+02 -0.35566856886E+02  0.96035024684E+03  0.97409240844E+03  0.12700000000E+03 0.  0.
<mgrwt>
<rscale>  0 0.33188897E+03</rscale>
<asrwt>0</asrwt>
<pdfrwt beam="1">  1        2 0.33955502E+00 0.33188897E+03</pdfrwt>
<pdfrwt beam="2">  1       -2 0.16550817E-02 0.33188897E+03</pdfrwt>
<totfact> 0.58948262E+03</totfact>
</mgrwt>
</event>
<event>
 4    1  0.2581031E-004  0.4317265E+03  0.7818608E-02  0.1033316E+00
          2   -1    0    0  501    0  0.00000000000E+00  0.00000000000E+00  0.29062389788E+04  0.29062389788E+04  0.25500000000E-02 0.  1.
         -2   -1    0    0    0  501 -0.00000000000E+00 -0.00000000000E+00 -0.16033419705E+02  0.16033419908E+02  0.25500000000E-02 0. -1.
    5000001    1    1    2    0    0  0.11941429659E+03  0.89010809276E+02  0.20612220567E+04  0.20704946427E+04  0.12700000000E+03 0.  0.
   -5000001    1    1    2    0    0 -0.11941429659E+03 -0.89010809276E+02  0.82898350237E+03  0.85177775599E+03  0.12700000000E+03 0.  0.
<mgrwt>
<rscale>  0 0.43172653E+03</rscale>
<asrwt>0</asrwt>
<pdfrwt beam="1">  1        2 0.41517775E+00 0.43172653E+03</pdfrwt>
<pdfrwt beam="2">  1       -2 0.22904844E-02 0.43172653E+03</pdfrwt>
<totfact> 0.19378376E+03</totfact>
</mgrwt>
</event>
<event>
 4    1  0.2581031E-004  0.4202112E+03  0.7818608E-02  0.1036998E+00
          2   -1    0    0  501    0  0.00000000000E+00  0.00000000000E+00  0.13502138892E+03  0.13502138894E+03  0.25500000000E-02 0.  1.
         -2   -1    0    0    0  501 -0.00000000000E+00 -0.00000000000E+00 -0.32694349764E+03  0.32694349765E+03  0.25500000000E-02 0. -1.
    5000001    1    1    2    0    0 -0.13988317918E+03  0.71299343225E+02 -0.15972854692E+03  0.25747448197E+03  0.12700000000E+03 0.  0.
   -5000001    1    1    2    0    0  0.13988317918E+03 -0.71299343225E+02 -0.32193561807E+02  0.20449040463E+03  0.12700000000E+03 0.  0.
<mgrwt>
<rscale>  0 0.42021121E+03</rscale>
<asrwt>0</asrwt>
<pdfrwt beam="1">  1        2 0.19288770E-01 0.42021121E+03</pdfrwt>
<pdfrwt beam="2">  1       -2 0.46706214E-01 0.42021121E+03</pdfrwt>
<totfact> 0.12851018E+03</totfact>
</mgrwt>
</event>
<event>
 4    1  0.2581031E-004  0.3825648E+03  0.7818608E-02  0.1049990E+00
         -2   -1    0    0    0  501 -0.00000000000E+00  0.00000000000E+00  0.91725020366E+02  0.91725020402E+02  0.25500000000E-02 0. -1.
          2   -1    0    0  501    0  0.00000000000E+00 -0.00000000000E+00 -0.39889828678E+03  0.39889828679E+03  0.25500000000E-02 0.  1.
    5000001    1    1    2    0    0  0.74236139574E+02  0.42447117541E+01  0.31197320178E+01  0.14719971034E+03  0.12700000000E+03 0.  0.
   -5000001    1    1    2    0    0 -0.74236139574E+02 -0.42447117541E+01 -0.31029299843E+03  0.34342359685E+03  0.12700000000E+03 0.  0.
<mgrwt>
<rscale>  0 0.38256478E+03</rscale>
<asrwt>0</asrwt>
<pdfrwt beam="1">  1        2 0.56985468E-01 0.38256478E+03</pdfrwt>
<pdfrwt beam="2">  1       -2 0.13103575E-01 0.38256478E+03</pdfrwt>
<totfact> 0.37416185E+03</totfact>
</mgrwt>
</event>
<event>
 4    1  0.2581031E-004  0.3412461E+03  0.7818608E-02  0.1066266E+00
          2   -1    0    0  501    0  0.00000000000E+00  0.00000000000E+00  0.83452539130E+03  0.83452539131E+03  0.25500000000E-02 0.  1.
         -2   -1    0    0    0  501 -0.00000000000E+00 -0.00000000000E+00 -0.34884759904E+02  0.34884759997E+02  0.25500000000E-02 0. -1.
    5000001    1    1    2    0    0  0.32284360515E+02  0.70829690568E+02  0.61182160824E+03  0.62969342168E+03  0.12700000000E+03 0.  0.
   -5000001    1    1    2    0    0 -0.32284360515E+02 -0.70829690568E+02  0.18781902316E+03  0.23971672962E+03  0.12700000000E+03 0.  0.
<mgrwt>
<rscale>  0 0.34124606E+03</rscale>
<asrwt>0</asrwt>
<pdfrwt beam="1">  1        2 0.11921788E+00 0.34124606E+03</pdfrwt>
<pdfrwt beam="2">  1       -2 0.49835384E-02 0.34124606E+03</pdfrwt>
<totfact> 0.73050548E+03</totfact>
</mgrwt>
</event>
<event>
 4    1  0.2581031E-004  0.3430410E+03  0.7818608E-02  0.1065508E+00
          2   -1    0    0  501    0  0.00000000000E+00  0.00000000000E+00  0.41603529191E+03  0.41603529192E+03  0.25500000000E-02 0.  1.
         -2   -1    0    0    0  501 -0.00000000000E+00 -0.00000000000E+00 -0.70713436046E+02  0.70713436092E+02  0.25500000000E-02 0. -1.
    5000001    1    1    2    0    0  0.46440866384E+02  0.81301035724E+02  0.77226658656E+02  0.17566891953E+03  0.12700000000E+03 0.  0.
   -5000001    1    1    2    0    0 -0.46440866384E+02 -0.81301035724E+02  0.26809519721E+03  0.31107980848E+03  0.12700000000E+03 0.  0.
<mgrwt>
<rscale>  0 0.34304102E+03</rscale>
<asrwt>0</asrwt>
<pdfrwt beam="1">  1        2 0.59433615E-01 0.34304102E+03</pdfrwt>
<pdfrwt beam="2">  1       -2 0.10101919E-01 0.34304102E+03</pdfrwt>
<totfact> 0.54331048E+03</totfact>
</mgrwt>
</event>
<event>
 4    1  0.2581031E-004  0.4274332E+03  0.7818608E-02  0.1034674E+00
         -2   -1    0    0    0  501 -0.00000000000E+00  0.00000000000E+00  0.26125204331E+02  0.26125204456E+02  0.25500000000E-02 0. -1.
          2   -1    0    0  501    0  0.00000000000E+00 -0.00000000000E+00 -0.17483035751E+04  0.17483035751E+04  0.25500000000E-02 0.  1.
    5000001    1    1    2    0    0  0.53264660906E+02 -0.88181971356E+02 -0.14322987649E+04  0.14416039456E+04  0.12700000000E+03 0.  0.
   -5000001    1    1    2    0    0 -0.53264660906E+02  0.88181971356E+02 -0.28987960593E+03  0.33282483397E+03  0.12700000000E+03 0.  0.
<mgrwt>
<rscale>  0 0.42743321E+03</rscale>
<asrwt>0</asrwt>
<pdfrwt beam="1">  1        2 0.24975758E+00 0.42743321E+03</pdfrwt>
<pdfrwt beam="2">  1       -2 0.37321732E-02 0.42743321E+03</pdfrwt>
<totfact> 0.35774566E+03</totfact>
</mgrwt>
</event>
<event>
 4    1  0.2581031E-004  0.3445031E+03  0.7818608E-02  0.1064894E+00
         -2   -1    0    0    0  501 -0.00000000000E+00  0.00000000000E+00  0.12455952559E+04  0.12455952559E+04  0.25500000000E-02 0. -1.
          2   -1    0    0  501    0  0.00000000000E+00 -0.00000000000E+00 -0.23820412951E+02  0.23820413087E+02  0.25500000000E-02 0.  1.
    5000001    1    1    2    0    0 -0.50688339413E+02 -0.83309770318E+02  0.37691832259E+03  0.40951953249E+03  0.12700000000E+03 0.  0.
   -5000001    1    1    2    0    0  0.50688339413E+02  0.83309770318E+02  0.84485652040E+03  0.85989613655E+03  0.12700000000E+03 0.  0.
<mgrwt>
<rscale>  0 0.34450308E+03</rscale>
<asrwt>0</asrwt>
<pdfrwt beam="1">  1        2 0.34029146E-02 0.34450308E+03</pdfrwt>
<pdfrwt beam="2">  1       -2 0.17794226E+00 0.34450308E+03</pdfrwt>
<totfact> 0.53224101E+02</totfact>
</mgrwt>
</event>
<event>
 4    1  0.2581031E-004  0.3363325E+03  0.7818608E-02  0.1068369E+00
         -2   -1    0    0    0  501 -0.00000000000E+00  0.00000000000E+00  0.40150793998E+02  0.40150794079E+02  0.25500000000E-02 0.  1.
          2   -1    0    0  501    0  0.00000000000E+00 -0.00000000000E+00 -0.70434206210E+03  0.70434206210E+03  0.25500000000E-02 0. -1.
    5000001    1    1    2    0    0  0.95974776889E+02  0.43236418437E+02 -0.40451488616E+03  0.43685448241E+03  0.12700000000E+03 0.  0.
   -5000001    1    1    2    0    0 -0.95974776889E+02 -0.43236418437E+02 -0.25967638194E+03  0.30763837377E+03  0.12700000000E+03 0.  0.
<mgrwt>
<rscale>  0 0.33633253E+03</rscale>
<asrwt>0</asrwt>
<pdfrwt beam="1">  1        2 0.10062029E+00 0.33633253E+03</pdfrwt>
<pdfrwt beam="2">  1       -2 0.57358281E-02 0.33633253E+03</pdfrwt>
<totfact> 0.72538662E+03</totfact>
</mgrwt>
</event>
<event>
 4    1  0.2581031E-004  0.4196901E+03  0.7818608E-02  0.1037167E+00
          2   -1    0    0  501    0  0.00000000000E+00  0.00000000000E+00  0.22830946365E+04  0.22830946365E+04  0.25500000000E-02 0.  1.
         -2   -1    0    0    0  501 -0.00000000000E+00 -0.00000000000E+00 -0.19287389185E+02  0.19287389353E+02  0.25500000000E-02 0. -1.
    5000001    1    1    2    0    0  0.25793429024E+02 -0.10652149721E+03  0.44029142288E+03  0.47116628425E+03  0.12700000000E+03 0.  0.
   -5000001    1    1    2    0    0 -0.25793429024E+02  0.10652149721E+03  0.18235158244E+04  0.18312157416E+04  0.12700000000E+03 0.  0.
<mgrwt>
<rscale>  0 0.41969005E+03</rscale>
<asrwt>0</asrwt>
<pdfrwt beam="1">  1        2 0.32615647E+00 0.41969005E+03</pdfrwt>
<pdfrwt beam="2">  1       -2 0.27553405E-02 0.41969005E+03</pdfrwt>
<totfact> 0.30682956E+03</totfact>
</mgrwt>
</event>
<event>
 4    1  0.2581031E-004  0.3652331E+03  0.7818608E-02  0.1056531E+00
         -2   -1    0    0    0  501 -0.00000000000E+00  0.00000000000E+00  0.65814310470E+03  0.65814310470E+03  0.25500000000E-02 0. -1.
          2   -1    0    0  501    0  0.00000000000E+00 -0.00000000000E+00 -0.50671051045E+02  0.50671051109E+02  0.25500000000E-02 0.  1.
    5000001    1    1    2    0    0  0.11395228957E+02  0.12993800337E+03  0.27587697073E+03  0.33053114670E+03  0.12700000000E+03 0.  0.
   -5000001    1    1    2    0    0 -0.11395228957E+02 -0.12993800337E+03  0.33159508292E+03  0.37828300911E+03  0.12700000000E+03 0.  0.
<mgrwt>
<rscale>  0 0.36523309E+03</rscale>
<asrwt>0</asrwt>
<pdfrwt beam="1">  1        2 0.72387215E-02 0.36523309E+03</pdfrwt>
<pdfrwt beam="2">  1       -2 0.94020445E-01 0.36523309E+03</pdfrwt>
<totfact> 0.96336802E+02</totfact>
</mgrwt>
</event>
<event>
 4    1  0.2581031E-004  0.3351298E+03  0.7818608E-02  0.1068889E+00
         -2   -1    0    0    0  501 -0.00000000000E+00  0.00000000000E+00  0.45688938882E+02  0.45688938953E+02  0.25500000000E-02 0. -1.
          2   -1    0    0  501    0  0.00000000000E+00 -0.00000000000E+00 -0.61454694395E+03  0.61454694395E+03  0.25500000000E-02 0.  1.
    5000001    1    1    2    0    0  0.42466120497E+02 -0.29122597578E+02 -0.94465936484E+02  0.16644611812E+03  0.12700000000E+03 0.  0.
   -5000001    1    1    2    0    0 -0.42466120497E+02  0.29122597578E+02 -0.47439206858E+03  0.49378976479E+03  0.12700000000E+03 0.  0.
<mgrwt>
<rscale>  0 0.33512981E+03</rscale>
<asrwt>0</asrwt>
<pdfrwt beam="1">  1        2 0.87792416E-01 0.33512981E+03</pdfrwt>
<pdfrwt beam="2">  1       -2 0.65269916E-02 0.33512981E+03</pdfrwt>
<totfact> 0.69754180E+03</totfact>
</mgrwt>
</event>
<event>
 4    1  0.2581031E-004  0.9461004E+03  0.7818608E-02  0.9369720E-01
         -2   -1    0    0    0  501 -0.00000000000E+00  0.00000000000E+00  0.35001829058E+03  0.35001829059E+03  0.25500000000E-02 0. -1.
          2   -1    0    0  501    0  0.00000000000E+00 -0.00000000000E+00 -0.63932804288E+03  0.63932804288E+03  0.25500000000E-02 0.  1.
    5000001    1    1    2    0    0 -0.21617995901E+03 -0.37686934806E+03 -0.28835238205E+03  0.53669393179E+03  0.12700000000E+03 0.  0.
   -5000001    1    1    2    0    0  0.21617995901E+03  0.37686934806E+03 -0.95737024094E+00  0.45265240168E+03  0.12700000000E+03 0.  0.
<mgrwt>
<rscale>  0 0.94610044E+03</rscale>
<asrwt>0</asrwt>
<pdfrwt beam="1">  1        2 0.91332578E-01 0.94610044E+03</pdfrwt>
<pdfrwt beam="2">  1       -2 0.50002613E-01 0.94610044E+03</pdfrwt>
<totfact> 0.19041503E+02</totfact>
</mgrwt>
</event>
<event>
 4    1  0.2581031E-004  0.3468766E+03  0.7818608E-02  0.1063904E+00
         -2   -1    0    0    0  501 -0.00000000000E+00  0.00000000000E+00  0.86063034753E+02  0.86063034791E+02  0.25500000000E-02 0. -1.
          2   -1    0    0  501    0  0.00000000000E+00 -0.00000000000E+00 -0.34952110186E+03  0.34952110187E+03  0.25500000000E-02 0.  1.
    5000001    1    1    2    0    0  0.39168668827E+02 -0.96540060591E+02 -0.20161906319E+03  0.26006425083E+03  0.12700000000E+03 0.  0.
   -5000001    1    1    2    0    0 -0.39168668827E+02  0.96540060591E+02 -0.61839003914E+02  0.17551988583E+03  0.12700000000E+03 0.  0.
<mgrwt>
<rscale>  0 0.34687662E+03</rscale>
<asrwt>0</asrwt>
<pdfrwt beam="1">  1        2 0.49931585E-01 0.34687662E+03</pdfrwt>
<pdfrwt beam="2">  1       -2 0.12294719E-01 0.34687662E+03</pdfrwt>
<totfact> 0.47852096E+03</totfact>
</mgrwt>
</event>
<event>
 4    1  0.2581031E-004  0.6382604E+03  0.7818608E-02  0.9829061E-01
          2   -1    0    0  501    0  0.00000000000E+00  0.00000000000E+00  0.10926273945E+04  0.10926273945E+04  0.25500000000E-02 0.  1.
         -2   -1    0    0    0  501 -0.00000000000E+00 -0.00000000000E+00 -0.93210254732E+02  0.93210254767E+02  0.25500000000E-02 0. -1.
    5000001    1    1    2    0    0 -0.58817434660E+02 -0.23471649012E+03  0.19349652982E+03  0.33484508120E+03  0.12700000000E+03 0.  0.
   -5000001    1    1    2    0    0  0.58817434660E+02  0.23471649012E+03  0.80592060990E+03  0.85099256802E+03  0.12700000000E+03 0.  0.
<mgrwt>
<rscale>  0 0.63826038E+03</rscale>
<asrwt>0</asrwt>
<pdfrwt beam="1">  1        2 0.15608961E+00 0.63826038E+03</pdfrwt>
<pdfrwt beam="2">  1       -2 0.13315752E-01 0.63826038E+03</pdfrwt>
<totfact> 0.10628035E+03</totfact>
</mgrwt>
</event>
<event>
 4    1  0.2581031E-004  0.6460890E+03  0.7818608E-02  0.9814146E-01
         -2   -1    0    0    0  501 -0.00000000000E+00  0.00000000000E+00  0.20956539258E+03  0.20956539259E+03  0.25500000000E-02 0. -1.
          2   -1    0    0  501    0  0.00000000000E+00 -0.00000000000E+00 -0.49797229345E+03  0.49797229345E+03  0.25500000000E-02 0.  1.
    5000001    1    1    2    0    0  0.28936873078E+03  0.31804804133E+02 -0.20883296695E+03  0.38011316210E+03  0.12700000000E+03 0.  0.
   -5000001    1    1    2    0    0 -0.28936873078E+03 -0.31804804133E+02 -0.79573933921E+02  0.32742452394E+03  0.12700000000E+03 0.  0.
<mgrwt>
<rscale>  0 0.64608903E+03</rscale>
<asrwt>0</asrwt>
<pdfrwt beam="1">  1        2 0.71138899E-01 0.64608903E+03</pdfrwt>
<pdfrwt beam="2">  1       -2 0.29937913E-01 0.64608903E+03</pdfrwt>
<totfact> 0.69717544E+02</totfact>
</mgrwt>
</event>
<event>
 4    1  0.2581031E-004  0.3033456E+03  0.7818608E-02  0.1083580E+00
          2   -1    0    0  501    0  0.00000000000E+00  0.00000000000E+00  0.37626407668E+03  0.37626407669E+03  0.25500000000E-02 0.  1.
         -2   -1    0    0    0  501 -0.00000000000E+00 -0.00000000000E+00 -0.61139601827E+02  0.61139601880E+02  0.25500000000E-02 0. -1.
    5000001    1    1    2    0    0 -0.22988916286E+02 -0.37596706365E+02  0.56281189821E+02  0.14573460443E+03  0.12700000000E+03 0.  0.
   -5000001    1    1    2    0    0  0.22988916286E+02  0.37596706365E+02  0.25884328503E+03  0.29166907413E+03  0.12700000000E+03 0.  0.
<mgrwt>
<rscale>  0 0.30334558E+03</rscale>
<asrwt>0</asrwt>
<pdfrwt beam="1">  1        2 0.53752012E-01 0.30334558E+03</pdfrwt>
<pdfrwt beam="2">  1       -2 0.87342287E-02 0.30334558E+03</pdfrwt>
<totfact> 0.76060687E+03</totfact>
</mgrwt>
</event>
<event>
 4    1  0.2581031E-004  0.4202204E+03  0.7818608E-02  0.1036995E+00
         -2   -1    0    0    0  501 -0.00000000000E+00  0.00000000000E+00  0.97792353898E+02  0.97792353931E+02  0.25500000000E-02 0. -1.
          2   -1    0    0  501    0  0.00000000000E+00 -0.00000000000E+00 -0.45142892834E+03  0.45142892835E+03  0.25500000000E-02 0.  1.
    5000001    1    1    2    0    0  0.13554160005E+03 -0.56834664617E+02 -0.72132282771E+02  0.20720465889E+03  0.12700000000E+03 0.  0.
   -5000001    1    1    2    0    0 -0.13554160005E+03  0.56834664617E+02 -0.28150429168E+03  0.34201662340E+03  0.12700000000E+03 0.  0.
<mgrwt>
<rscale>  0 0.42022041E+03</rscale>
<asrwt>0</asrwt>
<pdfrwt beam="1">  1        2 0.64489846E-01 0.42022041E+03</pdfrwt>
<pdfrwt beam="2">  1       -2 0.13970336E-01 0.42022041E+03</pdfrwt>
<totfact> 0.29424325E+03</totfact>
</mgrwt>
</event>
<event>
 4    1  0.2581031E-004  0.4997369E+03  0.7818608E-02  0.1013848E+00
         -2   -1    0    0    0  501 -0.00000000000E+00  0.00000000000E+00  0.16432886543E+03  0.16432886545E+03  0.25500000000E-02 0. -1.
          2   -1    0    0  501    0  0.00000000000E+00 -0.00000000000E+00 -0.37993476401E+03  0.37993476402E+03  0.25500000000E-02 0.  1.
    5000001    1    1    2    0    0  0.20132884267E+03  0.65438989184E+02 -0.65767564716E+02  0.25547981675E+03  0.12700000000E+03 0.  0.
   -5000001    1    1    2    0    0 -0.20132884267E+03 -0.65438989184E+02 -0.14983833387E+03  0.28878381273E+03  0.12700000000E+03 0.  0.
<mgrwt>
<rscale>  0 0.49973693E+03</rscale>
<asrwt>0</asrwt>
<pdfrwt beam="1">  1        2 0.54276395E-01 0.49973693E+03</pdfrwt>
<pdfrwt beam="2">  1       -2 0.23475552E-01 0.49973693E+03</pdfrwt>
<totfact> 0.14668242E+03</totfact>
</mgrwt>
</event>
<event>
 4    1  0.2581031E-004  0.9809481E+03  0.7818608E-02  0.9329691E-01
          2   -1    0    0  501    0  0.00000000000E+00  0.00000000000E+00  0.22786805425E+04  0.22786805425E+04  0.25500000000E-02 0.  1.
         -2   -1    0    0    0  501 -0.00000000000E+00 -0.00000000000E+00 -0.10557197293E+03  0.10557197296E+03  0.25500000000E-02 0. -1.
    5000001    1    1    2    0    0  0.40095349640E+03  0.50991211811E+02  0.16872122645E+04  0.17395913415E+04  0.12700000000E+03 0.  0.
   -5000001    1    1    2    0    0 -0.40095349640E+03 -0.50991211811E+02  0.48589630514E+03  0.64466117403E+03  0.12700000000E+03 0.  0.
<mgrwt>
<rscale>  0 0.98094811E+03</rscale>
<asrwt>0</asrwt>
<pdfrwt beam="1">  1        2 0.32552583E+00 0.98094811E+03</pdfrwt>
<pdfrwt beam="2">  1       -2 0.15081709E-01 0.98094811E+03</pdfrwt>
<totfact> 0.20143839E+02</totfact>
</mgrwt>
</event>
<event>
 4    1  0.2581031E-004  0.3243508E+03  0.7818608E-02  0.1073664E+00
         -2   -1    0    0    0  501 -0.00000000000E+00  0.00000000000E+00  0.15374254009E+02  0.15374254221E+02  0.25500000000E-02 0. -1.
          2   -1    0    0  501    0  0.00000000000E+00 -0.00000000000E+00 -0.17107075300E+04  0.17107075300E+04  0.25500000000E-02 0.  1.
    5000001    1    1    2    0    0 -0.34494324281E+02  0.85204663277E+02 -0.10685093720E+04  0.10799495224E+04  0.12700000000E+03 0.  0.
   -5000001    1    1    2    0    0  0.34494324281E+02 -0.85204663277E+02 -0.62682390401E+03  0.64613226176E+03  0.12700000000E+03 0.  0.
<mgrwt>
<rscale>  0 0.32435075E+03</rscale>
<asrwt>0</asrwt>
<pdfrwt beam="1">  1        2 0.24438667E+00 0.32435075E+03</pdfrwt>
<pdfrwt beam="2">  1       -2 0.21963231E-02 0.32435075E+03</pdfrwt>
<totfact> 0.82648074E+03</totfact>
</mgrwt>
</event>
<event>
 4    1  0.2581031E-004  0.6419596E+03  0.7818608E-02  0.9821984E-01
          2   -1    0    0  501    0  0.00000000000E+00  0.00000000000E+00  0.14969618178E+04  0.14969618178E+04  0.25500000000E-02 0.  1.
         -2   -1    0    0    0  501 -0.00000000000E+00 -0.00000000000E+00 -0.68824755070E+02  0.68824755118E+02  0.25500000000E-02 0. -1.
    5000001    1    1    2    0    0  0.23131976647E+02 -0.29161272515E+03  0.62525273921E+03  0.70188535937E+03  0.12700000000E+03 0.  0.
   -5000001    1    1    2    0    0 -0.23131976647E+02  0.29161272515E+03  0.80288432352E+03  0.86390121355E+03  0.12700000000E+03 0.  0.
<mgrwt>
<rscale>  0 0.64195960E+03</rscale>
<asrwt>0</asrwt>
<pdfrwt beam="1">  1        2 0.21385170E+00 0.64195960E+03</pdfrwt>
<pdfrwt beam="2">  1       -2 0.98321072E-02 0.64195960E+03</pdfrwt>
<totfact> 0.10492708E+03</totfact>
</mgrwt>
</event>
<event>
 4    1  0.2581031E-004  0.1021100E+04  0.7818608E-02  0.9285701E-01
         -2   -1    0    0    0  501 -0.00000000000E+00  0.00000000000E+00  0.31439638124E+03  0.31439638125E+03  0.25500000000E-02 0. -1.
          2   -1    0    0  501    0  0.00000000000E+00 -0.00000000000E+00 -0.82908416817E+03  0.82908416817E+03  0.25500000000E-02 0.  1.
    5000001    1    1    2    0    0  0.42847103453E+03 -0.24641215628E+03 -0.27416719078E+03  0.57931254664E+03  0.12700000000E+03 0.  0.
   -5000001    1    1    2    0    0 -0.42847103453E+03  0.24641215628E+03 -0.24052059616E+03  0.56416800279E+03  0.12700000000E+03 0.  0.
<mgrwt>
<rscale>  0 0.10210995E+04</rscale>
<asrwt>0</asrwt>
<pdfrwt beam="1">  1        2 0.11844059E+00 0.10210995E+04</pdfrwt>
<pdfrwt beam="2">  1       -2 0.44913769E-01 0.10210995E+04</pdfrwt>
<totfact> 0.16996487E+02</totfact>
</mgrwt>
</event>
<event>
 4    1  0.2581031E-004  0.3196958E+03  0.7818608E-02  0.1075789E+00
          2   -1    0    0  501    0  0.00000000000E+00  0.00000000000E+00  0.30364015603E+03  0.30364015604E+03  0.25500000000E-02 0.  1.
         -2   -1    0    0    0  501 -0.00000000000E+00 -0.00000000000E+00 -0.84150087360E+02  0.84150087399E+02  0.25500000000E-02 0. -1.
    5000001    1    1    2    0    0 -0.61824829494E+02 -0.68032178271E+02  0.14755592415E+03  0.21529616247E+03  0.12700000000E+03 0.  0.
   -5000001    1    1    2    0    0  0.61824829494E+02  0.68032178271E+02  0.71934144521E+02  0.17249408097E+03  0.12700000000E+03 0.  0.
<mgrwt>
<rscale>  0 0.31969577E+03</rscale>
<asrwt>0</asrwt>
<pdfrwt beam="1">  1        2 0.43377166E-01 0.31969577E+03</pdfrwt>
<pdfrwt beam="2">  1       -2 0.12021441E-01 0.31969577E+03</pdfrwt>
<totfact> 0.57665094E+03</totfact>
</mgrwt>
</event>
<event>
 4    1  0.2581031E-004  0.5228442E+03  0.7818608E-02  0.1007982E+00
         -2   -1    0    0    0  501 -0.00000000000E+00  0.00000000000E+00  0.26130650262E+03  0.26130650263E+03  0.25500000000E-02 0. -1.
          2   -1    0    0  501    0  0.00000000000E+00 -0.00000000000E+00 -0.26153777655E+03  0.26153777656E+03  0.25500000000E-02 0.  1.
    5000001    1    1    2    0    0  0.19379881509E+03 -0.95198464594E+02  0.74662664715E+02  0.26138906231E+03  0.12700000000E+03 0.  0.
   -5000001    1    1    2    0    0 -0.19379881509E+03  0.95198464594E+02 -0.74893938640E+02  0.26145521689E+03  0.12700000000E+03 0.  0.
<mgrwt>
<rscale>  0 0.52284423E+03</rscale>
<asrwt>0</asrwt>
<pdfrwt beam="1">  1        2 0.37362539E-01 0.52284423E+03</pdfrwt>
<pdfrwt beam="2">  1       -2 0.37329501E-01 0.52284423E+03</pdfrwt>
<totfact> 0.94277171E+02</totfact>
</mgrwt>
</event>
<event>
 4    1  0.2581031E-004  0.1114922E+04  0.7818608E-02  0.9190769E-01
         -2   -1    0    0    0  501 -0.00000000000E+00  0.00000000000E+00  0.22079638464E+03  0.22079638466E+03  0.25500000000E-02 0. -1.
          2   -1    0    0  501    0  0.00000000000E+00 -0.00000000000E+00 -0.14074631991E+04  0.14074631991E+04  0.25500000000E-02 0.  1.
    5000001    1    1    2    0    0 -0.82261958838E+02  0.51307700026E+03 -0.36418748973E+03  0.64712948144E+03  0.12700000000E+03 0.  0.
   -5000001    1    1    2    0    0  0.82261958838E+02 -0.51307700026E+03 -0.82247932471E+03  0.98113010230E+03  0.12700000000E+03 0.  0.
<mgrwt>
<rscale>  0 0.11149220E+04</rscale>
<asrwt>0</asrwt>
<pdfrwt beam="1">  1        2 0.20106617E+00 0.11149220E+04</pdfrwt>
<pdfrwt beam="2">  1       -2 0.31542342E-01 0.11149220E+04</pdfrwt>
<totfact> 0.15152087E+02</totfact>
</mgrwt>
</event>
<event>
 4    1  0.2581031E-004  0.6251944E+03  0.7818608E-02  0.9854472E-01
         -2   -1    0    0    0  501 -0.00000000000E+00  0.00000000000E+00  0.84319555243E+02  0.84319555282E+02  0.25500000000E-02 0. -1.
          2   -1    0    0  501    0  0.00000000000E+00 -0.00000000000E+00 -0.11588891912E+04  0.11588891912E+04  0.25500000000E-02 0.  1.
    5000001    1    1    2    0    0 -0.27174099242E+03  0.56322482330E+02 -0.67175069470E+03  0.73783018697E+03  0.12700000000E+03 0.  0.
   -5000001    1    1    2    0    0  0.27174099242E+03 -0.56322482330E+02 -0.40281894124E+03  0.50537855950E+03  0.12700000000E+03 0.  0.
<mgrwt>
<rscale>  0 0.62519444E+03</rscale>
<asrwt>0</asrwt>
<pdfrwt beam="1">  1        2 0.16555559E+00 0.62519444E+03</pdfrwt>
<pdfrwt beam="2">  1       -2 0.12045651E-01 0.62519444E+03</pdfrwt>
<totfact> 0.11494776E+03</totfact>
</mgrwt>
</event>
<event>
 4    1  0.2581031E-004  0.4609627E+03  0.7818608E-02  0.1024502E+00
          2   -1    0    0  501    0  0.00000000000E+00  0.00000000000E+00  0.66798098260E+02  0.66798098309E+02  0.25500000000E-02 0.  1.
         -2   -1    0    0    0  501 -0.00000000000E+00 -0.00000000000E+00 -0.79525711714E+03  0.79525711715E+03  0.25500000000E-02 0. -1.
    5000001    1    1    2    0    0  0.45049742800E+02 -0.15910430856E+03 -0.54793006577E+03  0.58625934304E+03  0.12700000000E+03 0.  0.
   -5000001    1    1    2    0    0 -0.45049742800E+02  0.15910430856E+03 -0.18052895311E+03  0.27579587241E+03  0.12700000000E+03 0.  0.
<mgrwt>
<rscale>  0 0.46096275E+03</rscale>
<asrwt>0</asrwt>
<pdfrwt beam="1">  1        2 0.95425859E-02 0.46096275E+03</pdfrwt>
<pdfrwt beam="2">  1       -2 0.11360815E+00 0.46096275E+03</pdfrwt>
<totfact> 0.43305129E+02</totfact>
</mgrwt>
</event>
<event>
 4    1  0.2581031E-004  0.5184013E+03  0.7818608E-02  0.1009084E+00
         -2   -1    0    0    0  501 -0.00000000000E+00  0.00000000000E+00  0.30802190766E+02  0.30802190872E+02  0.25500000000E-02 0. -1.
          2   -1    0    0  501    0  0.00000000000E+00 -0.00000000000E+00 -0.21811754772E+04  0.21811754772E+04  0.25500000000E-02 0.  1.
    5000001    1    1    2    0    0  0.16393057326E+03 -0.50107967544E+02 -0.17033369129E+04  0.17166448906E+04  0.12700000000E+03 0.  0.
   -5000001    1    1    2    0    0 -0.16393057326E+03  0.50107967544E+02 -0.44703637344E+03  0.49533277747E+03  0.12700000000E+03 0.  0.
<mgrwt>
<rscale>  0 0.51840132E+03</rscale>
<asrwt>0</asrwt>
<pdfrwt beam="1">  1        2 0.31159640E+00 0.51840132E+03</pdfrwt>
<pdfrwt beam="2">  1       -2 0.44003144E-02 0.51840132E+03</pdfrwt>
<totfact> 0.16864608E+03</totfact>
</mgrwt>
</event>
<event>
 4    1  0.2581031E-004  0.5030461E+03  0.7818608E-02  0.1012987E+00
         -2   -1    0    0    0  501 -0.00000000000E+00  0.00000000000E+00  0.16636739640E+03  0.16636739642E+03  0.25500000000E-02 0. -1.
          2   -1    0    0  501    0  0.00000000000E+00 -0.00000000000E+00 -0.38026582744E+03  0.38026582745E+03  0.25500000000E-02 0.  1.
    5000001    1    1    2    0    0  0.24890569442E+02  0.21561466844E+03 -0.10145010055E+03  0.27116479969E+03  0.12700000000E+03 0.  0.
   -5000001    1    1    2    0    0 -0.24890569442E+02 -0.21561466844E+03 -0.11244833049E+03  0.27546842418E+03  0.12700000000E+03 0.  0.
<mgrwt>
<rscale>  0 0.50304606E+03</rscale>
<asrwt>0</asrwt>
<pdfrwt beam="1">  1        2 0.54323689E-01 0.50304606E+03</pdfrwt>
<pdfrwt beam="2">  1       -2 0.23766771E-01 0.50304606E+03</pdfrwt>
<totfact> 0.14337322E+03</totfact>
</mgrwt>
</event>
<event>
 4    1  0.2581031E-004  0.4677471E+03  0.7818608E-02  0.1022558E+00
         -2   -1    0    0    0  501 -0.00000000000E+00  0.00000000000E+00  0.19119853865E+02  0.19119854035E+02  0.25500000000E-02 0. -1.
          2   -1    0    0  501    0  0.00000000000E+00 -0.00000000000E+00 -0.28607347175E+04  0.28607347175E+04  0.25500000000E-02 0.  1.
    5000001    1    1    2    0    0 -0.16127088970E+03 -0.93832057661E+02 -0.17980917859E+04  0.18122019273E+04  0.12700000000E+03 0.  0.
   -5000001    1    1    2    0    0  0.16127088970E+03  0.93832057661E+02 -0.10435230777E+04  0.10676526441E+04  0.12700000000E+03 0.  0.
<mgrwt>
<rscale>  0 0.46774707E+03</rscale>
<asrwt>0</asrwt>
<pdfrwt beam="1">  1        2 0.40867612E+00 0.46774707E+03</pdfrwt>
<pdfrwt beam="2">  1       -2 0.27314095E-02 0.46774707E+03</pdfrwt>
<totfact> 0.15682212E+03</totfact>
</mgrwt>
</event>
<event>
 4    1  0.2581031E-004  0.3235646E+03  0.7818608E-02  0.1074020E+00
         -2   -1    0    0    0  501 -0.00000000000E+00  0.00000000000E+00  0.30807559061E+02  0.30807559167E+02  0.25500000000E-02 0. -1.
          2   -1    0    0  501    0  0.00000000000E+00 -0.00000000000E+00 -0.84958071724E+03  0.84958071725E+03  0.25500000000E-02 0.  1.
    5000001    1    1    2    0    0  0.76083627364E+02 -0.63705088048E+02 -0.44762003789E+03  0.47575177868E+03  0.12700000000E+03 0.  0.
   -5000001    1    1    2    0    0 -0.76083627364E+02  0.63705088048E+02 -0.37115312030E+03  0.40463649774E+03  0.12700000000E+03 0.  0.
<mgrwt>
<rscale>  0 0.32356457E+03</rscale>
<asrwt>0</asrwt>
<pdfrwt beam="1">  1        2 0.12136866E+00 0.32356457E+03</pdfrwt>
<pdfrwt beam="2">  1       -2 0.44010804E-02 0.32356457E+03</pdfrwt>
<totfact> 0.86163580E+03</totfact>
</mgrwt>
</event>
<event>
 4    1  0.2581031E-004  0.3824748E+03  0.7818608E-02  0.1050023E+00
         -2   -1    0    0    0  501 -0.00000000000E+00  0.00000000000E+00  0.26419882035E+02  0.26419882158E+02  0.25500000000E-02 0. -1.
          2   -1    0    0  501    0  0.00000000000E+00 -0.00000000000E+00 -0.13842506109E+04  0.13842506109E+04  0.25500000000E-02 0.  1.
    5000001    1    1    2    0    0 -0.94140292279E+02 -0.81085447558E+02 -0.41797201180E+03  0.45416610077E+03  0.12700000000E+03 0.  0.
   -5000001    1    1    2    0    0  0.94140292279E+02  0.81085447558E+02 -0.93985871706E+03  0.95650439229E+03  0.12700000000E+03 0.  0.
<mgrwt>
<rscale>  0 0.38247477E+03</rscale>
<asrwt>0</asrwt>
<pdfrwt beam="1">  1        2 0.19775004E+00 0.38247477E+03</pdfrwt>
<pdfrwt beam="2">  1       -2 0.37742697E-02 0.38247477E+03</pdfrwt>
<totfact> 0.53901534E+03</totfact>
</mgrwt>
</event>
<event>
 4    1  0.2581031E-004  0.3314954E+03  0.7818608E-02  0.1070477E+00
          2   -1    0    0  501    0  0.00000000000E+00  0.00000000000E+00  0.69972695419E+03  0.69972695420E+03  0.25500000000E-02 0.  1.
         -2   -1    0    0    0  501 -0.00000000000E+00 -0.00000000000E+00 -0.39261454876E+02  0.39261454959E+02  0.25500000000E-02 0. -1.
    5000001    1    1    2    0    0  0.69593679704E+02  0.19807941078E+02  0.50445261945E+03  0.52520194216E+03  0.12700000000E+03 0.  0.
   -5000001    1    1    2    0    0 -0.69593679704E+02 -0.19807941078E+02  0.15601287987E+03  0.21378646699E+03  0.12700000000E+03 0.  0.
<mgrwt>
<rscale>  0 0.33149539E+03</rscale>
<asrwt>0</asrwt>
<pdfrwt beam="1">  1        2 0.99960991E-01 0.33149539E+03</pdfrwt>
<pdfrwt beam="2">  1       -2 0.56087794E-02 0.33149539E+03</pdfrwt>
<totfact> 0.75642163E+03</totfact>
</mgrwt>
</event>
<event>
 4    1  0.2581031E-004  0.3541313E+03  0.7818608E-02  0.1060932E+00
          2   -1    0    0  501    0  0.00000000000E+00  0.00000000000E+00  0.10207760768E+04  0.10207760769E+04  0.25500000000E-02 0.  1.
         -2   -1    0    0    0  501 -0.00000000000E+00 -0.00000000000E+00 -0.30714129263E+02  0.30714129369E+02  0.25500000000E-02 0. -1.
    5000001    1    1    2    0    0 -0.11522208154E+03 -0.44053923770E+02  0.48753575921E+03  0.51868776040E+03  0.12700000000E+03 0.  0.
   -5000001    1    1    2    0    0  0.11522208154E+03  0.44053923770E+02  0.50252618837E+03  0.53280244582E+03  0.12700000000E+03 0.  0.
<mgrwt>
<rscale>  0 0.35413132E+03</rscale>
<asrwt>0</asrwt>
<pdfrwt beam="1">  1        2 0.14582513E+00 0.35413132E+03</pdfrwt>
<pdfrwt beam="2">  1       -2 0.43877336E-02 0.35413132E+03</pdfrwt>
<totfact> 0.67978654E+03</totfact>
</mgrwt>
</event>
<event>
 4    1  0.2581031E-004  0.3713943E+03  0.7818608E-02  0.1054161E+00
         -2   -1    0    0    0  501 -0.00000000000E+00  0.00000000000E+00  0.21062935737E+02  0.21062935891E+02  0.25500000000E-02 0. -1.
          2   -1    0    0  501    0  0.00000000000E+00 -0.00000000000E+00 -0.16371615282E+04  0.16371615282E+04  0.25500000000E-02 0.  1.
    5000001    1    1    2    0    0  0.84823838507E+02  0.10430198992E+03 -0.88281935178E+03  0.90198281390E+03  0.12700000000E+03 0.  0.
   -5000001    1    1    2    0    0 -0.84823838507E+02 -0.10430198992E+03 -0.73327924069E+03  0.75624165020E+03  0.12700000000E+03 0.  0.
<mgrwt>
<rscale>  0 0.37139428E+03</rscale>
<asrwt>0</asrwt>
<pdfrwt beam="1">  1        2 0.23388014E+00 0.37139428E+03</pdfrwt>
<pdfrwt beam="2">  1       -2 0.30089919E-02 0.37139428E+03</pdfrwt>
<totfact> 0.56305342E+03</totfact>
</mgrwt>
</event>
<event>
 4    1  0.2581031E-004  0.5045427E+03  0.7818608E-02  0.1012600E+00
          2   -1    0    0  501    0  0.00000000000E+00  0.00000000000E+00  0.59872315007E+03  0.59872315008E+03  0.25500000000E-02 0. -1.
         -2   -1    0    0    0  501 -0.00000000000E+00 -0.00000000000E+00 -0.10629425819E+03  0.10629425822E+03  0.25500000000E-02 0.  1.
    5000001    1    1    2    0    0  0.15901697370E+03  0.23216980815E+00  0.45453231625E+03  0.49801112271E+03  0.12700000000E+03 0.  0.
   -5000001    1    1    2    0    0 -0.15901697370E+03 -0.23216980815E+00  0.37896575632E+02  0.20700628558E+03  0.12700000000E+03 0.  0.
<mgrwt>
<rscale>  0 0.50454270E+03</rscale>
<asrwt>0</asrwt>
<pdfrwt beam="1">  1        2 0.85531881E-01 0.50454270E+03</pdfrwt>
<pdfrwt beam="2">  1       -2 0.15184894E-01 0.50454270E+03</pdfrwt>
<totfact> 0.18606714E+03</totfact>
</mgrwt>
</event>
<event>
 4    1  0.2581031E-004  0.3655363E+03  0.7818608E-02  0.1056413E+00
          2   -1    0    0  501    0  0.00000000000E+00  0.00000000000E+00  0.96564021131E+03  0.96564021132E+03  0.25500000000E-02 0.  1.
         -2   -1    0    0    0  501 -0.00000000000E+00 -0.00000000000E+00 -0.34592791928E+02  0.34592792022E+02  0.25500000000E-02 0. -1.
    5000001    1    1    2    0    0  0.88642516491E+02  0.80580995484E+02  0.31754849661E+03  0.36237665524E+03  0.12700000000E+03 0.  0.
   -5000001    1    1    2    0    0 -0.88642516491E+02 -0.80580995484E+02  0.61349892278E+03  0.63785634810E+03  0.12700000000E+03 0.  0.
<mgrwt>
<rscale>  0 0.36553627E+03</rscale>
<asrwt>0</asrwt>
<pdfrwt beam="1">  1        2 0.13794860E+00 0.36553627E+03</pdfrwt>
<pdfrwt beam="2">  1       -2 0.49418275E-02 0.36553627E+03</pdfrwt>
<totfact> 0.61215738E+03</totfact>
</mgrwt>
</event>
<event>
 4    1  0.2581031E-004  0.3846109E+03  0.7818608E-02  0.1049243E+00
         -2   -1    0    0    0  501 -0.00000000000E+00  0.00000000000E+00  0.11891038788E+03  0.11891038790E+03  0.25500000000E-02 0. -1.
          2   -1    0    0  501    0  0.00000000000E+00 -0.00000000000E+00 -0.31100209819E+03  0.31100209820E+03  0.25500000000E-02 0.  1.
    5000001    1    1    2    0    0  0.11204919210E+03 -0.69646264579E+02 -0.30421687506E+02  0.18563432520E+03  0.12700000000E+03 0.  0.
   -5000001    1    1    2    0    0 -0.11204919210E+03  0.69646264579E+02 -0.16167002280E+03  0.24427816090E+03  0.12700000000E+03 0.  0.
<mgrwt>
<rscale>  0 0.38461087E+03</rscale>
<asrwt>0</asrwt>
<pdfrwt beam="1">  1        2 0.44428871E-01 0.38461087E+03</pdfrwt>
<pdfrwt beam="2">  1       -2 0.16987198E-01 0.38461087E+03</pdfrwt>
<totfact> 0.31860604E+03</totfact>
</mgrwt>
</event>
<event>
 4    1  0.2581031E-004  0.2905835E+03  0.7818608E-02  0.1090045E+00
          2   -1    0    0  501    0  0.00000000000E+00  0.00000000000E+00  0.12672408208E+04  0.12672408208E+04  0.25500000000E-02 0.  1.
         -2   -1    0    0    0  501 -0.00000000000E+00 -0.00000000000E+00 -0.16657992520E+02  0.16657992715E+02  0.25500000000E-02 0. -1.
    5000001    1    1    2    0    0  0.17912307221E+02 -0.67232880199E+02  0.57309179855E+03  0.59110432285E+03  0.12700000000E+03 0.  0.
   -5000001    1    1    2    0    0 -0.17912307221E+02  0.67232880199E+02  0.67749102969E+03  0.69279449063E+03  0.12700000000E+03 0.  0.
<mgrwt>
<rscale>  0 0.29058347E+03</rscale>
<asrwt>0</asrwt>
<pdfrwt beam="1">  1        2 0.18103442E+00 0.29058347E+03</pdfrwt>
<pdfrwt beam="2">  1       -2 0.23797130E-02 0.29058347E+03</pdfrwt>
<totfact> 0.12330189E+04</totfact>
</mgrwt>
</event>
<event>
 4    1  0.2581031E-004  0.4625062E+03  0.7818608E-02  0.1024057E+00
         -2   -1    0    0    0  501 -0.00000000000E+00  0.00000000000E+00  0.39886549418E+02  0.39886549499E+02  0.25500000000E-02 0. -1.
          2   -1    0    0  501    0  0.00000000000E+00 -0.00000000000E+00 -0.13407528752E+04  0.13407528752E+04  0.25500000000E-02 0.  1.
    5000001    1    1    2    0    0  0.55804120104E+01  0.18133878258E+03 -0.84921007678E+03  0.87761133173E+03  0.12700000000E+03 0.  0.
   -5000001    1    1    2    0    0 -0.55804120104E+01 -0.18133878258E+03 -0.45165624904E+03  0.50302809302E+03  0.12700000000E+03 0.  0.
<mgrwt>
<rscale>  0 0.46250624E+03</rscale>
<asrwt>0</asrwt>
<pdfrwt beam="1">  1        2 0.19153610E+00 0.46250624E+03</pdfrwt>
<pdfrwt beam="2">  1       -2 0.56980793E-02 0.46250624E+03</pdfrwt>
<totfact> 0.30244410E+03</totfact>
</mgrwt>
</event>
<event>
 4    1  0.2581031E-004  0.3794309E+03  0.7818608E-02  0.1051144E+00
          2   -1    0    0  501    0  0.00000000000E+00  0.00000000000E+00  0.30662362164E+04  0.30662362164E+04  0.25500000000E-02 0.  1.
         -2   -1    0    0    0  501 -0.00000000000E+00 -0.00000000000E+00 -0.11738153186E+02  0.11738153463E+02  0.25500000000E-02 0. -1.
    5000001    1    1    2    0    0 -0.34781036818E+02 -0.10918520960E+03  0.86167162993E+03  0.87848627101E+03  0.12700000000E+03 0.  0.
   -5000001    1    1    2    0    0  0.34781036818E+02  0.10918520960E+03  0.21928264333E+04  0.21994880989E+04  0.12700000000E+03 0.  0.
<mgrwt>
<rscale>  0 0.37943089E+03</rscale>
<asrwt>0</asrwt>
<pdfrwt beam="1">  1        2 0.43803406E+00 0.37943089E+03</pdfrwt>
<pdfrwt beam="2">  1       -2 0.16768779E-02 0.37943089E+03</pdfrwt>
<totfact> 0.25399189E+03</totfact>
</mgrwt>
</event>
<event>
 4    1  0.2581031E-004  0.3883168E+03  0.7818608E-02  0.1047902E+00
         -2   -1    0    0    0  501 -0.00000000000E+00  0.00000000000E+00  0.22037650983E+02  0.22037651131E+02  0.25500000000E-02 0.  1.
          2   -1    0    0  501    0  0.00000000000E+00 -0.00000000000E+00 -0.17105945335E+04  0.17105945335E+04  0.25500000000E-02 0. -1.
    5000001    1    1    2    0    0  0.10732268092E+03 -0.73873455641E+02 -0.11466704510E+04  0.11610157485E+04  0.12700000000E+03 0.  0.
   -5000001    1    1    2    0    0 -0.10732268092E+03  0.73873455641E+02 -0.54188643157E+03  0.57161643609E+03  0.12700000000E+03 0.  0.
<mgrwt>
<rscale>  0 0.38831681E+03</rscale>
<asrwt>0</asrwt>
<pdfrwt beam="1">  1        2 0.24437056E+00 0.38831681E+03</pdfrwt>
<pdfrwt beam="2">  1       -2 0.31482370E-02 0.38831681E+03</pdfrwt>
<totfact> 0.48337400E+03</totfact>
</mgrwt>
</event>
<event>
 4    1  0.2581031E-004  0.3198428E+03  0.7818608E-02  0.1075722E+00
         -2   -1    0    0    0  501 -0.00000000000E+00  0.00000000000E+00  0.13511489912E+02  0.13511490153E+02  0.25500000000E-02 0. -1.
          2   -1    0    0  501    0  0.00000000000E+00 -0.00000000000E+00 -0.18928226283E+04  0.18928226283E+04  0.25500000000E-02 0.  1.
    5000001    1    1    2    0    0  0.94140402030E+00  0.83480784635E+02 -0.12362283649E+04  0.12455358276E+04  0.12700000000E+03 0.  0.
   -5000001    1    1    2    0    0 -0.94140402030E+00 -0.83480784635E+02 -0.64308277353E+03  0.66079829090E+03  0.12700000000E+03 0.  0.
<mgrwt>
<rscale>  0 0.31984280E+03</rscale>
<asrwt>0</asrwt>
<pdfrwt beam="1">  1        2 0.27040306E+00 0.31984280E+03</pdfrwt>
<pdfrwt beam="2">  1       -2 0.19302141E-02 0.31984280E+03</pdfrwt>
<totfact> 0.81344971E+03</totfact>
</mgrwt>
</event>
<event>
 4    1  0.2581031E-004  0.4262600E+03  0.7818608E-02  0.1035048E+00
         -2   -1    0    0    0  501 -0.00000000000E+00  0.00000000000E+00  0.20052075398E+03  0.20052075400E+03  0.25500000000E-02 0. -1.
          2   -1    0    0  501    0  0.00000000000E+00 -0.00000000000E+00 -0.22653213382E+03  0.22653213384E+03  0.25500000000E-02 0.  1.
    5000001    1    1    2    0    0 -0.39935484171E+02 -0.10350044005E+03 -0.14358696624E+03  0.22148002362E+03  0.12700000000E+03 0.  0.
   -5000001    1    1    2    0    0  0.39935484171E+02  0.10350044005E+03  0.11757558640E+03  0.20557286422E+03  0.12700000000E+03 0.  0.
<mgrwt>
<rscale>  0 0.42625999E+03</rscale>
<asrwt>0</asrwt>
<pdfrwt beam="1">  1        2 0.32361733E-01 0.42625999E+03</pdfrwt>
<pdfrwt beam="2">  1       -2 0.28645822E-01 0.42625999E+03</pdfrwt>
<totfact> 0.18089504E+03</totfact>
</mgrwt>
</event>
<event>
 4    1  0.2581031E-004  0.5374630E+03  0.7818608E-02  0.1004438E+00
          2   -1    0    0  501    0  0.00000000000E+00  0.00000000000E+00  0.31337117449E+04  0.31337117449E+04  0.25500000000E-02 0.  1.
         -2   -1    0    0    0  501 -0.00000000000E+00 -0.00000000000E+00 -0.23045077389E+02  0.23045077530E+02  0.25500000000E-02 0. -1.
    5000001    1    1    2    0    0 -0.19615715532E+03 -0.66613461499E+01  0.77689475895E+03  0.81130541080E+03  0.12700000000E+03 0.  0.
   -5000001    1    1    2    0    0  0.19615715532E+03  0.66613461499E+01  0.23337719086E+04  0.23454514116E+04  0.12700000000E+03 0.  0.
<mgrwt>
<rscale>  0 0.53746304E+03</rscale>
<asrwt>0</asrwt>
<pdfrwt beam="1">  1        2 0.44767366E+00 0.53746304E+03</pdfrwt>
<pdfrwt beam="2">  1       -2 0.32921498E-02 0.53746304E+03</pdfrwt>
<totfact> 0.83595729E+02</totfact>
</mgrwt>
</event>
<event>
 4    1  0.2581031E-004  0.6503528E+03  0.7818608E-02  0.9806117E-01
         -2   -1    0    0    0  501 -0.00000000000E+00  0.00000000000E+00  0.37686166622E+03  0.37686166623E+03  0.25500000000E-02 0. -1.
          2   -1    0    0  501    0  0.00000000000E+00 -0.00000000000E+00 -0.28057956830E+03  0.28057956831E+03  0.25500000000E-02 0.  1.
    5000001    1    1    2    0    0  0.26471615061E+03  0.34742987332E+02  0.18500117879E+03  0.34876374771E+03  0.12700000000E+03 0.  0.
   -5000001    1    1    2    0    0 -0.26471615061E+03 -0.34742987332E+02 -0.88719080866E+02  0.30867748683E+03  0.12700000000E+03 0.  0.
<mgrwt>
<rscale>  0 0.65035278E+03</rscale>
<asrwt>0</asrwt>
<pdfrwt beam="1">  1        2 0.40082795E-01 0.65035278E+03</pdfrwt>
<pdfrwt beam="2">  1       -2 0.53837381E-01 0.65035278E+03</pdfrwt>
<totfact> 0.42120828E+02</totfact>
</mgrwt>
</event>
<event>
 4    1  0.2581031E-004  0.3874273E+03  0.7818608E-02  0.1048222E+00
         -2   -1    0    0    0  501 -0.00000000000E+00  0.00000000000E+00  0.11630983710E+03  0.11630983713E+03  0.25500000000E-02 0. -1.
          2   -1    0    0  501    0  0.00000000000E+00 -0.00000000000E+00 -0.32262940638E+03  0.32262940639E+03  0.25500000000E-02 0.  1.
    5000001    1    1    2    0    0 -0.91127477150E+02 -0.11788808556E+02 -0.23210217639E+03  0.28007787022E+03  0.12700000000E+03 0.  0.
   -5000001    1    1    2    0    0  0.91127477150E+02  0.11788808556E+02  0.25782607108E+02  0.15886137330E+03  0.12700000000E+03 0.  0.
<mgrwt>
<rscale>  0 0.38742728E+03</rscale>
<asrwt>0</asrwt>
<pdfrwt beam="1">  1        2 0.46089915E-01 0.38742728E+03</pdfrwt>
<pdfrwt beam="2">  1       -2 0.16615691E-01 0.38742728E+03</pdfrwt>
<totfact> 0.31781315E+03</totfact>
</mgrwt>
</event>
<event>
 4    1  0.2581031E-004  0.5805599E+03  0.7818608E-02  0.9946580E-01
         -2   -1    0    0    0  501 -0.00000000000E+00  0.00000000000E+00  0.13088488023E+03  0.13088488026E+03  0.25500000000E-02 0. -1.
          2   -1    0    0  501    0  0.00000000000E+00 -0.00000000000E+00 -0.64379051043E+03  0.64379051043E+03  0.25500000000E-02 0.  1.
    5000001    1    1    2    0    0  0.63998107360E+02 -0.18344641790E+03 -0.48904925255E+03  0.54133771105E+03  0.12700000000E+03 0.  0.
   -5000001    1    1    2    0    0 -0.63998107360E+02  0.18344641790E+03 -0.23856377647E+02  0.23333767964E+03  0.12700000000E+03 0.  0.
<mgrwt>
<rscale>  0 0.58055988E+03</rscale>
<asrwt>0</asrwt>
<pdfrwt beam="1">  1        2 0.91970071E-01 0.58055988E+03</pdfrwt>
<pdfrwt beam="2">  1       -2 0.18697840E-01 0.58055988E+03</pdfrwt>
<totfact> 0.11982472E+03</totfact>
</mgrwt>
</event>
<event>
 4    1  0.2581031E-004  0.3590260E+03  0.7818608E-02  0.1058970E+00
          2   -1    0    0  501    0  0.00000000000E+00  0.00000000000E+00  0.42466738184E+02  0.42466738260E+02  0.25500000000E-02 0.  1.
         -2   -1    0    0    0  501 -0.00000000000E+00 -0.00000000000E+00 -0.75882729937E+03  0.75882729938E+03  0.25500000000E-02 0. -1.
    5000001    1    1    2    0    0 -0.23747396962E+02  0.11853606439E+03 -0.44407576399E+03  0.47743797670E+03  0.12700000000E+03 0.  0.
   -5000001    1    1    2    0    0  0.23747396962E+02 -0.11853606439E+03 -0.27228479719E+03  0.32385606094E+03  0.12700000000E+03 0.  0.
<mgrwt>
<rscale>  0 0.35902602E+03</rscale>
<asrwt>0</asrwt>
<pdfrwt beam="1">  1        2 0.60666773E-02 0.35902602E+03</pdfrwt>
<pdfrwt beam="2">  1       -2 0.10840389E+00 0.35902602E+03</pdfrwt>
<totfact> 0.86884369E+02</totfact>
</mgrwt>
</event>
<event>
 4    1  0.2581031E-004  0.2879622E+03  0.7818608E-02  0.1091418E+00
          2   -1    0    0  501    0  0.00000000000E+00  0.00000000000E+00  0.10480219021E+02  0.10480219331E+02  0.25500000000E-02 0.  1.
         -2   -1    0    0    0  501 -0.00000000000E+00 -0.00000000000E+00 -0.19780656648E+04  0.19780656648E+04  0.25500000000E-02 0. -1.
    5000001    1    1    2    0    0  0.59264348778E+02  0.26824362596E+02 -0.11165797043E+04  0.11256602709E+04  0.12700000000E+03 0.  0.
   -5000001    1    1    2    0    0 -0.59264348778E+02 -0.26824362596E+02 -0.85100574149E+03  0.86288561323E+03  0.12700000000E+03 0.  0.
<mgrwt>
<rscale>  0 0.28796223E+03</rscale>
<asrwt>0</asrwt>
<pdfrwt beam="1">  1        2 0.14971754E-02 0.28796223E+03</pdfrwt>
<pdfrwt beam="2">  1       -2 0.28258057E+00 0.28796223E+03</pdfrwt>
<totfact> 0.37932533E+02</totfact>
</mgrwt>
</event>
<event>
 4    1  0.2581031E-004  0.4384898E+03  0.7818608E-02  0.1031211E+00
         -2   -1    0    0    0  501 -0.00000000000E+00  0.00000000000E+00  0.31222325009E+02  0.31222325113E+02  0.25500000000E-02 0. -1.
          2   -1    0    0  501    0  0.00000000000E+00 -0.00000000000E+00 -0.15395500057E+04  0.15395500057E+04  0.25500000000E-02 0.  1.
    5000001    1    1    2    0    0  0.16797911927E+03  0.36495082408E+02 -0.92930734222E+03  0.95356699390E+03  0.12700000000E+03 0.  0.
   -5000001    1    1    2    0    0 -0.16797911927E+03 -0.36495082408E+02 -0.57902033843E+03  0.61720533687E+03  0.12700000000E+03 0.  0.
<mgrwt>
<rscale>  0 0.43848982E+03</rscale>
<asrwt>0</asrwt>
<pdfrwt beam="1">  1        2 0.21993567E+00 0.43848982E+03</pdfrwt>
<pdfrwt beam="2">  1       -2 0.44603331E-02 0.43848982E+03</pdfrwt>
<totfact> 0.34751979E+03</totfact>
</mgrwt>
</event>
<event>
 4    1  0.2581031E-004  0.3797325E+03  0.7818608E-02  0.1051033E+00
         -2   -1    0    0    0  501 -0.00000000000E+00  0.00000000000E+00  0.12009381952E+02  0.12009382223E+02  0.25500000000E-02 0. -1.
          2   -1    0    0  501    0  0.00000000000E+00 -0.00000000000E+00 -0.30017520072E+04  0.30017520072E+04  0.25500000000E-02 0.  1.
    5000001    1    1    2    0    0  0.11052061726E+03  0.80971960332E+02 -0.12258564167E+04  0.12400097660E+04  0.12700000000E+03 0.  0.
   -5000001    1    1    2    0    0 -0.11052061726E+03 -0.80971960332E+02 -0.17638862085E+04  0.17737516235E+04  0.12700000000E+03 0.  0.
<mgrwt>
<rscale>  0 0.37973247E+03</rscale>
<asrwt>0</asrwt>
<pdfrwt beam="1">  1        2 0.42882124E+00 0.37973247E+03</pdfrwt>
<pdfrwt beam="2">  1       -2 0.17156279E-02 0.37973247E+03</pdfrwt>
<totfact> 0.26599600E+03</totfact>
</mgrwt>
</event>
<event>
 4    1  0.2581031E-004  0.4174361E+03  0.7818608E-02  0.1037904E+00
         -2   -1    0    0    0  501 -0.00000000000E+00  0.00000000000E+00  0.42608170927E+02  0.42608171003E+02  0.25500000000E-02 0. -1.
          2   -1    0    0  501    0  0.00000000000E+00 -0.00000000000E+00 -0.10224147842E+04  0.10224147842E+04  0.25500000000E-02 0.  1.
    5000001    1    1    2    0    0  0.16508632496E+03 -0.37938659354E+01 -0.45699830941E+03  0.50223932832E+03  0.12700000000E+03 0.  0.
   -5000001    1    1    2    0    0 -0.16508632496E+03  0.37938659354E+01 -0.52280830390E+03  0.56278362693E+03  0.12700000000E+03 0.  0.
<mgrwt>
<rscale>  0 0.41743610E+03</rscale>
<asrwt>0</asrwt>
<pdfrwt beam="1">  1        2 0.14605924E+00 0.41743610E+03</pdfrwt>
<pdfrwt beam="2">  1       -2 0.60868822E-02 0.41743610E+03</pdfrwt>
<totfact> 0.41117175E+03</totfact>
</mgrwt>
</event>
<event>
 4    1  0.2581031E-004  0.2877883E+03  0.7818608E-02  0.1091510E+00
          2   -1    0    0  501    0  0.00000000000E+00  0.00000000000E+00  0.22441221624E+04  0.22441221624E+04  0.25500000000E-02 0.  1.
         -2   -1    0    0    0  501 -0.00000000000E+00 -0.00000000000E+00 -0.92265595688E+01  0.92265599212E+01  0.25500000000E-02 0. -1.
    5000001    1    1    2    0    0  0.71357178398E+01 -0.60672087748E+02  0.88990831916E+03  0.90099824484E+03  0.12700000000E+03 0.  0.
   -5000001    1    1    2    0    0 -0.71357178398E+01  0.60672087748E+02  0.13449872837E+04  0.13523504775E+04  0.12700000000E+03 0.  0.
<mgrwt>
<rscale>  0 0.28778831E+03</rscale>
<asrwt>0</asrwt>
<pdfrwt beam="1">  1        2 0.32058905E+00 0.28778831E+03</pdfrwt>
<pdfrwt beam="2">  1       -2 0.13180793E-02 0.28778831E+03</pdfrwt>
<totfact> 0.95722043E+03</totfact>
</mgrwt>
</event>
<event>
 4    1  0.2581031E-004  0.3445050E+03  0.7818608E-02  0.1064893E+00
         -2   -1    0    0    0  501 -0.00000000000E+00  0.00000000000E+00  0.28793407028E+02  0.28793407141E+02  0.25500000000E-02 0. -1.
          2   -1    0    0  501    0  0.00000000000E+00 -0.00000000000E+00 -0.10304763654E+04  0.10304763654E+04  0.25500000000E-02 0.  1.
    5000001    1    1    2    0    0  0.63195752759E+02 -0.94651413997E+02 -0.57548482573E+03  0.60022027455E+03  0.12700000000E+03 0.  0.
   -5000001    1    1    2    0    0 -0.63195752759E+02  0.94651413997E+02 -0.42619813264E+03  0.45904949799E+03  0.12700000000E+03 0.  0.
<mgrwt>
<rscale>  0 0.34450501E+03</rscale>
<asrwt>0</asrwt>
<pdfrwt beam="1">  1        2 0.14721089E+00 0.34450501E+03</pdfrwt>
<pdfrwt beam="2">  1       -2 0.41133445E-02 0.34450501E+03</pdfrwt>
<totfact> 0.73961148E+03</totfact>
</mgrwt>
</event>
<event>
 4    1  0.2581031E-004  0.3900050E+03  0.7818608E-02  0.1047297E+00
          2   -1    0    0  501    0  0.00000000000E+00  0.00000000000E+00  0.42646288311E+03  0.42646288312E+03  0.25500000000E-02 0.  1.
         -2   -1    0    0    0  501 -0.00000000000E+00 -0.00000000000E+00 -0.89165949852E+02  0.89165949889E+02  0.25500000000E-02 0. -1.
    5000001    1    1    2    0    0  0.13560777493E+03 -0.50567961517E+02  0.20940674817E+03  0.28447631454E+03  0.12700000000E+03 0.  0.
   -5000001    1    1    2    0    0 -0.13560777493E+03  0.50567961517E+02  0.12789018508E+03  0.23115251847E+03  0.12700000000E+03 0.  0.
<mgrwt>
<rscale>  0 0.39000496E+03</rscale>
<asrwt>0</asrwt>
<pdfrwt beam="1">  1        2 0.60923268E-01 0.39000496E+03</pdfrwt>
<pdfrwt beam="2">  1       -2 0.12737993E-01 0.39000496E+03</pdfrwt>
<totfact> 0.36437492E+03</totfact>
</mgrwt>
</event>
<event>
 4    1  0.2581031E-004  0.5045298E+03  0.7818608E-02  0.1012603E+00
         -2   -1    0    0    0  501 -0.00000000000E+00  0.00000000000E+00  0.18820086365E+03  0.18820086367E+03  0.25500000000E-02 0. -1.
          2   -1    0    0  501    0  0.00000000000E+00 -0.00000000000E+00 -0.33813645216E+03  0.33813645217E+03  0.25500000000E-02 0.  1.
    5000001    1    1    2    0    0  0.21767672503E+03  0.11124194096E+02 -0.73620451038E+02  0.26278484569E+03  0.12700000000E+03 0.  0.
   -5000001    1    1    2    0    0 -0.21767672503E+03 -0.11124194096E+02 -0.76315137468E+02  0.26355247015E+03  0.12700000000E+03 0.  0.
<mgrwt>
<rscale>  0 0.50452977E+03</rscale>
<asrwt>0</asrwt>
<pdfrwt beam="1">  1        2 0.48305207E-01 0.50452977E+03</pdfrwt>
<pdfrwt beam="2">  1       -2 0.26885838E-01 0.50452977E+03</pdfrwt>
<totfact> 0.13080669E+03</totfact>
</mgrwt>
</event>
<event>
 4    1  0.2581031E-004  0.3518490E+03  0.7818608E-02  0.1061859E+00
         -2   -1    0    0    0  501 -0.00000000000E+00  0.00000000000E+00  0.65265640319E+02  0.65265640369E+02  0.25500000000E-02 0. -1.
          2   -1    0    0  501    0  0.00000000000E+00 -0.00000000000E+00 -0.47420708392E+03  0.47420708393E+03  0.25500000000E-02 0.  1.
    5000001    1    1    2    0    0 -0.59573742149E+02  0.10033448197E+03 -0.25768114827E+03  0.31007194843E+03  0.12700000000E+03 0.  0.
   -5000001    1    1    2    0    0  0.59573742149E+02 -0.10033448197E+03 -0.15126029533E+03  0.22940077587E+03  0.12700000000E+03 0.  0.
<mgrwt>
<rscale>  0 0.35184900E+03</rscale>
<asrwt>0</asrwt>
<pdfrwt beam="1">  1        2 0.67743867E-01 0.35184900E+03</pdfrwt>
<pdfrwt beam="2">  1       -2 0.93236632E-02 0.35184900E+03</pdfrwt>
<totfact> 0.53498440E+03</totfact>
</mgrwt>
</event>
<event>
 4    1  0.2581031E-004  0.4285103E+03  0.7818608E-02  0.1034332E+00
         -2   -1    0    0    0  501 -0.00000000000E+00  0.00000000000E+00  0.74240672804E+02  0.74240672847E+02  0.25500000000E-02 0. -1.
          2   -1    0    0  501    0  0.00000000000E+00 -0.00000000000E+00 -0.61833036232E+03  0.61833036233E+03  0.25500000000E-02 0.  1.
    5000001    1    1    2    0    0 -0.47465372882E+02  0.16004026752E+03 -0.34268745810E+03  0.40178295483E+03  0.12700000000E+03 0.  0.
   -5000001    1    1    2    0    0  0.47465372882E+02 -0.16004026752E+03 -0.20140223142E+03  0.29078808034E+03  0.12700000000E+03 0.  0.
<mgrwt>
<rscale>  0 0.42851027E+03</rscale>
<asrwt>0</asrwt>
<pdfrwt beam="1">  1        2 0.88332906E-01 0.42851027E+03</pdfrwt>
<pdfrwt beam="2">  1       -2 0.10605811E-01 0.42851027E+03</pdfrwt>
<totfact> 0.32307217E+03</totfact>
</mgrwt>
</event>
<event>
 4    1  0.2581031E-004  0.3680646E+03  0.7818608E-02  0.1055435E+00
          2   -1    0    0  501    0  0.00000000000E+00  0.00000000000E+00  0.48514144650E+03  0.48514144651E+03  0.25500000000E-02 0.  1.
         -2   -1    0    0    0  501 -0.00000000000E+00 -0.00000000000E+00 -0.69810354028E+02  0.69810354075E+02  0.25500000000E-02 0. -1.
    5000001    1    1    2    0    0  0.74776317927E+02  0.11015921268E+03  0.21296339242E+03  0.28144085768E+03  0.12700000000E+03 0.  0.
   -5000001    1    1    2    0    0 -0.74776317927E+02 -0.11015921268E+03  0.20236770005E+03  0.27351094290E+03  0.12700000000E+03 0.  0.
<mgrwt>
<rscale>  0 0.36806465E+03</rscale>
<asrwt>0</asrwt>
<pdfrwt beam="1">  1        2 0.69305924E-01 0.36806465E+03</pdfrwt>
<pdfrwt beam="2">  1       -2 0.99729073E-02 0.36806465E+03</pdfrwt>
<totfact> 0.46897525E+03</totfact>
</mgrwt>
</event>
<event>
 4    1  0.2581031E-004  0.5063153E+03  0.7818608E-02  0.1012144E+00
          2   -1    0    0  501    0  0.00000000000E+00  0.00000000000E+00  0.17884595297E+03  0.17884595299E+03  0.25500000000E-02 0.  1.
         -2   -1    0    0    0  501 -0.00000000000E+00 -0.00000000000E+00 -0.35834642709E+03  0.35834642710E+03  0.25500000000E-02 0. -1.
    5000001    1    1    2    0    0 -0.19591146410E+03 -0.91736924632E+02 -0.53570174007E+02  0.25650678090E+03  0.12700000000E+03 0.  0.
   -5000001    1    1    2    0    0  0.19591146410E+03  0.91736924632E+02 -0.12593030012E+03  0.28068559919E+03  0.12700000000E+03 0.  0.
<mgrwt>
<rscale>  0 0.50631535E+03</rscale>
<asrwt>0</asrwt>
<pdfrwt beam="1">  1        2 0.25549422E-01 0.50631535E+03</pdfrwt>
<pdfrwt beam="2">  1       -2 0.51192347E-01 0.50631535E+03</pdfrwt>
<totfact> 0.77433246E+02</totfact>
</mgrwt>
</event>
<event>
 4    1  0.2581031E-004  0.3818013E+03  0.7818608E-02  0.1050270E+00
          2   -1    0    0  501    0  0.00000000000E+00  0.00000000000E+00  0.67394786661E+02  0.67394786709E+02  0.25500000000E-02 0.  1.
         -2   -1    0    0    0  501 -0.00000000000E+00 -0.00000000000E+00 -0.54074013243E+03  0.54074013243E+03  0.25500000000E-02 0. -1.
    5000001    1    1    2    0    0  0.85484076615E+02  0.10769594333E+03 -0.17690275167E+03  0.25754519431E+03  0.12700000000E+03 0.  0.
   -5000001    1    1    2    0    0 -0.85484076615E+02 -0.10769594333E+03 -0.29644259409E+03  0.35058972483E+03  0.12700000000E+03 0.  0.
<mgrwt>
<rscale>  0 0.38180134E+03</rscale>
<asrwt>0</asrwt>
<pdfrwt beam="1">  1        2 0.96278269E-02 0.38180134E+03</pdfrwt>
<pdfrwt beam="2">  1       -2 0.77248588E-01 0.38180134E+03</pdfrwt>
<totfact> 0.10418389E+03</totfact>
</mgrwt>
</event>
<event>
 4    1  0.2581031E-004  0.4729988E+03  0.7818608E-02  0.1021077E+00
          2   -1    0    0  501    0  0.00000000000E+00  0.00000000000E+00  0.73506305233E+03  0.73506305234E+03  0.25500000000E-02 0.  1.
         -2   -1    0    0    0  501 -0.00000000000E+00 -0.00000000000E+00 -0.76091381003E+02  0.76091381046E+02  0.25500000000E-02 0. -1.
    5000001    1    1    2    0    0 -0.58293045436E+02 -0.18614185305E+03  0.25762083671E+03  0.34719499437E+03  0.12700000000E+03 0.  0.
   -5000001    1    1    2    0    0  0.58293045436E+02  0.18614185305E+03  0.40135083462E+03  0.46395943902E+03  0.12700000000E+03 0.  0.
<mgrwt>
<rscale>  0 0.47299879E+03</rscale>
<asrwt>0</asrwt>
<pdfrwt beam="1">  1        2 0.10500901E+00 0.47299879E+03</pdfrwt>
<pdfrwt beam="2">  1       -2 0.10870197E-01 0.47299879E+03</pdfrwt>
<totfact> 0.25254001E+03</totfact>
</mgrwt>
</event>
<event>
 4    1  0.2581031E-004  0.3084107E+03  0.7818608E-02  0.1081110E+00
         -2   -1    0    0    0  501 -0.00000000000E+00  0.00000000000E+00  0.13772850322E+02  0.13772850558E+02  0.25500000000E-02 0. -1.
          2   -1    0    0  501    0  0.00000000000E+00 -0.00000000000E+00 -0.17265340398E+04  0.17265340398E+04  0.25500000000E-02 0.  1.
    5000001    1    1    2    0    0  0.83434486696E+02  0.19082489493E+02 -0.75467819537E+03  0.77006079860E+03  0.12700000000E+03 0.  0.
   -5000001    1    1    2    0    0 -0.83434486696E+02 -0.19082489493E+02 -0.95808299415E+03  0.97024609180E+03  0.12700000000E+03 0.  0.
<mgrwt>
<rscale>  0 0.30841073E+03</rscale>
<asrwt>0</asrwt>
<pdfrwt beam="1">  1        2 0.24664758E+00 0.30841073E+03</pdfrwt>
<pdfrwt beam="2">  1       -2 0.19675512E-02 0.30841073E+03</pdfrwt>
<totfact> 0.95439372E+03</totfact>
</mgrwt>
</event>
<event>
 4    1  0.2581031E-004  0.4584018E+03  0.7818608E-02  0.1025246E+00
          2   -1    0    0  501    0  0.00000000000E+00  0.00000000000E+00  0.18233869901E+04  0.18233869901E+04  0.25500000000E-02 0.  1.
         -2   -1    0    0    0  501 -0.00000000000E+00 -0.00000000000E+00 -0.28810696323E+02  0.28810696436E+02  0.25500000000E-02 0. -1.
    5000001    1    1    2    0    0  0.14908533623E+03 -0.11695073274E+03  0.98765013718E+03  0.10136496953E+04  0.12700000000E+03 0.  0.
   -5000001    1    1    2    0    0 -0.14908533623E+03  0.11695073274E+03  0.80692615664E+03  0.83854799125E+03  0.12700000000E+03 0.  0.
<mgrwt>
<rscale>  0 0.45840178E+03</rscale>
<asrwt>0</asrwt>
<pdfrwt beam="1">  1        2 0.26048402E+00 0.45840178E+03</pdfrwt>
<pdfrwt beam="2">  1       -2 0.41158112E-02 0.45840178E+03</pdfrwt>
<totfact> 0.28251995E+03</totfact>
</mgrwt>
</event>
<event>
 4    1  0.2581031E-004  0.3941136E+03  0.7818608E-02  0.1045837E+00
          2   -1    0    0  501    0  0.00000000000E+00  0.00000000000E+00  0.62187459302E+03  0.62187459302E+03  0.25500000000E-02 0.  1.
         -2   -1    0    0    0  501 -0.00000000000E+00 -0.00000000000E+00 -0.62442452541E+02  0.62442452593E+02  0.25500000000E-02 0. -1.
    5000001    1    1    2    0    0 -0.27021342181E+02 -0.13837197628E+03  0.37201089190E+03  0.41760993815E+03  0.12700000000E+03 0.  0.
   -5000001    1    1    2    0    0  0.27021342181E+02  0.13837197628E+03  0.18742124858E+03  0.26670710746E+03  0.12700000000E+03 0.  0.
<mgrwt>
<rscale>  0 0.39411356E+03</rscale>
<asrwt>0</asrwt>
<pdfrwt beam="1">  1        2 0.88839233E-01 0.39411356E+03</pdfrwt>
<pdfrwt beam="2">  1       -2 0.89203499E-02 0.39411356E+03</pdfrwt>
<totfact> 0.42296158E+03</totfact>
</mgrwt>
</event>
<event>
 4    1  0.2581031E-004  0.8285320E+03  0.7818608E-02  0.9519612E-01
          2   -1    0    0  501    0  0.00000000000E+00  0.00000000000E+00  0.24343599932E+04  0.24343599932E+04  0.25500000000E-02 0. -1.
         -2   -1    0    0    0  501 -0.00000000000E+00 -0.00000000000E+00 -0.70497515119E+02  0.70497515166E+02  0.25500000000E-02 0.  1.
    5000001    1    1    2    0    0  0.29610158001E+03  0.21707900315E+03  0.74708888735E+03  0.84206308843E+03  0.12700000000E+03 0.  0.
   -5000001    1    1    2    0    0 -0.29610158001E+03 -0.21707900315E+03  0.16167735908E+04  0.16627944200E+04  0.12700000000E+03 0.  0.
<mgrwt>
<rscale>  0 0.82853203E+03</rscale>
<asrwt>0</asrwt>
<pdfrwt beam="1">  1        2 0.34776564E+00 0.82853203E+03</pdfrwt>
<pdfrwt beam="2">  1       -2 0.10071076E-01 0.82853203E+03</pdfrwt>
<totfact> 0.33174920E+02</totfact>
</mgrwt>
</event>
<event>
 4    1  0.2581031E-004  0.4079966E+03  0.7818608E-02  0.1041045E+00
         -2   -1    0    0    0  501 -0.00000000000E+00  0.00000000000E+00  0.54296446202E+02  0.54296446262E+02  0.25500000000E-02 0. -1.
          2   -1    0    0  501    0  0.00000000000E+00 -0.00000000000E+00 -0.76644630302E+03  0.76644630303E+03  0.25500000000E-02 0.  1.
    5000001    1    1    2    0    0  0.10610781011E+03  0.10847585100E+03 -0.45585785774E+03  0.49695197362E+03  0.12700000000E+03 0.  0.
   -5000001    1    1    2    0    0 -0.10610781011E+03 -0.10847585100E+03 -0.25629199908E+03  0.32379077567E+03  0.12700000000E+03 0.  0.
<mgrwt>
<rscale>  0 0.40799662E+03</rscale>
<asrwt>0</asrwt>
<pdfrwt beam="1">  1        2 0.10949232E+00 0.40799662E+03</pdfrwt>
<pdfrwt beam="2">  1       -2 0.77566356E-02 0.40799662E+03</pdfrwt>
<totfact> 0.41070128E+03</totfact>
</mgrwt>
</event>
<event>
 4    1  0.2581031E-004  0.2931106E+03  0.7818608E-02  0.1088736E+00
          2   -1    0    0  501    0  0.00000000000E+00  0.00000000000E+00  0.60835294955E+03  0.60835294955E+03  0.25500000000E-02 0.  1.
         -2   -1    0    0    0  501 -0.00000000000E+00 -0.00000000000E+00 -0.35305918951E+02  0.35305919043E+02  0.25500000000E-02 0. -1.
    5000001    1    1    2    0    0 -0.33982262152E+02  0.64761791103E+02  0.28485656161E+03  0.32034535180E+03  0.12700000000E+03 0.  0.
   -5000001    1    1    2    0    0  0.33982262152E+02 -0.64761791103E+02  0.28819046899E+03  0.32331351680E+03  0.12700000000E+03 0.  0.
<mgrwt>
<rscale>  0 0.29311063E+03</rscale>
<asrwt>0</asrwt>
<pdfrwt beam="1">  1        2 0.86907564E-01 0.29311063E+03</pdfrwt>
<pdfrwt beam="2">  1       -2 0.50437027E-02 0.29311063E+03</pdfrwt>
<totfact> 0.10439937E+04</totfact>
</mgrwt>
</event>
<event>
 4    1  0.2581031E-004  0.3330479E+03  0.7818608E-02  0.1069796E+00
          2   -1    0    0  501    0  0.00000000000E+00  0.00000000000E+00  0.13813606202E+04  0.13813606202E+04  0.25500000000E-02 0.  1.
         -2   -1    0    0    0  501 -0.00000000000E+00 -0.00000000000E+00 -0.20074578838E+02  0.20074579000E+02  0.25500000000E-02 0. -1.
    5000001    1    1    2    0    0  0.29088554379E+02  0.99543637116E+02  0.55824039232E+03  0.58182163530E+03  0.12700000000E+03 0.  0.
   -5000001    1    1    2    0    0 -0.29088554379E+02 -0.99543637116E+02  0.80304564900E+03  0.81961356386E+03  0.12700000000E+03 0.  0.
<mgrwt>
<rscale>  0 0.33304794E+03</rscale>
<asrwt>0</asrwt>
<pdfrwt beam="1">  1        2 0.19733725E+00 0.33304794E+03</pdfrwt>
<pdfrwt beam="2">  1       -2 0.28677967E-02 0.33304794E+03</pdfrwt>
<totfact> 0.81618837E+03</totfact>
</mgrwt>
</event>
<event>
 4    1  0.2581031E-004  0.3360496E+03  0.7818608E-02  0.1068491E+00
          2   -1    0    0  501    0  0.00000000000E+00  0.00000000000E+00  0.23139619598E+03  0.23139619599E+03  0.25500000000E-02 0.  1.
         -2   -1    0    0    0  501 -0.00000000000E+00 -0.00000000000E+00 -0.12200866449E+03  0.12200866452E+03  0.25500000000E-02 0. -1.
    5000001    1    1    2    0    0  0.10618239939E+03 -0.62622452543E+01  0.84241488724E+02  0.18584818018E+03  0.12700000000E+03 0.  0.
   -5000001    1    1    2    0    0 -0.10618239939E+03  0.62622452543E+01  0.25146042761E+02  0.16755668033E+03  0.12700000000E+03 0.  0.
<mgrwt>
<rscale>  0 0.33604964E+03</rscale>
<asrwt>0</asrwt>
<pdfrwt beam="1">  1        2 0.33056599E-01 0.33604964E+03</pdfrwt>
<pdfrwt beam="2">  1       -2 0.17429809E-01 0.33604964E+03</pdfrwt>
<totfact> 0.41991484E+03</totfact>
</mgrwt>
</event>
<event>
 4    1  0.2581031E-004  0.3715804E+03  0.7818608E-02  0.1054090E+00
         -2   -1    0    0    0  501 -0.00000000000E+00  0.00000000000E+00  0.20510228357E+02  0.20510228516E+02  0.25500000000E-02 0. -1.
          2   -1    0    0  501    0  0.00000000000E+00 -0.00000000000E+00 -0.16829648761E+04  0.16829648761E+04  0.25500000000E-02 0.  1.
    5000001    1    1    2    0    0  0.75331246784E+02 -0.87436767374E+02 -0.50483153042E+03  0.53320151832E+03  0.12700000000E+03 0.  0.
   -5000001    1    1    2    0    0 -0.75331246784E+02  0.87436767374E+02 -0.11576231173E+04  0.11702735863E+04  0.12700000000E+03 0.  0.
<mgrwt>
<rscale>  0 0.37158038E+03</rscale>
<asrwt>0</asrwt>
<pdfrwt beam="1">  1        2 0.24042347E+00 0.37158038E+03</pdfrwt>
<pdfrwt beam="2">  1       -2 0.29300337E-02 0.37158038E+03</pdfrwt>
<totfact> 0.55581852E+03</totfact>
</mgrwt>
</event>
<event>
 4    1  0.2581031E-004  0.2893258E+03  0.7818608E-02  0.1090702E+00
         -2   -1    0    0    0  501 -0.00000000000E+00  0.00000000000E+00  0.21343058582E+02  0.21343058735E+02  0.25500000000E-02 0. -1.
          2   -1    0    0  501    0  0.00000000000E+00 -0.00000000000E+00 -0.98052248068E+03  0.98052248069E+03  0.25500000000E-02 0.  1.
    5000001    1    1    2    0    0  0.54793257720E+02  0.76293894529E+01 -0.62394318823E+03  0.63913583127E+03  0.12700000000E+03 0.  0.
   -5000001    1    1    2    0    0 -0.54793257720E+02 -0.76293894529E+01 -0.33523623387E+03  0.36272970815E+03  0.12700000000E+03 0.  0.
<mgrwt>
<rscale>  0 0.28932576E+03</rscale>
<asrwt>0</asrwt>
<pdfrwt beam="1">  1        2 0.14007461E+00 0.28932576E+03</pdfrwt>
<pdfrwt beam="2">  1       -2 0.30490090E-02 0.28932576E+03</pdfrwt>
<totfact> 0.12357402E+04</totfact>
</mgrwt>
</event>
<event>
 4    1  0.2581031E-004  0.5014725E+03  0.7818608E-02  0.1013395E+00
         -2   -1    0    0    0  501 -0.00000000000E+00  0.00000000000E+00  0.28319696304E+02  0.28319696419E+02  0.25500000000E-02 0. -1.
          2   -1    0    0  501    0  0.00000000000E+00 -0.00000000000E+00 -0.22199625807E+04  0.22199625807E+04  0.25500000000E-02 0.  1.
    5000001    1    1    2    0    0  0.81621886276E+02 -0.20018265844E+03 -0.11052654498E+04  0.11333472299E+04  0.12700000000E+03 0.  0.
   -5000001    1    1    2    0    0 -0.81621886276E+02  0.20018265844E+03 -0.10863774346E+04  0.11149350472E+04  0.12700000000E+03 0.  0.
<mgrwt>
<rscale>  0 0.50147250E+03</rscale>
<asrwt>0</asrwt>
<pdfrwt beam="1">  1        2 0.31713740E+00 0.50147250E+03</pdfrwt>
<pdfrwt beam="2">  1       -2 0.40456723E-02 0.50147250E+03</pdfrwt>
<totfact> 0.18361072E+03</totfact>
</mgrwt>
</event>
<event>
 4    1  0.2581031E-004  0.2765861E+03  0.7818608E-02  0.1097568E+00
         -2   -1    0    0    0  501 -0.00000000000E+00  0.00000000000E+00  0.57917581953E+02  0.57917582009E+02  0.25500000000E-02 0. -1.
          2   -1    0    0  501    0  0.00000000000E+00 -0.00000000000E+00 -0.33021016748E+03  0.33021016749E+03  0.25500000000E-02 0.  1.
    5000001    1    1    2    0    0 -0.38446901789E+02 -0.24216630552E+02 -0.93320617194E+02  0.16401934961E+03  0.12700000000E+03 0.  0.
   -5000001    1    1    2    0    0  0.38446901789E+02  0.24216630552E+02 -0.17897196834E+03  0.22410839989E+03  0.12700000000E+03 0.  0.
<mgrwt>
<rscale>  0 0.27658615E+03</rscale>
<asrwt>0</asrwt>
<pdfrwt beam="1">  1        2 0.47172880E-01 0.27658615E+03</pdfrwt>
<pdfrwt beam="2">  1       -2 0.82739404E-02 0.27658615E+03</pdfrwt>
<totfact> 0.95006483E+03</totfact>
</mgrwt>
</event>
<event>
 4    1  0.2581031E-004  0.1221314E+04  0.7818608E-02  0.9094403E-01
          2   -1    0    0  501    0  0.00000000000E+00  0.00000000000E+00  0.16470055365E+04  0.16470055365E+04  0.25500000000E-02 0.  1.
         -2   -1    0    0    0  501 -0.00000000000E+00 -0.00000000000E+00 -0.22641194316E+03  0.22641194317E+03  0.25500000000E-02 0. -1.
    5000001    1    1    2    0    0  0.57004692622E+03  0.16890504876E+03  0.79828527507E+03  0.10034295162E+04  0.12700000000E+03 0.  0.
   -5000001    1    1    2    0    0 -0.57004692622E+03 -0.16890504876E+03  0.62230831826E+03  0.86998796346E+03  0.12700000000E+03 0.  0.
<mgrwt>
<rscale>  0 0.12213136E+04</rscale>
<asrwt>0</asrwt>
<pdfrwt beam="1">  1        2 0.23528650E+00 0.12213136E+04</pdfrwt>
<pdfrwt beam="2">  1       -2 0.32344563E-01 0.12213136E+04</pdfrwt>
<totfact> 0.10717326E+02</totfact>
</mgrwt>
</event>
<event>
 4    1  0.2581031E-004  0.7346961E+03  0.7818608E-02  0.9659670E-01
         -2   -1    0    0    0  501 -0.00000000000E+00  0.00000000000E+00  0.26955461683E+03  0.26955461684E+03  0.25500000000E-02 0. -1.
          2   -1    0    0  501    0  0.00000000000E+00 -0.00000000000E+00 -0.50062060579E+03  0.50062060580E+03  0.25500000000E-02 0.  1.
    5000001    1    1    2    0    0 -0.26203886779E+03  0.15234404951E+03 -0.28760130293E+03  0.43671110256E+03  0.12700000000E+03 0.  0.
   -5000001    1    1    2    0    0  0.26203886779E+03 -0.15234404951E+03  0.56535313963E+02  0.33346412008E+03  0.12700000000E+03 0.  0.
<mgrwt>
<rscale>  0 0.73469612E+03</rscale>
<asrwt>0</asrwt>
<pdfrwt beam="1">  1        2 0.71517229E-01 0.73469612E+03</pdfrwt>
<pdfrwt beam="2">  1       -2 0.38507803E-01 0.73469612E+03</pdfrwt>
<totfact> 0.42962833E+02</totfact>
</mgrwt>
</event>
<event>
 4    1  0.2581031E-004  0.3176515E+03  0.7818608E-02  0.1076735E+00
          2   -1    0    0  501    0  0.00000000000E+00  0.00000000000E+00  0.17268052664E+03  0.17268052666E+03  0.25500000000E-02 0.  1.
         -2   -1    0    0    0  501 -0.00000000000E+00 -0.00000000000E+00 -0.14608254874E+03  0.14608254876E+03  0.25500000000E-02 0. -1.
    5000001    1    1    2    0    0 -0.40026349115E+02  0.82570626711E+02  0.39401444972E+02  0.16155955832E+03  0.12700000000E+03 0.  0.
   -5000001    1    1    2    0    0  0.40026349115E+02 -0.82570626711E+02 -0.12803467067E+02  0.15720351710E+03  0.12700000000E+03 0.  0.
<mgrwt>
<rscale>  0 0.31765145E+03</rscale>
<asrwt>0</asrwt>
<pdfrwt beam="1">  1        2 0.24668647E-01 0.31765145E+03</pdfrwt>
<pdfrwt beam="2">  1       -2 0.20868936E-01 0.31765145E+03</pdfrwt>
<totfact> 0.42653680E+03</totfact>
</mgrwt>
</event>
<event>
 4    1  0.2581031E-004  0.6315578E+03  0.7818608E-02  0.9842014E-01
         -2   -1    0    0    0  501 -0.00000000000E+00  0.00000000000E+00  0.19880212236E+03  0.19880212238E+03  0.25500000000E-02 0. -1.
          2   -1    0    0  501    0  0.00000000000E+00 -0.00000000000E+00 -0.50158577772E+03  0.50158577773E+03  0.25500000000E-02 0.  1.
    5000001    1    1    2    0    0 -0.19479475962E+03  0.19121897464E+03 -0.45731589908E+02  0.30451612921E+03  0.12700000000E+03 0.  0.
   -5000001    1    1    2    0    0  0.19479475962E+03 -0.19121897464E+03 -0.25705206546E+03  0.39587177089E+03  0.12700000000E+03 0.  0.
<mgrwt>
<rscale>  0 0.63155781E+03</rscale>
<asrwt>0</asrwt>
<pdfrwt beam="1">  1        2 0.71655111E-01 0.63155781E+03</pdfrwt>
<pdfrwt beam="2">  1       -2 0.28400303E-01 0.63155781E+03</pdfrwt>
<totfact> 0.76214152E+02</totfact>
</mgrwt>
</event>
<event>
 4    1  0.2581031E-004  0.3764995E+03  0.7818608E-02  0.1052235E+00
          2   -1    0    0  501    0  0.00000000000E+00  0.00000000000E+00  0.29417413292E+04  0.29417413292E+04  0.25500000000E-02 0.  1.
         -2   -1    0    0    0  501 -0.00000000000E+00 -0.00000000000E+00 -0.12046593224E+02  0.12046593494E+02  0.25500000000E-02 0. -1.
    5000001    1    1    2    0    0 -0.11919065189E+03 -0.21959546091E+02  0.93157218797E+03  0.94796855146E+03  0.12700000000E+03 0.  0.
   -5000001    1    1    2    0    0  0.11919065189E+03  0.21959546091E+02  0.19981225480E+04  0.20058193712E+04  0.12700000000E+03 0.  0.
<mgrwt>
<rscale>  0 0.37649946E+03</rscale>
<asrwt>0</asrwt>
<pdfrwt beam="1">  1        2 0.42024861E+00 0.37649946E+03</pdfrwt>
<pdfrwt beam="2">  1       -2 0.17209425E-02 0.37649946E+03</pdfrwt>
<totfact> 0.28511741E+03</totfact>
</mgrwt>
</event>
<event>
 4    1  0.2581031E-004  0.3004472E+03  0.7818608E-02  0.1085017E+00
         -2   -1    0    0    0  501 -0.00000000000E+00  0.00000000000E+00  0.11308738249E+02  0.11308738536E+02  0.25500000000E-02 0. -1.
          2   -1    0    0  501    0  0.00000000000E+00 -0.00000000000E+00 -0.19955485229E+04  0.19955485229E+04  0.25500000000E-02 0.  1.
    5000001    1    1    2    0    0  0.34838126624E+02  0.59220979353E+02 -0.71531518929E+03  0.72974354365E+03  0.12700000000E+03 0.  0.
   -5000001    1    1    2    0    0 -0.34838126624E+02 -0.59220979353E+02 -0.12689245953E+04  0.12771137178E+04  0.12700000000E+03 0.  0.
<mgrwt>
<rscale>  0 0.30044724E+03</rscale>
<asrwt>0</asrwt>
<pdfrwt beam="1">  1        2 0.28507814E+00 0.30044724E+03</pdfrwt>
<pdfrwt beam="2">  1       -2 0.16155353E-02 0.30044724E+03</pdfrwt>
<totfact> 0.94081430E+03</totfact>
</mgrwt>
</event>
<event>
 4    1  0.2581031E-004  0.3161037E+03  0.7818608E-02  0.1077457E+00
         -2   -1    0    0    0  501 -0.00000000000E+00  0.00000000000E+00  0.24346062346E+02  0.24346062480E+02  0.25500000000E-02 0. -1.
          2   -1    0    0  501    0  0.00000000000E+00 -0.00000000000E+00 -0.10260542062E+04  0.10260542062E+04  0.25500000000E-02 0.  1.
    5000001    1    1    2    0    0 -0.82196817698E+02  0.10180154138E+02 -0.64914259722E+03  0.66661462923E+03  0.12700000000E+03 0.  0.
   -5000001    1    1    2    0    0  0.82196817698E+02 -0.10180154138E+02 -0.35256554665E+03  0.38378563947E+03  0.12700000000E+03 0.  0.
<mgrwt>
<rscale>  0 0.31610365E+03</rscale>
<asrwt>0</asrwt>
<pdfrwt beam="1">  1        2 0.14657915E+00 0.31610365E+03</pdfrwt>
<pdfrwt beam="2">  1       -2 0.34780096E-02 0.31610365E+03</pdfrwt>
<totfact> 0.95631471E+03</totfact>
</mgrwt>
</event>
<event>
 4    1  0.2581031E-004  0.6183604E+03  0.7818608E-02  0.9868030E-01
         -2   -1    0    0    0  501 -0.00000000000E+00  0.00000000000E+00  0.26552964604E+03  0.26552964606E+03  0.25500000000E-02 0. -1.
          2   -1    0    0  501    0  0.00000000000E+00 -0.00000000000E+00 -0.36000650764E+03  0.36000650765E+03  0.25500000000E-02 0.  1.
    5000001    1    1    2    0    0  0.27621672137E+03  0.45637529523E+02 -0.13917781594E+02  0.30773554541E+03  0.12700000000E+03 0.  0.
   -5000001    1    1    2    0    0 -0.27621672137E+03 -0.45637529523E+02 -0.80559080002E+02  0.31780060830E+03  0.12700000000E+03 0.  0.
<mgrwt>
<rscale>  0 0.61836041E+03</rscale>
<asrwt>0</asrwt>
<pdfrwt beam="1">  1        2 0.51429501E-01 0.61836041E+03</pdfrwt>
<pdfrwt beam="2">  1       -2 0.37932807E-01 0.61836041E+03</pdfrwt>
<totfact> 0.64203051E+02</totfact>
</mgrwt>
</event>
<event>
 4    1  0.2581031E-004  0.3751298E+03  0.7818608E-02  0.1052749E+00
          2   -1    0    0  501    0  0.00000000000E+00  0.00000000000E+00  0.36249980176E+03  0.36249980177E+03  0.25500000000E-02 0.  1.
         -2   -1    0    0    0  501 -0.00000000000E+00 -0.00000000000E+00 -0.97049957922E+02  0.97049957955E+02  0.25500000000E-02 0. -1.
    5000001    1    1    2    0    0  0.24548400362E+02 -0.58606080016E+02 -0.17382941093E+02  0.14306803702E+03  0.12700000000E+03 0.  0.
   -5000001    1    1    2    0    0 -0.24548400362E+02  0.58606080016E+02  0.28283278493E+03  0.31648172270E+03  0.12700000000E+03 0.  0.
<mgrwt>
<rscale>  0 0.37512979E+03</rscale>
<asrwt>0</asrwt>
<pdfrwt beam="1">  1        2 0.51785686E-01 0.37512979E+03</pdfrwt>
<pdfrwt beam="2">  1       -2 0.13864280E-01 0.37512979E+03</pdfrwt>
<totfact> 0.37837345E+03</totfact>
</mgrwt>
</event>
<event>
 4    1  0.2581031E-004  0.5793311E+03  0.7818608E-02  0.9949240E-01
          2   -1    0    0  501    0  0.00000000000E+00  0.00000000000E+00  0.15660257115E+04  0.15660257115E+04  0.25500000000E-02 0.  1.
         -2   -1    0    0    0  501 -0.00000000000E+00 -0.00000000000E+00 -0.53579018187E+02  0.53579018248E+02  0.25500000000E-02 0. -1.
    5000001    1    1    2    0    0  0.22954626846E+03  0.94566469434E+02  0.97533520905E+03  0.10144171117E+04  0.12700000000E+03 0.  0.
   -5000001    1    1    2    0    0 -0.22954626846E+03 -0.94566469434E+02  0.53711148425E+03  0.60518761803E+03  0.12700000000E+03 0.  0.
<mgrwt>
<rscale>  0 0.57933106E+03</rscale>
<asrwt>0</asrwt>
<pdfrwt beam="1">  1        2 0.22371795E+00 0.57933106E+03</pdfrwt>
<pdfrwt beam="2">  1       -2 0.76541457E-02 0.57933106E+03</pdfrwt>
<totfact> 0.14471373E+03</totfact>
</mgrwt>
</event>
<event>
 4    1  0.2581031E-004  0.8213605E+03  0.7818608E-02  0.9529603E-01
          2   -1    0    0  501    0  0.00000000000E+00  0.00000000000E+00  0.16321889392E+04  0.16321889392E+04  0.25500000000E-02 0.  1.
         -2   -1    0    0    0  501 -0.00000000000E+00 -0.00000000000E+00 -0.10333256127E+03  0.10333256130E+03  0.25500000000E-02 0. -1.
    5000001    1    1    2    0    0 -0.13222610158E+03  0.36701101750E+03  0.80387000302E+03  0.90250585076E+03  0.12700000000E+03 0.  0.
   -5000001    1    1    2    0    0  0.13222610158E+03 -0.36701101750E+03  0.72498637491E+03  0.83301564974E+03  0.12700000000E+03 0.  0.
<mgrwt>
<rscale>  0 0.82136049E+03</rscale>
<asrwt>0</asrwt>
<pdfrwt beam="1">  1        2 0.23316986E+00 0.82136049E+03</pdfrwt>
<pdfrwt beam="2">  1       -2 0.14761794E-01 0.82136049E+03</pdfrwt>
<totfact> 0.45171390E+02</totfact>
</mgrwt>
</event>
<event>
 4    1  0.2581031E-004  0.3040443E+03  0.7818608E-02  0.1083236E+00
          2   -1    0    0  501    0  0.00000000000E+00  0.00000000000E+00  0.54569167473E+03  0.54569167473E+03  0.25500000000E-02 0.  1.
         -2   -1    0    0    0  501 -0.00000000000E+00 -0.00000000000E+00 -0.42351272399E+02  0.42351272476E+02  0.25500000000E-02 0. -1.
    5000001    1    1    2    0    0 -0.60353678162E+02  0.50355799998E+02  0.30649225369E+03  0.34094687949E+03  0.12700000000E+03 0.  0.
   -5000001    1    1    2    0    0  0.60353678162E+02 -0.50355799998E+02  0.19684814864E+03  0.24709606772E+03  0.12700000000E+03 0.  0.
<mgrwt>
<rscale>  0 0.30404432E+03</rscale>
<asrwt>0</asrwt>
<pdfrwt beam="1">  1        2 0.77955956E-01 0.30404432E+03</pdfrwt>
<pdfrwt beam="2">  1       -2 0.60501816E-02 0.30404432E+03</pdfrwt>
<totfact> 0.89530252E+03</totfact>
</mgrwt>
</event>
<event>
 4    1  0.2581031E-004  0.2774900E+03  0.7818608E-02  0.1097068E+00
         -2   -1    0    0    0  501 -0.00000000000E+00  0.00000000000E+00  0.53298251562E+02  0.53298251623E+02  0.25500000000E-02 0. -1.
          2   -1    0    0  501    0  0.00000000000E+00 -0.00000000000E+00 -0.36117829503E+03  0.36117829504E+03  0.25500000000E-02 0.  1.
    5000001    1    1    2    0    0 -0.52204990913E+02 -0.10774990299E+02 -0.12895919686E+03  0.18868210288E+03  0.12700000000E+03 0.  0.
   -5000001    1    1    2    0    0  0.52204990913E+02  0.10774990299E+02 -0.17892084660E+03  0.22579444378E+03  0.12700000000E+03 0.  0.
<mgrwt>
<rscale>  0 0.27748998E+03</rscale>
<asrwt>0</asrwt>
<pdfrwt beam="1">  1        2 0.51596898E-01 0.27748998E+03</pdfrwt>
<pdfrwt beam="2">  1       -2 0.76140361E-02 0.27748998E+03</pdfrwt>
<totfact> 0.98236722E+03</totfact>
</mgrwt>
</event>
<event>
 4    1  0.2581031E-004  0.8368033E+03  0.7818608E-02  0.9508222E-01
         -2   -1    0    0    0  501 -0.00000000000E+00  0.00000000000E+00  0.22781441682E+03  0.22781441684E+03  0.25500000000E-02 0. -1.
          2   -1    0    0  501    0  0.00000000000E+00 -0.00000000000E+00 -0.76843224492E+03  0.76843224492E+03  0.25500000000E-02 0.  1.
    5000001    1    1    2    0    0 -0.22386032085E+03 -0.79415828011E+02 -0.65148700937E+03  0.70497137557E+03  0.12700000000E+03 0.  0.
   -5000001    1    1    2    0    0  0.22386032085E+03  0.79415828011E+02  0.11086918128E+03  0.29127528619E+03  0.12700000000E+03 0.  0.
<mgrwt>
<rscale>  0 0.83680331E+03</rscale>
<asrwt>0</asrwt>
<pdfrwt beam="1">  1        2 0.10977603E+00 0.83680331E+03</pdfrwt>
<pdfrwt beam="2">  1       -2 0.32544917E-01 0.83680331E+03</pdfrwt>
<totfact> 0.35295616E+02</totfact>
</mgrwt>
</event>
<event>
 4    1  0.2581031E-004  0.7276375E+03  0.7818608E-02  0.9671102E-01
         -2   -1    0    0    0  501 -0.00000000000E+00  0.00000000000E+00  0.11226916966E+03  0.11226916969E+03  0.25500000000E-02 0. -1.
          2   -1    0    0  501    0  0.00000000000E+00 -0.00000000000E+00 -0.11789885927E+04  0.11789885927E+04  0.25500000000E-02 0.  1.
    5000001    1    1    2    0    0 -0.28998953652E+03 -0.15368830055E+03 -0.36954823269E+03  0.51030277415E+03  0.12700000000E+03 0.  0.
   -5000001    1    1    2    0    0  0.28998953652E+03  0.15368830055E+03 -0.69717119036E+03  0.78095498826E+03  0.12700000000E+03 0.  0.
<mgrwt>
<rscale>  0 0.72763747E+03</rscale>
<asrwt>0</asrwt>
<pdfrwt beam="1">  1        2 0.16842693E+00 0.72763747E+03</pdfrwt>
<pdfrwt beam="2">  1       -2 0.16038453E-01 0.72763747E+03</pdfrwt>
<totfact> 0.69083825E+02</totfact>
</mgrwt>
</event>
<event>
 4    1  0.2581031E-004  0.4972786E+03  0.7818608E-02  0.1014492E+00
         -2   -1    0    0    0  501 -0.00000000000E+00  0.00000000000E+00  0.11801772649E+03  0.11801772652E+03  0.25500000000E-02 0.  1.
          2   -1    0    0  501    0  0.00000000000E+00 -0.00000000000E+00 -0.52383232501E+03  0.52383232502E+03  0.25500000000E-02 0. -1.
    5000001    1    1    2    0    0 -0.20951959003E+03  0.17043801066E+02 -0.15285859965E+03  0.28928135309E+03  0.12700000000E+03 0.  0.
   -5000001    1    1    2    0    0  0.20951959003E+03 -0.17043801066E+02 -0.25295599887E+03  0.35256869844E+03  0.12700000000E+03 0.  0.
<mgrwt>
<rscale>  0 0.49727859E+03</rscale>
<asrwt>0</asrwt>
<pdfrwt beam="1">  1        2 0.74833188E-01 0.49727859E+03</pdfrwt>
<pdfrwt beam="2">  1       -2 0.16859675E-01 0.49727859E+03</pdfrwt>
<totfact> 0.18191467E+03</totfact>
</mgrwt>
</event>
<event>
 4    1  0.2581031E-004  0.4555287E+03  0.7818608E-02  0.1026086E+00
         -2   -1    0    0    0  501 -0.00000000000E+00  0.00000000000E+00  0.16150705751E+02  0.16150705953E+02  0.25500000000E-02 0. -1.
          2   -1    0    0  501    0  0.00000000000E+00 -0.00000000000E+00 -0.32120328271E+04  0.32120328271E+04  0.25500000000E-02 0.  1.
    5000001    1    1    2    0    0 -0.15403052815E+03 -0.24781361139E+02 -0.84102325746E+03  0.86474773146E+03  0.12700000000E+03 0.  0.
   -5000001    1    1    2    0    0  0.15403052815E+03  0.24781361139E+02 -0.23548588639E+04  0.23634358016E+04  0.12700000000E+03 0.  0.
<mgrwt>
<rscale>  0 0.45552869E+03</rscale>
<asrwt>0</asrwt>
<pdfrwt beam="1">  1        2 0.45886143E+00 0.45552869E+03</pdfrwt>
<pdfrwt beam="2">  1       -2 0.23072457E-02 0.45552869E+03</pdfrwt>
<totfact> 0.13040554E+03</totfact>
</mgrwt>
</event>
<event>
 4    1  0.2581031E-004  0.3284305E+03  0.7818608E-02  0.1071833E+00
          2   -1    0    0  501    0  0.00000000000E+00  0.00000000000E+00  0.13121658587E+02  0.13121658835E+02  0.25500000000E-02 0.  1.
         -2   -1    0    0    0  501 -0.00000000000E+00 -0.00000000000E+00 -0.20551246513E+04  0.20551246513E+04  0.25500000000E-02 0. -1.
    5000001    1    1    2    0    0 -0.58586051291E+02 -0.65214303190E+02 -0.13745755612E+04  0.13832108314E+04  0.12700000000E+03 0.  0.
   -5000001    1    1    2    0    0  0.58586051291E+02  0.65214303190E+02 -0.66742743154E+03  0.68503547873E+03  0.12700000000E+03 0.  0.
<mgrwt>
<rscale>  0 0.32843048E+03</rscale>
<asrwt>0</asrwt>
<pdfrwt beam="1">  1        2 0.18745240E-02 0.32843048E+03</pdfrwt>
<pdfrwt beam="2">  1       -2 0.29358903E+00 0.32843048E+03</pdfrwt>
<totfact> 0.23873537E+02</totfact>
</mgrwt>
</event>
<event>
 4    1  0.2581031E-004  0.3326596E+03  0.7818608E-02  0.1069966E+00
          2   -1    0    0  501    0  0.00000000000E+00  0.00000000000E+00  0.50638371416E+03  0.50638371416E+03  0.25500000000E-02 0.  1.
         -2   -1    0    0    0  501 -0.00000000000E+00 -0.00000000000E+00 -0.54633667826E+02  0.54633667886E+02  0.25500000000E-02 0. -1.
    5000001    1    1    2    0    0 -0.49694638332E+02 -0.87186612666E+02  0.29043668378E+03  0.33249590944E+03  0.12700000000E+03 0.  0.
   -5000001    1    1    2    0    0  0.49694638332E+02  0.87186612666E+02  0.16131336255E+03  0.22852147261E+03  0.12700000000E+03 0.  0.
<mgrwt>
<rscale>  0 0.33265958E+03</rscale>
<asrwt>0</asrwt>
<pdfrwt beam="1">  1        2 0.72340534E-01 0.33265958E+03</pdfrwt>
<pdfrwt beam="2">  1       -2 0.78048094E-02 0.33265958E+03</pdfrwt>
<totfact> 0.65748016E+03</totfact>
</mgrwt>
</event>
<event>
 4    1  0.2581031E-004  0.3895404E+03  0.7818608E-02  0.1047463E+00
          2   -1    0    0  501    0  0.00000000000E+00  0.00000000000E+00  0.28406598400E+04  0.28406598400E+04  0.25500000000E-02 0.  1.
         -2   -1    0    0    0  501 -0.00000000000E+00 -0.00000000000E+00 -0.13354441162E+02  0.13354441405E+02  0.25500000000E-02 0. -1.
    5000001    1    1    2    0    0 -0.19148695109E+02 -0.13803225891E+03  0.17715974951E+04  0.17816021614E+04  0.12700000000E+03 0.  0.
   -5000001    1    1    2    0    0  0.19148695109E+02  0.13803225891E+03  0.10557079038E+04  0.10724121200E+04  0.12700000000E+03 0.  0.
<mgrwt>
<rscale>  0 0.38954037E+03</rscale>
<asrwt>0</asrwt>
<pdfrwt beam="1">  1        2 0.40580832E+00 0.38954037E+03</pdfrwt>
<pdfrwt beam="2">  1       -2 0.19077784E-02 0.38954037E+03</pdfrwt>
<totfact> 0.27646422E+03</totfact>
</mgrwt>
</event>
<event>
 4    1  0.2581031E-004  0.4250742E+03  0.7818608E-02  0.1035427E+00
          2   -1    0    0  501    0  0.00000000000E+00  0.00000000000E+00  0.15289359018E+04  0.15289359018E+04  0.25500000000E-02 0.  1.
         -2   -1    0    0    0  501 -0.00000000000E+00 -0.00000000000E+00 -0.29544741928E+02  0.29544742038E+02  0.25500000000E-02 0. -1.
    5000001    1    1    2    0    0  0.10285518256E+03  0.12920313569E+03  0.90396138283E+03  0.92765716755E+03  0.12700000000E+03 0.  0.
   -5000001    1    1    2    0    0 -0.10285518256E+03 -0.12920313569E+03  0.59542977700E+03  0.63082347625E+03  0.12700000000E+03 0.  0.
<mgrwt>
<rscale>  0 0.42507419E+03</rscale>
<asrwt>0</asrwt>
<pdfrwt beam="1">  1        2 0.21841951E+00 0.42507419E+03</pdfrwt>
<pdfrwt beam="2">  1       -2 0.42206756E-02 0.42507419E+03</pdfrwt>
<totfact> 0.38292494E+03</totfact>
</mgrwt>
</event>
<event>
 4    1  0.2581031E-004  0.7042842E+03  0.7818608E-02  0.9709934E-01
         -2   -1    0    0    0  501 -0.00000000000E+00  0.00000000000E+00  0.11700186196E+03  0.11700186198E+03  0.25500000000E-02 0. -1.
          2   -1    0    0  501    0  0.00000000000E+00 -0.00000000000E+00 -0.10598469464E+04  0.10598469464E+04  0.25500000000E-02 0.  1.
    5000001    1    1    2    0    0 -0.28932529612E+03  0.47570892519E+02 -0.22412260129E+03  0.39029739584E+03  0.12700000000E+03 0.  0.
   -5000001    1    1    2    0    0  0.28932529612E+03 -0.47570892519E+02 -0.71872248317E+03  0.78655141256E+03  0.12700000000E+03 0.  0.
<mgrwt>
<rscale>  0 0.70428422E+03</rscale>
<asrwt>0</asrwt>
<pdfrwt beam="1">  1        2 0.15140670E+00 0.70428422E+03</pdfrwt>
<pdfrwt beam="2">  1       -2 0.16714552E-01 0.70428422E+03</pdfrwt>
<totfact> 0.75578558E+02</totfact>
</mgrwt>
</event>
<event>
 4    1  0.2581031E-004  0.7880191E+03  0.7818608E-02  0.9577523E-01
         -2   -1    0    0    0  501 -0.00000000000E+00  0.00000000000E+00  0.12848652558E+03  0.12848652561E+03  0.25500000000E-02 0. -1.
          2   -1    0    0  501    0  0.00000000000E+00 -0.00000000000E+00 -0.12082475434E+04  0.12082475434E+04  0.25500000000E-02 0.  1.
    5000001    1    1    2    0    0  0.34668264308E+03  0.32486592370E+02 -0.31311649717E+03  0.48519601657E+03  0.12700000000E+03 0.  0.
   -5000001    1    1    2    0    0 -0.34668264308E+03 -0.32486592370E+02 -0.76664452063E+03  0.85153805241E+03  0.12700000000E+03 0.  0.
<mgrwt>
<rscale>  0 0.78801911E+03</rscale>
<asrwt>0</asrwt>
<pdfrwt beam="1">  1        2 0.17260678E+00 0.78801911E+03</pdfrwt>
<pdfrwt beam="2">  1       -2 0.18355219E-01 0.78801911E+03</pdfrwt>
<totfact> 0.52621616E+02</totfact>
</mgrwt>
</event>
<event>
 4    1  0.2581031E-004  0.3522366E+03  0.7818608E-02  0.1061701E+00
          2   -1    0    0  501    0  0.00000000000E+00  0.00000000000E+00  0.49164331969E+03  0.49164331970E+03  0.25500000000E-02 0.  1.
         -2   -1    0    0    0  501 -0.00000000000E+00 -0.00000000000E+00 -0.63089738354E+02  0.63089738406E+02  0.25500000000E-02 0. -1.
    5000001    1    1    2    0    0  0.43573695726E+02  0.41241771123E+02  0.38160888031E+03  0.40663729314E+03  0.12700000000E+03 0.  0.
   -5000001    1    1    2    0    0 -0.43573695726E+02 -0.41241771123E+02  0.46944701029E+02  0.14809576496E+03  0.12700000000E+03 0.  0.
<mgrwt>
<rscale>  0 0.35223656E+03</rscale>
<asrwt>0</asrwt>
<pdfrwt beam="1">  1        2 0.70234759E-01 0.35223656E+03</pdfrwt>
<pdfrwt beam="2">  1       -2 0.90128198E-02 0.35223656E+03</pdfrwt>
<totfact> 0.54240321E+03</totfact>
</mgrwt>
</event>
<event>
 4    1  0.2581031E-004  0.3162748E+03  0.7818608E-02  0.1077377E+00
         -2   -1    0    0    0  501 -0.00000000000E+00  0.00000000000E+00  0.64761399684E+02  0.64761399734E+02  0.25500000000E-02 0. -1.
          2   -1    0    0  501    0  0.00000000000E+00 -0.00000000000E+00 -0.38614720775E+03  0.38614720776E+03  0.25500000000E-02 0.  1.
    5000001    1    1    2    0    0 -0.23791958151E+02 -0.84453220795E+02 -0.11171835199E+03  0.19054761596E+03  0.12700000000E+03 0.  0.
   -5000001    1    1    2    0    0  0.23791958151E+02  0.84453220795E+02 -0.20966745608E+03  0.26036099153E+03  0.12700000000E+03 0.  0.
<mgrwt>
<rscale>  0 0.31627478E+03</rscale>
<asrwt>0</asrwt>
<pdfrwt beam="1">  1        2 0.55163885E-01 0.31627478E+03</pdfrwt>
<pdfrwt beam="2">  1       -2 0.92516288E-02 0.31627478E+03</pdfrwt>
<totfact> 0.67616820E+03</totfact>
</mgrwt>
</event>
<event>
 4    1  0.2581031E-004  0.3036151E+03  0.7818608E-02  0.1083447E+00
         -2   -1    0    0    0  501 -0.00000000000E+00  0.00000000000E+00  0.26450038023E+02  0.26450038146E+02  0.25500000000E-02 0. -1.
          2   -1    0    0  501    0  0.00000000000E+00 -0.00000000000E+00 -0.87128526843E+03  0.87128526844E+03  0.25500000000E-02 0.  1.
    5000001    1    1    2    0    0  0.75394196084E+02  0.26036572346E+02 -0.49203429878E+03  0.51438209444E+03  0.12700000000E+03 0.  0.
   -5000001    1    1    2    0    0 -0.75394196084E+02 -0.26036572346E+02 -0.35280093163E+03  0.38335321214E+03  0.12700000000E+03 0.  0.
<mgrwt>
<rscale>  0 0.30361508E+03</rscale>
<asrwt>0</asrwt>
<pdfrwt beam="1">  1        2 0.12446931E+00 0.30361508E+03</pdfrwt>
<pdfrwt beam="2">  1       -2 0.37785774E-02 0.30361508E+03</pdfrwt>
<totfact> 0.10484287E+04</totfact>
</mgrwt>
</event>
<event>
 4    1  0.2581031E-004  0.5591214E+03  0.7818608E-02  0.9994045E-01
         -2   -1    0    0    0  501 -0.00000000000E+00  0.00000000000E+00  0.93644392858E+02  0.93644392892E+02  0.25500000000E-02 0. -1.
          2   -1    0    0  501    0  0.00000000000E+00 -0.00000000000E+00 -0.83458475989E+03  0.83458475989E+03  0.25500000000E-02 0.  1.
    5000001    1    1    2    0    0  0.71583758396E+02 -0.70342009595E+01  0.25370054132E+02  0.14814301906E+03  0.12700000000E+03 0.  0.
   -5000001    1    1    2    0    0 -0.71583758396E+02  0.70342009595E+01 -0.76631042116E+03  0.78008613373E+03  0.12700000000E+03 0.  0.
<mgrwt>
<rscale>  0 0.55912139E+03</rscale>
<asrwt>0</asrwt>
<pdfrwt beam="1">  1        2 0.11922639E+00 0.55912139E+03</pdfrwt>
<pdfrwt beam="2">  1       -2 0.13377771E-01 0.55912139E+03</pdfrwt>
<totfact> 0.15303379E+03</totfact>
</mgrwt>
</event>
<event>
 4    1  0.2581031E-004  0.5412379E+03  0.7818608E-02  0.1003543E+00
         -2   -1    0    0    0  501 -0.00000000000E+00  0.00000000000E+00  0.92691195504E+02  0.92691195539E+02  0.25500000000E-02 0. -1.
          2   -1    0    0  501    0  0.00000000000E+00 -0.00000000000E+00 -0.79009234612E+03  0.79009234612E+03  0.25500000000E-02 0.  1.
    5000001    1    1    2    0    0 -0.23740440730E+03 -0.21002780693E+02 -0.32027941589E+03  0.41893898559E+03  0.12700000000E+03 0.  0.
   -5000001    1    1    2    0    0  0.23740440730E+03  0.21002780693E+02 -0.37712173472E+03  0.46384455607E+03  0.12700000000E+03 0.  0.
<mgrwt>
<rscale>  0 0.54123786E+03</rscale>
<asrwt>0</asrwt>
<pdfrwt beam="1">  1        2 0.11287033E+00 0.54123786E+03</pdfrwt>
<pdfrwt beam="2">  1       -2 0.13241600E-01 0.54123786E+03</pdfrwt>
<totfact> 0.16699037E+03</totfact>
</mgrwt>
</event>
<event>
 4    1  0.2581031E-004  0.3990760E+03  0.7818608E-02  0.1044100E+00
         -2   -1    0    0    0  501 -0.00000000000E+00  0.00000000000E+00  0.23199943379E+02  0.23199943519E+02  0.25500000000E-02 0. -1.
          2   -1    0    0  501    0  0.00000000000E+00 -0.00000000000E+00 -0.17161856359E+04  0.17161856359E+04  0.25500000000E-02 0.  1.
    5000001    1    1    2    0    0 -0.67784058760E+02 -0.61764949489E+02 -0.30778067771E+03  0.34535131848E+03  0.12700000000E+03 0.  0.
   -5000001    1    1    2    0    0  0.67784058760E+02  0.61764949489E+02 -0.13852050148E+04  0.13940342609E+04  0.12700000000E+03 0.  0.
<mgrwt>
<rscale>  0 0.39907598E+03</rscale>
<asrwt>0</asrwt>
<pdfrwt beam="1">  1        2 0.24516930E+00 0.39907598E+03</pdfrwt>
<pdfrwt beam="2">  1       -2 0.33142787E-02 0.39907598E+03</pdfrwt>
<totfact> 0.44446105E+03</totfact>
</mgrwt>
</event>
<event>
 4    1  0.2581031E-004  0.5514182E+03  0.7818608E-02  0.1001166E+00
          2   -1    0    0  501    0  0.00000000000E+00  0.00000000000E+00  0.21712573064E+04  0.21712573064E+04  0.25500000000E-02 0.  1.
         -2   -1    0    0    0  501 -0.00000000000E+00 -0.00000000000E+00 -0.35009907493E+02  0.35009907586E+02  0.25500000000E-02 0. -1.
    5000001    1    1    2    0    0 -0.17031783047E+03  0.98130424104E+02  0.48488823194E+03  0.53840815464E+03  0.12700000000E+03 0.  0.
   -5000001    1    1    2    0    0  0.17031783047E+03 -0.98130424104E+02  0.16513591669E+04  0.16678590593E+04  0.12700000000E+03 0.  0.
<mgrwt>
<rscale>  0 0.55141824E+03</rscale>
<asrwt>0</asrwt>
<pdfrwt beam="1">  1        2 0.31017969E+00 0.55141824E+03</pdfrwt>
<pdfrwt beam="2">  1       -2 0.50014141E-02 0.55141824E+03</pdfrwt>
<totfact> 0.13975572E+03</totfact>
</mgrwt>
</event>
<event>
 4    1  0.2581031E-004  0.3693448E+03  0.7818608E-02  0.1054944E+00
         -2   -1    0    0    0  501 -0.00000000000E+00  0.00000000000E+00  0.11371150306E+03  0.11371150309E+03  0.25500000000E-02 0. -1.
          2   -1    0    0  501    0  0.00000000000E+00 -0.00000000000E+00 -0.29991597733E+03  0.29991597734E+03  0.25500000000E-02 0.  1.
    5000001    1    1    2    0    0  0.11792568496E+03  0.55117484083E+02 -0.57152164262E+02  0.19062994021E+03  0.12700000000E+03 0.  0.
   -5000001    1    1    2    0    0 -0.11792568496E+03 -0.55117484083E+02 -0.12905231001E+03  0.22299754022E+03  0.12700000000E+03 0.  0.
<mgrwt>
<rscale>  0 0.36934481E+03</rscale>
<asrwt>0</asrwt>
<pdfrwt beam="1">  1        2 0.42845139E-01 0.36934481E+03</pdfrwt>
<pdfrwt beam="2">  1       -2 0.16244501E-01 0.36934481E+03</pdfrwt>
<totfact> 0.35705190E+03</totfact>
</mgrwt>
</event>
<event>
 4    1  0.2581031E-004  0.5102572E+03  0.7818608E-02  0.1011136E+00
          2   -1    0    0  501    0  0.00000000000E+00  0.00000000000E+00  0.70740170931E+03  0.70740170931E+03  0.25500000000E-02 0.  1.
         -2   -1    0    0    0  501 -0.00000000000E+00 -0.00000000000E+00 -0.92013644806E+02  0.92013644842E+02  0.25500000000E-02 0. -1.
    5000001    1    1    2    0    0 -0.13544342191E+03 -0.84573967859E+02  0.54767882676E+03  0.58444740898E+03  0.12700000000E+03 0.  0.
   -5000001    1    1    2    0    0  0.13544342191E+03  0.84573967859E+02  0.67709237740E+02  0.21496794518E+03  0.12700000000E+03 0.  0.
<mgrwt>
<rscale>  0 0.51025723E+03</rscale>
<asrwt>0</asrwt>
<pdfrwt beam="1">  1        2 0.10105739E+00 0.51025723E+03</pdfrwt>
<pdfrwt beam="2">  1       -2 0.13144807E-01 0.51025723E+03</pdfrwt>
<totfact> 0.19394605E+03</totfact>
</mgrwt>
</event>
<event>
 4    1  0.2581031E-004  0.3822323E+03  0.7818608E-02  0.1050112E+00
          2   -1    0    0  501    0  0.00000000000E+00  0.00000000000E+00  0.10229051859E+04  0.10229051859E+04  0.25500000000E-02 0.  1.
         -2   -1    0    0    0  501 -0.00000000000E+00 -0.00000000000E+00 -0.35707496973E+02  0.35707497064E+02  0.25500000000E-02 0. -1.
    5000001    1    1    2    0    0  0.15350206525E+02 -0.14183689796E+03  0.47542723728E+03  0.51236060779E+03  0.12700000000E+03 0.  0.
   -5000001    1    1    2    0    0 -0.15350206525E+02  0.14183689796E+03  0.51177045167E+03  0.54625207521E+03  0.12700000000E+03 0.  0.
<mgrwt>
<rscale>  0 0.38223231E+03</rscale>
<asrwt>0</asrwt>
<pdfrwt beam="1">  1        2 0.14612933E+00 0.38223231E+03</pdfrwt>
<pdfrwt beam="2">  1       -2 0.51010703E-02 0.38223231E+03</pdfrwt>
<totfact> 0.53916447E+03</totfact>
</mgrwt>
</event>
<event>
 4    1  0.2581031E-004  0.8551273E+03  0.7818608E-02  0.9483481E-01
          2   -1    0    0  501    0  0.00000000000E+00  0.00000000000E+00  0.65704998709E+03  0.65704998710E+03  0.25500000000E-02 0.  1.
         -2   -1    0    0    0  501 -0.00000000000E+00 -0.00000000000E+00 -0.27822947460E+03  0.27822947462E+03  0.25500000000E-02 0. -1.
    5000001    1    1    2    0    0  0.11423483321E+03  0.39195534342E+03  0.19133110179E+03  0.46841773970E+03  0.12700000000E+03 0.  0.
   -5000001    1    1    2    0    0 -0.11423483321E+03 -0.39195534342E+03  0.18748941070E+03  0.46686172201E+03  0.12700000000E+03 0.  0.
<mgrwt>
<rscale>  0 0.85512730E+03</rscale>
<asrwt>0</asrwt>
<pdfrwt beam="1">  1        2 0.93864283E-01 0.85512730E+03</pdfrwt>
<pdfrwt beam="2">  1       -2 0.39747068E-01 0.85512730E+03</pdfrwt>
<totfact> 0.29218234E+02</totfact>
</mgrwt>
</event>
<event>
 4    1  0.2581031E-004  0.1239123E+04  0.7818608E-02  0.9079285E-01
         -2   -1    0    0    0  501 -0.00000000000E+00  0.00000000000E+00  0.37863738974E+03  0.37863738975E+03  0.25500000000E-02 0. -1.
          2   -1    0    0  501    0  0.00000000000E+00 -0.00000000000E+00 -0.10137842744E+04  0.10137842744E+04  0.25500000000E-02 0.  1.
    5000001    1    1    2    0    0  0.52520357408E+03  0.16926485038E+02  0.22528815835E+02  0.54107471542E+03  0.12700000000E+03 0.  0.
   -5000001    1    1    2    0    0 -0.52520357408E+03 -0.16926485038E+02 -0.65767570052E+03  0.85134694876E+03  0.12700000000E+03 0.  0.
<mgrwt>
<rscale>  0 0.12391233E+04</rscale>
<asrwt>0</asrwt>
<pdfrwt beam="1">  1        2 0.14482632E+00 0.12391233E+04</pdfrwt>
<pdfrwt beam="2">  1       -2 0.54091056E-01 0.12391233E+04</pdfrwt>
<totfact> 0.87279598E+01</totfact>
</mgrwt>
</event>
<event>
 4    1  0.2581031E-004  0.4508235E+03  0.7818608E-02  0.1027477E+00
          2   -1    0    0  501    0  0.00000000000E+00  0.00000000000E+00  0.46300726256E+03  0.46300726256E+03  0.25500000000E-02 0.  1.
         -2   -1    0    0    0  501 -0.00000000000E+00 -0.00000000000E+00 -0.10974010388E+03  0.10974010391E+03  0.25500000000E-02 0. -1.
    5000001    1    1    2    0    0  0.10747754050E+03 -0.14651354268E+03  0.22845512580E+03  0.31833690393E+03  0.12700000000E+03 0.  0.
   -5000001    1    1    2    0    0 -0.10747754050E+03  0.14651354268E+03  0.12481203287E+03  0.25441046254E+03  0.12700000000E+03 0.  0.
<mgrwt>
<rscale>  0 0.45082354E+03</rscale>
<asrwt>0</asrwt>
<pdfrwt beam="1">  1        2 0.66143896E-01 0.45082354E+03</pdfrwt>
<pdfrwt beam="2">  1       -2 0.15677157E-01 0.45082354E+03</pdfrwt>
<totfact> 0.23621021E+03</totfact>
</mgrwt>
</event>
<event>
 4    1  0.2581031E-004  0.5795370E+03  0.7818608E-02  0.9948794E-01
          2   -1    0    0  501    0  0.00000000000E+00  0.00000000000E+00  0.97949832713E+03  0.97949832714E+03  0.25500000000E-02 0.  1.
         -2   -1    0    0    0  501 -0.00000000000E+00 -0.00000000000E+00 -0.85723253809E+02  0.85723253847E+02  0.25500000000E-02 0. -1.
    5000001    1    1    2    0    0  0.43210942789E+01  0.24748940878E+03  0.29793573916E+03  0.40763265814E+03  0.12700000000E+03 0.  0.
   -5000001    1    1    2    0    0 -0.43210942789E+01 -0.24748940878E+03  0.59583933417E+03  0.65758892285E+03  0.12700000000E+03 0.  0.
<mgrwt>
<rscale>  0 0.57953700E+03</rscale>
<asrwt>0</asrwt>
<pdfrwt beam="1">  1        2 0.13992833E+00 0.57953700E+03</pdfrwt>
<pdfrwt beam="2">  1       -2 0.12246179E-01 0.57953700E+03</pdfrwt>
<totfact> 0.14291376E+03</totfact>
</mgrwt>
</event>
<event>
 4    1  0.2581031E-004  0.3100887E+03  0.7818608E-02  0.1080303E+00
         -2   -1    0    0    0  501 -0.00000000000E+00  0.00000000000E+00  0.27226868593E+02  0.27226868713E+02  0.25500000000E-02 0. -1.
          2   -1    0    0  501    0  0.00000000000E+00 -0.00000000000E+00 -0.88290518402E+03  0.88290518403E+03  0.25500000000E-02 0.  1.
    5000001    1    1    2    0    0 -0.76578435993E+02  0.22184513407E+02 -0.31216110887E+03  0.34630906339E+03  0.12700000000E+03 0.  0.
   -5000001    1    1    2    0    0  0.76578435993E+02 -0.22184513407E+02 -0.54351720656E+03  0.56382298935E+03  0.12700000000E+03 0.  0.
<mgrwt>
<rscale>  0 0.31008865E+03</rscale>
<asrwt>0</asrwt>
<pdfrwt beam="1">  1        2 0.12612929E+00 0.31008865E+03</pdfrwt>
<pdfrwt beam="2">  1       -2 0.38895532E-02 0.31008865E+03</pdfrwt>
<totfact> 0.98737054E+03</totfact>
</mgrwt>
</event>
<event>
 4    1  0.2581031E-004  0.2634337E+03  0.7818608E-02  0.1105098E+00
         -2   -1    0    0    0  501 -0.00000000000E+00  0.00000000000E+00  0.58353622465E+01  0.58353628037E+01  0.25500000000E-02 0. -1.
          2   -1    0    0  501    0  0.00000000000E+00 -0.00000000000E+00 -0.29731365896E+04  0.29731365896E+04  0.25500000000E-02 0.  1.
    5000001    1    1    2    0    0 -0.74554557827E+01 -0.27961186376E+02 -0.17049335881E+04  0.17099020298E+04  0.12700000000E+03 0.  0.
   -5000001    1    1    2    0    0  0.74554557827E+01  0.27961186376E+02 -0.12623676392E+04  0.12690699226E+04  0.12700000000E+03 0.  0.
<mgrwt>
<rscale>  0 0.26343371E+03</rscale>
<asrwt>0</asrwt>
<pdfrwt beam="1">  1        2 0.42473283E+00 0.26343371E+03</pdfrwt>
<pdfrwt beam="2">  1       -2 0.83362512E-03 0.26343371E+03</pdfrwt>
<totfact> 0.79669290E+03</totfact>
</mgrwt>
</event>
<event>
 4    1  0.2581031E-004  0.3982516E+03  0.7818608E-02  0.1044387E+00
          2   -1    0    0  501    0  0.00000000000E+00  0.00000000000E+00  0.17539474650E+04  0.17539474650E+04  0.25500000000E-02 0.  1.
         -2   -1    0    0    0  501 -0.00000000000E+00 -0.00000000000E+00 -0.22606771182E+02  0.22606771326E+02  0.25500000000E-02 0. -1.
    5000001    1    1    2    0    0  0.10844814218E+03 -0.54699185143E+02  0.44793796065E+03  0.48117607691E+03  0.12700000000E+03 0.  0.
   -5000001    1    1    2    0    0 -0.10844814218E+03  0.54699185143E+02  0.12834027332E+04  0.12953781594E+04  0.12700000000E+03 0.  0.
<mgrwt>
<rscale>  0 0.39825162E+03</rscale>
<asrwt>0</asrwt>
<pdfrwt beam="1">  1        2 0.25056386E+00 0.39825162E+03</pdfrwt>
<pdfrwt beam="2">  1       -2 0.32295396E-02 0.39825162E+03</pdfrwt>
<totfact> 0.44253908E+03</totfact>
</mgrwt>
</event>
<event>
 4    1  0.2581031E-004  0.3534619E+03  0.7818608E-02  0.1061203E+00
         -2   -1    0    0    0  501 -0.00000000000E+00  0.00000000000E+00  0.15327624170E+02  0.15327624382E+02  0.25500000000E-02 0. -1.
          2   -1    0    0  501    0  0.00000000000E+00 -0.00000000000E+00 -0.20377478752E+04  0.20377478752E+04  0.25500000000E-02 0.  1.
    5000001    1    1    2    0    0  0.84995420350E+02  0.14262741937E+02 -0.15201463025E+04  0.15278748078E+04  0.12700000000E+03 0.  0.
   -5000001    1    1    2    0    0 -0.84995420350E+02 -0.14262741937E+02 -0.50227394861E+03  0.52520069187E+03  0.12700000000E+03 0.  0.
<mgrwt>
<rscale>  0 0.35346193E+03</rscale>
<asrwt>0</asrwt>
<pdfrwt beam="1">  1        2 0.29110667E+00 0.35346193E+03</pdfrwt>
<pdfrwt beam="2">  1       -2 0.21896619E-02 0.35346193E+03</pdfrwt>
<totfact> 0.57303136E+03</totfact>
</mgrwt>
</event>
<event>
 4    1  0.2581031E-004  0.5628468E+03  0.7818608E-02  0.9985634E-01
         -2   -1    0    0    0  501 -0.00000000000E+00  0.00000000000E+00  0.12163320704E+03  0.12163320707E+03  0.25500000000E-02 0. -1.
          2   -1    0    0  501    0  0.00000000000E+00 -0.00000000000E+00 -0.65113075650E+03  0.65113075651E+03  0.25500000000E-02 0.  1.
    5000001    1    1    2    0    0 -0.22528406430E+03 -0.67782390541E+02 -0.14409443370E+03  0.30370967702E+03  0.12700000000E+03 0.  0.
   -5000001    1    1    2    0    0  0.22528406430E+03  0.67782390541E+02 -0.38540311576E+03  0.46905428655E+03  0.12700000000E+03 0.  0.
<mgrwt>
<rscale>  0 0.56284677E+03</rscale>
<asrwt>0</asrwt>
<pdfrwt beam="1">  1        2 0.93018678E-01 0.56284677E+03</pdfrwt>
<pdfrwt beam="2">  1       -2 0.17376173E-01 0.56284677E+03</pdfrwt>
<totfact> 0.13408462E+03</totfact>
</mgrwt>
</event>
<event>
 4    1  0.2581031E-004  0.5105320E+03  0.7818608E-02  0.1011066E+00
          2   -1    0    0  501    0  0.00000000000E+00  0.00000000000E+00  0.13580173986E+04  0.13580173986E+04  0.25500000000E-02 0.  1.
         -2   -1    0    0    0  501 -0.00000000000E+00 -0.00000000000E+00 -0.47982245832E+02  0.47982245900E+02  0.25500000000E-02 0. -1.
    5000001    1    1    2    0    0 -0.15842122833E+03 -0.44841256240E+02  0.10627912617E+04  0.10829414987E+04  0.12700000000E+03 0.  0.
   -5000001    1    1    2    0    0  0.15842122833E+03  0.44841256240E+02  0.24724389108E+03  0.32305814573E+03  0.12700000000E+03 0.  0.
<mgrwt>
<rscale>  0 0.51053198E+03</rscale>
<asrwt>0</asrwt>
<pdfrwt beam="1">  1        2 0.19400246E+00 0.51053198E+03</pdfrwt>
<pdfrwt beam="2">  1       -2 0.68546074E-02 0.51053198E+03</pdfrwt>
<totfact> 0.22175049E+03</totfact>
</mgrwt>
</event>
<event>
 4    1  0.2581031E-004  0.3132766E+03  0.7818608E-02  0.1078786E+00
          2   -1    0    0  501    0  0.00000000000E+00  0.00000000000E+00  0.10535121256E+03  0.10535121259E+03  0.25500000000E-02 0.  1.
         -2   -1    0    0    0  501 -0.00000000000E+00 -0.00000000000E+00 -0.23289291039E+03  0.23289291041E+03  0.25500000000E-02 0. -1.
    5000001    1    1    2    0    0 -0.34014755608E+01  0.51998689571E+02 -0.14522272808E+03  0.19983511829E+03  0.12700000000E+03 0.  0.
   -5000001    1    1    2    0    0  0.34014755608E+01 -0.51998689571E+02  0.17681030246E+02  0.13840900471E+03  0.12700000000E+03 0.  0.
<mgrwt>
<rscale>  0 0.31327656E+03</rscale>
<asrwt>0</asrwt>
<pdfrwt beam="1">  1        2 0.15050173E-01 0.31327656E+03</pdfrwt>
<pdfrwt beam="2">  1       -2 0.33270416E-01 0.31327656E+03</pdfrwt>
<totfact> 0.32809753E+03</totfact>
</mgrwt>
</event>
<event>
 4    1  0.2581031E-004  0.3593658E+03  0.7818608E-02  0.1058835E+00
         -2   -1    0    0    0  501 -0.00000000000E+00  0.00000000000E+00  0.35025970934E+02  0.35025971027E+02  0.25500000000E-02 0. -1.
          2   -1    0    0  501    0  0.00000000000E+00 -0.00000000000E+00 -0.92177149918E+03  0.92177149918E+03  0.25500000000E-02 0.  1.
    5000001    1    1    2    0    0  0.53398329038E+02  0.94561782426E+02 -0.26749650088E+03  0.31539925527E+03  0.12700000000E+03 0.  0.
   -5000001    1    1    2    0    0 -0.53398329038E+02 -0.94561782426E+02 -0.61924902736E+03  0.64139821494E+03  0.12700000000E+03 0.  0.
<mgrwt>
<rscale>  0 0.35936578E+03</rscale>
<asrwt>0</asrwt>
<pdfrwt beam="1">  1        2 0.13168163E+00 0.35936578E+03</pdfrwt>
<pdfrwt beam="2">  1       -2 0.50037107E-02 0.35936578E+03</pdfrwt>
<totfact> 0.63895923E+03</totfact>
</mgrwt>
</event>
<event>
 4    1  0.2581031E-004  0.3785758E+03  0.7818608E-02  0.1051461E+00
          2   -1    0    0  501    0  0.00000000000E+00  0.00000000000E+00  0.63434452603E+03  0.63434452603E+03  0.25500000000E-02 0.  1.
         -2   -1    0    0    0  501 -0.00000000000E+00 -0.00000000000E+00 -0.56483346202E+02  0.56483346260E+02  0.25500000000E-02 0. -1.
    5000001    1    1    2    0    0 -0.90510532709E+02 -0.40662639546E+02  0.10777495121E+03  0.19388152799E+03  0.12700000000E+03 0.  0.
   -5000001    1    1    2    0    0  0.90510532709E+02  0.40662639546E+02  0.47008622861E+03  0.49694634430E+03  0.12700000000E+03 0.  0.
<mgrwt>
<rscale>  0 0.37857576E+03</rscale>
<asrwt>0</asrwt>
<pdfrwt beam="1">  1        2 0.90620637E-01 0.37857576E+03</pdfrwt>
<pdfrwt beam="2">  1       -2 0.80690504E-02 0.37857576E+03</pdfrwt>
<totfact> 0.48398391E+03</totfact>
</mgrwt>
</event>
<event>
 4    1  0.2581031E-004  0.2964967E+03  0.7818608E-02  0.1087005E+00
         -2   -1    0    0    0  501 -0.00000000000E+00  0.00000000000E+00  0.35120557251E+03  0.35120557252E+03  0.25500000000E-02 0. -1.
          2   -1    0    0  501    0  0.00000000000E+00 -0.00000000000E+00 -0.62577521127E+02  0.62577521179E+02  0.25500000000E-02 0.  1.
    5000001    1    1    2    0    0 -0.71739074241E+01 -0.72873516457E+02  0.17509773723E+03  0.22836425274E+03  0.12700000000E+03 0.  0.
   -5000001    1    1    2    0    0  0.71739074241E+01  0.72873516457E+02  0.11353031415E+03  0.18541884095E+03  0.12700000000E+03 0.  0.
<mgrwt>
<rscale>  0 0.29649671E+03</rscale>
<asrwt>0</asrwt>
<pdfrwt beam="1">  1        2 0.89396462E-02 0.29649671E+03</pdfrwt>
<pdfrwt beam="2">  1       -2 0.50172223E-01 0.29649671E+03</pdfrwt>
<totfact> 0.28147482E+03</totfact>
</mgrwt>
</event>
<event>
 4    1  0.2581031E-004  0.4378422E+03  0.7818608E-02  0.1031411E+00
         -2   -1    0    0    0  501 -0.00000000000E+00  0.00000000000E+00  0.39965648573E+02  0.39965648655E+02  0.25500000000E-02 0. -1.
          2   -1    0    0  501    0  0.00000000000E+00 -0.00000000000E+00 -0.11991909741E+04  0.11991909741E+04  0.25500000000E-02 0.  1.
    5000001    1    1    2    0    0 -0.11667507323E+03 -0.95456505837E+02 -0.84918191907E+03  0.87175911174E+03  0.12700000000E+03 0.  0.
   -5000001    1    1    2    0    0  0.11667507323E+03  0.95456505837E+02 -0.31004340648E+03  0.36739751104E+03  0.12700000000E+03 0.  0.
<mgrwt>
<rscale>  0 0.43784219E+03</rscale>
<asrwt>0</asrwt>
<pdfrwt beam="1">  1        2 0.17131297E+00 0.43784219E+03</pdfrwt>
<pdfrwt beam="2">  1       -2 0.57093791E-02 0.43784219E+03</pdfrwt>
<totfact> 0.35984266E+03</totfact>
</mgrwt>
</event>
<event>
 4    1  0.2581031E-004  0.4177841E+03  0.7818608E-02  0.1037790E+00
          2   -1    0    0  501    0  0.00000000000E+00  0.00000000000E+00  0.14719666730E+04  0.14719666730E+04  0.25500000000E-02 0. -1.
         -2   -1    0    0    0  501 -0.00000000000E+00 -0.00000000000E+00 -0.29644621581E+02  0.29644621691E+02  0.25500000000E-02 0.  1.
    5000001    1    1    2    0    0  0.11537236418E+03  0.11602140886E+03  0.81861334836E+03  0.84441018696E+03  0.12700000000E+03 0.  0.
   -5000001    1    1    2    0    0 -0.11537236418E+03 -0.11602140886E+03  0.62370870304E+03  0.65720110771E+03  0.12700000000E+03 0.  0.
<mgrwt>
<rscale>  0 0.41778413E+03</rscale>
<asrwt>0</asrwt>
<pdfrwt beam="1">  1        2 0.21028089E+00 0.41778413E+03</pdfrwt>
<pdfrwt beam="2">  1       -2 0.42349472E-02 0.41778413E+03</pdfrwt>
<totfact> 0.40753680E+03</totfact>
</mgrwt>
</event>
<event>
 4    1  0.2581031E-004  0.1229235E+04  0.7818608E-02  0.9087645E-01
          2   -1    0    0  501    0  0.00000000000E+00  0.00000000000E+00  0.64216694028E+03  0.64216694028E+03  0.25500000000E-02 0.  1.
         -2   -1    0    0    0  501 -0.00000000000E+00 -0.00000000000E+00 -0.58825001978E+03  0.58825001978E+03  0.25500000000E-02 0. -1.
    5000001    1    1    2    0    0 -0.20213402350E+02  0.51523243996E+03  0.33669525838E+03  0.62878115894E+03  0.12700000000E+03 0.  0.
   -5000001    1    1    2    0    0  0.20213402350E+02 -0.51523243996E+03 -0.28277833789E+03  0.60163580113E+03  0.12700000000E+03 0.  0.
<mgrwt>
<rscale>  0 0.12292351E+04</rscale>
<asrwt>0</asrwt>
<pdfrwt beam="1">  1        2 0.91738134E-01 0.12292351E+04</pdfrwt>
<pdfrwt beam="2">  1       -2 0.84035717E-01 0.12292351E+04</pdfrwt>
<totfact> 0.61003964E+01</totfact>
</mgrwt>
</event>
<event>
 4    1  0.2581031E-004  0.3405386E+03  0.7818608E-02  0.1066567E+00
         -2   -1    0    0    0  501 -0.00000000000E+00  0.00000000000E+00  0.73188100811E+02  0.73188100855E+02  0.25500000000E-02 0. -1.
          2   -1    0    0  501    0  0.00000000000E+00 -0.00000000000E+00 -0.39612506666E+03  0.39612506667E+03  0.25500000000E-02 0.  1.
    5000001    1    1    2    0    0  0.43794373440E+02 -0.82436495298E+02 -0.25023798627E+03  0.29573936612E+03  0.12700000000E+03 0.  0.
   -5000001    1    1    2    0    0 -0.43794373440E+02  0.82436495298E+02 -0.72698979586E+02  0.17357380141E+03  0.12700000000E+03 0.  0.
<mgrwt>
<rscale>  0 0.34053864E+03</rscale>
<asrwt>0</asrwt>
<pdfrwt beam="1">  1        2 0.56589294E-01 0.34053864E+03</pdfrwt>
<pdfrwt beam="2">  1       -2 0.10455443E-01 0.34053864E+03</pdfrwt>
<totfact> 0.54234506E+03</totfact>
</mgrwt>
</event>
<event>
 4    1  0.2581031E-004  0.6117785E+03  0.7818608E-02  0.9881266E-01
         -2   -1    0    0    0  501 -0.00000000000E+00  0.00000000000E+00  0.11380453114E+03  0.11380453117E+03  0.25500000000E-02 0. -1.
          2   -1    0    0  501    0  0.00000000000E+00 -0.00000000000E+00 -0.82218381935E+03  0.82218381936E+03  0.25500000000E-02 0.  1.
    5000001    1    1    2    0    0  0.54464501216E+02  0.25127989723E+03 -0.19132920316E+03  0.34473733860E+03  0.12700000000E+03 0.  0.
   -5000001    1    1    2    0    0 -0.54464501216E+02 -0.25127989723E+03 -0.51705008505E+03  0.59125101192E+03  0.12700000000E+03 0.  0.
<mgrwt>
<rscale>  0 0.61177854E+03</rscale>
<asrwt>0</asrwt>
<pdfrwt beam="1">  1        2 0.11745483E+00 0.61177854E+03</pdfrwt>
<pdfrwt beam="2">  1       -2 0.16257791E-01 0.61177854E+03</pdfrwt>
<totfact> 0.11236611E+03</totfact>
</mgrwt>
</event>
<event>
 4    1  0.2581031E-004  0.3846451E+03  0.7818608E-02  0.1049230E+00
          2   -1    0    0  501    0  0.00000000000E+00  0.00000000000E+00  0.49162639279E+03  0.49162639279E+03  0.25500000000E-02 0.  1.
         -2   -1    0    0    0  501 -0.00000000000E+00 -0.00000000000E+00 -0.75235925661E+02  0.75235925705E+02  0.25500000000E-02 0. -1.
    5000001    1    1    2    0    0  0.13296380148E+03 -0.21823195354E+02  0.28481977554E+03  0.33971595325E+03  0.12700000000E+03 0.  0.
   -5000001    1    1    2    0    0 -0.13296380148E+03  0.21823195354E+02  0.13157069159E+03  0.22714636524E+03  0.12700000000E+03 0.  0.
<mgrwt>
<rscale>  0 0.38464512E+03</rscale>
<asrwt>0</asrwt>
<pdfrwt beam="1">  1        2 0.70232345E-01 0.38464512E+03</pdfrwt>
<pdfrwt beam="2">  1       -2 0.10747989E-01 0.38464512E+03</pdfrwt>
<totfact> 0.41010251E+03</totfact>
</mgrwt>
</event>
<event>
 4    1  0.2581031E-004  0.3755587E+03  0.7818608E-02  0.1052588E+00
         -2   -1    0    0    0  501 -0.00000000000E+00  0.00000000000E+00  0.19098599760E+02  0.19098599930E+02  0.25500000000E-02 0. -1.
          2   -1    0    0  501    0  0.00000000000E+00 -0.00000000000E+00 -0.18462652232E+04  0.18462652232E+04  0.25500000000E-02 0.  1.
    5000001    1    1    2    0    0 -0.11711369818E+03 -0.43203996700E+02 -0.12095156340E+04  0.12225544047E+04  0.12700000000E+03 0.  0.
   -5000001    1    1    2    0    0  0.11711369818E+03  0.43203996700E+02 -0.61765098948E+03  0.64280941844E+03  0.12700000000E+03 0.  0.
<mgrwt>
<rscale>  0 0.37555868E+03</rscale>
<asrwt>0</asrwt>
<pdfrwt beam="1">  1        2 0.26375206E+00 0.37555868E+03</pdfrwt>
<pdfrwt beam="2">  1       -2 0.27283726E-02 0.37555868E+03</pdfrwt>
<totfact> 0.51305849E+03</totfact>
</mgrwt>
</event>
<event>
 4    1  0.2581031E-004  0.3340646E+03  0.7818608E-02  0.1069352E+00
          2   -1    0    0  501    0  0.00000000000E+00  0.00000000000E+00  0.24767207841E+03  0.24767207842E+03  0.25500000000E-02 0.  1.
         -2   -1    0    0    0  501 -0.00000000000E+00 -0.00000000000E+00 -0.11264813149E+03  0.11264813151E+03  0.25500000000E-02 0. -1.
    5000001    1    1    2    0    0  0.35100301580E+02  0.87768546310E+02  0.12494595798E+03  0.20168252603E+03  0.12700000000E+03 0.  0.
   -5000001    1    1    2    0    0 -0.35100301580E+02 -0.87768546310E+02  0.10077988944E+02  0.15863768390E+03  0.12700000000E+03 0.  0.
<mgrwt>
<rscale>  0 0.33406465E+03</rscale>
<asrwt>0</asrwt>
<pdfrwt beam="1">  1        2 0.35381725E-01 0.33406465E+03</pdfrwt>
<pdfrwt beam="2">  1       -2 0.16092590E-01 0.33406465E+03</pdfrwt>
<totfact> 0.44570039E+03</totfact>
</mgrwt>
</event>
<event>
 4    1  0.2581031E-004  0.1021856E+04  0.7818608E-02  0.9284893E-01
         -2   -1    0    0    0  501 -0.00000000000E+00  0.00000000000E+00  0.30810037378E+03  0.30810037379E+03  0.25500000000E-02 0. -1.
          2   -1    0    0  501    0  0.00000000000E+00 -0.00000000000E+00 -0.84728103214E+03  0.84728103214E+03  0.25500000000E-02 0.  1.
    5000001    1    1    2    0    0  0.46786114310E+03 -0.89139674328E+02 -0.11756400820E+03  0.50674473533E+03  0.12700000000E+03 0.  0.
   -5000001    1    1    2    0    0 -0.46786114310E+03  0.89139674328E+02 -0.42161665016E+03  0.64863667060E+03  0.12700000000E+03 0.  0.
<mgrwt>
<rscale>  0 0.10218564E+04</rscale>
<asrwt>0</asrwt>
<pdfrwt beam="1">  1        2 0.12104015E+00 0.10218564E+04</pdfrwt>
<pdfrwt beam="2">  1       -2 0.44014340E-01 0.10218564E+04</pdfrwt>
<totfact> 0.17195679E+02</totfact>
</mgrwt>
</event>
<event>
 4    1  0.2581031E-004  0.3032094E+03  0.7818608E-02  0.1083647E+00
         -2   -1    0    0    0  501 -0.00000000000E+00  0.00000000000E+00  0.14368512591E+02  0.14368512817E+02  0.25500000000E-02 0. -1.
          2   -1    0    0  501    0  0.00000000000E+00 -0.00000000000E+00 -0.15996074684E+04  0.15996074684E+04  0.25500000000E-02 0.  1.
    5000001    1    1    2    0    0 -0.81437199328E+02 -0.10788296237E+02 -0.84757142270E+03  0.86096150979E+03  0.12700000000E+03 0.  0.
   -5000001    1    1    2    0    0  0.81437199328E+02  0.10788296237E+02 -0.73766753308E+03  0.75301447140E+03  0.12700000000E+03 0.  0.
<mgrwt>
<rscale>  0 0.30320937E+03</rscale>
<asrwt>0</asrwt>
<pdfrwt beam="1">  1        2 0.22851524E+00 0.30320937E+03</pdfrwt>
<pdfrwt beam="2">  1       -2 0.20526457E-02 0.30320937E+03</pdfrwt>
<totfact> 0.10364303E+04</totfact>
</mgrwt>
</event>
<event>
 4    1  0.2581031E-004  0.4063116E+03  0.7818608E-02  0.1041616E+00
         -2   -1    0    0    0  501 -0.00000000000E+00  0.00000000000E+00  0.46063751936E+02  0.46063752007E+02  0.25500000000E-02 0. -1.
          2   -1    0    0  501    0  0.00000000000E+00 -0.00000000000E+00 -0.89598185590E+03  0.89598185590E+03  0.25500000000E-02 0.  1.
    5000001    1    1    2    0    0 -0.76543172912E+01 -0.15641084198E+03 -0.36721202397E+03  0.41892315597E+03  0.12700000000E+03 0.  0.
   -5000001    1    1    2    0    0  0.76543172912E+01  0.15641084198E+03 -0.48270607999E+03  0.52312245194E+03  0.12700000000E+03 0.  0.
<mgrwt>
<rscale>  0 0.40631163E+03</rscale>
<asrwt>0</asrwt>
<pdfrwt beam="1">  1        2 0.12799740E+00 0.40631163E+03</pdfrwt>
<pdfrwt beam="2">  1       -2 0.65805365E-02 0.40631163E+03</pdfrwt>
<totfact> 0.43539366E+03</totfact>
</mgrwt>
</event>
<event>
 4    1  0.2581031E-004  0.3040130E+03  0.7818608E-02  0.1083252E+00
         -2   -1    0    0    0  501 -0.00000000000E+00  0.00000000000E+00  0.26721983690E+02  0.26721983812E+02  0.25500000000E-02 0. -1.
          2   -1    0    0  501    0  0.00000000000E+00 -0.00000000000E+00 -0.86468060342E+03  0.86468060342E+03  0.25500000000E-02 0.  1.
    5000001    1    1    2    0    0 -0.48618159870E+02 -0.67733851760E+02 -0.40420745106E+03  0.43181508037E+03  0.12700000000E+03 0.  0.
   -5000001    1    1    2    0    0  0.48618159870E+02  0.67733851760E+02 -0.43375116867E+03  0.45958750686E+03  0.12700000000E+03 0.  0.
<mgrwt>
<rscale>  0 0.30401303E+03</rscale>
<asrwt>0</asrwt>
<pdfrwt beam="1">  1        2 0.12352578E+00 0.30401303E+03</pdfrwt>
<pdfrwt beam="2">  1       -2 0.38174268E-02 0.30401303E+03</pdfrwt>
<totfact> 0.10425769E+04</totfact>
</mgrwt>
</event>
<event>
 4    1  0.2581031E-004  0.5054629E+03  0.7818608E-02  0.1012363E+00
         -2   -1    0    0    0  501 -0.00000000000E+00  0.00000000000E+00  0.67891598596E+02  0.67891598644E+02  0.25500000000E-02 0.  1.
          2   -1    0    0  501    0  0.00000000000E+00 -0.00000000000E+00 -0.94081129304E+03  0.94081129304E+03  0.25500000000E-02 0. -1.
    5000001    1    1    2    0    0  0.20390158576E+03  0.60299146557E+02 -0.53688324423E+03  0.59125668003E+03  0.12700000000E+03 0.  0.
   -5000001    1    1    2    0    0 -0.20390158576E+03 -0.60299146557E+02 -0.33603645021E+03  0.41744621165E+03  0.12700000000E+03 0.  0.
<mgrwt>
<rscale>  0 0.50546289E+03</rscale>
<asrwt>0</asrwt>
<pdfrwt beam="1">  1        2 0.13440161E+00 0.50546289E+03</pdfrwt>
<pdfrwt beam="2">  1       -2 0.96988003E-02 0.50546289E+03</pdfrwt>
<totfact> 0.22098670E+03</totfact>
</mgrwt>
</event>
<event>
 4    1  0.2581031E-004  0.3426916E+03  0.7818608E-02  0.1065655E+00
          2   -1    0    0  501    0  0.00000000000E+00  0.00000000000E+00  0.70129731605E+02  0.70129731651E+02  0.25500000000E-02 0.  1.
         -2   -1    0    0    0  501 -0.00000000000E+00 -0.00000000000E+00 -0.41864384222E+03  0.41864384222E+03  0.25500000000E-02 0. -1.
    5000001    1    1    2    0    0  0.62470834472E+02  0.75182367452E+02 -0.87788977807E+02  0.18273176560E+03  0.12700000000E+03 0.  0.
   -5000001    1    1    2    0    0 -0.62470834472E+02 -0.75182367452E+02 -0.26072513280E+03  0.30604180827E+03  0.12700000000E+03 0.  0.
<mgrwt>
<rscale>  0 0.34269158E+03</rscale>
<asrwt>0</asrwt>
<pdfrwt beam="1">  1        2 0.10018533E-01 0.34269158E+03</pdfrwt>
<pdfrwt beam="2">  1       -2 0.59806262E-01 0.34269158E+03</pdfrwt>
<totfact> 0.17110873E+03</totfact>
</mgrwt>
</event>
<event>
 4    1  0.2581031E-004  0.4694528E+03  0.7818608E-02  0.1022075E+00
          2   -1    0    0  501    0  0.00000000000E+00  0.00000000000E+00  0.13202961035E+04  0.13202961035E+04  0.25500000000E-02 0.  1.
         -2   -1    0    0    0  501 -0.00000000000E+00 -0.00000000000E+00 -0.41730391863E+02  0.41730391941E+02  0.25500000000E-02 0. -1.
    5000001    1    1    2    0    0 -0.17646446411E+03  0.84707649891E+02  0.56517841434E+03  0.61144969792E+03  0.12700000000E+03 0.  0.
   -5000001    1    1    2    0    0  0.17646446411E+03 -0.84707649891E+02  0.71338729732E+03  0.75057679755E+03  0.12700000000E+03 0.  0.
<mgrwt>
<rscale>  0 0.46945276E+03</rscale>
<asrwt>0</asrwt>
<pdfrwt beam="1">  1        2 0.18861373E+00 0.46945276E+03</pdfrwt>
<pdfrwt beam="2">  1       -2 0.59614846E-02 0.46945276E+03</pdfrwt>
<totfact> 0.28911131E+03</totfact>
</mgrwt>
</event>
<event>
 4    1  0.2581031E-004  0.2813322E+03  0.7818608E-02  0.1094964E+00
         -2   -1    0    0    0  501 -0.00000000000E+00  0.00000000000E+00  0.58618956591E+02  0.58618956646E+02  0.25500000000E-02 0. -1.
          2   -1    0    0  501    0  0.00000000000E+00 -0.00000000000E+00 -0.33755214274E+03  0.33755214275E+03  0.25500000000E-02 0.  1.
    5000001    1    1    2    0    0  0.60477816862E+02 -0.97356128752E-01 -0.13860011714E+03  0.19747548780E+03  0.12700000000E+03 0.  0.
   -5000001    1    1    2    0    0 -0.60477816862E+02  0.97356128752E-01 -0.14033306901E+03  0.19869561160E+03  0.12700000000E+03 0.  0.
<mgrwt>
<rscale>  0 0.28133222E+03</rscale>
<asrwt>0</asrwt>
<pdfrwt beam="1">  1        2 0.48221734E-01 0.28133222E+03</pdfrwt>
<pdfrwt beam="2">  1       -2 0.83741368E-02 0.28133222E+03</pdfrwt>
<totfact> 0.91116347E+03</totfact>
</mgrwt>
</event>
<event>
 4    1  0.2581031E-004  0.1067010E+04  0.7818608E-02  0.9237956E-01
          2   -1    0    0  501    0  0.00000000000E+00  0.00000000000E+00  0.21901962705E+04  0.21901962705E+04  0.25500000000E-02 0.  1.
         -2   -1    0    0    0  501 -0.00000000000E+00 -0.00000000000E+00 -0.12995531087E+03  0.12995531090E+03  0.25500000000E-02 0. -1.
    5000001    1    1    2    0    0 -0.50159077422E+03 -0.11733093267E+03  0.90829767541E+03  0.10518999571E+04  0.12700000000E+03 0.  0.
   -5000001    1    1    2    0    0  0.50159077422E+03  0.11733093267E+03  0.11519432842E+04  0.12682516243E+04  0.12700000000E+03 0.  0.
<mgrwt>
<rscale>  0 0.10670101E+04</rscale>
<asrwt>0</asrwt>
<pdfrwt beam="1">  1        2 0.31288516E+00 0.10670101E+04</pdfrwt>
<pdfrwt beam="2">  1       -2 0.18565046E-01 0.10670101E+04</pdfrwt>
<totfact> 0.15546978E+02</totfact>
</mgrwt>
</event>
<event>
 4    1  0.2581031E-004  0.3119201E+03  0.7818608E-02  0.1079429E+00
          2   -1    0    0  501    0  0.00000000000E+00  0.00000000000E+00  0.18582927968E+04  0.18582927969E+04  0.25500000000E-02 0.  1.
         -2   -1    0    0    0  501 -0.00000000000E+00 -0.00000000000E+00 -0.13089186418E+02  0.13089186667E+02  0.25500000000E-02 0. -1.
    5000001    1    1    2    0    0  0.48157517149E+02  0.67733633697E+02  0.70732313010E+03  0.72342380523E+03  0.12700000000E+03 0.  0.
   -5000001    1    1    2    0    0 -0.48157517149E+02 -0.67733633697E+02  0.11378804803E+04  0.11479581783E+04  0.12700000000E+03 0.  0.
<mgrwt>
<rscale>  0 0.31192012E+03</rscale>
<asrwt>0</asrwt>
<pdfrwt beam="1">  1        2 0.26547052E+00 0.31192012E+03</pdfrwt>
<pdfrwt beam="2">  1       -2 0.18698829E-02 0.31192012E+03</pdfrwt>
<totfact> 0.88616481E+03</totfact>
</mgrwt>
</event>
<event>
 4    1  0.2581031E-004  0.7226266E+03  0.7818608E-02  0.9679301E-01
         -2   -1    0    0    0  501 -0.00000000000E+00  0.00000000000E+00  0.29073417485E+03  0.29073417486E+03  0.25500000000E-02 0. -1.
          2   -1    0    0  501    0  0.00000000000E+00 -0.00000000000E+00 -0.44902639445E+03  0.44902639446E+03  0.25500000000E-02 0.  1.
    5000001    1    1    2    0    0  0.32664271063E+03  0.46356059682E+02 -0.27168489198E+01  0.35352613191E+03  0.12700000000E+03 0.  0.
   -5000001    1    1    2    0    0 -0.32664271063E+03 -0.46356059682E+02 -0.15557537068E+03  0.38623443741E+03  0.12700000000E+03 0.  0.
<mgrwt>
<rscale>  0 0.72262665E+03</rscale>
<asrwt>0</asrwt>
<pdfrwt beam="1">  1        2 0.64146628E-01 0.72262665E+03</pdfrwt>
<pdfrwt beam="2">  1       -2 0.41533453E-01 0.72262665E+03</pdfrwt>
<totfact> 0.41970492E+02</totfact>
</mgrwt>
</event>
<event>
 4    1  0.2581031E-004  0.5746752E+03  0.7818608E-02  0.9959386E-01
         -2   -1    0    0    0  501 -0.00000000000E+00  0.00000000000E+00  0.24619958094E+02  0.24619958226E+02  0.25500000000E-02 0. -1.
          2   -1    0    0  501    0  0.00000000000E+00 -0.00000000000E+00 -0.33534945614E+04  0.33534945614E+04  0.25500000000E-02 0.  1.
    5000001    1    1    2    0    0 -0.24388724379E+03  0.76191957481E+02 -0.18635802433E+04  0.18852974634E+04  0.12700000000E+03 0.  0.
   -5000001    1    1    2    0    0  0.24388724379E+03 -0.76191957481E+02 -0.14652943600E+04  0.14928170563E+04  0.12700000000E+03 0.  0.
<mgrwt>
<rscale>  0 0.57467520E+03</rscale>
<asrwt>0</asrwt>
<pdfrwt beam="1">  1        2 0.47907036E+00 0.57467520E+03</pdfrwt>
<pdfrwt beam="2">  1       -2 0.35171390E-02 0.57467520E+03</pdfrwt>
<totfact> 0.56571547E+02</totfact>
</mgrwt>
</event>
<event>
 4    1  0.2581031E-004  0.4016215E+03  0.7818608E-02  0.1043220E+00
          2   -1    0    0  501    0  0.00000000000E+00  0.00000000000E+00  0.15124428351E+04  0.15124428351E+04  0.25500000000E-02 0.  1.
         -2   -1    0    0    0  501 -0.00000000000E+00 -0.00000000000E+00 -0.26662137401E+02  0.26662137523E+02  0.25500000000E-02 0. -1.
    5000001    1    1    2    0    0  0.47211142567E+02 -0.14690684438E+03  0.81812760971E+03  0.84218305533E+03  0.12700000000E+03 0.  0.
   -5000001    1    1    2    0    0 -0.47211142567E+02  0.14690684438E+03  0.66765308799E+03  0.69692191729E+03  0.12700000000E+03 0.  0.
<mgrwt>
<rscale>  0 0.40162151E+03</rscale>
<asrwt>0</asrwt>
<pdfrwt beam="1">  1        2 0.21606332E+00 0.40162151E+03</pdfrwt>
<pdfrwt beam="2">  1       -2 0.38088757E-02 0.40162151E+03</pdfrwt>
<totfact> 0.45644232E+03</totfact>
</mgrwt>
</event>
<event>
 4    1  0.2581031E-004  0.7256580E+03  0.7818608E-02  0.9674332E-01
          2   -1    0    0  501    0  0.00000000000E+00  0.00000000000E+00  0.91687175541E+03  0.91687175541E+03  0.25500000000E-02 0.  1.
         -2   -1    0    0    0  501 -0.00000000000E+00 -0.00000000000E+00 -0.14358048719E+03  0.14358048722E+03  0.25500000000E-02 0. -1.
    5000001    1    1    2    0    0 -0.27369719121E+03  0.88953286526E+02  0.65087851178E+03  0.72290710106E+03  0.12700000000E+03 0.  0.
   -5000001    1    1    2    0    0  0.27369719121E+03 -0.88953286526E+02  0.12241275643E+03  0.33754514157E+03  0.12700000000E+03 0.  0.
<mgrwt>
<rscale>  0 0.72565803E+03</rscale>
<asrwt>0</asrwt>
<pdfrwt beam="1">  1        2 0.13098167E+00 0.72565803E+03</pdfrwt>
<pdfrwt beam="2">  1       -2 0.20511499E-01 0.72565803E+03</pdfrwt>
<totfact> 0.64943703E+02</totfact>
</mgrwt>
</event>
<event>
 4    1  0.2581031E-004  0.9491056E+03  0.7818608E-02  0.9366197E-01
          2   -1    0    0  501    0  0.00000000000E+00  0.00000000000E+00  0.25219678326E+04  0.25219678326E+04  0.25500000000E-02 0.  1.
         -2   -1    0    0    0  501 -0.00000000000E+00 -0.00000000000E+00 -0.89295487800E+02  0.89295487837E+02  0.25500000000E-02 0. -1.
    5000001    1    1    2    0    0  0.37953878080E+03 -0.94528293132E+01  0.19174145238E+04  0.19587614705E+04  0.12700000000E+03 0.  0.
   -5000001    1    1    2    0    0 -0.37953878080E+03  0.94528293132E+01  0.51525782099E+03  0.65250184996E+03  0.12700000000E+03 0.  0.
<mgrwt>
<rscale>  0 0.94910557E+03</rscale>
<asrwt>0</asrwt>
<pdfrwt beam="1">  1        2 0.36028106E+00 0.94910557E+03</pdfrwt>
<pdfrwt beam="2">  1       -2 0.12756500E-01 0.94910557E+03</pdfrwt>
<totfact> 0.20040533E+02</totfact>
</mgrwt>
</event>
<event>
 4    1  0.2581031E-004  0.4378137E+03  0.7818608E-02  0.1031420E+00
          2   -1    0    0  501    0  0.00000000000E+00  0.00000000000E+00  0.98541572711E+03  0.98541572711E+03  0.25500000000E-02 0.  1.
         -2   -1    0    0    0  501 -0.00000000000E+00 -0.00000000000E+00 -0.48629424238E+02  0.48629424305E+02  0.25500000000E-02 0. -1.
    5000001    1    1    2    0    0  0.12072277256E+03 -0.10016653108E+03  0.66857729020E+03  0.69837806003E+03  0.12700000000E+03 0.  0.
   -5000001    1    1    2    0    0 -0.12072277256E+03  0.10016653108E+03  0.26820901268E+03  0.33566709139E+03  0.12700000000E+03 0.  0.
<mgrwt>
<rscale>  0 0.43781366E+03</rscale>
<asrwt>0</asrwt>
<pdfrwt beam="1">  1        2 0.14077367E+00 0.43781366E+03</pdfrwt>
<pdfrwt beam="2">  1       -2 0.69470607E-02 0.43781366E+03</pdfrwt>
<totfact> 0.35222990E+03</totfact>
</mgrwt>
</event>
<event>
 4    1  0.2581031E-004  0.3964648E+03  0.7818608E-02  0.1045011E+00
          2   -1    0    0  501    0  0.00000000000E+00  0.00000000000E+00  0.16127897138E+03  0.16127897140E+03  0.25500000000E-02 0.  1.
         -2   -1    0    0    0  501 -0.00000000000E+00 -0.00000000000E+00 -0.24365290879E+03  0.24365290880E+03  0.25500000000E-02 0. -1.
    5000001    1    1    2    0    0 -0.11280335009E+03  0.89798309288E+02  0.86271517004E+01  0.19233242027E+03  0.12700000000E+03 0.  0.
   -5000001    1    1    2    0    0  0.11280335009E+03 -0.89798309288E+02 -0.91001089111E+02  0.21259945993E+03  0.12700000000E+03 0.  0.
<mgrwt>
<rscale>  0 0.39646483E+03</rscale>
<asrwt>0</asrwt>
<pdfrwt beam="1">  1        2 0.23039853E-01 0.39646483E+03</pdfrwt>
<pdfrwt beam="2">  1       -2 0.34807558E-01 0.39646483E+03</pdfrwt>
<totfact> 0.18458570E+03</totfact>
</mgrwt>
</event>
<event>
 4    1  0.2581031E-004  0.3491417E+03  0.7818608E-02  0.1062968E+00
         -2   -1    0    0    0  501 -0.00000000000E+00  0.00000000000E+00  0.40417311068E+03  0.40417311069E+03  0.25500000000E-02 0. -1.
          2   -1    0    0  501    0  0.00000000000E+00 -0.00000000000E+00 -0.75400797337E+02  0.75400797380E+02  0.25500000000E-02 0.  1.
    5000001    1    1    2    0    0 -0.34385139709E+01 -0.64238583139E+02  0.25610031807E+02  0.14464885990E+03  0.12700000000E+03 0.  0.
   -5000001    1    1    2    0    0  0.34385139709E+01  0.64238583139E+02  0.30316228154E+03  0.33492504817E+03  0.12700000000E+03 0.  0.
<mgrwt>
<rscale>  0 0.34914166E+03</rscale>
<asrwt>0</asrwt>
<pdfrwt beam="1">  1        2 0.10771543E-01 0.34914166E+03</pdfrwt>
<pdfrwt beam="2">  1       -2 0.57739015E-01 0.34914166E+03</pdfrwt>
<totfact> 0.16820829E+03</totfact>
</mgrwt>
</event>
<event>
 4    1  0.2581031E-004  0.3247393E+03  0.7818608E-02  0.1073489E+00
          2   -1    0    0  501    0  0.00000000000E+00  0.00000000000E+00  0.10605566657E+04  0.10605566657E+04  0.25500000000E-02 0.  1.
         -2   -1    0    0    0  501 -0.00000000000E+00 -0.00000000000E+00 -0.24858552780E+02  0.24858552911E+02  0.25500000000E-02 0. -1.
    5000001    1    1    2    0    0  0.69372994205E+02 -0.52432045717E+02  0.69066130348E+03  0.70760424523E+03  0.12700000000E+03 0.  0.
   -5000001    1    1    2    0    0 -0.69372994205E+02  0.52432045717E+02  0.34503680947E+03  0.37781097341E+03  0.12700000000E+03 0.  0.
<mgrwt>
<rscale>  0 0.32473930E+03</rscale>
<asrwt>0</asrwt>
<pdfrwt beam="1">  1        2 0.15150808E+00 0.32473930E+03</pdfrwt>
<pdfrwt beam="2">  1       -2 0.35512221E-02 0.32473930E+03</pdfrwt>
<totfact> 0.88561805E+03</totfact>
</mgrwt>
</event>
<event>
 4    1  0.2581031E-004  0.3180388E+03  0.7818608E-02  0.1076555E+00
          2   -1    0    0  501    0  0.00000000000E+00  0.00000000000E+00  0.88231428235E+03  0.88231428235E+03  0.25500000000E-02 0.  1.
         -2   -1    0    0    0  501 -0.00000000000E+00 -0.00000000000E+00 -0.28660043009E+02  0.28660043122E+02  0.25500000000E-02 0. -1.
    5000001    1    1    2    0    0  0.66085421518E+02  0.67771028417E+02  0.38652518711E+03  0.41772109774E+03  0.12700000000E+03 0.  0.
   -5000001    1    1    2    0    0 -0.66085421518E+02 -0.67771028417E+02  0.46712905223E+03  0.49325322773E+03  0.12700000000E+03 0.  0.
<mgrwt>
<rscale>  0 0.31803877E+03</rscale>
<asrwt>0</asrwt>
<pdfrwt beam="1">  1        2 0.12604489E+00 0.31803877E+03</pdfrwt>
<pdfrwt beam="2">  1       -2 0.40942920E-02 0.31803877E+03</pdfrwt>
<totfact> 0.91527852E+03</totfact>
</mgrwt>
</event>
<event>
 4    1  0.2581031E-004  0.4885258E+03  0.7818608E-02  0.1016818E+00
         -2   -1    0    0    0  501 -0.00000000000E+00  0.00000000000E+00  0.19333349292E+02  0.19333349460E+02  0.25500000000E-02 0.  1.
          2   -1    0    0  501    0  0.00000000000E+00 -0.00000000000E+00 -0.30860849411E+04  0.30860849411E+04  0.25500000000E-02 0. -1.
    5000001    1    1    2    0    0 -0.16710185413E+03 -0.31899467044E+02 -0.76542924495E+03  0.79432457767E+03  0.12700000000E+03 0.  0.
   -5000001    1    1    2    0    0  0.16710185413E+03  0.31899467044E+02 -0.23013223468E+04  0.23110937129E+04  0.12700000000E+03 0.  0.
<mgrwt>
<rscale>  0 0.48852578E+03</rscale>
<asrwt>0</asrwt>
<pdfrwt beam="1">  1        2 0.44086896E+00 0.48852578E+03</pdfrwt>
<pdfrwt beam="2">  1       -2 0.27619090E-02 0.48852578E+03</pdfrwt>
<totfact> 0.11641907E+03</totfact>
</mgrwt>
</event>
<event>
 4    1  0.2581031E-004  0.6885055E+03  0.7818608E-02  0.9737094E-01
          2   -1    0    0  501    0  0.00000000000E+00  0.00000000000E+00  0.13251225308E+04  0.13251225308E+04  0.25500000000E-02 0.  1.
         -2   -1    0    0    0  501 -0.00000000000E+00 -0.00000000000E+00 -0.89433197802E+02  0.89433197838E+02  0.25500000000E-02 0. -1.
    5000001    1    1    2    0    0  0.11193454740E+03 -0.29552375168E+03  0.51476300130E+03  0.61723057136E+03  0.12700000000E+03 0.  0.
   -5000001    1    1    2    0    0 -0.11193454740E+03  0.29552375168E+03  0.72092633173E+03  0.79732515732E+03  0.12700000000E+03 0.  0.
<mgrwt>
<rscale>  0 0.68850547E+03</rscale>
<asrwt>0</asrwt>
<pdfrwt beam="1">  1        2 0.18930321E+00 0.68850547E+03</pdfrwt>
<pdfrwt beam="2">  1       -2 0.12776172E-01 0.68850547E+03</pdfrwt>
<totfact> 0.84132737E+02</totfact>
</mgrwt>
</event>
<event>
 4    1  0.2581031E-004  0.3050885E+03  0.7818608E-02  0.1082724E+00
         -2   -1    0    0    0  501 -0.00000000000E+00  0.00000000000E+00  0.33347301701E+02  0.33347301799E+02  0.25500000000E-02 0. -1.
          2   -1    0    0  501    0  0.00000000000E+00 -0.00000000000E+00 -0.69779985774E+03  0.69779985775E+03  0.25500000000E-02 0.  1.
    5000001    1    1    2    0    0 -0.77454740622E+02 -0.63429489814E+01 -0.25269711254E+03  0.29329899511E+03  0.12700000000E+03 0.  0.
   -5000001    1    1    2    0    0  0.77454740622E+02  0.63429489814E+01 -0.41175544351E+03  0.43784816444E+03  0.12700000000E+03 0.  0.
<mgrwt>
<rscale>  0 0.30508846E+03</rscale>
<asrwt>0</asrwt>
<pdfrwt beam="1">  1        2 0.99685685E-01 0.30508846E+03</pdfrwt>
<pdfrwt beam="2">  1       -2 0.47639007E-02 0.30508846E+03</pdfrwt>
<totfact> 0.97144241E+03</totfact>
</mgrwt>
</event>
<event>
 4    1  0.2581031E-004  0.3191747E+03  0.7818608E-02  0.1076030E+00
          2   -1    0    0  501    0  0.00000000000E+00  0.00000000000E+00  0.33182808038E+03  0.33182808039E+03  0.25500000000E-02 0.  1.
         -2   -1    0    0    0  501 -0.00000000000E+00 -0.00000000000E+00 -0.76750942085E+02  0.76750942127E+02  0.25500000000E-02 0. -1.
    5000001    1    1    2    0    0  0.30348075198E+02  0.88296300701E+02  0.15946124843E+03  0.22421893795E+03  0.12700000000E+03 0.  0.
   -5000001    1    1    2    0    0 -0.30348075198E+02 -0.88296300701E+02  0.95615889863E+02  0.18436008456E+03  0.12700000000E+03 0.  0.
<mgrwt>
<rscale>  0 0.31917467E+03</rscale>
<asrwt>0</asrwt>
<pdfrwt beam="1">  1        2 0.47404012E-01 0.31917467E+03</pdfrwt>
<pdfrwt beam="2">  1       -2 0.10964420E-01 0.31917467E+03</pdfrwt>
<totfact> 0.60777278E+03</totfact>
</mgrwt>
</event>
<event>
 4    1  0.2581031E-004  0.8960405E+03  0.7818608E-02  0.9430545E-01
         -2   -1    0    0    0  501 -0.00000000000E+00  0.00000000000E+00  0.33991772534E+03  0.33991772535E+03  0.25500000000E-02 0. -1.
          2   -1    0    0  501    0  0.00000000000E+00 -0.00000000000E+00 -0.59050213699E+03  0.59050213699E+03  0.25500000000E-02 0.  1.
    5000001    1    1    2    0    0  0.25479699952E+03 -0.33649650773E+03 -0.20863204906E+03  0.48765535225E+03  0.12700000000E+03 0.  0.
   -5000001    1    1    2    0    0 -0.25479699952E+03  0.33649650773E+03 -0.41952362583E+02  0.44276451010E+03  0.12700000000E+03 0.  0.
<mgrwt>
<rscale>  0 0.89604050E+03</rscale>
<asrwt>0</asrwt>
<pdfrwt beam="1">  1        2 0.84357448E-01 0.89604050E+03</pdfrwt>
<pdfrwt beam="2">  1       -2 0.48559675E-01 0.89604050E+03</pdfrwt>
<totfact> 0.22272389E+02</totfact>
</mgrwt>
</event>
<event>
 4    1  0.2581031E-004  0.4169769E+03  0.7818608E-02  0.1038055E+00
          2   -1    0    0  501    0  0.00000000000E+00  0.00000000000E+00  0.49667624529E+03  0.49667624530E+03  0.25500000000E-02 0.  1.
         -2   -1    0    0    0  501 -0.00000000000E+00 -0.00000000000E+00 -0.87516647762E+02  0.87516647799E+02  0.25500000000E-02 0. -1.
    5000001    1    1    2    0    0 -0.16266258449E+03  0.18396245174E+02  0.17199586964E+03  0.26927517042E+03  0.12700000000E+03 0.  0.
   -5000001    1    1    2    0    0  0.16266258449E+03 -0.18396245174E+02  0.23716372789E+03  0.31491772268E+03  0.12700000000E+03 0.  0.
<mgrwt>
<rscale>  0 0.41697693E+03</rscale>
<asrwt>0</asrwt>
<pdfrwt beam="1">  1        2 0.70953751E-01 0.41697693E+03</pdfrwt>
<pdfrwt beam="2">  1       -2 0.12502378E-01 0.41697693E+03</pdfrwt>
<totfact> 0.31755349E+03</totfact>
</mgrwt>
</event>
<event>
 4    1  0.2581031E-004  0.5503657E+03  0.7818608E-02  0.1001409E+00
          2   -1    0    0  501    0  0.00000000000E+00  0.00000000000E+00  0.78074966303E+02  0.78074966344E+02  0.25500000000E-02 0.  1.
         -2   -1    0    0    0  501 -0.00000000000E+00 -0.00000000000E+00 -0.96990890341E+03  0.96990890341E+03  0.25500000000E-02 0. -1.
    5000001    1    1    2    0    0  0.34338663850E+02 -0.22676120763E+03 -0.28663982863E+03  0.38844713988E+03  0.12700000000E+03 0.  0.
   -5000001    1    1    2    0    0 -0.34338663850E+02  0.22676120763E+03 -0.60519410847E+03  0.65953672988E+03  0.12700000000E+03 0.  0.
<mgrwt>
<rscale>  0 0.55036571E+03</rscale>
<asrwt>0</asrwt>
<pdfrwt beam="1">  1        2 0.11153567E-01 0.55036571E+03</pdfrwt>
<pdfrwt beam="2">  1       -2 0.13855841E+00 0.55036571E+03</pdfrwt>
<totfact> 0.21682658E+02</totfact>
</mgrwt>
</event>
<event>
 4    1  0.2581031E-004  0.6457221E+03  0.7818608E-02  0.9814840E-01
          2   -1    0    0  501    0  0.00000000000E+00  0.00000000000E+00  0.41336742649E+03  0.41336742649E+03  0.25500000000E-02 0.  1.
         -2   -1    0    0    0  501 -0.00000000000E+00 -0.00000000000E+00 -0.25217097409E+03  0.25217097410E+03  0.25500000000E-02 0. -1.
    5000001    1    1    2    0    0 -0.28376060572E+03  0.82534236512E+02  0.10935212843E+03  0.33973352727E+03  0.12700000000E+03 0.  0.
   -5000001    1    1    2    0    0  0.28376060572E+03 -0.82534236512E+02  0.51844323971E+02  0.32580487333E+03  0.12700000000E+03 0.  0.
<mgrwt>
<rscale>  0 0.64572213E+03</rscale>
<asrwt>0</asrwt>
<pdfrwt beam="1">  1        2 0.59052490E-01 0.64572213E+03</pdfrwt>
<pdfrwt beam="2">  1       -2 0.36024425E-01 0.64572213E+03</pdfrwt>
<totfact> 0.60750213E+02</totfact>
</mgrwt>
</event>
<event>
 4    1  0.2581031E-004  0.2912554E+03  0.7818608E-02  0.1089695E+00
         -2   -1    0    0    0  501 -0.00000000000E+00  0.00000000000E+00  0.15453252219E+02  0.15453252430E+02  0.25500000000E-02 0. -1.
          2   -1    0    0  501    0  0.00000000000E+00 -0.00000000000E+00 -0.13723604080E+04  0.13723604080E+04  0.25500000000E-02 0.  1.
    5000001    1    1    2    0    0 -0.69259117706E+02 -0.28148632956E+00 -0.59850381362E+03  0.61573754112E+03  0.12700000000E+03 0.  0.
   -5000001    1    1    2    0    0  0.69259117706E+02  0.28148632956E+00 -0.75840334214E+03  0.77207611929E+03  0.12700000000E+03 0.  0.
<mgrwt>
<rscale>  0 0.29125543E+03</rscale>
<asrwt>0</asrwt>
<pdfrwt beam="1">  1        2 0.19605141E+00 0.29125543E+03</pdfrwt>
<pdfrwt beam="2">  1       -2 0.22076083E-02 0.29125543E+03</pdfrwt>
<totfact> 0.12133241E+04</totfact>
</mgrwt>
</event>
<event>
 4    1  0.2581031E-004  0.6490601E+03  0.7818608E-02  0.9808544E-01
          2   -1    0    0  501    0  0.00000000000E+00  0.00000000000E+00  0.47260244868E+03  0.47260244868E+03  0.25500000000E-02 0.  1.
         -2   -1    0    0    0  501 -0.00000000000E+00 -0.00000000000E+00 -0.22285064575E+03  0.22285064576E+03  0.25500000000E-02 0. -1.
    5000001    1    1    2    0    0  0.78018708197E+02  0.26366406233E+03  0.24976208797E+03  0.39257579801E+03  0.12700000000E+03 0.  0.
   -5000001    1    1    2    0    0 -0.78018708197E+02 -0.26366406233E+03 -0.10285041709E-01  0.30287729644E+03  0.12700000000E+03 0.  0.
<mgrwt>
<rscale>  0 0.64906012E+03</rscale>
<asrwt>0</asrwt>
<pdfrwt beam="1">  1        2 0.67514635E-01 0.64906012E+03</pdfrwt>
<pdfrwt beam="2">  1       -2 0.31835807E-01 0.64906012E+03</pdfrwt>
<totfact> 0.65993383E+02</totfact>
</mgrwt>
</event>
<event>
 4    1  0.2581031E-004  0.3116317E+03  0.7818608E-02  0.1079566E+00
          2   -1    0    0  501    0  0.00000000000E+00  0.00000000000E+00  0.18886478627E+03  0.18886478629E+03  0.25500000000E-02 0.  1.
         -2   -1    0    0    0  501 -0.00000000000E+00 -0.00000000000E+00 -0.12855009106E+03  0.12855009109E+03  0.25500000000E-02 0. -1.
    5000001    1    1    2    0    0 -0.54633639390E+02  0.70027772934E+02  0.46608296643E+02  0.16183342316E+03  0.12700000000E+03 0.  0.
   -5000001    1    1    2    0    0  0.54633639390E+02 -0.70027772934E+02  0.13706398567E+02  0.15558145422E+03  0.12700000000E+03 0.  0.
<mgrwt>
<rscale>  0 0.31163174E+03</rscale>
<asrwt>0</asrwt>
<pdfrwt beam="1">  1        2 0.26980684E-01 0.31163174E+03</pdfrwt>
<pdfrwt beam="2">  1       -2 0.18364299E-01 0.31163174E+03</pdfrwt>
<totfact> 0.47995331E+03</totfact>
</mgrwt>
</event>
<event>
 4    1  0.2581031E-004  0.7556254E+03  0.7818608E-02  0.9626566E-01
         -2   -1    0    0    0  501 -0.00000000000E+00  0.00000000000E+00  0.14478802922E+03  0.14478802924E+03  0.25500000000E-02 0. -1.
          2   -1    0    0  501    0  0.00000000000E+00 -0.00000000000E+00 -0.98587190637E+03  0.98587190637E+03  0.25500000000E-02 0.  1.
    5000001    1    1    2    0    0  0.27639101014E+03  0.23419972836E+02 -0.75403398053E+03  0.81341055403E+03  0.12700000000E+03 0.  0.
   -5000001    1    1    2    0    0 -0.27639101014E+03 -0.23419972836E+02 -0.87049896620E+02  0.31724938159E+03  0.12700000000E+03 0.  0.
<mgrwt>
<rscale>  0 0.75562544E+03</rscale>
<asrwt>0</asrwt>
<pdfrwt beam="1">  1        2 0.14083884E+00 0.75562544E+03</pdfrwt>
<pdfrwt beam="2">  1       -2 0.20684005E-01 0.75562544E+03</pdfrwt>
<totfact> 0.57836123E+02</totfact>
</mgrwt>
</event>
<event>
 4    1  0.2581031E-004  0.2668138E+03  0.7818608E-02  0.1103117E+00
          2   -1    0    0  501    0  0.00000000000E+00  0.00000000000E+00  0.62499480765E+03  0.62499480765E+03  0.25500000000E-02 0.  1.
         -2   -1    0    0    0  501 -0.00000000000E+00 -0.00000000000E+00 -0.28476073774E+02  0.28476073889E+02  0.25500000000E-02 0. -1.
    5000001    1    1    2    0    0 -0.24239128077E+02 -0.27935284766E+02  0.34071426592E+03  0.36549025496E+03  0.12700000000E+03 0.  0.
   -5000001    1    1    2    0    0  0.24239128077E+02  0.27935284766E+02  0.25580446795E+03  0.28798062658E+03  0.12700000000E+03 0.  0.
<mgrwt>
<rscale>  0 0.26681378E+03</rscale>
<asrwt>0</asrwt>
<pdfrwt beam="1">  1        2 0.89284964E-01 0.26681378E+03</pdfrwt>
<pdfrwt beam="2">  1       -2 0.40680109E-02 0.26681378E+03</pdfrwt>
<totfact> 0.13958482E+04</totfact>
</mgrwt>
</event>
<event>
 4    1  0.2581031E-004  0.6907725E+03  0.7818608E-02  0.9733144E-01
         -2   -1    0    0    0  501 -0.00000000000E+00  0.00000000000E+00  0.42195736226E+02  0.42195736303E+02  0.25500000000E-02 0. -1.
          2   -1    0    0  501    0  0.00000000000E+00 -0.00000000000E+00 -0.28271026731E+04  0.28271026731E+04  0.25500000000E-02 0.  1.
    5000001    1    1    2    0    0  0.73121976488E+02 -0.25366109472E+03 -0.21523961862E+04  0.21722405753E+04  0.12700000000E+03 0.  0.
   -5000001    1    1    2    0    0 -0.73121976488E+02  0.25366109472E+03 -0.63251075063E+03  0.69705783410E+03  0.12700000000E+03 0.  0.
<mgrwt>
<rscale>  0 0.69077255E+03</rscale>
<asrwt>0</asrwt>
<pdfrwt beam="1">  1        2 0.40387169E+00 0.69077255E+03</pdfrwt>
<pdfrwt beam="2">  1       -2 0.60279641E-02 0.69077255E+03</pdfrwt>
<totfact> 0.47494809E+02</totfact>
</mgrwt>
</event>
<event>
 4    1  0.2581031E-004  0.5921734E+03  0.7818608E-02  0.9921778E-01
         -2   -1    0    0    0  501 -0.00000000000E+00  0.00000000000E+00  0.87633038419E+02  0.87633038456E+02  0.25500000000E-02 0. -1.
          2   -1    0    0  501    0  0.00000000000E+00 -0.00000000000E+00 -0.10003914203E+04  0.10003914203E+04  0.25500000000E-02 0.  1.
    5000001    1    1    2    0    0  0.20092172269E+03 -0.17558607742E+03 -0.42258357532E+03  0.51566063197E+03  0.12700000000E+03 0.  0.
   -5000001    1    1    2    0    0 -0.20092172269E+03  0.17558607742E+03 -0.49017480657E+03  0.57236382680E+03  0.12700000000E+03 0.  0.
<mgrwt>
<rscale>  0 0.59217342E+03</rscale>
<asrwt>0</asrwt>
<pdfrwt beam="1">  1        2 0.14291305E+00 0.59217342E+03</pdfrwt>
<pdfrwt beam="2">  1       -2 0.12519006E-01 0.59217342E+03</pdfrwt>
<totfact> 0.13378215E+03</totfact>
</mgrwt>
</event>
<event>
 4    1  0.2581031E-004  0.4414129E+03  0.7818608E-02  0.1030314E+00
          2   -1    0    0  501    0  0.00000000000E+00  0.00000000000E+00  0.11611252627E+04  0.11611252627E+04  0.25500000000E-02 0.  1.
         -2   -1    0    0    0  501 -0.00000000000E+00 -0.00000000000E+00 -0.41951833084E+02  0.41951833161E+02  0.25500000000E-02 0. -1.
    5000001    1    1    2    0    0  0.15468800342E+03 -0.88397947929E+02  0.63856822649E+03  0.67501181877E+03  0.12700000000E+03 0.  0.
   -5000001    1    1    2    0    0 -0.15468800342E+03  0.88397947929E+02  0.48060520313E+03  0.52806527710E+03  0.12700000000E+03 0.  0.
<mgrwt>
<rscale>  0 0.44141288E+03</rscale>
<asrwt>0</asrwt>
<pdfrwt beam="1">  1        2 0.16587504E+00 0.44141288E+03</pdfrwt>
<pdfrwt beam="2">  1       -2 0.59931190E-02 0.44141288E+03</pdfrwt>
<totfact> 0.35047675E+03</totfact>
</mgrwt>
</event>
<event>
 4    1  0.2581031E-004  0.4074813E+03  0.7818608E-02  0.1041220E+00
          2   -1    0    0  501    0  0.00000000000E+00  0.00000000000E+00  0.49567130019E+03  0.49567130020E+03  0.25500000000E-02 0.  1.
         -2   -1    0    0    0  501 -0.00000000000E+00 -0.00000000000E+00 -0.83745527785E+02  0.83745527824E+02  0.25500000000E-02 0. -1.
    5000001    1    1    2    0    0  0.74533880765E+01 -0.15854389214E+03  0.18638665066E+03  0.27579104821E+03  0.12700000000E+03 0.  0.
   -5000001    1    1    2    0    0 -0.74533880765E+01  0.15854389214E+03  0.22553912175E+03  0.30362577981E+03  0.12700000000E+03 0.  0.
<mgrwt>
<rscale>  0 0.40748131E+03</rscale>
<asrwt>0</asrwt>
<pdfrwt beam="1">  1        2 0.70810186E-01 0.40748131E+03</pdfrwt>
<pdfrwt beam="2">  1       -2 0.11963647E-01 0.40748131E+03</pdfrwt>
<totfact> 0.34191365E+03</totfact>
</mgrwt>
</event>
<event>
 4    1  0.2581031E-004  0.2945963E+03  0.7818608E-02  0.1087973E+00
          2   -1    0    0  501    0  0.00000000000E+00  0.00000000000E+00  0.10817026013E+04  0.10817026013E+04  0.25500000000E-02 0.  1.
         -2   -1    0    0    0  501 -0.00000000000E+00 -0.00000000000E+00 -0.20057960054E+02  0.20057960216E+02  0.25500000000E-02 0. -1.
    5000001    1    1    2    0    0 -0.54206894630E+02 -0.39355640729E+02  0.40788859529E+03  0.43242266367E+03  0.12700000000E+03 0.  0.
   -5000001    1    1    2    0    0  0.54206894630E+02  0.39355640729E+02  0.65375604597E+03  0.66933789787E+03  0.12700000000E+03 0.  0.
<mgrwt>
<rscale>  0 0.29459632E+03</rscale>
<asrwt>0</asrwt>
<pdfrwt beam="1">  1        2 0.15452896E+00 0.29459632E+03</pdfrwt>
<pdfrwt beam="2">  1       -2 0.28654225E-02 0.29459632E+03</pdfrwt>
<totfact> 0.11841106E+04</totfact>
</mgrwt>
</event>
<event>
 4    1  0.2581031E-004  0.5289631E+03  0.7818608E-02  0.1006484E+00
         -2   -1    0    0    0  501 -0.00000000000E+00  0.00000000000E+00  0.35203466846E+03  0.35203466847E+03  0.25500000000E-02 0. -1.
          2   -1    0    0  501    0  0.00000000000E+00 -0.00000000000E+00 -0.19870342243E+03  0.19870342245E+03  0.25500000000E-02 0.  1.
    5000001    1    1    2    0    0  0.23100930063E+03 -0.36246803566E+01  0.98581058109E+02  0.28147053186E+03  0.12700000000E+03 0.  0.
   -5000001    1    1    2    0    0 -0.23100930063E+03  0.36246803566E+01  0.54750187925E+02  0.26926755906E+03  0.12700000000E+03 0.  0.
<mgrwt>
<rscale>  0 0.52896311E+03</rscale>
<asrwt>0</asrwt>
<pdfrwt beam="1">  1        2 0.28386204E-01 0.52896311E+03</pdfrwt>
<pdfrwt beam="2">  1       -2 0.50290666E-01 0.52896311E+03</pdfrwt>
<totfact> 0.71255796E+02</totfact>
</mgrwt>
</event>
<event>
 4    1  0.2581031E-004  0.3888288E+03  0.7818608E-02  0.1047718E+00
          2   -1    0    0  501    0  0.00000000000E+00  0.00000000000E+00  0.37444759642E+03  0.37444759643E+03  0.25500000000E-02 0.  1.
         -2   -1    0    0    0  501 -0.00000000000E+00 -0.00000000000E+00 -0.10094060073E+03  0.10094060077E+03  0.25500000000E-02 0. -1.
    5000001    1    1    2    0    0  0.80350011605E+02  0.74196121053E+02  0.25720922404E+03  0.30699637404E+03  0.12700000000E+03 0.  0.
   -5000001    1    1    2    0    0 -0.80350011605E+02 -0.74196121053E+02  0.16297771646E+02  0.16839182315E+03  0.12700000000E+03 0.  0.
<mgrwt>
<rscale>  0 0.38882883E+03</rscale>
<asrwt>0</asrwt>
<pdfrwt beam="1">  1        2 0.53492514E-01 0.38882883E+03</pdfrwt>
<pdfrwt beam="2">  1       -2 0.14420086E-01 0.38882883E+03</pdfrwt>
<totfact> 0.34246231E+03</totfact>
</mgrwt>
</event>
<event>
 4    1  0.2581031E-004  0.3920772E+03  0.7818608E-02  0.1046558E+00
         -2   -1    0    0    0  501 -0.00000000000E+00  0.00000000000E+00  0.93930768088E+02  0.93930768122E+02  0.25500000000E-02 0. -1.
          2   -1    0    0  501    0  0.00000000000E+00 -0.00000000000E+00 -0.40914317326E+03  0.40914317327E+03  0.25500000000E-02 0.  1.
    5000001    1    1    2    0    0 -0.16765750656E+02 -0.13157269865E+03 -0.69550935146E+02  0.19636394273E+03  0.12700000000E+03 0.  0.
   -5000001    1    1    2    0    0  0.16765750656E+02  0.13157269865E+03 -0.24566147003E+03  0.30670999866E+03  0.12700000000E+03 0.  0.
<mgrwt>
<rscale>  0 0.39207720E+03</rscale>
<asrwt>0</asrwt>
<pdfrwt beam="1">  1        2 0.58449024E-01 0.39207720E+03</pdfrwt>
<pdfrwt beam="2">  1       -2 0.13418681E-01 0.39207720E+03</pdfrwt>
<totfact> 0.35012654E+03</totfact>
</mgrwt>
</event>
<event>
 4    1  0.2581031E-004  0.3146784E+03  0.7818608E-02  0.1078125E+00
         -2   -1    0    0    0  501 -0.00000000000E+00  0.00000000000E+00  0.39498462304E+03  0.39498462305E+03  0.25500000000E-02 0. -1.
          2   -1    0    0  501    0  0.00000000000E+00 -0.00000000000E+00 -0.62674904113E+02  0.62674904165E+02  0.25500000000E-02 0.  1.
    5000001    1    1    2    0    0 -0.87921013551E+02 -0.28397789868E+02  0.15235101293E+03  0.21880669605E+03  0.12700000000E+03 0.  0.
   -5000001    1    1    2    0    0  0.87921013551E+02  0.28397789868E+02  0.17995870600E+03  0.23885283117E+03  0.12700000000E+03 0.  0.
<mgrwt>
<rscale>  0 0.31467840E+03</rscale>
<asrwt>0</asrwt>
<pdfrwt beam="1">  1        2 0.89535578E-02 0.31467840E+03</pdfrwt>
<pdfrwt beam="2">  1       -2 0.56426374E-01 0.31467840E+03</pdfrwt>
<totfact> 0.22178963E+03</totfact>
</mgrwt>
</event>
<event>
 4    1  0.2581031E-004  0.3087853E+03  0.7818608E-02  0.1080930E+00
         -2   -1    0    0    0  501 -0.00000000000E+00  0.00000000000E+00  0.31297054520E+02  0.31297054624E+02  0.25500000000E-02 0. -1.
          2   -1    0    0  501    0  0.00000000000E+00 -0.00000000000E+00 -0.76164023210E+03  0.76164023211E+03  0.25500000000E-02 0.  1.
    5000001    1    1    2    0    0 -0.42023786074E+02 -0.73418426568E+02 -0.30484821875E+03  0.34090717275E+03  0.12700000000E+03 0.  0.
   -5000001    1    1    2    0    0  0.42023786074E+02  0.73418426568E+02 -0.42549495883E+03  0.45203011398E+03  0.12700000000E+03 0.  0.
<mgrwt>
<rscale>  0 0.30878534E+03</rscale>
<asrwt>0</asrwt>
<pdfrwt beam="1">  1        2 0.10880574E+00 0.30878534E+03</pdfrwt>
<pdfrwt beam="2">  1       -2 0.44710083E-02 0.30878534E+03</pdfrwt>
<totfact> 0.96284305E+03</totfact>
</mgrwt>
</event>
<event>
 4    1  0.2581031E-004  0.4587158E+03  0.7818608E-02  0.1025154E+00
         -2   -1    0    0    0  501 -0.00000000000E+00  0.00000000000E+00  0.12927033107E+03  0.12927033109E+03  0.25500000000E-02 0. -1.
          2   -1    0    0  501    0  0.00000000000E+00 -0.00000000000E+00 -0.40693819253E+03  0.40693819254E+03  0.25500000000E-02 0.  1.
    5000001    1    1    2    0    0  0.17409035298E+03 -0.64855259425E+02 -0.19061625351E+03  0.29491899189E+03  0.12700000000E+03 0.  0.
   -5000001    1    1    2    0    0 -0.17409035298E+03  0.64855259425E+02 -0.87051607956E+02  0.24128953174E+03  0.12700000000E+03 0.  0.
<mgrwt>
<rscale>  0 0.45871575E+03</rscale>
<asrwt>0</asrwt>
<pdfrwt beam="1">  1        2 0.58134027E-01 0.45871575E+03</pdfrwt>
<pdfrwt beam="2">  1       -2 0.18467190E-01 0.45871575E+03</pdfrwt>
<totfact> 0.20646137E+03</totfact>
</mgrwt>
</event>
<event>
 4    1  0.2581031E-004  0.3173243E+03  0.7818608E-02  0.1076887E+00
         -2   -1    0    0    0  501 -0.00000000000E+00  0.00000000000E+00  0.74227313465E+02  0.74227313509E+02  0.25500000000E-02 0. -1.
          2   -1    0    0  501    0  0.00000000000E+00 -0.00000000000E+00 -0.33914300313E+03  0.33914300314E+03  0.25500000000E-02 0.  1.
    5000001    1    1    2    0    0 -0.74217716855E+02 -0.28409564604E+02 -0.20051310829E+03  0.25029957941E+03  0.12700000000E+03 0.  0.
   -5000001    1    1    2    0    0  0.74217716855E+02  0.28409564604E+02 -0.64402581373E+02  0.16307073724E+03  0.12700000000E+03 0.  0.
<mgrwt>
<rscale>  0 0.31732428E+03</rscale>
<asrwt>0</asrwt>
<pdfrwt beam="1">  1        2 0.48449000E-01 0.31732428E+03</pdfrwt>
<pdfrwt beam="2">  1       -2 0.10603902E-01 0.31732428E+03</pdfrwt>
<totfact> 0.62622554E+03</totfact>
</mgrwt>
</event>
<event>
 4    1  0.2581031E-004  0.3729173E+03  0.7818608E-02  0.1053583E+00
          2   -1    0    0  501    0  0.00000000000E+00  0.00000000000E+00  0.69723644560E+02  0.69723644607E+02  0.25500000000E-02 0.  1.
         -2   -1    0    0    0  501 -0.00000000000E+00 -0.00000000000E+00 -0.49863746138E+03  0.49863746139E+03  0.25500000000E-02 0. -1.
    5000001    1    1    2    0    0 -0.22519708254E+02  0.95049500184E+02 -0.69097319066E+02  0.17448491123E+03  0.12700000000E+03 0.  0.
   -5000001    1    1    2    0    0  0.22519708254E+02 -0.95049500184E+02 -0.35981649776E+03  0.39387619476E+03  0.12700000000E+03 0.  0.
<mgrwt>
<rscale>  0 0.37291726E+03</rscale>
<asrwt>0</asrwt>
<pdfrwt beam="1">  1        2 0.99605210E-02 0.37291726E+03</pdfrwt>
<pdfrwt beam="2">  1       -2 0.71233921E-01 0.37291726E+03</pdfrwt>
<totfact> 0.11911770E+03</totfact>
</mgrwt>
</event>
<event>
 4    1  0.2581031E-004  0.6119906E+03  0.7818608E-02  0.9880837E-01
          2   -1    0    0  501    0  0.00000000000E+00  0.00000000000E+00  0.17519090949E+04  0.17519090949E+04  0.25500000000E-02 0.  1.
         -2   -1    0    0    0  501 -0.00000000000E+00 -0.00000000000E+00 -0.53446339095E+02  0.53446339155E+02  0.25500000000E-02 0. -1.
    5000001    1    1    2    0    0  0.21056944394E+03 -0.18204374610E+03  0.83456690256E+03  0.88888150564E+03  0.12700000000E+03 0.  0.
   -5000001    1    1    2    0    0 -0.21056944394E+03  0.18204374610E+03  0.86389585320E+03  0.91647392837E+03  0.12700000000E+03 0.  0.
<mgrwt>
<rscale>  0 0.61199061E+03</rscale>
<asrwt>0</asrwt>
<pdfrwt beam="1">  1        2 0.25027271E+00 0.61199061E+03</pdfrwt>
<pdfrwt beam="2">  1       -2 0.76351919E-02 0.61199061E+03</pdfrwt>
<totfact> 0.11660155E+03</totfact>
</mgrwt>
</event>
<event>
 4    1  0.2581031E-004  0.3304577E+03  0.7818608E-02  0.1070935E+00
          2   -1    0    0  501    0  0.00000000000E+00  0.00000000000E+00  0.84303157747E+03  0.84303157747E+03  0.25500000000E-02 0.  1.
         -2   -1    0    0    0  501 -0.00000000000E+00 -0.00000000000E+00 -0.32383812118E+02  0.32383812219E+02  0.25500000000E-02 0. -1.
    5000001    1    1    2    0    0  0.38605097934E+02 -0.67546473845E+02  0.21579388107E+03  0.26220007403E+03  0.12700000000E+03 0.  0.
   -5000001    1    1    2    0    0 -0.38605097934E+02  0.67546473845E+02  0.59485388428E+03  0.61321531566E+03  0.12700000000E+03 0.  0.
<mgrwt>
<rscale>  0 0.33045772E+03</rscale>
<asrwt>0</asrwt>
<pdfrwt beam="1">  1        2 0.12043306E+00 0.33045772E+03</pdfrwt>
<pdfrwt beam="2">  1       -2 0.46262596E-02 0.33045772E+03</pdfrwt>
<totfact> 0.80710612E+03</totfact>
</mgrwt>
</event>
<event>
 4    1  0.2581031E-004  0.2991910E+03  0.7818608E-02  0.1085646E+00
          2   -1    0    0  501    0  0.00000000000E+00  0.00000000000E+00  0.95295331592E+03  0.95295331592E+03  0.25500000000E-02 0.  1.
         -2   -1    0    0    0  501 -0.00000000000E+00 -0.00000000000E+00 -0.23483643244E+02  0.23483643382E+02  0.25500000000E-02 0. -1.
    5000001    1    1    2    0    0 -0.21969118467E+02 -0.66026818106E+02  0.34229003053E+03  0.37166335289E+03  0.12700000000E+03 0.  0.
   -5000001    1    1    2    0    0  0.21969118467E+02  0.66026818106E+02  0.58717964214E+03  0.60477360642E+03  0.12700000000E+03 0.  0.
<mgrwt>
<rscale>  0 0.29919101E+03</rscale>
<asrwt>0</asrwt>
<pdfrwt beam="1">  1        2 0.13613619E+00 0.29919101E+03</pdfrwt>
<pdfrwt beam="2">  1       -2 0.33548061E-02 0.29919101E+03</pdfrwt>
<totfact> 0.11142579E+04</totfact>
</mgrwt>
</event>
<event>
 4    1  0.2581031E-004  0.3513001E+03  0.7818608E-02  0.1062083E+00
          2   -1    0    0  501    0  0.00000000000E+00  0.00000000000E+00  0.30702467032E+04  0.30702467032E+04  0.25500000000E-02 0.  1.
         -2   -1    0    0    0  501 -0.00000000000E+00 -0.00000000000E+00 -0.10049012719E+02  0.10049013042E+02  0.25500000000E-02 0. -1.
    5000001    1    1    2    0    0  0.53643441545E+02  0.10875910455E+03  0.14931189424E+04  0.15034092383E+04  0.12700000000E+03 0.  0.
   -5000001    1    1    2    0    0 -0.53643441545E+02 -0.10875910455E+03  0.15670787481E+04  0.15768864780E+04  0.12700000000E+03 0.  0.
<mgrwt>
<rscale>  0 0.35130015E+03</rscale>
<asrwt>0</asrwt>
<pdfrwt beam="1">  1        2 0.43860672E+00 0.35130015E+03</pdfrwt>
<pdfrwt beam="2">  1       -2 0.14355731E-02 0.35130015E+03</pdfrwt>
<totfact> 0.31854018E+03</totfact>
</mgrwt>
</event>
<event>
 4    1  0.2581031E-004  0.3480286E+03  0.7818608E-02  0.1063427E+00
          2   -1    0    0  501    0  0.00000000000E+00  0.00000000000E+00  0.11913001795E+04  0.11913001795E+04  0.25500000000E-02 0.  1.
         -2   -1    0    0    0  501 -0.00000000000E+00 -0.00000000000E+00 -0.25418432800E+02  0.25418432928E+02  0.25500000000E-02 0. -1.
    5000001    1    1    2    0    0 -0.21640091736E+02  0.11045658405E+03  0.44830816269E+03  0.47935181158E+03  0.12700000000E+03 0.  0.
   -5000001    1    1    2    0    0  0.21640091736E+02 -0.11045658405E+03  0.71757358405E+03  0.73736680089E+03  0.12700000000E+03 0.  0.
<mgrwt>
<rscale>  0 0.34802864E+03</rscale>
<asrwt>0</asrwt>
<pdfrwt beam="1">  1        2 0.17018578E+00 0.34802864E+03</pdfrwt>
<pdfrwt beam="2">  1       -2 0.36312039E-02 0.34802864E+03</pdfrwt>
<totfact> 0.72402096E+03</totfact>
</mgrwt>
</event>
<event>
 4    1  0.2581031E-004  0.3023169E+03  0.7818608E-02  0.1084088E+00
          2   -1    0    0  501    0  0.00000000000E+00  0.00000000000E+00  0.76358694120E+03  0.76358694120E+03  0.25500000000E-02 0.  1.
         -2   -1    0    0    0  501 -0.00000000000E+00 -0.00000000000E+00 -0.29923083841E+02  0.29923083949E+02  0.25500000000E-02 0. -1.
    5000001    1    1    2    0    0 -0.47954146114E+01  0.75243424525E+02  0.28237707538E+03  0.31866970618E+03  0.12700000000E+03 0.  0.
   -5000001    1    1    2    0    0  0.47954146114E+01 -0.75243424525E+02  0.45128678197E+03  0.47484031897E+03  0.12700000000E+03 0.  0.
<mgrwt>
<rscale>  0 0.30231689E+03</rscale>
<asrwt>0</asrwt>
<pdfrwt beam="1">  1        2 0.10908384E+00 0.30231689E+03</pdfrwt>
<pdfrwt beam="2">  1       -2 0.42747267E-02 0.30231689E+03</pdfrwt>
<totfact> 0.10266550E+04</totfact>
</mgrwt>
</event>
<event>
 4    1  0.2581031E-004  0.5167344E+03  0.7818608E-02  0.1009501E+00
          2   -1    0    0  501    0  0.00000000000E+00  0.00000000000E+00  0.80110786756E+03  0.80110786756E+03  0.25500000000E-02 0.  1.
         -2   -1    0    0    0  501 -0.00000000000E+00 -0.00000000000E+00 -0.83326621043E+02  0.83326621082E+02  0.25500000000E-02 0. -1.
    5000001    1    1    2    0    0 -0.20428599282E+03 -0.16593276813E+02  0.20001255965E+03  0.31327643977E+03  0.12700000000E+03 0.  0.
   -5000001    1    1    2    0    0  0.20428599282E+03  0.16593276813E+02  0.51776868687E+03  0.57115804888E+03  0.12700000000E+03 0.  0.
<mgrwt>
<rscale>  0 0.51673441E+03</rscale>
<asrwt>0</asrwt>
<pdfrwt beam="1">  1        2 0.11444398E+00 0.51673441E+03</pdfrwt>
<pdfrwt beam="2">  1       -2 0.11903803E-01 0.51673441E+03</pdfrwt>
<totfact> 0.19559366E+03</totfact>
</mgrwt>
</event>
<event>
 4    1  0.2581031E-004  0.3186465E+03  0.7818608E-02  0.1076274E+00
          2   -1    0    0  501    0  0.00000000000E+00  0.00000000000E+00  0.17768413185E+04  0.17768413185E+04  0.25500000000E-02 0.  1.
         -2   -1    0    0    0  501 -0.00000000000E+00 -0.00000000000E+00 -0.14285969218E+02  0.14285969446E+02  0.25500000000E-02 0. -1.
    5000001    1    1    2    0    0 -0.37213039522E+02 -0.71358174514E+02  0.11775501508E+04  0.11871100021E+04  0.12700000000E+03 0.  0.
   -5000001    1    1    2    0    0  0.37213039522E+02  0.71358174514E+02  0.58500519849E+03  0.60401728588E+03  0.12700000000E+03 0.  0.
<mgrwt>
<rscale>  0 0.31864652E+03</rscale>
<asrwt>0</asrwt>
<pdfrwt beam="1">  1        2 0.25383447E+00 0.31864652E+03</pdfrwt>
<pdfrwt beam="2">  1       -2 0.20408528E-02 0.31864652E+03</pdfrwt>
<totfact> 0.85431730E+03</totfact>
</mgrwt>
</event>
<event>
 4    1  0.2581031E-004  0.4398733E+03  0.7818608E-02  0.1030786E+00
          2   -1    0    0  501    0  0.00000000000E+00  0.00000000000E+00  0.18550278755E+04  0.18550278755E+04  0.25500000000E-02 0.  1.
         -2   -1    0    0    0  501 -0.00000000000E+00 -0.00000000000E+00 -0.26076227430E+02  0.26076227554E+02  0.25500000000E-02 0. -1.
    5000001    1    1    2    0    0  0.13794802129E+03  0.93161274091E+01  0.42451346400E+03  0.46417359676E+03  0.12700000000E+03 0.  0.
   -5000001    1    1    2    0    0 -0.13794802129E+03 -0.93161274091E+01  0.14044381841E+04  0.14169305063E+04  0.12700000000E+03 0.  0.
<mgrwt>
<rscale>  0 0.43987329E+03</rscale>
<asrwt>0</asrwt>
<pdfrwt beam="1">  1        2 0.26500401E+00 0.43987329E+03</pdfrwt>
<pdfrwt beam="2">  1       -2 0.37251749E-02 0.43987329E+03</pdfrwt>
<totfact> 0.31729469E+03</totfact>
</mgrwt>
</event>
<event>
 4    1  0.2581031E-004  0.5410780E+03  0.7818608E-02  0.1003580E+00
         -2   -1    0    0    0  501 -0.00000000000E+00  0.00000000000E+00  0.20546933277E+03  0.20546933279E+03  0.25500000000E-02 0. -1.
          2   -1    0    0  501    0  0.00000000000E+00 -0.00000000000E+00 -0.35621547159E+03  0.35621547160E+03  0.25500000000E-02 0.  1.
    5000001    1    1    2    0    0 -0.21751037600E+03 -0.98616762160E+02 -0.70046791292E+02  0.27941292457E+03  0.12700000000E+03 0.  0.
   -5000001    1    1    2    0    0  0.21751037600E+03  0.98616762160E+02 -0.80699347526E+02  0.28227187982E+03  0.12700000000E+03 0.  0.
<mgrwt>
<rscale>  0 0.54107802E+03</rscale>
<asrwt>0</asrwt>
<pdfrwt beam="1">  1        2 0.50887924E-01 0.54107802E+03</pdfrwt>
<pdfrwt beam="2">  1       -2 0.29352762E-01 0.54107802E+03</pdfrwt>
<totfact> 0.10525334E+03</totfact>
</mgrwt>
</event>
<event>
 4    1  0.2581031E-004  0.4556768E+03  0.7818608E-02  0.1026043E+00
         -2   -1    0    0    0  501 -0.00000000000E+00  0.00000000000E+00  0.31109304326E+02  0.31109304430E+02  0.25500000000E-02 0. -1.
          2   -1    0    0  501    0  0.00000000000E+00 -0.00000000000E+00 -0.16686435908E+04  0.16686435908E+04  0.25500000000E-02 0.  1.
    5000001    1    1    2    0    0 -0.11884439314E+03  0.14695778677E+03 -0.78969081929E+03  0.82186444803E+03  0.12700000000E+03 0.  0.
   -5000001    1    1    2    0    0  0.11884439314E+03 -0.14695778677E+03 -0.84784346714E+03  0.87788844715E+03  0.12700000000E+03 0.  0.
<mgrwt>
<rscale>  0 0.45567682E+03</rscale>
<asrwt>0</asrwt>
<pdfrwt beam="1">  1        2 0.23837760E+00 0.45567682E+03</pdfrwt>
<pdfrwt beam="2">  1       -2 0.44441874E-02 0.45567682E+03</pdfrwt>
<totfact> 0.30040761E+03</totfact>
</mgrwt>
</event>
<event>
 4    1  0.2581031E-004  0.6528211E+03  0.7818608E-02  0.9801500E-01
         -2   -1    0    0    0  501 -0.00000000000E+00  0.00000000000E+00  0.47761597697E+02  0.47761597765E+02  0.25500000000E-02 0. -1.
          2   -1    0    0  501    0  0.00000000000E+00 -0.00000000000E+00 -0.22307426681E+04  0.22307426682E+04  0.25500000000E-02 0.  1.
    5000001    1    1    2    0    0  0.57684497215E+02 -0.28849648634E+03 -0.13082543117E+04  0.13469283826E+04  0.12700000000E+03 0.  0.
   -5000001    1    1    2    0    0 -0.57684497215E+02  0.28849648634E+03 -0.87472675878E+03  0.93157588331E+03  0.12700000000E+03 0.  0.
<mgrwt>
<rscale>  0 0.65282106E+03</rscale>
<asrwt>0</asrwt>
<pdfrwt beam="1">  1        2 0.31867746E+00 0.65282106E+03</pdfrwt>
<pdfrwt beam="2">  1       -2 0.68230868E-02 0.65282106E+03</pdfrwt>
<totfact> 0.79745952E+02</totfact>
</mgrwt>
</event>
<event>
 4    1  0.2581031E-004  0.9129453E+03  0.7818608E-02  0.9409542E-01
         -2   -1    0    0    0  501 -0.00000000000E+00  0.00000000000E+00  0.10353283983E+03  0.10353283986E+03  0.25500000000E-02 0. -1.
          2   -1    0    0  501    0  0.00000000000E+00 -0.00000000000E+00 -0.20125720661E+04  0.20125720661E+04  0.25500000000E-02 0.  1.
    5000001    1    1    2    0    0 -0.30954308731E+03 -0.30926573902E+03 -0.88994735285E+03  0.99979873529E+03  0.12700000000E+03 0.  0.
   -5000001    1    1    2    0    0  0.30954308731E+03  0.30926573902E+03 -0.10190918735E+04  0.11163061707E+04  0.12700000000E+03 0.  0.
<mgrwt>
<rscale>  0 0.91294535E+03</rscale>
<asrwt>0</asrwt>
<pdfrwt beam="1">  1        2 0.28751027E+00 0.91294535E+03</pdfrwt>
<pdfrwt beam="2">  1       -2 0.14790407E-01 0.91294535E+03</pdfrwt>
<totfact> 0.28604764E+02</totfact>
</mgrwt>
</event>
<event>
 4    1  0.2581031E-004  0.2904683E+03  0.7818608E-02  0.1090105E+00
         -2   -1    0    0    0  501 -0.00000000000E+00  0.00000000000E+00  0.17853754064E+02  0.17853754246E+02  0.25500000000E-02 0. -1.
          2   -1    0    0  501    0  0.00000000000E+00 -0.00000000000E+00 -0.11814297111E+04  0.11814297111E+04  0.25500000000E-02 0.  1.
    5000001    1    1    2    0    0  0.29915899689E+02 -0.57107018682E+02 -0.46444138680E+03  0.48578902253E+03  0.12700000000E+03 0.  0.
   -5000001    1    1    2    0    0 -0.29915899689E+02  0.57107018682E+02 -0.69913457027E+03  0.71349444285E+03  0.12700000000E+03 0.  0.
<mgrwt>
<rscale>  0 0.29046828E+03</rscale>
<asrwt>0</asrwt>
<pdfrwt beam="1">  1        2 0.16877562E+00 0.29046828E+03</pdfrwt>
<pdfrwt beam="2">  1       -2 0.25505371E-02 0.29046828E+03</pdfrwt>
<totfact> 0.12378877E+04</totfact>
</mgrwt>
</event>
<event>
 4    1  0.2581031E-004  0.3202989E+03  0.7818608E-02  0.1075512E+00
          2   -1    0    0  501    0  0.00000000000E+00  0.00000000000E+00  0.91945227786E+03  0.91945227787E+03  0.25500000000E-02 0.  1.
         -2   -1    0    0    0  501 -0.00000000000E+00 -0.00000000000E+00 -0.27894705070E+02  0.27894705186E+02  0.25500000000E-02 0. -1.
    5000001    1    1    2    0    0  0.64283571582E+02 -0.34787216928E+02  0.25463922205E+03  0.29379016567E+03  0.12700000000E+03 0.  0.
   -5000001    1    1    2    0    0 -0.64283571582E+02  0.34787216928E+02  0.63691835074E+03  0.65355681739E+03  0.12700000000E+03 0.  0.
<mgrwt>
<rscale>  0 0.32029892E+03</rscale>
<asrwt>0</asrwt>
<pdfrwt beam="1">  1        2 0.13135032E+00 0.32029892E+03</pdfrwt>
<pdfrwt beam="2">  1       -2 0.39849581E-02 0.32029892E+03</pdfrwt>
<totfact> 0.90373846E+03</totfact>
</mgrwt>
</event>
<event>
 4    1  0.2581031E-004  0.7616531E+03  0.7818608E-02  0.9617244E-01
          2   -1    0    0  501    0  0.00000000000E+00  0.00000000000E+00  0.14731679610E+04  0.14731679610E+04  0.25500000000E-02 0.  1.
         -2   -1    0    0    0  501 -0.00000000000E+00 -0.00000000000E+00 -0.98446927345E+02  0.98446927378E+02  0.25500000000E-02 0. -1.
    5000001    1    1    2    0    0 -0.29269910510E+03  0.15689405805E+03  0.96886015067E+03  0.10320404562E+04  0.12700000000E+03 0.  0.
   -5000001    1    1    2    0    0  0.29269910510E+03 -0.15689405805E+03  0.40586088300E+03  0.53957443224E+03  0.12700000000E+03 0.  0.
<mgrwt>
<rscale>  0 0.76165309E+03</rscale>
<asrwt>0</asrwt>
<pdfrwt beam="1">  1        2 0.21045256E+00 0.76165309E+03</pdfrwt>
<pdfrwt beam="2">  1       -2 0.14063847E-01 0.76165309E+03</pdfrwt>
<totfact> 0.59526171E+02</totfact>
</mgrwt>
</event>
<event>
 4    1  0.2581031E-004  0.3180888E+03  0.7818608E-02  0.1076532E+00
          2   -1    0    0  501    0  0.00000000000E+00  0.00000000000E+00  0.18457798411E+03  0.18457798413E+03  0.25500000000E-02 0.  1.
         -2   -1    0    0    0  501 -0.00000000000E+00 -0.00000000000E+00 -0.13704298676E+03  0.13704298678E+03  0.25500000000E-02 0. -1.
    5000001    1    1    2    0    0  0.18296578826E+02  0.93195904469E+02  0.35979565381E+02  0.16261540681E+03  0.12700000000E+03 0.  0.
   -5000001    1    1    2    0    0 -0.18296578826E+02 -0.93195904469E+02  0.11555431974E+02  0.15900556410E+03  0.12700000000E+03 0.  0.
<mgrwt>
<rscale>  0 0.31808878E+03</rscale>
<asrwt>0</asrwt>
<pdfrwt beam="1">  1        2 0.26368284E-01 0.31808878E+03</pdfrwt>
<pdfrwt beam="2">  1       -2 0.19577569E-01 0.31808878E+03</pdfrwt>
<totfact> 0.44181336E+03</totfact>
</mgrwt>
</event>
<event>
 4    1  0.2581031E-004  0.7002432E+03  0.7818608E-02  0.9716816E-01
         -2   -1    0    0    0  501 -0.00000000000E+00  0.00000000000E+00  0.39533745738E+02  0.39533745820E+02  0.25500000000E-02 0. -1.
          2   -1    0    0  501    0  0.00000000000E+00 -0.00000000000E+00 -0.31007720961E+04  0.31007720961E+04  0.25500000000E-02 0.  1.
    5000001    1    1    2    0    0  0.36401877545E+02 -0.32422817520E+03 -0.15425935272E+04  0.15818257794E+04  0.12700000000E+03 0.  0.
   -5000001    1    1    2    0    0 -0.36401877545E+02  0.32422817520E+03 -0.15186448231E+04  0.15584800624E+04  0.12700000000E+03 0.  0.
<mgrwt>
<rscale>  0 0.70024320E+03</rscale>
<asrwt>0</asrwt>
<pdfrwt beam="1">  1        2 0.44296729E+00 0.70024320E+03</pdfrwt>
<pdfrwt beam="2">  1       -2 0.56476799E-02 0.70024320E+03</pdfrwt>
<totfact> 0.37308343E+02</totfact>
</mgrwt>
</event>
<event>
 4    1  0.2581031E-004  0.3479719E+03  0.7818608E-02  0.1063451E+00
         -2   -1    0    0    0  501 -0.00000000000E+00  0.00000000000E+00  0.29848690483E+02  0.29848690592E+02  0.25500000000E-02 0.  1.
          2   -1    0    0  501    0  0.00000000000E+00 -0.00000000000E+00 -0.10141520786E+04  0.10141520786E+04  0.25500000000E-02 0. -1.
    5000001    1    1    2    0    0  0.38690023268E+02 -0.10350367593E+03 -0.36027114819E+03  0.39766094736E+03  0.12700000000E+03 0.  0.
   -5000001    1    1    2    0    0 -0.38690023268E+02  0.10350367593E+03 -0.62403223988E+03  0.64633982180E+03  0.12700000000E+03 0.  0.
<mgrwt>
<rscale>  0 0.34797190E+03</rscale>
<asrwt>0</asrwt>
<pdfrwt beam="1">  1        2 0.14487885E+00 0.34797190E+03</pdfrwt>
<pdfrwt beam="2">  1       -2 0.42640993E-02 0.34797190E+03</pdfrwt>
<totfact> 0.71614693E+03</totfact>
</mgrwt>
</event>
<event>
 4    1  0.2581031E-004  0.3823153E+03  0.7818608E-02  0.1050081E+00
          2   -1    0    0  501    0  0.00000000000E+00  0.00000000000E+00  0.43110976557E+03  0.43110976558E+03  0.25500000000E-02 0.  1.
         -2   -1    0    0    0  501 -0.00000000000E+00 -0.00000000000E+00 -0.84760911271E+02  0.84760911309E+02  0.25500000000E-02 0. -1.
    5000001    1    1    2    0    0 -0.59676178096E+02 -0.94110236731E+02  0.29381922903E+03  0.33893468727E+03  0.12700000000E+03 0.  0.
   -5000001    1    1    2    0    0  0.59676178096E+02  0.94110236731E+02  0.52529625272E+02  0.17693598961E+03  0.12700000000E+03 0.  0.
<mgrwt>
<rscale>  0 0.38231535E+03</rscale>
<asrwt>0</asrwt>
<pdfrwt beam="1">  1        2 0.61587110E-01 0.38231535E+03</pdfrwt>
<pdfrwt beam="2">  1       -2 0.12108701E-01 0.38231535E+03</pdfrwt>
<totfact> 0.39097459E+03</totfact>
</mgrwt>
</event>
<event>
 4    1  0.2581031E-004  0.9088974E+03  0.7818608E-02  0.9414527E-01
          2   -1    0    0  501    0  0.00000000000E+00  0.00000000000E+00  0.92540634309E+03  0.92540634309E+03  0.25500000000E-02 0.  1.
         -2   -1    0    0    0  501 -0.00000000000E+00 -0.00000000000E+00 -0.22317074490E+03  0.22317074491E+03  0.25500000000E-02 0. -1.
    5000001    1    1    2    0    0 -0.31498427981E+03  0.27831073569E+03  0.49915281331E+03  0.66479658029E+03  0.12700000000E+03 0.  0.
   -5000001    1    1    2    0    0  0.31498427981E+03 -0.27831073569E+03  0.20308278488E+03  0.48378050771E+03  0.12700000000E+03 0.  0.
<mgrwt>
<rscale>  0 0.90889740E+03</rscale>
<asrwt>0</asrwt>
<pdfrwt beam="1">  1        2 0.13220090E+00 0.90889740E+03</pdfrwt>
<pdfrwt beam="2">  1       -2 0.31881535E-01 0.90889740E+03</pdfrwt>
<totfact> 0.28622753E+02</totfact>
</mgrwt>
</event>
<event>
 4    1  0.2581031E-004  0.3057033E+03  0.7818608E-02  0.1082424E+00
         -2   -1    0    0    0  501 -0.00000000000E+00  0.00000000000E+00  0.19784683347E+03  0.19784683348E+03  0.25500000000E-02 0. -1.
          2   -1    0    0  501    0  0.00000000000E+00 -0.00000000000E+00 -0.11808945008E+03  0.11808945011E+03  0.25500000000E-02 0.  1.
    5000001    1    1    2    0    0 -0.50505101198E+01  0.78689143021E+02  0.69185793418E+01  0.14964743774E+03  0.12700000000E+03 0.  0.
   -5000001    1    1    2    0    0  0.50505101198E+01 -0.78689143021E+02  0.72838804040E+02  0.16628884586E+03  0.12700000000E+03 0.  0.
<mgrwt>
<rscale>  0 0.30570328E+03</rscale>
<asrwt>0</asrwt>
<pdfrwt beam="1">  1        2 0.16869922E-01 0.30570328E+03</pdfrwt>
<pdfrwt beam="2">  1       -2 0.28263833E-01 0.30570328E+03</pdfrwt>
<totfact> 0.38601973E+03</totfact>
</mgrwt>
</event>
<event>
 4    1  0.2581031E-004  0.4894853E+03  0.7818608E-02  0.1016560E+00
         -2   -1    0    0    0  501 -0.00000000000E+00  0.00000000000E+00  0.30259355790E+03  0.30259355791E+03  0.25500000000E-02 0. -1.
          2   -1    0    0  501    0  0.00000000000E+00 -0.00000000000E+00 -0.19795191983E+03  0.19795191985E+03  0.25500000000E-02 0.  1.
    5000001    1    1    2    0    0  0.46665789564E+01 -0.19808171817E+03  0.12100872767E+03  0.26463230378E+03  0.12700000000E+03 0.  0.
   -5000001    1    1    2    0    0 -0.46665789564E+01  0.19808171817E+03 -0.16367089608E+02  0.23591317398E+03  0.12700000000E+03 0.  0.
<mgrwt>
<rscale>  0 0.48948534E+03</rscale>
<asrwt>0</asrwt>
<pdfrwt beam="1">  1        2 0.28278846E-01 0.48948534E+03</pdfrwt>
<pdfrwt beam="2">  1       -2 0.43227651E-01 0.48948534E+03</pdfrwt>
<totfact> 0.96754118E+02</totfact>
</mgrwt>
</event>
<event>
 4    1  0.2581031E-004  0.4852467E+03  0.7818608E-02  0.1017703E+00
          2   -1    0    0  501    0  0.00000000000E+00  0.00000000000E+00  0.14572665029E+03  0.14572665031E+03  0.25500000000E-02 0.  1.
         -2   -1    0    0    0  501 -0.00000000000E+00 -0.00000000000E+00 -0.40394863834E+03  0.40394863835E+03  0.25500000000E-02 0. -1.
    5000001    1    1    2    0    0 -0.44308553949E+02 -0.19200657248E+03 -0.19991903743E+03  0.30810127127E+03  0.12700000000E+03 0.  0.
   -5000001    1    1    2    0    0  0.44308553949E+02  0.19200657248E+03 -0.58302950626E+02  0.24157401739E+03  0.12700000000E+03 0.  0.
<mgrwt>
<rscale>  0 0.48524667E+03</rscale>
<asrwt>0</asrwt>
<pdfrwt beam="1">  1        2 0.20818093E-01 0.48524667E+03</pdfrwt>
<pdfrwt beam="2">  1       -2 0.57706948E-01 0.48524667E+03</pdfrwt>
<totfact> 0.76585032E+02</totfact>
</mgrwt>
</event>
<event>
 4    1  0.2581031E-004  0.5382135E+03  0.7818608E-02  0.1004259E+00
         -2   -1    0    0    0  501 -0.00000000000E+00  0.00000000000E+00  0.49883849264E+03  0.49883849264E+03  0.25500000000E-02 0. -1.
          2   -1    0    0  501    0  0.00000000000E+00 -0.00000000000E+00 -0.14517414093E+03  0.14517414095E+03  0.25500000000E-02 0.  1.
    5000001    1    1    2    0    0 -0.53864348415E+02 -0.18200163883E+03  0.64999388240E+01  0.22846709560E+03  0.12700000000E+03 0.  0.
   -5000001    1    1    2    0    0  0.53864348415E+02  0.18200163883E+03  0.34716441289E+03  0.41554553799E+03  0.12700000000E+03 0.  0.
<mgrwt>
<rscale>  0 0.53821353E+03</rscale>
<asrwt>0</asrwt>
<pdfrwt beam="1">  1        2 0.20739163E-01 0.53821353E+03</pdfrwt>
<pdfrwt beam="2">  1       -2 0.71262642E-01 0.53821353E+03</pdfrwt>
<totfact> 0.49093993E+02</totfact>
</mgrwt>
</event>
<event>
 4    1  0.2581031E-004  0.2715004E+03  0.7818608E-02  0.1100424E+00
         -2   -1    0    0    0  501 -0.00000000000E+00  0.00000000000E+00  0.17525208930E+02  0.17525209116E+02  0.25500000000E-02 0. -1.
          2   -1    0    0  501    0  0.00000000000E+00 -0.00000000000E+00 -0.10515202312E+04  0.10515202312E+04  0.25500000000E-02 0.  1.
    5000001    1    1    2    0    0  0.10356165859E+02 -0.43293668807E+02 -0.44683401254E+03  0.46665964759E+03  0.12700000000E+03 0.  0.
   -5000001    1    1    2    0    0 -0.10356165859E+02  0.43293668807E+02 -0.58716100976E+03  0.60238579275E+03  0.12700000000E+03 0.  0.
<mgrwt>
<rscale>  0 0.27150036E+03</rscale>
<asrwt>0</asrwt>
<pdfrwt beam="1">  1        2 0.15021714E+00 0.27150036E+03</pdfrwt>
<pdfrwt beam="2">  1       -2 0.25036020E-02 0.27150036E+03</pdfrwt>
<totfact> 0.15011916E+04</totfact>
</mgrwt>
</event>
<event>
 4    1  0.2581031E-004  0.5585317E+03  0.7818608E-02  0.9995382E-01
         -2   -1    0    0    0  501 -0.00000000000E+00  0.00000000000E+00  0.60655059264E+02  0.60655059318E+02  0.25500000000E-02 0. -1.
          2   -1    0    0  501    0  0.00000000000E+00 -0.00000000000E+00 -0.12857859930E+04  0.12857859930E+04  0.25500000000E-02 0.  1.
    5000001    1    1    2    0    0 -0.18216335038E+03  0.16286673492E+03 -0.72437958580E+03  0.77496054344E+03  0.12700000000E+03 0.  0.
   -5000001    1    1    2    0    0  0.18216335038E+03 -0.16286673492E+03 -0.50075134792E+03  0.57148050886E+03  0.12700000000E+03 0.  0.
<mgrwt>
<rscale>  0 0.55853174E+03</rscale>
<asrwt>0</asrwt>
<pdfrwt beam="1">  1        2 0.18368370E+00 0.55853174E+03</pdfrwt>
<pdfrwt beam="2">  1       -2 0.86650092E-02 0.55853174E+03</pdfrwt>
<totfact> 0.16707591E+03</totfact>
</mgrwt>
</event>
<event>
 4    1  0.2581031E-004  0.4591066E+03  0.7818608E-02  0.1025041E+00
          2   -1    0    0  501    0  0.00000000000E+00  0.00000000000E+00  0.18302745513E+04  0.18302745513E+04  0.25500000000E-02 0.  1.
         -2   -1    0    0    0  501 -0.00000000000E+00 -0.00000000000E+00 -0.28790607734E+02  0.28790607847E+02  0.25500000000E-02 0. -1.
    5000001    1    1    2    0    0 -0.18269040842E+03  0.56057610815E+02  0.92864277937E+03  0.95656920959E+03  0.12700000000E+03 0.  0.
   -5000001    1    1    2    0    0  0.18269040842E+03 -0.56057610815E+02  0.87284116423E+03  0.90249594959E+03  0.12700000000E+03 0.  0.
<mgrwt>
<rscale>  0 0.45910660E+03</rscale>
<asrwt>0</asrwt>
<pdfrwt beam="1">  1        2 0.26146772E+00 0.45910660E+03</pdfrwt>
<pdfrwt beam="2">  1       -2 0.41129451E-02 0.45910660E+03</pdfrwt>
<totfact> 0.28058516E+03</totfact>
</mgrwt>
</event>
<event>
 4    1  0.2581031E-004  0.4283758E+03  0.7818608E-02  0.1034374E+00
          2   -1    0    0  501    0  0.00000000000E+00  0.00000000000E+00  0.17428899827E+04  0.17428899827E+04  0.25500000000E-02 0.  1.
         -2   -1    0    0    0  501 -0.00000000000E+00 -0.00000000000E+00 -0.26322065619E+02  0.26322065742E+02  0.25500000000E-02 0. -1.
    5000001    1    1    2    0    0 -0.15322601784E+03 -0.56854227777E+02  0.10858809460E+04  0.11054307055E+04  0.12700000000E+03 0.  0.
   -5000001    1    1    2    0    0  0.15322601784E+03  0.56854227777E+02  0.63068697107E+03  0.66378134295E+03  0.12700000000E+03 0.  0.
<mgrwt>
<rscale>  0 0.42837584E+03</rscale>
<asrwt>0</asrwt>
<pdfrwt beam="1">  1        2 0.24898435E+00 0.42837584E+03</pdfrwt>
<pdfrwt beam="2">  1       -2 0.37602941E-02 0.42837584E+03</pdfrwt>
<totfact> 0.35589684E+03</totfact>
</mgrwt>
</event>
<event>
 4    1  0.2581031E-004  0.3703442E+03  0.7818608E-02  0.1054561E+00
          2   -1    0    0  501    0  0.00000000000E+00  0.00000000000E+00  0.23526787096E+04  0.23526787096E+04  0.25500000000E-02 0.  1.
         -2   -1    0    0    0  501 -0.00000000000E+00 -0.00000000000E+00 -0.14574329554E+02  0.14574329777E+02  0.25500000000E-02 0. -1.
    5000001    1    1    2    0    0 -0.89339231471E+02  0.28489369085E+02  0.17876799940E+04  0.17946369837E+04  0.12700000000E+03 0.  0.
   -5000001    1    1    2    0    0  0.89339231471E+02 -0.28489369085E+02  0.55042438606E+03  0.57261605566E+03  0.12700000000E+03 0.  0.
<mgrwt>
<rscale>  0 0.37034425E+03</rscale>
<asrwt>0</asrwt>
<pdfrwt beam="1">  1        2 0.33609718E+00 0.37034425E+03</pdfrwt>
<pdfrwt beam="2">  1       -2 0.20820457E-02 0.37034425E+03</pdfrwt>
<totfact> 0.43125032E+03</totfact>
</mgrwt>
</event>
<event>
 4    1  0.2581031E-004  0.5984284E+03  0.7818608E-02  0.9908672E-01
         -2   -1    0    0    0  501 -0.00000000000E+00  0.00000000000E+00  0.32638293344E+03  0.32638293345E+03  0.25500000000E-02 0. -1.
          2   -1    0    0  501    0  0.00000000000E+00 -0.00000000000E+00 -0.27430705670E+03  0.27430705671E+03  0.25500000000E-02 0.  1.
    5000001    1    1    2    0    0 -0.10776282973E+03  0.24814051527E+03  0.11367677198E+02  0.29907317980E+03  0.12700000000E+03 0.  0.
   -5000001    1    1    2    0    0  0.10776282973E+03 -0.24814051527E+03  0.40708199545E+02  0.30161681037E+03  0.12700000000E+03 0.  0.
<mgrwt>
<rscale>  0 0.59842841E+03</rscale>
<asrwt>0</asrwt>
<pdfrwt beam="1">  1        2 0.39186722E-01 0.59842841E+03</pdfrwt>
<pdfrwt beam="2">  1       -2 0.46626133E-01 0.59842841E+03</pdfrwt>
<totfact> 0.57875485E+02</totfact>
</mgrwt>
</event>
<event>
 4    1  0.2581031E-004  0.4213791E+03  0.7818608E-02  0.1036618E+00
         -2   -1    0    0    0  501 -0.00000000000E+00  0.00000000000E+00  0.46467050294E+03  0.46467050294E+03  0.25500000000E-02 0. -1.
          2   -1    0    0  501    0  0.00000000000E+00 -0.00000000000E+00 -0.95530256675E+02  0.95530256709E+02  0.25500000000E-02 0.  1.
    5000001    1    1    2    0    0  0.13829149824E+03 -0.89852800847E+02  0.22791552660E+03  0.30866252051E+03  0.12700000000E+03 0.  0.
   -5000001    1    1    2    0    0 -0.13829149824E+03  0.89852800847E+02  0.14122471966E+03  0.25153823914E+03  0.12700000000E+03 0.  0.
<mgrwt>
<rscale>  0 0.42137913E+03</rscale>
<asrwt>0</asrwt>
<pdfrwt beam="1">  1        2 0.13647179E-01 0.42137913E+03</pdfrwt>
<pdfrwt beam="2">  1       -2 0.66381501E-01 0.42137913E+03</pdfrwt>
<totfact> 0.94077697E+02</totfact>
</mgrwt>
</event>
<event>
 4    1  0.2581031E-004  0.4028171E+03  0.7818608E-02  0.1042809E+00
          2   -1    0    0  501    0  0.00000000000E+00  0.00000000000E+00  0.13790071281E+04  0.13790071281E+04  0.25500000000E-02 0.  1.
         -2   -1    0    0    0  501 -0.00000000000E+00 -0.00000000000E+00 -0.29416389113E+02  0.29416389223E+02  0.25500000000E-02 0. -1.
    5000001    1    1    2    0    0  0.47288658045E+02 -0.11229041969E+03  0.10172148959E+04  0.10323277095E+04  0.12700000000E+03 0.  0.
   -5000001    1    1    2    0    0 -0.47288658045E+02  0.11229041969E+03  0.33237584310E+03  0.37609580775E+03  0.12700000000E+03 0.  0.
<mgrwt>
<rscale>  0 0.40281713E+03</rscale>
<asrwt>0</asrwt>
<pdfrwt beam="1">  1        2 0.19700105E+00 0.40281713E+03</pdfrwt>
<pdfrwt beam="2">  1       -2 0.42023406E-02 0.40281713E+03</pdfrwt>
<totfact> 0.46092144E+03</totfact>
</mgrwt>
</event>
<event>
 4    1  0.2581031E-004  0.3316392E+03  0.7818608E-02  0.1070414E+00
         -2   -1    0    0    0  501 -0.00000000000E+00  0.00000000000E+00  0.70427965072E+02  0.70427965118E+02  0.25500000000E-02 0. -1.
          2   -1    0    0  501    0  0.00000000000E+00 -0.00000000000E+00 -0.39041500868E+03  0.39041500868E+03  0.25500000000E-02 0.  1.
    5000001    1    1    2    0    0 -0.46606040315E+02  0.90287148038E+02 -0.20487630609E+03  0.26158591875E+03  0.12700000000E+03 0.  0.
   -5000001    1    1    2    0    0  0.46606040315E+02 -0.90287148038E+02 -0.11511073752E+03  0.19925705505E+03  0.12700000000E+03 0.  0.
<mgrwt>
<rscale>  0 0.33163917E+03</rscale>
<asrwt>0</asrwt>
<pdfrwt beam="1">  1        2 0.55773571E-01 0.33163917E+03</pdfrwt>
<pdfrwt beam="2">  1       -2 0.10061138E-01 0.33163917E+03</pdfrwt>
<totfact> 0.58551532E+03</totfact>
</mgrwt>
</event>
<event>
 4    1  0.2581031E-004  0.4368918E+03  0.7818608E-02  0.1031705E+00
         -2   -1    0    0    0  501 -0.00000000000E+00  0.00000000000E+00  0.20147314298E+03  0.20147314299E+03  0.25500000000E-02 0. -1.
          2   -1    0    0  501    0  0.00000000000E+00 -0.00000000000E+00 -0.23684854978E+03  0.23684854979E+03  0.25500000000E-02 0.  1.
    5000001    1    1    2    0    0 -0.90607667538E+02 -0.15142693539E+03 -0.38964551525E+02  0.22087802619E+03  0.12700000000E+03 0.  0.
   -5000001    1    1    2    0    0  0.90607667538E+02  0.15142693539E+03  0.35891447258E+01  0.21744366659E+03  0.12700000000E+03 0.  0.
<mgrwt>
<rscale>  0 0.43689185E+03</rscale>
<asrwt>0</asrwt>
<pdfrwt beam="1">  1        2 0.33835507E-01 0.43689185E+03</pdfrwt>
<pdfrwt beam="2">  1       -2 0.28781878E-01 0.43689185E+03</pdfrwt>
<totfact> 0.17076457E+03</totfact>
</mgrwt>
</event>
<event>
 4    1  0.2581031E-004  0.6593861E+03  0.7818608E-02  0.9789324E-01
         -2   -1    0    0    0  501 -0.00000000000E+00  0.00000000000E+00  0.13832168462E+03  0.13832168464E+03  0.25500000000E-02 0. -1.
          2   -1    0    0  501    0  0.00000000000E+00 -0.00000000000E+00 -0.78583133718E+03  0.78583133718E+03  0.25500000000E-02 0.  1.
    5000001    1    1    2    0    0  0.40395233291E+02  0.29090959165E+03 -0.21243771130E+03  0.38408195293E+03  0.12700000000E+03 0.  0.
   -5000001    1    1    2    0    0 -0.40395233291E+02 -0.29090959165E+03 -0.43507194126E+03  0.54007106889E+03  0.12700000000E+03 0.  0.
<mgrwt>
<rscale>  0 0.65938612E+03</rscale>
<asrwt>0</asrwt>
<pdfrwt beam="1">  1        2 0.11226162E+00 0.65938612E+03</pdfrwt>
<pdfrwt beam="2">  1       -2 0.19760241E-01 0.65938612E+03</pdfrwt>
<totfact> 0.85046144E+02</totfact>
</mgrwt>
</event>
<event>
 4    1  0.2581031E-004  0.3578658E+03  0.7818608E-02  0.1059432E+00
          2   -1    0    0  501    0  0.00000000000E+00  0.00000000000E+00  0.53156356790E+03  0.53156356791E+03  0.25500000000E-02 0.  1.
         -2   -1    0    0    0  501 -0.00000000000E+00 -0.00000000000E+00 -0.60231713715E+02  0.60231713769E+02  0.25500000000E-02 0. -1.
    5000001    1    1    2    0    0  0.10754362483E+03 -0.54745000634E+02  0.17546340758E+03  0.24794970001E+03  0.12700000000E+03 0.  0.
   -5000001    1    1    2    0    0 -0.10754362483E+03  0.54745000634E+02  0.29586844660E+03  0.34384558167E+03  0.12700000000E+03 0.  0.
<mgrwt>
<rscale>  0 0.35786581E+03</rscale>
<asrwt>0</asrwt>
<pdfrwt beam="1">  1        2 0.75937657E-01 0.35786581E+03</pdfrwt>
<pdfrwt beam="2">  1       -2 0.86045300E-02 0.35786581E+03</pdfrwt>
<totfact> 0.53503408E+03</totfact>
</mgrwt>
</event>
<event>
 4    1  0.2581031E-004  0.2999673E+03  0.7818608E-02  0.1085257E+00
          2   -1    0    0  501    0  0.00000000000E+00  0.00000000000E+00  0.44142760173E+03  0.44142760173E+03  0.25500000000E-02 0.  1.
         -2   -1    0    0    0  501 -0.00000000000E+00 -0.00000000000E+00 -0.50959874036E+02  0.50959874099E+02  0.25500000000E-02 0. -1.
    5000001    1    1    2    0    0  0.33883022934E+02  0.43690938023E+02  0.28965962741E+03  0.32107422360E+03  0.12700000000E+03 0.  0.
   -5000001    1    1    2    0    0 -0.33883022934E+02 -0.43690938023E+02  0.10080810028E+03  0.17131325223E+03  0.12700000000E+03 0.  0.
<mgrwt>
<rscale>  0 0.29996730E+03</rscale>
<asrwt>0</asrwt>
<pdfrwt beam="1">  1        2 0.63061085E-01 0.29996730E+03</pdfrwt>
<pdfrwt beam="2">  1       -2 0.72799821E-02 0.29996730E+03</pdfrwt>
<totfact> 0.85000839E+03</totfact>
</mgrwt>
</event>
<event>
 4    1  0.2581031E-004  0.1112709E+04  0.7818608E-02  0.9192892E-01
          2   -1    0    0  501    0  0.00000000000E+00  0.00000000000E+00  0.10732685984E+04  0.10732685984E+04  0.25500000000E-02 0.  1.
         -2   -1    0    0    0  501 -0.00000000000E+00 -0.00000000000E+00 -0.28839978882E+03  0.28839978883E+03  0.25500000000E-02 0. -1.
    5000001    1    1    2    0    0 -0.16105247505E+03  0.48976679687E+03  0.18916058735E+03  0.56366669482E+03  0.12700000000E+03 0.  0.
   -5000001    1    1    2    0    0  0.16105247505E+03 -0.48976679687E+03  0.59570822222E+03  0.79800169239E+03  0.12700000000E+03 0.  0.
<mgrwt>
<rscale>  0 0.11127092E+04</rscale>
<asrwt>0</asrwt>
<pdfrwt beam="1">  1        2 0.15332409E+00 0.11127092E+04</pdfrwt>
<pdfrwt beam="2">  1       -2 0.41199970E-01 0.11127092E+04</pdfrwt>
<totfact> 0.14016827E+02</totfact>
</mgrwt>
</event>
<event>
 4    1  0.2581031E-004  0.5868303E+03  0.7818608E-02  0.9933112E-01
         -2   -1    0    0    0  501 -0.00000000000E+00  0.00000000000E+00  0.80831839149E+02  0.80831839190E+02  0.25500000000E-02 0. -1.
          2   -1    0    0  501    0  0.00000000000E+00 -0.00000000000E+00 -0.10650809415E+04  0.10650809415E+04  0.25500000000E-02 0.  1.
    5000001    1    1    2    0    0 -0.18740960745E+03 -0.91628122904E+02 -0.17457323581E+03  0.30020474436E+03  0.12700000000E+03 0.  0.
   -5000001    1    1    2    0    0  0.18740960745E+03  0.91628122904E+02 -0.80967586656E+03  0.84570803636E+03  0.12700000000E+03 0.  0.
<mgrwt>
<rscale>  0 0.58683030E+03</rscale>
<asrwt>0</asrwt>
<pdfrwt beam="1">  1        2 0.15215441E+00 0.58683030E+03</pdfrwt>
<pdfrwt beam="2">  1       -2 0.11547406E-01 0.58683030E+03</pdfrwt>
<totfact> 0.13977190E+03</totfact>
</mgrwt>
</event>
<event>
 4    1  0.2581031E-004  0.5990461E+03  0.7818608E-02  0.9907387E-01
         -2   -1    0    0    0  501 -0.00000000000E+00  0.00000000000E+00  0.14876456823E+03  0.14876456825E+03  0.25500000000E-02 0. -1.
          2   -1    0    0  501    0  0.00000000000E+00 -0.00000000000E+00 -0.60306072273E+03  0.60306072273E+03  0.25500000000E-02 0.  1.
    5000001    1    1    2    0    0  0.33920238946E+02 -0.19379995769E+03 -0.46152798548E+03  0.51753848899E+03  0.12700000000E+03 0.  0.
   -5000001    1    1    2    0    0 -0.33920238946E+02  0.19379995769E+03  0.72318309787E+01  0.23428680200E+03  0.12700000000E+03 0.  0.
<mgrwt>
<rscale>  0 0.59904614E+03</rscale>
<asrwt>0</asrwt>
<pdfrwt beam="1">  1        2 0.86151531E-01 0.59904614E+03</pdfrwt>
<pdfrwt beam="2">  1       -2 0.21252081E-01 0.59904614E+03</pdfrwt>
<totfact> 0.10359520E+03</totfact>
</mgrwt>
</event>
<event>
 4    1  0.2581031E-004  0.4549373E+03  0.7818608E-02  0.1026260E+00
         -2   -1    0    0    0  501 -0.00000000000E+00  0.00000000000E+00  0.24116870375E+02  0.24116870510E+02  0.25500000000E-02 0. -1.
          2   -1    0    0  501    0  0.00000000000E+00 -0.00000000000E+00 -0.21454682821E+04  0.21454682821E+04  0.25500000000E-02 0.  1.
    5000001    1    1    2    0    0  0.10588057848E+03  0.13794728460E+03 -0.14102397418E+04  0.14265851814E+04  0.12700000000E+03 0.  0.
   -5000001    1    1    2    0    0 -0.10588057848E+03 -0.13794728460E+03 -0.71111166990E+03  0.74299997126E+03  0.12700000000E+03 0.  0.
<mgrwt>
<rscale>  0 0.45493727E+03</rscale>
<asrwt>0</asrwt>
<pdfrwt beam="1">  1        2 0.30649535E+00 0.45493727E+03</pdfrwt>
<pdfrwt beam="2">  1       -2 0.34452686E-02 0.45493727E+03</pdfrwt>
<totfact> 0.25607589E+03</totfact>
</mgrwt>
</event>
<event>
 4    1  0.2581031E-004  0.2733430E+03  0.7818608E-02  0.1099381E+00
         -2   -1    0    0    0  501 -0.00000000000E+00  0.00000000000E+00  0.12674601658E+02  0.12674601915E+02  0.25500000000E-02 0. -1.
          2   -1    0    0  501    0  0.00000000000E+00 -0.00000000000E+00 -0.14737424133E+04  0.14737424133E+04  0.25500000000E-02 0.  1.
    5000001    1    1    2    0    0 -0.49189945311E+02 -0.56968915839E+00 -0.79256503530E+03  0.80418176456E+03  0.12700000000E+03 0.  0.
   -5000001    1    1    2    0    0  0.49189945311E+02  0.56968915839E+00 -0.66850277630E+03  0.68223525061E+03  0.12700000000E+03 0.  0.
<mgrwt>
<rscale>  0 0.27334299E+03</rscale>
<asrwt>0</asrwt>
<pdfrwt beam="1">  1        2 0.21053452E+00 0.27334299E+03</pdfrwt>
<pdfrwt beam="2">  1       -2 0.18106583E-02 0.27334299E+03</pdfrwt>
<totfact> 0.14386782E+04</totfact>
</mgrwt>
</event>
<event>
 4    1  0.2581031E-004  0.3209407E+03  0.7818608E-02  0.1075217E+00
         -2   -1    0    0    0  501 -0.00000000000E+00  0.00000000000E+00  0.28374759379E+02  0.28374759494E+02  0.25500000000E-02 0. -1.
          2   -1    0    0  501    0  0.00000000000E+00 -0.00000000000E+00 -0.90752243727E+03  0.90752243728E+03  0.25500000000E-02 0.  1.
    5000001    1    1    2    0    0 -0.60020076306E+02  0.53562334583E+02 -0.27589744249E+03  0.31419696374E+03  0.12700000000E+03 0.  0.
   -5000001    1    1    2    0    0  0.60020076306E+02 -0.53562334583E+02 -0.60325023540E+03  0.62170023304E+03  0.12700000000E+03 0.  0.
<mgrwt>
<rscale>  0 0.32094069E+03</rscale>
<asrwt>0</asrwt>
<pdfrwt beam="1">  1        2 0.12964604E+00 0.32094069E+03</pdfrwt>
<pdfrwt beam="2">  1       -2 0.40535376E-02 0.32094069E+03</pdfrwt>
<totfact> 0.89601669E+03</totfact>
</mgrwt>
</event>
<event>
 4    1  0.2581031E-004  0.4077387E+03  0.7818608E-02  0.1041133E+00
         -2   -1    0    0    0  501 -0.00000000000E+00  0.00000000000E+00  0.16278899727E+02  0.16278899926E+02  0.25500000000E-02 0. -1.
          2   -1    0    0  501    0  0.00000000000E+00 -0.00000000000E+00 -0.25531643494E+04  0.25531643494E+04  0.25500000000E-02 0.  1.
    5000001    1    1    2    0    0  0.64839600441E+02 -0.14066510018E+03 -0.15078126561E+04  0.15210584638E+04  0.12700000000E+03 0.  0.
   -5000001    1    1    2    0    0 -0.64839600441E+02  0.14066510018E+03 -0.10290727935E+04  0.10483847856E+04  0.12700000000E+03 0.  0.
<mgrwt>
<rscale>  0 0.40773867E+03</rscale>
<asrwt>0</asrwt>
<pdfrwt beam="1">  1        2 0.36473751E+00 0.40773867E+03</pdfrwt>
<pdfrwt beam="2">  1       -2 0.23255587E-02 0.40773867E+03</pdfrwt>
<totfact> 0.28938652E+03</totfact>
</mgrwt>
</event>
<event>
 4    1  0.2581031E-004  0.3429369E+03  0.7818608E-02  0.1065552E+00
          2   -1    0    0  501    0  0.00000000000E+00  0.00000000000E+00  0.96068570342E+03  0.96068570343E+03  0.25500000000E-02 0.  1.
         -2   -1    0    0    0  501 -0.00000000000E+00 -0.00000000000E+00 -0.30604622010E+02  0.30604622117E+02  0.25500000000E-02 0. -1.
    5000001    1    1    2    0    0  0.11444504901E+03  0.13025835854E+02  0.45852468576E+03  0.48953164258E+03  0.12700000000E+03 0.  0.
   -5000001    1    1    2    0    0 -0.11444504901E+03 -0.13025835854E+02  0.47155639566E+03  0.50175868296E+03  0.12700000000E+03 0.  0.
<mgrwt>
<rscale>  0 0.34293686E+03</rscale>
<asrwt>0</asrwt>
<pdfrwt beam="1">  1        2 0.13724080E+00 0.34293686E+03</pdfrwt>
<pdfrwt beam="2">  1       -2 0.43720894E-02 0.34293686E+03</pdfrwt>
<totfact> 0.74207895E+03</totfact>
</mgrwt>
</event>
<event>
 4    1  0.2581031E-004  0.3775912E+03  0.7818608E-02  0.1051828E+00
         -2   -1    0    0    0  501 -0.00000000000E+00  0.00000000000E+00  0.56076578349E+02  0.56076578407E+02  0.25500000000E-02 0. -1.
          2   -1    0    0  501    0  0.00000000000E+00 -0.00000000000E+00 -0.63562699511E+03  0.63562699511E+03  0.25500000000E-02 0.  1.
    5000001    1    1    2    0    0 -0.11146741444E+03  0.34677729799E+02 -0.14921751459E+03  0.22808418640E+03  0.12700000000E+03 0.  0.
   -5000001    1    1    2    0    0  0.11146741444E+03 -0.34677729799E+02 -0.43033290216E+03  0.46361938712E+03  0.12700000000E+03 0.  0.
<mgrwt>
<rscale>  0 0.37759124E+03</rscale>
<asrwt>0</asrwt>
<pdfrwt beam="1">  1        2 0.90803852E-01 0.37759124E+03</pdfrwt>
<pdfrwt beam="2">  1       -2 0.80109401E-02 0.37759124E+03</pdfrwt>
<totfact> 0.48834556E+03</totfact>
</mgrwt>
</event>
<event>
 4    1  0.2581031E-004  0.2652579E+03  0.7818608E-02  0.1104025E+00
          2   -1    0    0  501    0  0.00000000000E+00  0.00000000000E+00  0.91223715189E+03  0.91223715189E+03  0.25500000000E-02 0.  1.
         -2   -1    0    0    0  501 -0.00000000000E+00 -0.00000000000E+00 -0.19282740691E+02  0.19282740859E+02  0.25500000000E-02 0. -1.
    5000001    1    1    2    0    0 -0.24922943321E+02  0.26272589742E+02  0.48949157786E+03  0.50699349786E+03  0.12700000000E+03 0.  0.
   -5000001    1    1    2    0    0  0.24922943321E+02 -0.26272589742E+02  0.40346283334E+03  0.42452639489E+03  0.12700000000E+03 0.  0.
<mgrwt>
<rscale>  0 0.26525786E+03</rscale>
<asrwt>0</asrwt>
<pdfrwt beam="1">  1        2 0.13031964E+00 0.26525786E+03</pdfrwt>
<pdfrwt beam="2">  1       -2 0.27546763E-02 0.26525786E+03</pdfrwt>
<totfact> 0.15760549E+04</totfact>
</mgrwt>
</event>
<event>
 4    1  0.2581031E-004  0.3757290E+03  0.7818608E-02  0.1052524E+00
          2   -1    0    0  501    0  0.00000000000E+00  0.00000000000E+00  0.11909853212E+04  0.11909853212E+04  0.25500000000E-02 0.  1.
         -2   -1    0    0    0  501 -0.00000000000E+00 -0.00000000000E+00 -0.29633504896E+02  0.29633505006E+02  0.25500000000E-02 0. -1.
    5000001    1    1    2    0    0 -0.85063626010E+02  0.83777367680E+02  0.35304644216E+03  0.39373247024E+03  0.12700000000E+03 0.  0.
   -5000001    1    1    2    0    0  0.85063626010E+02 -0.83777367680E+02  0.80830537416E+03  0.82688635598E+03  0.12700000000E+03 0.  0.
<mgrwt>
<rscale>  0 0.37572899E+03</rscale>
<asrwt>0</asrwt>
<pdfrwt beam="1">  1        2 0.17014078E+00 0.37572899E+03</pdfrwt>
<pdfrwt beam="2">  1       -2 0.42333573E-02 0.37572899E+03</pdfrwt>
<totfact> 0.57478698E+03</totfact>
</mgrwt>
</event>
<event>
 4    1  0.2581031E-004  0.3201034E+03  0.7818608E-02  0.1075602E+00
          2   -1    0    0  501    0  0.00000000000E+00  0.00000000000E+00  0.14192451453E+02  0.14192451682E+02  0.25500000000E-02 0.  1.
         -2   -1    0    0    0  501 -0.00000000000E+00 -0.00000000000E+00 -0.18049412606E+04  0.18049412606E+04  0.25500000000E-02 0. -1.
    5000001    1    1    2    0    0 -0.78115335361E+02 -0.52916475588E+02 -0.75787708964E+03  0.77421498436E+03  0.12700000000E+03 0.  0.
   -5000001    1    1    2    0    0  0.78115335361E+02  0.52916475588E+02 -0.10328717195E+04  0.10449187279E+04  0.12700000000E+03 0.  0.
<mgrwt>
<rscale>  0 0.32010337E+03</rscale>
<asrwt>0</asrwt>
<pdfrwt beam="1">  1        2 0.20274942E-02 0.32010337E+03</pdfrwt>
<pdfrwt beam="2">  1       -2 0.25784861E+00 0.32010337E+03</pdfrwt>
<totfact> 0.34687007E+02</totfact>
</mgrwt>
</event>
<event>
 4    1  0.2581031E-004  0.3366683E+03  0.7818608E-02  0.1068224E+00
         -2   -1    0    0    0  501 -0.00000000000E+00  0.00000000000E+00  0.29407848478E+03  0.29407848479E+03  0.25500000000E-02 0. -1.
          2   -1    0    0  501    0  0.00000000000E+00 -0.00000000000E+00 -0.96356542524E+02  0.96356542558E+02  0.25500000000E-02 0.  1.
    5000001    1    1    2    0    0  0.64261235331E+02 -0.49838365324E+02  0.18559877825E+03  0.23914279314E+03  0.12700000000E+03 0.  0.
   -5000001    1    1    2    0    0 -0.64261235331E+02  0.49838365324E+02  0.12123164003E+02  0.15129223420E+03  0.12700000000E+03 0.  0.
<mgrwt>
<rscale>  0 0.33666830E+03</rscale>
<asrwt>0</asrwt>
<pdfrwt beam="1">  1        2 0.13765220E-01 0.33666830E+03</pdfrwt>
<pdfrwt beam="2">  1       -2 0.42011213E-01 0.33666830E+03</pdfrwt>
<totfact> 0.23514563E+03</totfact>
</mgrwt>
</event>
<event>
 4    1  0.2581031E-004  0.5700706E+03  0.7818608E-02  0.9969522E-01
         -2   -1    0    0    0  501 -0.00000000000E+00  0.00000000000E+00  0.22714480315E+03  0.22714480317E+03  0.25500000000E-02 0. -1.
          2   -1    0    0  501    0  0.00000000000E+00 -0.00000000000E+00 -0.35767981157E+03  0.35767981158E+03  0.25500000000E-02 0.  1.
    5000001    1    1    2    0    0  0.25402322105E+03 -0.20964117510E+02 -0.77782385010E+02  0.29520567487E+03  0.12700000000E+03 0.  0.
   -5000001    1    1    2    0    0 -0.25402322105E+03  0.20964117510E+02 -0.52752623406E+02  0.28961893987E+03  0.12700000000E+03 0.  0.
<mgrwt>
<rscale>  0 0.57007056E+03</rscale>
<asrwt>0</asrwt>
<pdfrwt beam="1">  1        2 0.51097116E-01 0.57007056E+03</pdfrwt>
<pdfrwt beam="2">  1       -2 0.32449258E-01 0.57007056E+03</pdfrwt>
<totfact> 0.86994580E+02</totfact>
</mgrwt>
</event>
<event>
 4    1  0.2581031E-004  0.4124825E+03  0.7818608E-02  0.1039541E+00
         -2   -1    0    0    0  501 -0.00000000000E+00  0.00000000000E+00  0.69251556913E+02  0.69251556960E+02  0.25500000000E-02 0. -1.
          2   -1    0    0  501    0  0.00000000000E+00 -0.00000000000E+00 -0.61421666190E+03  0.61421666190E+03  0.25500000000E-02 0.  1.
    5000001    1    1    2    0    0  0.51289030390E+02  0.74304226611E+02 -0.48609906500E+02  0.16322869154E+03  0.12700000000E+03 0.  0.
   -5000001    1    1    2    0    0 -0.51289030390E+02 -0.74304226611E+02 -0.49635519848E+03  0.52023952732E+03  0.12700000000E+03 0.  0.
<mgrwt>
<rscale>  0 0.41248253E+03</rscale>
<asrwt>0</asrwt>
<pdfrwt beam="1">  1        2 0.87745234E-01 0.41248253E+03</pdfrwt>
<pdfrwt beam="2">  1       -2 0.98930799E-02 0.41248253E+03</pdfrwt>
<totfact> 0.36401104E+03</totfact>
</mgrwt>
</event>
<event>
 4    1  0.2581031E-004  0.3734340E+03  0.7818608E-02  0.1053388E+00
         -2   -1    0    0    0  501 -0.00000000000E+00  0.00000000000E+00  0.10477352398E+02  0.10477352708E+02  0.25500000000E-02 0. -1.
          2   -1    0    0  501    0  0.00000000000E+00 -0.00000000000E+00 -0.33274856494E+04  0.33274856494E+04  0.25500000000E-02 0.  1.
    5000001    1    1    2    0    0  0.99514757677E+02 -0.91548414506E+02 -0.18481072638E+04  0.18573943463E+04  0.12700000000E+03 0.  0.
   -5000001    1    1    2    0    0 -0.99514757677E+02  0.91548414506E+02 -0.14689010332E+04  0.14805686558E+04  0.12700000000E+03 0.  0.
<mgrwt>
<rscale>  0 0.37343401E+03</rscale>
<asrwt>0</asrwt>
<pdfrwt beam="1">  1        2 0.47535442E+00 0.37343401E+03</pdfrwt>
<pdfrwt beam="2">  1       -2 0.14967668E-02 0.37343401E+03</pdfrwt>
<totfact> 0.21548828E+03</totfact>
</mgrwt>
</event>
<event>
 4    1  0.2581031E-004  0.2922685E+03  0.7818608E-02  0.1089171E+00
         -2   -1    0    0    0  501 -0.00000000000E+00  0.00000000000E+00  0.12992032327E+02  0.12992032577E+02  0.25500000000E-02 0. -1.
          2   -1    0    0  501    0  0.00000000000E+00 -0.00000000000E+00 -0.16437166925E+04  0.16437166925E+04  0.25500000000E-02 0.  1.
    5000001    1    1    2    0    0 -0.45180722900E+02 -0.56412528078E+02 -0.82441334804E+03  0.83726342299E+03  0.12700000000E+03 0.  0.
   -5000001    1    1    2    0    0  0.45180722900E+02  0.56412528078E+02 -0.80631131213E+03  0.81944530209E+03  0.12700000000E+03 0.  0.
<mgrwt>
<rscale>  0 0.29226851E+03</rscale>
<asrwt>0</asrwt>
<pdfrwt beam="1">  1        2 0.23481654E+00 0.29226851E+03</pdfrwt>
<pdfrwt beam="2">  1       -2 0.18560057E-02 0.29226851E+03</pdfrwt>
<totfact> 0.11420391E+04</totfact>
</mgrwt>
</event>
<event>
 4    1  0.2581031E-004  0.3290072E+03  0.7818608E-02  0.1071577E+00
          2   -1    0    0  501    0  0.00000000000E+00  0.00000000000E+00  0.61973884756E+03  0.61973884756E+03  0.25500000000E-02 0.  1.
         -2   -1    0    0    0  501 -0.00000000000E+00 -0.00000000000E+00 -0.43665876918E+02  0.43665876993E+02  0.25500000000E-02 0. -1.
    5000001    1    1    2    0    0 -0.89012153793E+02 -0.23840315564E+02  0.38765717330E+03  0.41820880930E+03  0.12700000000E+03 0.  0.
   -5000001    1    1    2    0    0  0.89012153793E+02  0.23840315564E+02  0.18841579734E+03  0.24519591525E+03  0.12700000000E+03 0.  0.
<mgrwt>
<rscale>  0 0.32900724E+03</rscale>
<asrwt>0</asrwt>
<pdfrwt beam="1">  1        2 0.88534121E-01 0.32900724E+03</pdfrwt>
<pdfrwt beam="2">  1       -2 0.62379824E-02 0.32900724E+03</pdfrwt>
<totfact> 0.74053454E+03</totfact>
</mgrwt>
</event>
<event>
 4    1  0.2581031E-004  0.4114196E+03  0.7818608E-02  0.1039896E+00
          2   -1    0    0  501    0  0.00000000000E+00  0.00000000000E+00  0.49754816446E+03  0.49754816446E+03  0.25500000000E-02 0.  1.
         -2   -1    0    0    0  501 -0.00000000000E+00 -0.00000000000E+00 -0.85050104399E+02  0.85050104437E+02  0.25500000000E-02 0. -1.
    5000001    1    1    2    0    0 -0.12648390642E+03  0.91200255441E+02  0.26751519188E+03  0.33467752100E+03  0.12700000000E+03 0.  0.
   -5000001    1    1    2    0    0  0.12648390642E+03 -0.91200255441E+02  0.14498286818E+03  0.24792074790E+03  0.12700000000E+03 0.  0.
<mgrwt>
<rscale>  0 0.41141961E+03</rscale>
<asrwt>0</asrwt>
<pdfrwt beam="1">  1        2 0.71078312E-01 0.41141961E+03</pdfrwt>
<pdfrwt beam="2">  1       -2 0.12150014E-01 0.41141961E+03</pdfrwt>
<totfact> 0.33203720E+03</totfact>
</mgrwt>
</event>
<event>
 4    1  0.2581031E-004  0.4474224E+03  0.7818608E-02  0.1028494E+00
          2   -1    0    0  501    0  0.00000000000E+00  0.00000000000E+00  0.22628845470E+03  0.22628845472E+03  0.25500000000E-02 0.  1.
         -2   -1    0    0    0  501 -0.00000000000E+00 -0.00000000000E+00 -0.22116327136E+03  0.22116327137E+03  0.25500000000E-02 0. -1.
    5000001    1    1    2    0    0 -0.38883935985E+02  0.12550329673E+03  0.13162398130E+03  0.22520415276E+03  0.12700000000E+03 0.  0.
   -5000001    1    1    2    0    0  0.38883935985E+02 -0.12550329673E+03 -0.12649879796E+03  0.22224757333E+03  0.12700000000E+03 0.  0.
<mgrwt>
<rscale>  0 0.44742237E+03</rscale>
<asrwt>0</asrwt>
<pdfrwt beam="1">  1        2 0.32326922E-01 0.44742237E+03</pdfrwt>
<pdfrwt beam="2">  1       -2 0.31594753E-01 0.44742237E+03</pdfrwt>
<totfact> 0.15135874E+03</totfact>
</mgrwt>
</event>
<event>
 4    1  0.2581031E-004  0.3649920E+03  0.7818608E-02  0.1056625E+00
         -2   -1    0    0    0  501 -0.00000000000E+00  0.00000000000E+00  0.11365930143E+03  0.11365930146E+03  0.25500000000E-02 0. -1.
          2   -1    0    0  501    0  0.00000000000E+00 -0.00000000000E+00 -0.29302298601E+03  0.29302298602E+03  0.25500000000E-02 0.  1.
    5000001    1    1    2    0    0  0.11439125291E+03  0.60902635212E+02 -0.67924577633E+02  0.19374529146E+03  0.12700000000E+03 0.  0.
   -5000001    1    1    2    0    0 -0.11439125291E+03 -0.60902635212E+02 -0.11143910695E+03  0.21293699602E+03  0.12700000000E+03 0.  0.
<mgrwt>
<rscale>  0 0.36499199E+03</rscale>
<asrwt>0</asrwt>
<pdfrwt beam="1">  1        2 0.41860426E-01 0.36499199E+03</pdfrwt>
<pdfrwt beam="2">  1       -2 0.16237043E-01 0.36499199E+03</pdfrwt>
<totfact> 0.36637791E+03</totfact>
</mgrwt>
</event>
<event>
 4    1  0.2581031E-004  0.3954731E+03  0.7818608E-02  0.1045359E+00
          2   -1    0    0  501    0  0.00000000000E+00  0.00000000000E+00  0.13703311367E+04  0.13703311367E+04  0.25500000000E-02 0. -1.
         -2   -1    0    0    0  501 -0.00000000000E+00 -0.00000000000E+00 -0.28533061313E+02  0.28533061427E+02  0.25500000000E-02 0.  1.
    5000001    1    1    2    0    0 -0.14500774986E+03 -0.28675570441E+02  0.78933986370E+03  0.81304117749E+03  0.12700000000E+03 0.  0.
   -5000001    1    1    2    0    0  0.14500774986E+03  0.28675570441E+02  0.55245821169E+03  0.58582302065E+03  0.12700000000E+03 0.  0.
<mgrwt>
<rscale>  0 0.39547310E+03</rscale>
<asrwt>0</asrwt>
<pdfrwt beam="1">  1        2 0.19576166E+00 0.39547310E+03</pdfrwt>
<pdfrwt beam="2">  1       -2 0.40761502E-02 0.39547310E+03</pdfrwt>
<totfact> 0.48785637E+03</totfact>
</mgrwt>
</event>
<event>
 4    1  0.2581031E-004  0.4262570E+03  0.7818608E-02  0.1035049E+00
         -2   -1    0    0    0  501 -0.00000000000E+00  0.00000000000E+00  0.30514651586E+03  0.30514651587E+03  0.25500000000E-02 0. -1.
          2   -1    0    0  501    0  0.00000000000E+00 -0.00000000000E+00 -0.14885883836E+03  0.14885883838E+03  0.25500000000E-02 0.  1.
    5000001    1    1    2    0    0  0.11649236484E+03  0.50315902889E+01 -0.55308137468E+02  0.18106291182E+03  0.12700000000E+03 0.  0.
   -5000001    1    1    2    0    0 -0.11649236484E+03 -0.50315902889E+01  0.21159581497E+03  0.27294244243E+03  0.12700000000E+03 0.  0.
<mgrwt>
<rscale>  0 0.42625699E+03</rscale>
<asrwt>0</asrwt>
<pdfrwt beam="1">  1        2 0.21265548E-01 0.42625699E+03</pdfrwt>
<pdfrwt beam="2">  1       -2 0.43592359E-01 0.42625699E+03</pdfrwt>
<totfact> 0.13152400E+03</totfact>
</mgrwt>
</event>
<event>
 4    1  0.2581031E-004  0.4995884E+03  0.7818608E-02  0.1013886E+00
          2   -1    0    0  501    0  0.00000000000E+00  0.00000000000E+00  0.56408213007E+03  0.56408213007E+03  0.25500000000E-02 0.  1.
         -2   -1    0    0    0  501 -0.00000000000E+00 -0.00000000000E+00 -0.11061713912E+03  0.11061713915E+03  0.25500000000E-02 0. -1.
    5000001    1    1    2    0    0  0.11083040406E+03 -0.17501955964E+03  0.14853192977E+03  0.28479107936E+03  0.12700000000E+03 0.  0.
   -5000001    1    1    2    0    0 -0.11083040406E+03  0.17501955964E+03  0.30493306118E+03  0.38990818986E+03  0.12700000000E+03 0.  0.
<mgrwt>
<rscale>  0 0.49958844E+03</rscale>
<asrwt>0</asrwt>
<pdfrwt beam="1">  1        2 0.80583161E-01 0.49958844E+03</pdfrwt>
<pdfrwt beam="2">  1       -2 0.15802448E-01 0.49958844E+03</pdfrwt>
<totfact> 0.18646384E+03</totfact>
</mgrwt>
</event>
<event>
 4    1  0.2581031E-004  0.4104487E+03  0.7818608E-02  0.1040221E+00
         -2   -1    0    0    0  501 -0.00000000000E+00  0.00000000000E+00  0.15033372085E+03  0.15033372087E+03  0.25500000000E-02 0. -1.
          2   -1    0    0  501    0  0.00000000000E+00 -0.00000000000E+00 -0.28015694231E+03  0.28015694232E+03  0.25500000000E-02 0.  1.
    5000001    1    1    2    0    0 -0.54786664514E+02 -0.82236279581E+02 -0.19850320864E+03  0.25553259700E+03  0.12700000000E+03 0.  0.
   -5000001    1    1    2    0    0  0.54786664514E+02  0.82236279581E+02  0.68679987179E+02  0.17495806620E+03  0.12700000000E+03 0.  0.
<mgrwt>
<rscale>  0 0.41044871E+03</rscale>
<asrwt>0</asrwt>
<pdfrwt beam="1">  1        2 0.40022420E-01 0.41044871E+03</pdfrwt>
<pdfrwt beam="2">  1       -2 0.21476246E-01 0.41044871E+03</pdfrwt>
<totfact> 0.23904988E+03</totfact>
</mgrwt>
</event>
<event>
 4    1  0.2581031E-004  0.4187810E+03  0.7818608E-02  0.1037464E+00
         -2   -1    0    0    0  501 -0.00000000000E+00  0.00000000000E+00  0.12260988084E+03  0.12260988086E+03  0.25500000000E-02 0. -1.
          2   -1    0    0  501    0  0.00000000000E+00 -0.00000000000E+00 -0.35759259112E+03  0.35759259113E+03  0.25500000000E-02 0.  1.
    5000001    1    1    2    0    0 -0.60898559172E+02 -0.14590846202E+03 -0.17726639565E+03  0.26935160818E+03  0.12700000000E+03 0.  0.
   -5000001    1    1    2    0    0  0.60898559172E+02  0.14590846202E+03 -0.57716314631E+02  0.21085086382E+03  0.12700000000E+03 0.  0.
<mgrwt>
<rscale>  0 0.41878102E+03</rscale>
<asrwt>0</asrwt>
<pdfrwt beam="1">  1        2 0.51084655E-01 0.41878102E+03</pdfrwt>
<pdfrwt beam="2">  1       -2 0.17515697E-01 0.41878102E+03</pdfrwt>
<totfact> 0.26016152E+03</totfact>
</mgrwt>
</event>
<event>
 4    1  0.2581031E-004  0.3807667E+03  0.7818608E-02  0.1050651E+00
          2   -1    0    0  501    0  0.00000000000E+00  0.00000000000E+00  0.17220520762E+04  0.17220520762E+04  0.25500000000E-02 0.  1.
         -2   -1    0    0    0  501 -0.00000000000E+00 -0.00000000000E+00 -0.21048039033E+02  0.21048039187E+02  0.25500000000E-02 0. -1.
    5000001    1    1    2    0    0 -0.10116202642E+03 -0.15161496768E+02  0.13002806996E+04  0.13104665292E+04  0.12700000000E+03 0.  0.
   -5000001    1    1    2    0    0  0.10116202642E+03  0.15161496768E+02  0.40072333763E+03  0.43263358618E+03  0.12700000000E+03 0.  0.
<mgrwt>
<rscale>  0 0.38076670E+03</rscale>
<asrwt>0</asrwt>
<pdfrwt beam="1">  1        2 0.24600755E+00 0.38076670E+03</pdfrwt>
<pdfrwt beam="2">  1       -2 0.30068614E-02 0.38076670E+03</pdfrwt>
<totfact> 0.51116975E+03</totfact>
</mgrwt>
</event>
<event>
 4    1  0.2581031E-004  0.4553324E+03  0.7818608E-02  0.1026144E+00
         -2   -1    0    0    0  501 -0.00000000000E+00  0.00000000000E+00  0.12160868876E+02  0.12160869143E+02  0.25500000000E-02 0. -1.
          2   -1    0    0  501    0  0.00000000000E+00 -0.00000000000E+00 -0.42621867933E+04  0.42621867933E+04  0.25500000000E-02 0.  1.
    5000001    1    1    2    0    0  0.54593169613E+02 -0.11383870862E+03 -0.80532802286E+03  0.82499811524E+03  0.12700000000E+03 0.  0.
   -5000001    1    1    2    0    0 -0.54593169613E+02  0.11383870862E+03 -0.34446979016E+04  0.34493495472E+04  0.12700000000E+03 0.  0.
<mgrwt>
<rscale>  0 0.45533239E+03</rscale>
<asrwt>0</asrwt>
<pdfrwt beam="1">  1        2 0.60888287E+00 0.45533239E+03</pdfrwt>
<pdfrwt beam="2">  1       -2 0.17372697E-02 0.45533239E+03</pdfrwt>
<totfact> 0.43934158E+02</totfact>
</mgrwt>
</event>
<event>
 4    1  0.2581031E-004  0.2871203E+03  0.7818608E-02  0.1091862E+00
          2   -1    0    0  501    0  0.00000000000E+00  0.00000000000E+00  0.67278420747E+03  0.67278420748E+03  0.25500000000E-02 0.  1.
         -2   -1    0    0    0  501 -0.00000000000E+00 -0.00000000000E+00 -0.30633181688E+02  0.30633181794E+02  0.25500000000E-02 0. -1.
    5000001    1    1    2    0    0 -0.42142450219E+02  0.49509900547E+02  0.28208394993E+03  0.31611322524E+03  0.12700000000E+03 0.  0.
   -5000001    1    1    2    0    0  0.42142450219E+02 -0.49509900547E+02  0.36006707585E+03  0.38730416403E+03  0.12700000000E+03 0.  0.
<mgrwt>
<rscale>  0 0.28712033E+03</rscale>
<asrwt>0</asrwt>
<pdfrwt beam="1">  1        2 0.96112015E-01 0.28712033E+03</pdfrwt>
<pdfrwt beam="2">  1       -2 0.43761695E-02 0.28712033E+03</pdfrwt>
<totfact> 0.11511541E+04</totfact>
</mgrwt>
</event>
<event>
 4    1  0.2581031E-004  0.3482570E+03  0.7818608E-02  0.1063333E+00
          2   -1    0    0  501    0  0.00000000000E+00  0.00000000000E+00  0.36866427240E+04  0.36866427240E+04  0.25500000000E-02 0.  1.
         -2   -1    0    0    0  501 -0.00000000000E+00 -0.00000000000E+00 -0.82244831048E+01  0.82244835001E+01  0.25500000000E-02 0. -1.
    5000001    1    1    2    0    0  0.80250338830E+02  0.69578752808E+02  0.12668399636E+04  0.12776125442E+04  0.12700000000E+03 0.  0.
   -5000001    1    1    2    0    0 -0.80250338830E+02 -0.69578752808E+02  0.24115782773E+04  0.24172546633E+04  0.12700000000E+03 0.  0.
<mgrwt>
<rscale>  0 0.34825698E+03</rscale>
<asrwt>0</asrwt>
<pdfrwt beam="1">  1        2 0.52666384E+00 0.34825698E+03</pdfrwt>
<pdfrwt beam="2">  1       -2 0.11749249E-02 0.34825698E+03</pdfrwt>
<totfact> 0.19001126E+03</totfact>
</mgrwt>
</event>
<event>
 4    1  0.2581031E-004  0.4102199E+03  0.7818608E-02  0.1040297E+00
         -2   -1    0    0    0  501 -0.00000000000E+00  0.00000000000E+00  0.22114497348E+02  0.22114497495E+02  0.25500000000E-02 0. -1.
          2   -1    0    0  501    0  0.00000000000E+00 -0.00000000000E+00 -0.19023761981E+04  0.19023761981E+04  0.25500000000E-02 0.  1.
    5000001    1    1    2    0    0 -0.58601578184E+02  0.14944938688E+03 -0.10016269714E+04  0.10223281538E+04  0.12700000000E+03 0.  0.
   -5000001    1    1    2    0    0  0.58601578184E+02 -0.14944938688E+03 -0.87863472935E+03  0.90216254180E+03  0.12700000000E+03 0.  0.
<mgrwt>
<rscale>  0 0.41021991E+03</rscale>
<asrwt>0</asrwt>
<pdfrwt beam="1">  1        2 0.27176792E+00 0.41021991E+03</pdfrwt>
<pdfrwt beam="2">  1       -2 0.31592151E-02 0.41021991E+03</pdfrwt>
<totfact> 0.38596646E+03</totfact>
</mgrwt>
</event>
<event>
 4    1  0.2581031E-004  0.4174712E+03  0.7818608E-02  0.1037892E+00
          2   -1    0    0  501    0  0.00000000000E+00  0.00000000000E+00  0.38086005856E+02  0.38086005942E+02  0.25500000000E-02 0.  1.
         -2   -1    0    0    0  501 -0.00000000000E+00 -0.00000000000E+00 -0.11440040916E+04  0.11440040916E+04  0.25500000000E-02 0. -1.
    5000001    1    1    2    0    0 -0.13945000988E+03 -0.20127171447E+02 -0.30627053159E+03  0.36025275406E+03  0.12700000000E+03 0.  0.
   -5000001    1    1    2    0    0  0.13945000988E+03  0.20127171447E+02 -0.79964755418E+03  0.82183734352E+03  0.12700000000E+03 0.  0.
<mgrwt>
<rscale>  0 0.41747118E+03</rscale>
<asrwt>0</asrwt>
<pdfrwt beam="1">  1        2 0.54408587E-02 0.41747118E+03</pdfrwt>
<pdfrwt beam="2">  1       -2 0.16342913E+00 0.41747118E+03</pdfrwt>
<totfact> 0.35681725E+02</totfact>
</mgrwt>
</event>
<event>
 4    1  0.2581031E-004  0.3385752E+03  0.7818608E-02  0.1067404E+00
          2   -1    0    0  501    0  0.00000000000E+00  0.00000000000E+00  0.47887412258E+03  0.47887412259E+03  0.25500000000E-02 0.  1.
         -2   -1    0    0    0  501 -0.00000000000E+00 -0.00000000000E+00 -0.59845129168E+02  0.59845129222E+02  0.25500000000E-02 0. -1.
    5000001    1    1    2    0    0 -0.10668139004E+03  0.24307390123E+02  0.17194495473E+03  0.24013711844E+03  0.12700000000E+03 0.  0.
   -5000001    1    1    2    0    0  0.10668139004E+03 -0.24307390123E+02  0.24708403869E+03  0.29858213338E+03  0.12700000000E+03 0.  0.
<mgrwt>
<rscale>  0 0.33857515E+03</rscale>
<asrwt>0</asrwt>
<pdfrwt beam="1">  1        2 0.68410588E-01 0.33857515E+03</pdfrwt>
<pdfrwt beam="2">  1       -2 0.85493042E-02 0.33857515E+03</pdfrwt>
<totfact> 0.60653347E+03</totfact>
</mgrwt>
</event>
<event>
 4    1  0.2581031E-004  0.3353157E+03  0.7818608E-02  0.1068809E+00
          2   -1    0    0  501    0  0.00000000000E+00  0.00000000000E+00  0.24486920142E+03  0.24486920144E+03  0.25500000000E-02 0.  1.
         -2   -1    0    0    0  501 -0.00000000000E+00 -0.00000000000E+00 -0.11479250729E+03  0.11479250732E+03  0.25500000000E-02 0. -1.
    5000001    1    1    2    0    0  0.10238840652E+03 -0.38630233208E+02  0.67305809948E+02  0.18065091409E+03  0.12700000000E+03 0.  0.
   -5000001    1    1    2    0    0 -0.10238840652E+03  0.38630233208E+02  0.62770884181E+02  0.17901079467E+03  0.12700000000E+03 0.  0.
<mgrwt>
<rscale>  0 0.33531567E+03</rscale>
<asrwt>0</asrwt>
<pdfrwt beam="1">  1        2 0.34981314E-01 0.33531567E+03</pdfrwt>
<pdfrwt beam="2">  1       -2 0.16398930E-01 0.33531567E+03</pdfrwt>
<totfact> 0.43729453E+03</totfact>
</mgrwt>
</event>
<event>
 4    1  0.2581031E-004  0.3918981E+03  0.7818608E-02  0.1046622E+00
         -2   -1    0    0    0  501 -0.00000000000E+00  0.00000000000E+00  0.55825677878E+03  0.55825677879E+03  0.25500000000E-02 0. -1.
          2   -1    0    0  501    0  0.00000000000E+00 -0.00000000000E+00 -0.68778453508E+02  0.68778453555E+02  0.25500000000E-02 0.  1.
    5000001    1    1    2    0    0  0.12426276378E+03 -0.82543050229E+02  0.23909403087E+03  0.30911089467E+03  0.12700000000E+03 0.  0.
   -5000001    1    1    2    0    0 -0.12426276378E+03  0.82543050229E+02  0.25038429440E+03  0.31792433768E+03  0.12700000000E+03 0.  0.
<mgrwt>
<rscale>  0 0.39189814E+03</rscale>
<asrwt>0</asrwt>
<pdfrwt beam="1">  1        2 0.98254929E-02 0.39189814E+03</pdfrwt>
<pdfrwt beam="2">  1       -2 0.79750972E-01 0.39189814E+03</pdfrwt>
<totfact> 0.94665317E+02</totfact>
</mgrwt>
</event>
<event>
 4    1  0.2581031E-004  0.3357258E+03  0.7818608E-02  0.1068631E+00
          2   -1    0    0  501    0  0.00000000000E+00  0.00000000000E+00  0.17431876153E+04  0.17431876153E+04  0.25500000000E-02 0.  1.
         -2   -1    0    0    0  501 -0.00000000000E+00 -0.00000000000E+00 -0.16164608556E+02  0.16164608757E+02  0.25500000000E-02 0. -1.
    5000001    1    1    2    0    0  0.10047311218E+03  0.87505025492E+01  0.63644067054E+03  0.65677785033E+03  0.12700000000E+03 0.  0.
   -5000001    1    1    2    0    0 -0.10047311218E+03 -0.87505025492E+01  0.10905823362E+04  0.11025743737E+04  0.12700000000E+03 0.  0.
<mgrwt>
<rscale>  0 0.33572575E+03</rscale>
<asrwt>0</asrwt>
<pdfrwt beam="1">  1        2 0.24902684E+00 0.33572575E+03</pdfrwt>
<pdfrwt beam="2">  1       -2 0.23092295E-02 0.33572575E+03</pdfrwt>
<totfact> 0.73959436E+03</totfact>
</mgrwt>
</event>
<event>
 4    1  0.2581031E-004  0.3012420E+03  0.7818608E-02  0.1084621E+00
         -2   -1    0    0    0  501 -0.00000000000E+00  0.00000000000E+00  0.18377125769E+02  0.18377125946E+02  0.25500000000E-02 0. -1.
          2   -1    0    0  501    0  0.00000000000E+00 -0.00000000000E+00 -0.12345070420E+04  0.12345070420E+04  0.25500000000E-02 0.  1.
    5000001    1    1    2    0    0  0.29854755098E+02  0.68648545358E+02 -0.47962049837E+03  0.50176563417E+03  0.12700000000E+03 0.  0.
   -5000001    1    1    2    0    0 -0.29854755098E+02 -0.68648545358E+02 -0.73650941785E+03  0.75111853376E+03  0.12700000000E+03 0.  0.
<mgrwt>
<rscale>  0 0.30124204E+03</rscale>
<asrwt>0</asrwt>
<pdfrwt beam="1">  1        2 0.17635810E+00 0.30124204E+03</pdfrwt>
<pdfrwt beam="2">  1       -2 0.26253045E-02 0.30124204E+03</pdfrwt>
<totfact> 0.11109290E+04</totfact>
</mgrwt>
</event>
<event>
 4    1  0.2581031E-004  0.6151920E+03  0.7818608E-02  0.9874379E-01
         -2   -1    0    0    0  501 -0.00000000000E+00  0.00000000000E+00  0.32936161671E+02  0.32936161770E+02  0.25500000000E-02 0. -1.
          2   -1    0    0  501    0  0.00000000000E+00 -0.00000000000E+00 -0.28726876926E+04  0.28726876926E+04  0.25500000000E-02 0.  1.
    5000001    1    1    2    0    0  0.25884077186E+03  0.96366728590E+02 -0.16414707440E+04  0.16693832079E+04  0.12700000000E+03 0.  0.
   -5000001    1    1    2    0    0 -0.25884077186E+03 -0.96366728590E+02 -0.11982807870E+04  0.12362406465E+04  0.12700000000E+03 0.  0.
<mgrwt>
<rscale>  0 0.61519202E+03</rscale>
<asrwt>0</asrwt>
<pdfrwt beam="1">  1        2 0.41038380E+00 0.61519202E+03</pdfrwt>
<pdfrwt beam="2">  1       -2 0.47051678E-02 0.61519202E+03</pdfrwt>
<totfact> 0.66525416E+02</totfact>
</mgrwt>
</event>
<event>
 4    1  0.2581031E-004  0.5974394E+03  0.7818608E-02  0.9910733E-01
         -2   -1    0    0    0  501 -0.00000000000E+00  0.00000000000E+00  0.17834520139E+03  0.17834520141E+03  0.25500000000E-02 0. -1.
          2   -1    0    0  501    0  0.00000000000E+00 -0.00000000000E+00 -0.50034121030E+03  0.50034121031E+03  0.25500000000E-02 0.  1.
    5000001    1    1    2    0    0 -0.24726257758E+02 -0.25332870964E+03 -0.57394336631E+02  0.29018947746E+03  0.12700000000E+03 0.  0.
   -5000001    1    1    2    0    0  0.24726257758E+02  0.25332870964E+03 -0.26460167228E+03  0.38849693425E+03  0.12700000000E+03 0.  0.
<mgrwt>
<rscale>  0 0.59743938E+03</rscale>
<asrwt>0</asrwt>
<pdfrwt beam="1">  1        2 0.71477315E-01 0.59743938E+03</pdfrwt>
<pdfrwt beam="2">  1       -2 0.25477886E-01 0.59743938E+03</pdfrwt>
<totfact> 0.93143574E+02</totfact>
</mgrwt>
</event>
<event>
 4    1  0.2581031E-004  0.3803978E+03  0.7818608E-02  0.1050787E+00
          2   -1    0    0  501    0  0.00000000000E+00  0.00000000000E+00  0.16575031240E+04  0.16575031240E+04  0.25500000000E-02 0.  1.
         -2   -1    0    0    0  501 -0.00000000000E+00 -0.00000000000E+00 -0.21825369426E+02  0.21825369575E+02  0.25500000000E-02 0. -1.
    5000001    1    1    2    0    0  0.57817660256E+02  0.91836675023E+02  0.12193006251E+04  0.12306908105E+04  0.12700000000E+03 0.  0.
   -5000001    1    1    2    0    0 -0.57817660256E+02 -0.91836675023E+02  0.41637712951E+03  0.44863768310E+03  0.12700000000E+03 0.  0.
<mgrwt>
<rscale>  0 0.38039778E+03</rscale>
<asrwt>0</asrwt>
<pdfrwt beam="1">  1        2 0.23678622E+00 0.38039778E+03</pdfrwt>
<pdfrwt beam="2">  1       -2 0.31179092E-02 0.38039778E+03</pdfrwt>
<totfact> 0.52140255E+03</totfact>
</mgrwt>
</event>
<event>
 4    1  0.2581031E-004  0.3980199E+03  0.7818608E-02  0.1044467E+00
          2   -1    0    0  501    0  0.00000000000E+00  0.00000000000E+00  0.51547850397E+03  0.51547850397E+03  0.25500000000E-02 0.  1.
         -2   -1    0    0    0  501 -0.00000000000E+00 -0.00000000000E+00 -0.76831466368E+02  0.76831466410E+02  0.25500000000E-02 0. -1.
    5000001    1    1    2    0    0 -0.14868067165E+03 -0.34567846998E+02  0.19963212983E+03  0.28157213184E+03  0.12700000000E+03 0.  0.
   -5000001    1    1    2    0    0  0.14868067165E+03  0.34567846998E+02  0.23901490777E+03  0.31073783855E+03  0.12700000000E+03 0.  0.
<mgrwt>
<rscale>  0 0.39801995E+03</rscale>
<asrwt>0</asrwt>
<pdfrwt beam="1">  1        2 0.73639783E-01 0.39801995E+03</pdfrwt>
<pdfrwt beam="2">  1       -2 0.10975924E-01 0.39801995E+03</pdfrwt>
<totfact> 0.37615907E+03</totfact>
</mgrwt>
</event>
<event>
 4    1  0.2581031E-004  0.4998740E+03  0.7818608E-02  0.1013812E+00
         -2   -1    0    0    0  501 -0.00000000000E+00  0.00000000000E+00  0.36824815777E+02  0.36824815865E+02  0.25500000000E-02 0. -1.
          2   -1    0    0  501    0  0.00000000000E+00 -0.00000000000E+00 -0.16963696611E+04  0.16963696611E+04  0.25500000000E-02 0.  1.
    5000001    1    1    2    0    0  0.19522474023E+03  0.79780300315E+02 -0.68016074291E+03  0.72334309405E+03  0.12700000000E+03 0.  0.
   -5000001    1    1    2    0    0 -0.19522474023E+03 -0.79780300315E+02 -0.97938410238E+03  0.10098513829E+04  0.12700000000E+03 0.  0.
<mgrwt>
<rscale>  0 0.49987399E+03</rscale>
<asrwt>0</asrwt>
<pdfrwt beam="1">  1        2 0.24233847E+00 0.49987399E+03</pdfrwt>
<pdfrwt beam="2">  1       -2 0.52606891E-02 0.49987399E+03</pdfrwt>
<totfact> 0.22408294E+03</totfact>
</mgrwt>
</event>
<event>
 4    1  0.2581031E-004  0.4475616E+03  0.7818608E-02  0.1028452E+00
         -2   -1    0    0    0  501 -0.00000000000E+00  0.00000000000E+00  0.12884744993E+03  0.12884744995E+03  0.25500000000E-02 0. -1.
          2   -1    0    0  501    0  0.00000000000E+00 -0.00000000000E+00 -0.38865991357E+03  0.38865991358E+03  0.25500000000E-02 0.  1.
    5000001    1    1    2    0    0 -0.70076600414E+02 -0.16967696994E+03 -0.11170315452E+03  0.24961490096E+03  0.12700000000E+03 0.  0.
   -5000001    1    1    2    0    0  0.70076600414E+02  0.16967696994E+03 -0.14810930913E+03  0.26789246257E+03  0.12700000000E+03 0.  0.
<mgrwt>
<rscale>  0 0.44756157E+03</rscale>
<asrwt>0</asrwt>
<pdfrwt beam="1">  1        2 0.55522844E-01 0.44756157E+03</pdfrwt>
<pdfrwt beam="2">  1       -2 0.18406779E-01 0.44756157E+03</pdfrwt>
<totfact> 0.21835313E+03</totfact>
</mgrwt>
</event>
<event>
 4    1  0.2581031E-004  0.4578678E+03  0.7818608E-02  0.1025401E+00
         -2   -1    0    0    0  501 -0.00000000000E+00  0.00000000000E+00  0.15133053807E+03  0.15133053809E+03  0.25500000000E-02 0. -1.
          2   -1    0    0  501    0  0.00000000000E+00 -0.00000000000E+00 -0.34633282503E+03  0.34633282504E+03  0.25500000000E-02 0.  1.
    5000001    1    1    2    0    0  0.14100952868E+03 -0.90277775653E+02  0.12106547843E+01  0.21015287207E+03  0.12700000000E+03 0.  0.
   -5000001    1    1    2    0    0 -0.14100952868E+03  0.90277775653E+02 -0.19621294175E+03  0.28751049105E+03  0.12700000000E+03 0.  0.
<mgrwt>
<rscale>  0 0.45786781E+03</rscale>
<asrwt>0</asrwt>
<pdfrwt beam="1">  1        2 0.49476117E-01 0.45786781E+03</pdfrwt>
<pdfrwt beam="2">  1       -2 0.21618648E-01 0.45786781E+03</pdfrwt>
<totfact> 0.18765053E+03</totfact>
</mgrwt>
</event>
<event>
 4    1  0.2581031E-004  0.4525987E+03  0.7818608E-02  0.1026950E+00
         -2   -1    0    0    0  501 -0.00000000000E+00  0.00000000000E+00  0.39233304419E+02  0.39233304502E+02  0.25500000000E-02 0. -1.
          2   -1    0    0  501    0  0.00000000000E+00 -0.00000000000E+00 -0.13053041524E+04  0.13053041524E+04  0.25500000000E-02 0.  1.
    5000001    1    1    2    0    0 -0.10635051911E+03 -0.92875575248E+01 -0.17583907790E+03  0.24175415809E+03  0.12700000000E+03 0.  0.
   -5000001    1    1    2    0    0  0.10635051911E+03  0.92875575248E+01 -0.10902317701E+04  0.11027832988E+04  0.12700000000E+03 0.  0.
<mgrwt>
<rscale>  0 0.45259870E+03</rscale>
<asrwt>0</asrwt>
<pdfrwt beam="1">  1        2 0.18647199E+00 0.45259870E+03</pdfrwt>
<pdfrwt beam="2">  1       -2 0.56047586E-02 0.45259870E+03</pdfrwt>
<totfact> 0.32414749E+03</totfact>
</mgrwt>
</event>
<event>
 4    1  0.2581031E-004  0.5865503E+03  0.7818608E-02  0.9933710E-01
          2   -1    0    0  501    0  0.00000000000E+00  0.00000000000E+00  0.38211022050E+03  0.38211022051E+03  0.25500000000E-02 0.  1.
         -2   -1    0    0    0  501 -0.00000000000E+00 -0.00000000000E+00 -0.22509290899E+03  0.22509290901E+03  0.25500000000E-02 0. -1.
    5000001    1    1    2    0    0 -0.97100287581E+02 -0.24362944799E+03  0.11280410063E+03  0.31247006080E+03  0.12700000000E+03 0.  0.
   -5000001    1    1    2    0    0  0.97100287581E+02  0.24362944799E+03  0.44213210878E+02  0.29473306872E+03  0.12700000000E+03 0.  0.
<mgrwt>
<rscale>  0 0.58655026E+03</rscale>
<asrwt>0</asrwt>
<pdfrwt beam="1">  1        2 0.54587175E-01 0.58655026E+03</pdfrwt>
<pdfrwt beam="2">  1       -2 0.32156130E-01 0.58655026E+03</pdfrwt>
<totfact> 0.82231859E+02</totfact>
</mgrwt>
</event>
<event>
 4    1  0.2581031E-004  0.5325667E+03  0.7818608E-02  0.1005612E+00
         -2   -1    0    0    0  501 -0.00000000000E+00  0.00000000000E+00  0.42307162881E+02  0.42307162958E+02  0.25500000000E-02 0. -1.
          2   -1    0    0  501    0  0.00000000000E+00 -0.00000000000E+00 -0.16760005740E+04  0.16760005740E+04  0.25500000000E-02 0.  1.
    5000001    1    1    2    0    0  0.15465757840E+03 -0.17531354969E+03 -0.85277829447E+03  0.89331608447E+03  0.12700000000E+03 0.  0.
   -5000001    1    1    2    0    0 -0.15465757840E+03  0.17531354969E+03 -0.78091511668E+03  0.82499165252E+03  0.12700000000E+03 0.  0.
<mgrwt>
<rscale>  0 0.53256673E+03</rscale>
<asrwt>0</asrwt>
<pdfrwt beam="1">  1        2 0.23942861E+00 0.53256673E+03</pdfrwt>
<pdfrwt beam="2">  1       -2 0.60438815E-02 0.53256673E+03</pdfrwt>
<totfact> 0.18473274E+03</totfact>
</mgrwt>
</event>
<event>
 4    1  0.2581031E-004  0.5290126E+03  0.7818608E-02  0.1006472E+00
          2   -1    0    0  501    0  0.00000000000E+00  0.00000000000E+00  0.32206418123E+03  0.32206418124E+03  0.25500000000E-02 0.  1.
         -2   -1    0    0    0  501 -0.00000000000E+00 -0.00000000000E+00 -0.21723486830E+03  0.21723486831E+03  0.25500000000E-02 0. -1.
    5000001    1    1    2    0    0 -0.15132285024E+03 -0.10319210708E+03 -0.92788608664E+02  0.24142481618E+03  0.12700000000E+03 0.  0.
   -5000001    1    1    2    0    0  0.15132285024E+03  0.10319210708E+03  0.19761792159E+03  0.29787423337E+03  0.12700000000E+03 0.  0.
<mgrwt>
<rscale>  0 0.52901255E+03</rscale>
<asrwt>0</asrwt>
<pdfrwt beam="1">  1        2 0.46009169E-01 0.52901255E+03</pdfrwt>
<pdfrwt beam="2">  1       -2 0.31033553E-01 0.52901255E+03</pdfrwt>
<totfact> 0.10612498E+03</totfact>
</mgrwt>
</event>
<event>
 4    1  0.2581031E-004  0.4841218E+03  0.7818608E-02  0.1018008E+00
         -2   -1    0    0    0  501 -0.00000000000E+00  0.00000000000E+00  0.30844634607E+02  0.30844634713E+02  0.25500000000E-02 0. -1.
          2   -1    0    0  501    0  0.00000000000E+00 -0.00000000000E+00 -0.18996327629E+04  0.18996327629E+04  0.25500000000E-02 0.  1.
    5000001    1    1    2    0    0 -0.10816949446E+02 -0.12630204782E+03 -0.28654610214E+03  0.33809300840E+03  0.12700000000E+03 0.  0.
   -5000001    1    1    2    0    0  0.10816949446E+02  0.12630204782E+03 -0.15822420261E+04  0.15923843892E+04  0.12700000000E+03 0.  0.
<mgrwt>
<rscale>  0 0.48412180E+03</rscale>
<asrwt>0</asrwt>
<pdfrwt beam="1">  1        2 0.27137604E+00 0.48412180E+03</pdfrwt>
<pdfrwt beam="2">  1       -2 0.44063776E-02 0.48412180E+03</pdfrwt>
<totfact> 0.23296081E+03</totfact>
</mgrwt>
</event>
<event>
 4    1  0.2581031E-004  0.6492222E+03  0.7818608E-02  0.9808240E-01
          2   -1    0    0  501    0  0.00000000000E+00  0.00000000000E+00  0.12802509854E+04  0.12802509854E+04  0.25500000000E-02 0.  1.
         -2   -1    0    0    0  501 -0.00000000000E+00 -0.00000000000E+00 -0.82306032131E+02  0.82306032171E+02  0.25500000000E-02 0. -1.
    5000001    1    1    2    0    0 -0.18408771532E+03 -0.11452927793E+03  0.16763849853E+03  0.30205447957E+03  0.12700000000E+03 0.  0.
   -5000001    1    1    2    0    0  0.18408771532E+03  0.11452927793E+03  0.10303064547E+04  0.10605025380E+04  0.12700000000E+03 0.  0.
<mgrwt>
<rscale>  0 0.64922224E+03</rscale>
<asrwt>0</asrwt>
<pdfrwt beam="1">  1        2 0.18289299E+00 0.64922224E+03</pdfrwt>
<pdfrwt beam="2">  1       -2 0.11758005E-01 0.64922224E+03</pdfrwt>
<totfact> 0.10225820E+03</totfact>
</mgrwt>
</event>
<event>
 4    1  0.2581031E-004  0.2852836E+03  0.7818608E-02  0.1092838E+00
         -2   -1    0    0    0  501 -0.00000000000E+00  0.00000000000E+00  0.13163364806E+02  0.13163365053E+02  0.25500000000E-02 0. -1.
          2   -1    0    0  501    0  0.00000000000E+00 -0.00000000000E+00 -0.15457055372E+04  0.15457055372E+04  0.25500000000E-02 0.  1.
    5000001    1    1    2    0    0  0.21679905483E+02 -0.29983910575E+02 -0.47462846281E+03  0.49271719161E+03  0.12700000000E+03 0.  0.
   -5000001    1    1    2    0    0 -0.21679905483E+02  0.29983910575E+02 -0.10579137096E+04  0.10661517107E+04  0.12700000000E+03 0.  0.
<mgrwt>
<rscale>  0 0.28528362E+03</rscale>
<asrwt>0</asrwt>
<pdfrwt beam="1">  1        2 0.22081496E+00 0.28528362E+03</pdfrwt>
<pdfrwt beam="2">  1       -2 0.18804817E-02 0.28528362E+03</pdfrwt>
<totfact> 0.12532051E+04</totfact>
</mgrwt>
</event>
<event>
 4    1  0.2581031E-004  0.3856357E+03  0.7818608E-02  0.1048870E+00
         -2   -1    0    0    0  501 -0.00000000000E+00  0.00000000000E+00  0.40485072568E+02  0.40485072648E+02  0.25500000000E-02 0. -1.
          2   -1    0    0  501    0  0.00000000000E+00 -0.00000000000E+00 -0.91833159818E+03  0.91833159819E+03  0.25500000000E-02 0.  1.
    5000001    1    1    2    0    0 -0.11820294736E+03 -0.16049506945E+01 -0.64805887221E+03  0.67088286197E+03  0.12700000000E+03 0.  0.
   -5000001    1    1    2    0    0  0.11820294736E+03  0.16049506945E+01 -0.22978765341E+03  0.28793380887E+03  0.12700000000E+03 0.  0.
<mgrwt>
<rscale>  0 0.38563569E+03</rscale>
<asrwt>0</asrwt>
<pdfrwt beam="1">  1        2 0.13119021E+00 0.38563569E+03</pdfrwt>
<pdfrwt beam="2">  1       -2 0.57835824E-02 0.38563569E+03</pdfrwt>
<totfact> 0.51455564E+03</totfact>
</mgrwt>
</event>
<event>
 4    1  0.2581031E-004  0.4508944E+03  0.7818608E-02  0.1027456E+00
          2   -1    0    0  501    0  0.00000000000E+00  0.00000000000E+00  0.18381206823E+03  0.18381206825E+03  0.25500000000E-02 0.  1.
         -2   -1    0    0    0  501 -0.00000000000E+00 -0.00000000000E+00 -0.27651309570E+03  0.27651309571E+03  0.25500000000E-02 0. -1.
    5000001    1    1    2    0    0 -0.76101874265E+02 -0.15339128212E+03 -0.12121268745E+03  0.24523844783E+03  0.12700000000E+03 0.  0.
   -5000001    1    1    2    0    0  0.76101874265E+02  0.15339128212E+03  0.28511659984E+02  0.21508671612E+03  0.12700000000E+03 0.  0.
<mgrwt>
<rscale>  0 0.45089442E+03</rscale>
<asrwt>0</asrwt>
<pdfrwt beam="1">  1        2 0.26258867E-01 0.45089442E+03</pdfrwt>
<pdfrwt beam="2">  1       -2 0.39501871E-01 0.45089442E+03</pdfrwt>
<totfact> 0.12526945E+03</totfact>
</mgrwt>
</event>
<event>
 4    1  0.2581031E-004  0.4243101E+03  0.7818608E-02  0.1035673E+00
         -2   -1    0    0    0  501 -0.00000000000E+00  0.00000000000E+00  0.42952659585E+02  0.42952659661E+02  0.25500000000E-02 0. -1.
          2   -1    0    0  501    0  0.00000000000E+00 -0.00000000000E+00 -0.10478923424E+04  0.10478923424E+04  0.25500000000E-02 0.  1.
    5000001    1    1    2    0    0  0.10288453038E+03  0.66640062099E+02 -0.19986401319E+03  0.26664723557E+03  0.12700000000E+03 0.  0.
   -5000001    1    1    2    0    0 -0.10288453038E+03 -0.66640062099E+02 -0.80507566958E+03  0.82419776645E+03  0.12700000000E+03 0.  0.
<mgrwt>
<rscale>  0 0.42431009E+03</rscale>
<asrwt>0</asrwt>
<pdfrwt beam="1">  1        2 0.14969889E+00 0.42431009E+03</pdfrwt>
<pdfrwt beam="2">  1       -2 0.61360949E-02 0.42431009E+03</pdfrwt>
<totfact> 0.39228528E+03</totfact>
</mgrwt>
</event>
<event>
 4    1  0.2581031E-004  0.5859510E+03  0.7818608E-02  0.9934990E-01
          2   -1    0    0  501    0  0.00000000000E+00  0.00000000000E+00  0.45617930548E+04  0.45617930548E+04  0.25500000000E-02 0.  1.
         -2   -1    0    0    0  501 -0.00000000000E+00 -0.00000000000E+00 -0.18815986258E+02  0.18815986431E+02  0.25500000000E-02 0. -1.
    5000001    1    1    2    0    0  0.19186270621E+03  0.11273186455E+03  0.33821600210E+04  0.33918512908E+04  0.12700000000E+03 0.  0.
   -5000001    1    1    2    0    0 -0.19186270621E+03 -0.11273186455E+03  0.11608170475E+04  0.11887577503E+04  0.12700000000E+03 0.  0.
<mgrwt>
<rscale>  0 0.58595097E+03</rscale>
<asrwt>0</asrwt>
<pdfrwt beam="1">  1        2 0.65168454E+00 0.58595097E+03</pdfrwt>
<pdfrwt beam="2">  1       -2 0.26879988E-02 0.58595097E+03</pdfrwt>
<totfact> 0.13285448E+02</totfact>
</mgrwt>
</event>
<event>
 4    1  0.2581031E-004  0.3736162E+03  0.7818608E-02  0.1053319E+00
          2   -1    0    0  501    0  0.00000000000E+00  0.00000000000E+00  0.37576433039E+03  0.37576433040E+03  0.25500000000E-02 0.  1.
         -2   -1    0    0    0  501 -0.00000000000E+00 -0.00000000000E+00 -0.92870107320E+02  0.92870107355E+02  0.25500000000E-02 0. -1.
    5000001    1    1    2    0    0  0.64384125380E+02 -0.79879509327E+02  0.25532269377E+03  0.30305895394E+03  0.12700000000E+03 0.  0.
   -5000001    1    1    2    0    0 -0.64384125380E+02  0.79879509327E+02  0.27571529300E+02  0.16557548381E+03  0.12700000000E+03 0.  0.
<mgrwt>
<rscale>  0 0.37361624E+03</rscale>
<asrwt>0</asrwt>
<pdfrwt beam="1">  1        2 0.53680619E-01 0.37361624E+03</pdfrwt>
<pdfrwt beam="2">  1       -2 0.13267158E-01 0.37361624E+03</pdfrwt>
<totfact> 0.39116643E+03</totfact>
</mgrwt>
</event>
<event>
 4    1  0.2581031E-004  0.7211004E+03  0.7818608E-02  0.9681813E-01
         -2   -1    0    0    0  501 -0.00000000000E+00  0.00000000000E+00  0.12962511975E+03  0.12962511978E+03  0.25500000000E-02 0. -1.
          2   -1    0    0  501    0  0.00000000000E+00 -0.00000000000E+00 -0.10028647365E+04  0.10028647365E+04  0.25500000000E-02 0.  1.
    5000001    1    1    2    0    0  0.39480977104E+02 -0.32460585036E+03 -0.56745080751E+03  0.66712601852E+03  0.12700000000E+03 0.  0.
   -5000001    1    1    2    0    0 -0.39480977104E+02  0.32460585036E+03 -0.30578880922E+03  0.46536383775E+03  0.12700000000E+03 0.  0.
<mgrwt>
<rscale>  0 0.72110044E+03</rscale>
<asrwt>0</asrwt>
<pdfrwt beam="1">  1        2 0.14326639E+00 0.72110044E+03</pdfrwt>
<pdfrwt beam="2">  1       -2 0.18517875E-01 0.72110044E+03</pdfrwt>
<totfact> 0.68556025E+02</totfact>
</mgrwt>
</event>
<event>
 4    1  0.2581031E-004  0.4469642E+03  0.7818608E-02  0.1028631E+00
          2   -1    0    0  501    0  0.00000000000E+00  0.00000000000E+00  0.10232721150E+04  0.10232721151E+04  0.25500000000E-02 0.  1.
         -2   -1    0    0    0  501 -0.00000000000E+00 -0.00000000000E+00 -0.48808375733E+02  0.48808375799E+02  0.25500000000E-02 0. -1.
    5000001    1    1    2    0    0  0.51278784134E+02  0.17655282547E+03  0.47799311586E+03  0.52764271311E+03  0.12700000000E+03 0.  0.
   -5000001    1    1    2    0    0 -0.51278784134E+02 -0.17655282547E+03  0.49647062345E+03  0.54443777774E+03  0.12700000000E+03 0.  0.
<mgrwt>
<rscale>  0 0.44696420E+03</rscale>
<asrwt>0</asrwt>
<pdfrwt beam="1">  1        2 0.14618173E+00 0.44696420E+03</pdfrwt>
<pdfrwt beam="2">  1       -2 0.69726251E-02 0.44696420E+03</pdfrwt>
<totfact> 0.33237654E+03</totfact>
</mgrwt>
</event>
<event>
 4    1  0.2581031E-004  0.3444064E+03  0.7818608E-02  0.1064935E+00
          2   -1    0    0  501    0  0.00000000000E+00  0.00000000000E+00  0.39734158490E+04  0.39734158490E+04  0.25500000000E-02 0.  1.
         -2   -1    0    0    0  501 -0.00000000000E+00 -0.00000000000E+00 -0.74630860738E+01  0.74630865094E+01  0.25500000000E-02 0. -1.
    5000001    1    1    2    0    0  0.77436417640E+02  0.85982816530E+02  0.21175253374E+04  0.21244839369E+04  0.12700000000E+03 0.  0.
   -5000001    1    1    2    0    0 -0.77436417640E+02 -0.85982816530E+02  0.18484274255E+04  0.18563949987E+04  0.12700000000E+03 0.  0.
<mgrwt>
<rscale>  0 0.34440642E+03</rscale>
<asrwt>0</asrwt>
<pdfrwt beam="1">  1        2 0.56762821E+00 0.34440642E+03</pdfrwt>
<pdfrwt beam="2">  1       -2 0.10661601E-02 0.34440642E+03</pdfrwt>
<totfact> 0.14466998E+03</totfact>
</mgrwt>
</event>
<event>
 4    1  0.2581031E-004  0.2967141E+03  0.7818608E-02  0.1086895E+00
         -2   -1    0    0    0  501 -0.00000000000E+00  0.00000000000E+00  0.16006444275E+02  0.16006444478E+02  0.25500000000E-02 0. -1.
          2   -1    0    0  501    0  0.00000000000E+00 -0.00000000000E+00 -0.13750597187E+04  0.13750597187E+04  0.25500000000E-02 0.  1.
    5000001    1    1    2    0    0  0.56824006511E+02 -0.39689574456E+02 -0.83335418442E+03  0.84582056414E+03  0.12700000000E+03 0.  0.
   -5000001    1    1    2    0    0 -0.56824006511E+02  0.39689574456E+02 -0.52569908997E+03  0.54524559900E+03  0.12700000000E+03 0.  0.
<mgrwt>
<rscale>  0 0.29671412E+03</rscale>
<asrwt>0</asrwt>
<pdfrwt beam="1">  1        2 0.19643703E+00 0.29671412E+03</pdfrwt>
<pdfrwt beam="2">  1       -2 0.22866358E-02 0.29671412E+03</pdfrwt>
<totfact> 0.11486927E+04</totfact>
</mgrwt>
</event>
<event>
 4    1  0.2581031E-004  0.4355570E+03  0.7818608E-02  0.1032119E+00
          2   -1    0    0  501    0  0.00000000000E+00  0.00000000000E+00  0.27964629698E+03  0.27964629699E+03  0.25500000000E-02 0.  1.
         -2   -1    0    0    0  501 -0.00000000000E+00 -0.00000000000E+00 -0.16959807552E+03  0.16959807554E+03  0.25500000000E-02 0. -1.
    5000001    1    1    2    0    0  0.11104874726E+03 -0.13263643577E+03  0.16788622012E+02  0.21525590861E+03  0.12700000000E+03 0.  0.
   -5000001    1    1    2    0    0 -0.11104874726E+03  0.13263643577E+03  0.93259599450E+02  0.23398846393E+03  0.12700000000E+03 0.  0.
<mgrwt>
<rscale>  0 0.43555699E+03</rscale>
<asrwt>0</asrwt>
<pdfrwt beam="1">  1        2 0.39949471E-01 0.43555699E+03</pdfrwt>
<pdfrwt beam="2">  1       -2 0.24228296E-01 0.43555699E+03</pdfrwt>
<totfact> 0.19389008E+03</totfact>
</mgrwt>
</event>
<event>
 4    1  0.2581031E-004  0.3643999E+03  0.7818608E-02  0.1056855E+00
          2   -1    0    0  501    0  0.00000000000E+00  0.00000000000E+00  0.26674918054E+04  0.26674918054E+04  0.25500000000E-02 0.  1.
         -2   -1    0    0    0  501 -0.00000000000E+00 -0.00000000000E+00 -0.12444956709E+02  0.12444956970E+02  0.25500000000E-02 0. -1.
    5000001    1    1    2    0    0 -0.35801821311E-01  0.12800903646E+03  0.15195145040E+04  0.15301763437E+04  0.12700000000E+03 0.  0.
   -5000001    1    1    2    0    0  0.35801821311E-01 -0.12800903646E+03  0.11355323447E+04  0.11497604187E+04  0.12700000000E+03 0.  0.
<mgrwt>
<rscale>  0 0.36439989E+03</rscale>
<asrwt>0</asrwt>
<pdfrwt beam="1">  1        2 0.38107034E+00 0.36439989E+03</pdfrwt>
<pdfrwt beam="2">  1       -2 0.17778506E-02 0.36439989E+03</pdfrwt>
<totfact> 0.37798863E+03</totfact>
</mgrwt>
</event>
<event>
 4    1  0.2581031E-004  0.3460603E+03  0.7818608E-02  0.1064244E+00
         -2   -1    0    0    0  501 -0.00000000000E+00  0.00000000000E+00  0.42363607211E+02  0.42363607288E+02  0.25500000000E-02 0. -1.
          2   -1    0    0  501    0  0.00000000000E+00 -0.00000000000E+00 -0.70672527826E+03  0.70672527826E+03  0.25500000000E-02 0.  1.
    5000001    1    1    2    0    0 -0.10371915895E+03  0.44035161973E+02 -0.25994372504E+03  0.31047785688E+03  0.12700000000E+03 0.  0.
   -5000001    1    1    2    0    0  0.10371915895E+03 -0.44035161973E+02 -0.40441794600E+03  0.43861102867E+03  0.12700000000E+03 0.  0.
<mgrwt>
<rscale>  0 0.34606030E+03</rscale>
<asrwt>0</asrwt>
<pdfrwt beam="1">  1        2 0.10096075E+00 0.34606030E+03</pdfrwt>
<pdfrwt beam="2">  1       -2 0.60519443E-02 0.34606030E+03</pdfrwt>
<totfact> 0.66560204E+03</totfact>
</mgrwt>
</event>
<event>
 4    1  0.2581031E-004  0.3826499E+03  0.7818608E-02  0.1049959E+00
         -2   -1    0    0    0  501 -0.00000000000E+00  0.00000000000E+00  0.36015420836E+03  0.36015420837E+03  0.25500000000E-02 0. -1.
          2   -1    0    0  501    0  0.00000000000E+00 -0.00000000000E+00 -0.10163765804E+03  0.10163765808E+03  0.25500000000E-02 0.  1.
    5000001    1    1    2    0    0 -0.83096177775E+02 -0.11508741551E+03  0.15105284412E+03  0.24309679078E+03  0.12700000000E+03 0.  0.
   -5000001    1    1    2    0    0  0.83096177775E+02  0.11508741551E+03  0.10746370619E+03  0.21869507566E+03  0.12700000000E+03 0.  0.
<mgrwt>
<rscale>  0 0.38264987E+03</rscale>
<asrwt>0</asrwt>
<pdfrwt beam="1">  1        2 0.14519666E-01 0.38264987E+03</pdfrwt>
<pdfrwt beam="2">  1       -2 0.51450600E-01 0.38264987E+03</pdfrwt>
<totfact> 0.14801552E+03</totfact>
</mgrwt>
</event>
<event>
 4    1  0.2581031E-004  0.3598495E+03  0.7818608E-02  0.1058643E+00
          2   -1    0    0  501    0  0.00000000000E+00  0.00000000000E+00  0.10209483889E+04  0.10209483889E+04  0.25500000000E-02 0.  1.
         -2   -1    0    0    0  501 -0.00000000000E+00 -0.00000000000E+00 -0.31708670052E+02  0.31708670154E+02  0.25500000000E-02 0. -1.
    5000001    1    1    2    0    0  0.10755796205E+03 -0.13445459393E+02  0.69073125702E+03  0.71062519306E+03  0.12700000000E+03 0.  0.
   -5000001    1    1    2    0    0 -0.10755796205E+03  0.13445459393E+02  0.29850846184E+03  0.34203186601E+03  0.12700000000E+03 0.  0.
<mgrwt>
<rscale>  0 0.35984950E+03</rscale>
<asrwt>0</asrwt>
<pdfrwt beam="1">  1        2 0.14584975E+00 0.35984950E+03</pdfrwt>
<pdfrwt beam="2">  1       -2 0.45298105E-02 0.35984950E+03</pdfrwt>
<totfact> 0.64763483E+03</totfact>
</mgrwt>
</event>
<event>
 4    1  0.2581031E-004  0.3632553E+03  0.7818608E-02  0.1057302E+00
          2   -1    0    0  501    0  0.00000000000E+00  0.00000000000E+00  0.40048878220E+03  0.40048878221E+03  0.25500000000E-02 0. -1.
         -2   -1    0    0    0  501 -0.00000000000E+00 -0.00000000000E+00 -0.82370862474E+02  0.82370862513E+02  0.25500000000E-02 0.  1.
    5000001    1    1    2    0    0 -0.79666340436E+02 -0.89852652042E+02  0.93406833580E+02  0.19817684385E+03  0.12700000000E+03 0.  0.
   -5000001    1    1    2    0    0  0.79666340436E+02  0.89852652042E+02  0.22471108615E+03  0.28468280088E+03  0.12700000000E+03 0.  0.
<mgrwt>
<rscale>  0 0.36325532E+03</rscale>
<asrwt>0</asrwt>
<pdfrwt beam="1">  1        2 0.57212683E-01 0.36325532E+03</pdfrwt>
<pdfrwt beam="2">  1       -2 0.11767266E-01 0.36325532E+03</pdfrwt>
<totfact> 0.44355197E+03</totfact>
</mgrwt>
</event>
<event>
 4    1  0.2581031E-004  0.3428361E+03  0.7818608E-02  0.1065594E+00
         -2   -1    0    0    0  501 -0.00000000000E+00  0.00000000000E+00  0.64551601645E+03  0.64551601645E+03  0.25500000000E-02 0. -1.
          2   -1    0    0  501    0  0.00000000000E+00 -0.00000000000E+00 -0.45520401894E+02  0.45520401966E+02  0.25500000000E-02 0.  1.
    5000001    1    1    2    0    0 -0.11411536434E+03 -0.13868815333E+02  0.28717219445E+03  0.33438231066E+03  0.12700000000E+03 0.  0.
   -5000001    1    1    2    0    0  0.11411536434E+03  0.13868815333E+02  0.31282342010E+03  0.35665410776E+03  0.12700000000E+03 0.  0.
<mgrwt>
<rscale>  0 0.34283610E+03</rscale>
<asrwt>0</asrwt>
<pdfrwt beam="1">  1        2 0.65029147E-02 0.34283610E+03</pdfrwt>
<pdfrwt beam="2">  1       -2 0.92216571E-01 0.34283610E+03</pdfrwt>
<totfact> 0.11566162E+03</totfact>
</mgrwt>
</event>
<event>
 4    1  0.2581031E-004  0.5520128E+03  0.7818608E-02  0.1001029E+00
          2   -1    0    0  501    0  0.00000000000E+00  0.00000000000E+00  0.98839146836E+03  0.98839146837E+03  0.25500000000E-02 0.  1.
         -2   -1    0    0    0  501 -0.00000000000E+00 -0.00000000000E+00 -0.77074238505E+02  0.77074238547E+02  0.25500000000E-02 0. -1.
    5000001    1    1    2    0    0 -0.18145418078E+03  0.12079516159E+03  0.23957326800E+03  0.34791010552E+03  0.12700000000E+03 0.  0.
   -5000001    1    1    2    0    0  0.18145418078E+03 -0.12079516159E+03  0.67174396186E+03  0.71755560139E+03  0.12700000000E+03 0.  0.
<mgrwt>
<rscale>  0 0.55201275E+03</rscale>
<asrwt>0</asrwt>
<pdfrwt beam="1">  1        2 0.14119877E+00 0.55201275E+03</pdfrwt>
<pdfrwt beam="2">  1       -2 0.11010606E-01 0.55201275E+03</pdfrwt>
<totfact> 0.16807813E+03</totfact>
</mgrwt>
</event>
<event>
 4    1  0.2581031E-004  0.5750859E+03  0.7818608E-02  0.9958487E-01
         -2   -1    0    0    0  501 -0.00000000000E+00  0.00000000000E+00  0.19326195875E+03  0.19326195877E+03  0.25500000000E-02 0. -1.
          2   -1    0    0  501    0  0.00000000000E+00 -0.00000000000E+00 -0.42781805969E+03  0.42781805969E+03  0.25500000000E-02 0.  1.
    5000001    1    1    2    0    0 -0.10713172540E+03  0.10974956554E+03 -0.34130454931E+03  0.39514550371E+03  0.12700000000E+03 0.  0.
   -5000001    1    1    2    0    0  0.10713172540E+03 -0.10974956554E+03  0.10674844838E+03  0.22593451475E+03  0.12700000000E+03 0.  0.
<mgrwt>
<rscale>  0 0.57508593E+03</rscale>
<asrwt>0</asrwt>
<pdfrwt beam="1">  1        2 0.61116865E-01 0.57508593E+03</pdfrwt>
<pdfrwt beam="2">  1       -2 0.27608851E-01 0.57508593E+03</pdfrwt>
<totfact> 0.96084193E+02</totfact>
</mgrwt>
</event>
<event>
 4    1  0.2581031E-004  0.4638732E+03  0.7818608E-02  0.1023664E+00
          2   -1    0    0  501    0  0.00000000000E+00  0.00000000000E+00  0.23149247316E+03  0.23149247318E+03  0.25500000000E-02 0.  1.
         -2   -1    0    0    0  501 -0.00000000000E+00 -0.00000000000E+00 -0.23238157745E+03  0.23238157747E+03  0.25500000000E-02 0. -1.
    5000001    1    1    2    0    0 -0.10806649471E+03 -0.14229484875E+03  0.75314380755E+02  0.23179181868E+03  0.12700000000E+03 0.  0.
   -5000001    1    1    2    0    0  0.10806649471E+03  0.14229484875E+03 -0.76203485046E+02  0.23208223196E+03  0.12700000000E+03 0.  0.
<mgrwt>
<rscale>  0 0.46387320E+03</rscale>
<asrwt>0</asrwt>
<pdfrwt beam="1">  1        2 0.33070353E-01 0.46387320E+03</pdfrwt>
<pdfrwt beam="2">  1       -2 0.33197368E-01 0.46387320E+03</pdfrwt>
<totfact> 0.13464862E+03</totfact>
</mgrwt>
</event>
<event>
 4    1  0.2581031E-004  0.4153019E+03  0.7818608E-02  0.1038606E+00
         -2   -1    0    0    0  501 -0.00000000000E+00  0.00000000000E+00  0.21473805264E+02  0.21473805415E+02  0.25500000000E-02 0. -1.
          2   -1    0    0  501    0  0.00000000000E+00 -0.00000000000E+00 -0.20079772880E+04  0.20079772880E+04  0.25500000000E-02 0.  1.
    5000001    1    1    2    0    0 -0.15114295294E+03 -0.40134762478E+02 -0.74721668443E+03  0.77389712809E+03  0.12700000000E+03 0.  0.
   -5000001    1    1    2    0    0  0.15114295294E+03  0.40134762478E+02 -0.12392867983E+04  0.12555539653E+04  0.12700000000E+03 0.  0.
<mgrwt>
<rscale>  0 0.41530188E+03</rscale>
<asrwt>0</asrwt>
<pdfrwt beam="1">  1        2 0.28685378E+00 0.41530188E+03</pdfrwt>
<pdfrwt beam="2">  1       -2 0.30676878E-02 0.41530188E+03</pdfrwt>
<totfact> 0.35762910E+03</totfact>
</mgrwt>
</event>
<event>
 4    1  0.2581031E-004  0.5609175E+03  0.7818608E-02  0.9989981E-01
          2   -1    0    0  501    0  0.00000000000E+00  0.00000000000E+00  0.30626295292E+04  0.30626295292E+04  0.25500000000E-02 0.  1.
         -2   -1    0    0    0  501 -0.00000000000E+00 -0.00000000000E+00 -0.25682871177E+02  0.25682871304E+02  0.25500000000E-02 0. -1.
    5000001    1    1    2    0    0 -0.16756181706E+03  0.16774424804E+03  0.19559359487E+04  0.19743428098E+04  0.12700000000E+03 0.  0.
   -5000001    1    1    2    0    0  0.16756181706E+03 -0.16774424804E+03  0.10810107093E+04  0.11139695907E+04  0.12700000000E+03 0.  0.
<mgrwt>
<rscale>  0 0.56091753E+03</rscale>
<asrwt>0</asrwt>
<pdfrwt beam="1">  1        2 0.43751861E+00 0.56091753E+03</pdfrwt>
<pdfrwt beam="2">  1       -2 0.36689807E-02 0.56091753E+03</pdfrwt>
<totfact> 0.77366592E+02</totfact>
</mgrwt>
</event>
<event>
 4    1  0.2581031E-004  0.4576086E+03  0.7818608E-02  0.1025477E+00
          2   -1    0    0  501    0  0.00000000000E+00  0.00000000000E+00  0.17230710967E+04  0.17230710967E+04  0.25500000000E-02 0.  1.
         -2   -1    0    0    0  501 -0.00000000000E+00 -0.00000000000E+00 -0.30382620300E+02  0.30382620407E+02  0.25500000000E-02 0. -1.
    5000001    1    1    2    0    0  0.13389277869E+02  0.18693554202E+03  0.71936000987E+03  0.75414321811E+03  0.12700000000E+03 0.  0.
   -5000001    1    1    2    0    0 -0.13389277869E+02 -0.18693554202E+03  0.97332846653E+03  0.99931049899E+03  0.12700000000E+03 0.  0.
<mgrwt>
<rscale>  0 0.45760863E+03</rscale>
<asrwt>0</asrwt>
<pdfrwt beam="1">  1        2 0.24615305E+00 0.45760863E+03</pdfrwt>
<pdfrwt beam="2">  1       -2 0.43403737E-02 0.45760863E+03</pdfrwt>
<totfact> 0.29242212E+03</totfact>
</mgrwt>
</event>
<event>
 4    1  0.2581031E-004  0.3403031E+03  0.7818608E-02  0.1066667E+00
         -2   -1    0    0    0  501 -0.00000000000E+00  0.00000000000E+00  0.27613269436E+02  0.27613269553E+02  0.25500000000E-02 0. -1.
          2   -1    0    0  501    0  0.00000000000E+00 -0.00000000000E+00 -0.10484651206E+04  0.10484651206E+04  0.25500000000E-02 0.  1.
    5000001    1    1    2    0    0 -0.95249185127E+02  0.52312270324E+02 -0.40975485830E+03  0.44253477241E+03  0.12700000000E+03 0.  0.
   -5000001    1    1    2    0    0  0.95249185127E+02 -0.52312270324E+02 -0.61109699283E+03  0.63354361770E+03  0.12700000000E+03 0.  0.
<mgrwt>
<rscale>  0 0.34030310E+03</rscale>
<asrwt>0</asrwt>
<pdfrwt beam="1">  1        2 0.14978071E+00 0.34030310E+03</pdfrwt>
<pdfrwt beam="2">  1       -2 0.39447534E-02 0.34030310E+03</pdfrwt>
<totfact> 0.76894878E+03</totfact>
</mgrwt>
</event>
<event>
 4    1  0.2581031E-004  0.3143428E+03  0.7818608E-02  0.1078283E+00
         -2   -1    0    0    0  501 -0.00000000000E+00  0.00000000000E+00  0.41363559757E+02  0.41363559836E+02  0.25500000000E-02 0. -1.
          2   -1    0    0  501    0  0.00000000000E+00 -0.00000000000E+00 -0.59721264910E+03  0.59721264911E+03  0.25500000000E-02 0.  1.
    5000001    1    1    2    0    0 -0.78844510702E+02 -0.42467258787E+02 -0.23011316072E+03  0.27767065324E+03  0.12700000000E+03 0.  0.
   -5000001    1    1    2    0    0  0.78844510702E+02  0.42467258787E+02 -0.32573592863E+03  0.36090555570E+03  0.12700000000E+03 0.  0.
<mgrwt>
<rscale>  0 0.31434275E+03</rscale>
<asrwt>0</asrwt>
<pdfrwt beam="1">  1        2 0.85316088E-01 0.31434275E+03</pdfrwt>
<pdfrwt beam="2">  1       -2 0.59090803E-02 0.31434275E+03</pdfrwt>
<totfact> 0.83891800E+03</totfact>
</mgrwt>
</event>
<event>
 4    1  0.2581031E-004  0.4404120E+03  0.7818608E-02  0.1030620E+00
          2   -1    0    0  501    0  0.00000000000E+00  0.00000000000E+00  0.31245914956E+03  0.31245914957E+03  0.25500000000E-02 0.  1.
         -2   -1    0    0    0  501 -0.00000000000E+00 -0.00000000000E+00 -0.15519045968E+03  0.15519045970E+03  0.25500000000E-02 0. -1.
    5000001    1    1    2    0    0  0.42184616295E+02 -0.10340587070E+03 -0.71117397892E+02  0.18346389353E+03  0.12700000000E+03 0.  0.
   -5000001    1    1    2    0    0 -0.42184616295E+02  0.10340587070E+03  0.22838608777E+03  0.28418571574E+03  0.12700000000E+03 0.  0.
<mgrwt>
<rscale>  0 0.44041198E+03</rscale>
<asrwt>0</asrwt>
<pdfrwt beam="1">  1        2 0.44637021E-01 0.44041198E+03</pdfrwt>
<pdfrwt beam="2">  1       -2 0.22170066E-01 0.44041198E+03</pdfrwt>
<totfact> 0.20088074E+03</totfact>
</mgrwt>
</event>
<event>
 4    1  0.2581031E-004  0.3197277E+03  0.7818608E-02  0.1075775E+00
          2   -1    0    0  501    0  0.00000000000E+00  0.00000000000E+00  0.64855322132E+03  0.64855322133E+03  0.25500000000E-02 0.  1.
         -2   -1    0    0    0  501 -0.00000000000E+00 -0.00000000000E+00 -0.39405314315E+02  0.39405314397E+02  0.25500000000E-02 0. -1.
    5000001    1    1    2    0    0 -0.71597054527E+02 -0.65294932502E+02  0.29133143338E+03  0.33225377425E+03  0.12700000000E+03 0.  0.
   -5000001    1    1    2    0    0  0.71597054527E+02  0.65294932502E+02  0.31781647363E+03  0.35570476147E+03  0.12700000000E+03 0.  0.
<mgrwt>
<rscale>  0 0.31972766E+03</rscale>
<asrwt>0</asrwt>
<pdfrwt beam="1">  1        2 0.92650455E-01 0.31972766E+03</pdfrwt>
<pdfrwt beam="2">  1       -2 0.56293309E-02 0.31972766E+03</pdfrwt>
<totfact> 0.82195992E+03</totfact>
</mgrwt>
</event>
<event>
 4    1  0.2581031E-004  0.3817201E+03  0.7818608E-02  0.1050300E+00
          2   -1    0    0  501    0  0.00000000000E+00  0.00000000000E+00  0.12812896299E+04  0.12812896299E+04  0.25500000000E-02 0. -1.
         -2   -1    0    0    0  501 -0.00000000000E+00 -0.00000000000E+00 -0.28430385295E+02  0.28430385409E+02  0.25500000000E-02 0.  1.
    5000001    1    1    2    0    0 -0.78019267819E+02 -0.82410442488E+02  0.92198404543E+03  0.93758309883E+03  0.12700000000E+03 0.  0.
   -5000001    1    1    2    0    0  0.78019267819E+02  0.82410442488E+02  0.33087519919E+03  0.37213691650E+03  0.12700000000E+03 0.  0.
<mgrwt>
<rscale>  0 0.38172010E+03</rscale>
<asrwt>0</asrwt>
<pdfrwt beam="1">  1        2 0.18304135E+00 0.38172010E+03</pdfrwt>
<pdfrwt beam="2">  1       -2 0.40614842E-02 0.38172010E+03</pdfrwt>
<totfact> 0.54679834E+03</totfact>
</mgrwt>
</event>
<event>
 4    1  0.2581031E-004  0.2823071E+03  0.7818608E-02  0.1094435E+00
         -2   -1    0    0    0  501 -0.00000000000E+00  0.00000000000E+00  0.13105016753E+02  0.13105017001E+02  0.25500000000E-02 0. -1.
          2   -1    0    0  501    0  0.00000000000E+00 -0.00000000000E+00 -0.15203588140E+04  0.15203588140E+04  0.25500000000E-02 0.  1.
    5000001    1    1    2    0    0 -0.32957155170E+02 -0.35627748505E+02 -0.95973990908E+03  0.96932203298E+03  0.12700000000E+03 0.  0.
   -5000001    1    1    2    0    0  0.32957155170E+02  0.35627748505E+02 -0.54751388819E+03  0.56414179804E+03  0.12700000000E+03 0.  0.
<mgrwt>
<rscale>  0 0.28230712E+03</rscale>
<asrwt>0</asrwt>
<pdfrwt beam="1">  1        2 0.21719400E+00 0.28230712E+03</pdfrwt>
<pdfrwt beam="2">  1       -2 0.18721462E-02 0.28230712E+03</pdfrwt>
<totfact> 0.12986592E+04</totfact>
</mgrwt>
</event>
<event>
 4    1  0.2581031E-004  0.3233224E+03  0.7818608E-02  0.1074130E+00
          2   -1    0    0  501    0  0.00000000000E+00  0.00000000000E+00  0.20177147238E+04  0.20177147238E+04  0.25500000000E-02 0.  1.
         -2   -1    0    0    0  501 -0.00000000000E+00 -0.00000000000E+00 -0.12952446072E+02  0.12952446323E+02  0.25500000000E-02 0. -1.
    5000001    1    1    2    0    0  0.78647339749E+02 -0.34606738104E+02  0.13240026388E+04  0.13328522116E+04  0.12700000000E+03 0.  0.
   -5000001    1    1    2    0    0 -0.78647339749E+02  0.34606738104E+02  0.68075963894E+03  0.69781495855E+03  0.12700000000E+03 0.  0.
<mgrwt>
<rscale>  0 0.32332239E+03</rscale>
<asrwt>0</asrwt>
<pdfrwt beam="1">  1        2 0.28824501E+00 0.32332239E+03</pdfrwt>
<pdfrwt beam="2">  1       -2 0.18503492E-02 0.32332239E+03</pdfrwt>
<totfact> 0.75193286E+03</totfact>
</mgrwt>
</event>
<event>
 4    1  0.2581031E-004  0.3844776E+03  0.7818608E-02  0.1049291E+00
          2   -1    0    0  501    0  0.00000000000E+00  0.00000000000E+00  0.88399348239E+03  0.88399348239E+03  0.25500000000E-02 0.  1.
         -2   -1    0    0    0  501 -0.00000000000E+00 -0.00000000000E+00 -0.41805461278E+02  0.41805461356E+02  0.25500000000E-02 0. -1.
    5000001    1    1    2    0    0 -0.12568210394E+03 -0.69007354739E+02  0.46056873745E+03  0.49880915005E+03  0.12700000000E+03 0.  0.
   -5000001    1    1    2    0    0  0.12568210394E+03  0.69007354739E+02  0.38161928367E+03  0.42698979370E+03  0.12700000000E+03 0.  0.
<mgrwt>
<rscale>  0 0.38447760E+03</rscale>
<asrwt>0</asrwt>
<pdfrwt beam="1">  1        2 0.12628478E+00 0.38447760E+03</pdfrwt>
<pdfrwt beam="2">  1       -2 0.59722088E-02 0.38447760E+03</pdfrwt>
<totfact> 0.51478256E+03</totfact>
</mgrwt>
</event>
<event>
 4    1  0.2581031E-004  0.7766259E+03  0.7818608E-02  0.9594480E-01
          2   -1    0    0  501    0  0.00000000000E+00  0.00000000000E+00  0.51103396032E+03  0.51103396032E+03  0.25500000000E-02 0.  1.
         -2   -1    0    0    0  501 -0.00000000000E+00 -0.00000000000E+00 -0.29506250817E+03  0.29506250818E+03  0.25500000000E-02 0. -1.
    5000001    1    1    2    0    0  0.28299295464E+02  0.36584530281E+03  0.10405707489E+03  0.40199565986E+03  0.12700000000E+03 0.  0.
   -5000001    1    1    2    0    0 -0.28299295464E+02 -0.36584530281E+03  0.11191437726E+03  0.40410080865E+03  0.12700000000E+03 0.  0.
<mgrwt>
<rscale>  0 0.77662594E+03</rscale>
<asrwt>0</asrwt>
<pdfrwt beam="1">  1        2 0.73004851E-01 0.77662594E+03</pdfrwt>
<pdfrwt beam="2">  1       -2 0.42151787E-01 0.77662594E+03</pdfrwt>
<totfact> 0.35128121E+02</totfact>
</mgrwt>
</event>
<event>
 4    1  0.2581031E-004  0.3213438E+03  0.7818608E-02  0.1075032E+00
         -2   -1    0    0    0  501 -0.00000000000E+00  0.00000000000E+00  0.12177371676E+02  0.12177371943E+02  0.25500000000E-02 0. -1.
          2   -1    0    0  501    0  0.00000000000E+00 -0.00000000000E+00 -0.21199535921E+04  0.21199535921E+04  0.25500000000E-02 0.  1.
    5000001    1    1    2    0    0  0.62638419049E+02 -0.69961696863E+02 -0.12493971999E+04  0.12593413254E+04  0.12700000000E+03 0.  0.
   -5000001    1    1    2    0    0 -0.62638419049E+02  0.69961696863E+02 -0.85837902045E+03  0.87278963864E+03  0.12700000000E+03 0.  0.
<mgrwt>
<rscale>  0 0.32134382E+03</rscale>
<asrwt>0</asrwt>
<pdfrwt beam="1">  1        2 0.30285028E+00 0.32134382E+03</pdfrwt>
<pdfrwt beam="2">  1       -2 0.17396259E-02 0.32134382E+03</pdfrwt>
<totfact> 0.73368555E+03</totfact>
</mgrwt>
</event>
<event>
 4    1  0.2581031E-004  0.4328842E+03  0.7818608E-02  0.1032953E+00
         -2   -1    0    0    0  501 -0.00000000000E+00  0.00000000000E+00  0.48658793608E+02  0.48658793675E+02  0.25500000000E-02 0. -1.
          2   -1    0    0  501    0  0.00000000000E+00 -0.00000000000E+00 -0.96276926350E+03  0.96276926350E+03  0.25500000000E-02 0.  1.
    5000001    1    1    2    0    0  0.15621220853E+03 -0.78286061705E+02 -0.48902579258E+03  0.53460844303E+03  0.12700000000E+03 0.  0.
   -5000001    1    1    2    0    0 -0.15621220853E+03  0.78286061705E+02 -0.42508467731E+03  0.47681961415E+03  0.12700000000E+03 0.  0.
<mgrwt>
<rscale>  0 0.43288424E+03</rscale>
<asrwt>0</asrwt>
<pdfrwt beam="1">  1        2 0.13753846E+00 0.43288424E+03</pdfrwt>
<pdfrwt beam="2">  1       -2 0.69512568E-02 0.43288424E+03</pdfrwt>
<totfact> 0.36324344E+03</totfact>
</mgrwt>
</event>
<event>
 4    1  0.2581031E-004  0.3437062E+03  0.7818608E-02  0.1065228E+00
          2   -1    0    0  501    0  0.00000000000E+00  0.00000000000E+00  0.32876314146E+04  0.32876314146E+04  0.25500000000E-02 0.  1.
         -2   -1    0    0    0  501 -0.00000000000E+00 -0.00000000000E+00 -0.89832135450E+01  0.89832139069E+01  0.25500000000E-02 0. -1.
    5000001    1    1    2    0    0  0.25800182271E+02 -0.93791586051E+02  0.10371276072E+04  0.10493927695E+04  0.12700000000E+03 0.  0.
   -5000001    1    1    2    0    0 -0.25800182271E+02  0.93791586051E+02  0.22415205938E+04  0.22472218590E+04  0.12700000000E+03 0.  0.
<mgrwt>
<rscale>  0 0.34370624E+03</rscale>
<asrwt>0</asrwt>
<pdfrwt beam="1">  1        2 0.46966187E+00 0.34370624E+03</pdfrwt>
<pdfrwt beam="2">  1       -2 0.12833156E-02 0.34370624E+03</pdfrwt>
<totfact> 0.28536261E+03</totfact>
</mgrwt>
</event>
<event>
 4    1  0.2581031E-004  0.4114435E+03  0.7818608E-02  0.1039888E+00
         -2   -1    0    0    0  501 -0.00000000000E+00  0.00000000000E+00  0.10982271004E+03  0.10982271007E+03  0.25500000000E-02 0. -1.
          2   -1    0    0  501    0  0.00000000000E+00 -0.00000000000E+00 -0.38536144174E+03  0.38536144175E+03  0.25500000000E-02 0.  1.
    5000001    1    1    2    0    0  0.14182523943E+03  0.21179828309E+02 -0.22806976702E+03  0.29783855072E+03  0.12700000000E+03 0.  0.
   -5000001    1    1    2    0    0 -0.14182523943E+03 -0.21179828309E+02 -0.47468964669E+02  0.19734560110E+03  0.12700000000E+03 0.  0.
<mgrwt>
<rscale>  0 0.41144350E+03</rscale>
<asrwt>0</asrwt>
<pdfrwt beam="1">  1        2 0.55051634E-01 0.41144350E+03</pdfrwt>
<pdfrwt beam="2">  1       -2 0.15688959E-01 0.41144350E+03</pdfrwt>
<totfact> 0.28860275E+03</totfact>
</mgrwt>
</event>
<event>
 4    1  0.2581031E-004  0.3314505E+03  0.7818608E-02  0.1070497E+00
          2   -1    0    0  501    0  0.00000000000E+00  0.00000000000E+00  0.64439420163E+03  0.64439420163E+03  0.25500000000E-02 0.  1.
         -2   -1    0    0    0  501 -0.00000000000E+00 -0.00000000000E+00 -0.42621197706E+02  0.42621197782E+02  0.25500000000E-02 0. -1.
    5000001    1    1    2    0    0 -0.77753160699E+02  0.68742841789E+02  0.35014311859E+03  0.38665273282E+03  0.12700000000E+03 0.  0.
   -5000001    1    1    2    0    0  0.77753160699E+02 -0.68742841789E+02  0.25162988533E+03  0.30036266660E+03  0.12700000000E+03 0.  0.
<mgrwt>
<rscale>  0 0.33145047E+03</rscale>
<asrwt>0</asrwt>
<pdfrwt beam="1">  1        2 0.92056315E-01 0.33145047E+03</pdfrwt>
<pdfrwt beam="2">  1       -2 0.60887425E-02 0.33145047E+03</pdfrwt>
<totfact> 0.73478679E+03</totfact>
</mgrwt>
</event>
<event>
 4    1  0.2581031E-004  0.2892347E+03  0.7818608E-02  0.1090749E+00
          2   -1    0    0  501    0  0.00000000000E+00  0.00000000000E+00  0.45326575612E+03  0.45326575613E+03  0.25500000000E-02 0.  1.
         -2   -1    0    0    0  501 -0.00000000000E+00 -0.00000000000E+00 -0.46141100518E+02  0.46141100589E+02  0.25500000000E-02 0. -1.
    5000001    1    1    2    0    0  0.13328170893E+02  0.57750856812E+02  0.26515263378E+03  0.29991285535E+03  0.12700000000E+03 0.  0.
   -5000001    1    1    2    0    0 -0.13328170893E+02 -0.57750856812E+02  0.14197202182E+03  0.19949400137E+03  0.12700000000E+03 0.  0.
<mgrwt>
<rscale>  0 0.28923472E+03</rscale>
<asrwt>0</asrwt>
<pdfrwt beam="1">  1        2 0.64752246E-01 0.28923472E+03</pdfrwt>
<pdfrwt beam="2">  1       -2 0.65915863E-02 0.28923472E+03</pdfrwt>
<totfact> 0.96194709E+03</totfact>
</mgrwt>
</event>
<event>
 4    1  0.2581031E-004  0.3553120E+03  0.7818608E-02  0.1060456E+00
          2   -1    0    0  501    0  0.00000000000E+00  0.00000000000E+00  0.13451922451E+04  0.13451922451E+04  0.25500000000E-02 0.  1.
         -2   -1    0    0    0  501 -0.00000000000E+00 -0.00000000000E+00 -0.23462553770E+02  0.23462553908E+02  0.25500000000E-02 0. -1.
    5000001    1    1    2    0    0 -0.63185333230E+02  0.89372772064E+02  0.43452150000E+03  0.46574436409E+03  0.12700000000E+03 0.  0.
   -5000001    1    1    2    0    0  0.63185333230E+02 -0.89372772064E+02  0.88720819138E+03  0.90291043496E+03  0.12700000000E+03 0.  0.
<mgrwt>
<rscale>  0 0.35531195E+03</rscale>
<asrwt>0</asrwt>
<pdfrwt beam="1">  1        2 0.19217031E+00 0.35531195E+03</pdfrwt>
<pdfrwt beam="2">  1       -2 0.33517936E-02 0.35531195E+03</pdfrwt>
<totfact> 0.67544652E+03</totfact>
</mgrwt>
</event>
<event>
 4    1  0.2581031E-004  0.4535823E+03  0.7818608E-02  0.1026659E+00
          2   -1    0    0  501    0  0.00000000000E+00  0.00000000000E+00  0.53767459262E+03  0.53767459262E+03  0.25500000000E-02 0.  1.
         -2   -1    0    0    0  501 -0.00000000000E+00 -0.00000000000E+00 -0.95660530283E+02  0.95660530317E+02  0.25500000000E-02 0. -1.
    5000001    1    1    2    0    0 -0.17282511836E+03  0.17055354325E+02  0.32116952896E+03  0.38657246796E+03  0.12700000000E+03 0.  0.
   -5000001    1    1    2    0    0  0.17282511836E+03 -0.17055354325E+02  0.12084453337E+03  0.24676265498E+03  0.12700000000E+03 0.  0.
<mgrwt>
<rscale>  0 0.45358235E+03</rscale>
<asrwt>0</asrwt>
<pdfrwt beam="1">  1        2 0.76810656E-01 0.45358235E+03</pdfrwt>
<pdfrwt beam="2">  1       -2 0.13665790E-01 0.45358235E+03</pdfrwt>
<totfact> 0.25097080E+03</totfact>
</mgrwt>
</event>
<event>
 4    1  0.2581031E-004  0.7014092E+03  0.7818608E-02  0.9714825E-01
          2   -1    0    0  501    0  0.00000000000E+00  0.00000000000E+00  0.88850917553E+03  0.88850917554E+03  0.25500000000E-02 0.  1.
         -2   -1    0    0    0  501 -0.00000000000E+00 -0.00000000000E+00 -0.13842705843E+03  0.13842705845E+03  0.25500000000E-02 0. -1.
    5000001    1    1    2    0    0  0.31405237831E+03  0.88988866345E+02  0.34898177342E+03  0.49443421487E+03  0.12700000000E+03 0.  0.
   -5000001    1    1    2    0    0 -0.31405237831E+03 -0.88988866345E+02  0.40110034368E+03  0.53250201911E+03  0.12700000000E+03 0.  0.
<mgrwt>
<rscale>  0 0.70140919E+03</rscale>
<asrwt>0</asrwt>
<pdfrwt beam="1">  1        2 0.12692988E+00 0.70140919E+03</pdfrwt>
<pdfrwt beam="2">  1       -2 0.19775294E-01 0.70140919E+03</pdfrwt>
<totfact> 0.72279901E+02</totfact>
</mgrwt>
</event>
<event>
 4    1  0.2581031E-004  0.7144450E+03  0.7818608E-02  0.9692843E-01
          2   -1    0    0  501    0  0.00000000000E+00  0.00000000000E+00  0.45088880874E+04  0.45088880874E+04  0.25500000000E-02 0.  1.
         -2   -1    0    0    0  501 -0.00000000000E+00 -0.00000000000E+00 -0.28301412823E+02  0.28301412938E+02  0.25500000000E-02 0. -1.
    5000001    1    1    2    0    0 -0.33364799548E+03 -0.12563694969E+02  0.22419982774E+04  0.22702784207E+04  0.12700000000E+03 0.  0.
   -5000001    1    1    2    0    0  0.33364799548E+03  0.12563694969E+02  0.22385883971E+04  0.22669110797E+04  0.12700000000E+03 0.  0.
<mgrwt>
<rscale>  0 0.71444497E+03</rscale>
<asrwt>0</asrwt>
<pdfrwt beam="1">  1        2 0.64412705E+00 0.71444497E+03</pdfrwt>
<pdfrwt beam="2">  1       -2 0.40430578E-02 0.71444497E+03</pdfrwt>
<totfact> 0.76654246E+01</totfact>
</mgrwt>
</event>
<event>
 4    1  0.2581031E-004  0.4079488E+03  0.7818608E-02  0.1041062E+00
          2   -1    0    0  501    0  0.00000000000E+00  0.00000000000E+00  0.88072906446E+03  0.88072906446E+03  0.25500000000E-02 0.  1.
         -2   -1    0    0    0  501 -0.00000000000E+00 -0.00000000000E+00 -0.47239911651E+02  0.47239911720E+02  0.25500000000E-02 0. -1.
    5000001    1    1    2    0    0 -0.12142337488E+03 -0.25401980465E+02  0.18827776534E+03  0.25877869600E+03  0.12700000000E+03 0.  0.
   -5000001    1    1    2    0    0  0.12142337488E+03  0.25401980465E+02  0.64521138746E+03  0.66919028018E+03  0.12700000000E+03 0.  0.
<mgrwt>
<rscale>  0 0.40794884E+03</rscale>
<asrwt>0</asrwt>
<pdfrwt beam="1">  1        2 0.12581844E+00 0.40794884E+03</pdfrwt>
<pdfrwt beam="2">  1       -2 0.67485587E-02 0.40794884E+03</pdfrwt>
<totfact> 0.42814645E+03</totfact>
</mgrwt>
</event>
<event>
 4    1  0.2581031E-004  0.4022272E+03  0.7818608E-02  0.1043011E+00
          2   -1    0    0  501    0  0.00000000000E+00  0.00000000000E+00  0.16529202822E+04  0.16529202822E+04  0.25500000000E-02 0.  1.
         -2   -1    0    0    0  501 -0.00000000000E+00 -0.00000000000E+00 -0.24469833177E+02  0.24469833310E+02  0.25500000000E-02 0. -1.
    5000001    1    1    2    0    0 -0.46682783719E+02  0.10545504070E+03  0.37649470254E+03  0.41373579606E+03  0.12700000000E+03 0.  0.
   -5000001    1    1    2    0    0  0.46682783719E+02 -0.10545504070E+03  0.12519557464E+04  0.12636543194E+04  0.12700000000E+03 0.  0.
<mgrwt>
<rscale>  0 0.40222722E+03</rscale>
<asrwt>0</asrwt>
<pdfrwt beam="1">  1        2 0.23613155E+00 0.40222722E+03</pdfrwt>
<pdfrwt beam="2">  1       -2 0.34956892E-02 0.40222722E+03</pdfrwt>
<totfact> 0.44115017E+03</totfact>
</mgrwt>
</event>
<event>
 4    1  0.2581031E-004  0.8761304E+03  0.7818608E-02  0.9455922E-01
          2   -1    0    0  501    0  0.00000000000E+00  0.00000000000E+00  0.18267632911E+04  0.18267632911E+04  0.25500000000E-02 0.  1.
         -2   -1    0    0    0  501 -0.00000000000E+00 -0.00000000000E+00 -0.10504978919E+03  0.10504978922E+03  0.25500000000E-02 0. -1.
    5000001    1    1    2    0    0 -0.23515076325E+03 -0.34685572779E+03  0.88937822699E+03  0.99132608561E+03  0.12700000000E+03 0.  0.
   -5000001    1    1    2    0    0  0.23515076325E+03  0.34685572779E+03  0.83233527494E+03  0.94048699473E+03  0.12700000000E+03 0.  0.
<mgrwt>
<rscale>  0 0.87613035E+03</rscale>
<asrwt>0</asrwt>
<pdfrwt beam="1">  1        2 0.26096619E+00 0.87613035E+03</pdfrwt>
<pdfrwt beam="2">  1       -2 0.15007112E-01 0.87613035E+03</pdfrwt>
<totfact> 0.34787275E+02</totfact>
</mgrwt>
</event>
<event>
 4    1  0.2581031E-004  0.3763765E+03  0.7818608E-02  0.1052281E+00
         -2   -1    0    0    0  501 -0.00000000000E+00  0.00000000000E+00  0.20786397795E+02  0.20786397951E+02  0.25500000000E-02 0. -1.
          2   -1    0    0  501    0  0.00000000000E+00 -0.00000000000E+00 -0.17037495922E+04  0.17037495922E+04  0.25500000000E-02 0.  1.
    5000001    1    1    2    0    0  0.13531609045E+03 -0.15143358407E+02 -0.96663253305E+03  0.98440196037E+03  0.12700000000E+03 0.  0.
   -5000001    1    1    2    0    0 -0.13531609045E+03  0.15143358407E+02 -0.71633066133E+03  0.74013402975E+03  0.12700000000E+03 0.  0.
<mgrwt>
<rscale>  0 0.37637650E+03</rscale>
<asrwt>0</asrwt>
<pdfrwt beam="1">  1        2 0.24339271E+00 0.37637650E+03</pdfrwt>
<pdfrwt beam="2">  1       -2 0.29694865E-02 0.37637650E+03</pdfrwt>
<totfact> 0.53192278E+03</totfact>
</mgrwt>
</event>
<event>
 4    1  0.2581031E-004  0.5077526E+03  0.7818608E-02  0.1011775E+00
          2   -1    0    0  501    0  0.00000000000E+00  0.00000000000E+00  0.16003845491E+04  0.16003845491E+04  0.25500000000E-02 0.  1.
         -2   -1    0    0    0  501 -0.00000000000E+00 -0.00000000000E+00 -0.40273553747E+02  0.40273553828E+02  0.25500000000E-02 0. -1.
    5000001    1    1    2    0    0  0.16374007150E+03 -0.15521248435E+02  0.12513308504E+04  0.12684674286E+04  0.12700000000E+03 0.  0.
   -5000001    1    1    2    0    0 -0.16374007150E+03  0.15521248435E+02  0.30878014496E+03  0.37219067438E+03  0.12700000000E+03 0.  0.
<mgrwt>
<rscale>  0 0.50775259E+03</rscale>
<asrwt>0</asrwt>
<pdfrwt beam="1">  1        2 0.22862631E+00 0.50775259E+03</pdfrwt>
<pdfrwt beam="2">  1       -2 0.57533661E-02 0.50775259E+03</pdfrwt>
<totfact> 0.21812836E+03</totfact>
</mgrwt>
</event>
<event>
 4    1  0.2581031E-004  0.3812095E+03  0.7818608E-02  0.1050488E+00
         -2   -1    0    0    0  501 -0.00000000000E+00  0.00000000000E+00  0.82135424586E+02  0.82135424625E+02  0.25500000000E-02 0.  1.
          2   -1    0    0  501    0  0.00000000000E+00 -0.00000000000E+00 -0.44232038696E+03  0.44232038697E+03  0.25500000000E-02 0. -1.
    5000001    1    1    2    0    0  0.79140207749E+02 -0.38816154163E+02 -0.26700180319E+02  0.15688137536E+03  0.12700000000E+03 0.  0.
   -5000001    1    1    2    0    0 -0.79140207749E+02  0.38816154163E+02 -0.33348478205E+03  0.36757443623E+03  0.12700000000E+03 0.  0.
<mgrwt>
<rscale>  0 0.38120951E+03</rscale>
<asrwt>0</asrwt>
<pdfrwt beam="1">  1        2 0.63188626E-01 0.38120951E+03</pdfrwt>
<pdfrwt beam="2">  1       -2 0.11733632E-01 0.38120951E+03</pdfrwt>
<totfact> 0.40001356E+03</totfact>
</mgrwt>
</event>
<event>
 4    1  0.2581031E-004  0.4429319E+03  0.7818608E-02  0.1029851E+00
         -2   -1    0    0    0  501 -0.00000000000E+00  0.00000000000E+00  0.13619393248E+03  0.13619393251E+03  0.25500000000E-02 0.  1.
          2   -1    0    0  501    0  0.00000000000E+00 -0.00000000000E+00 -0.36012732726E+03  0.36012732727E+03  0.25500000000E-02 0. -1.
    5000001    1    1    2    0    0  0.54284792827E+02  0.15568099655E+03 -0.19682279157E+03  0.28644654423E+03  0.12700000000E+03 0.  0.
   -5000001    1    1    2    0    0 -0.54284792827E+02 -0.15568099655E+03 -0.27110603210E+02  0.20987471555E+03  0.12700000000E+03 0.  0.
<mgrwt>
<rscale>  0 0.44293185E+03</rscale>
<asrwt>0</asrwt>
<pdfrwt beam="1">  1        2 0.51446761E-01 0.44293185E+03</pdfrwt>
<pdfrwt beam="2">  1       -2 0.19456276E-01 0.44293185E+03</pdfrwt>
<totfact> 0.21582297E+03</totfact>
</mgrwt>
</event>
<event>
 4    1  0.2581031E-004  0.3317187E+03  0.7818608E-02  0.1070379E+00
          2   -1    0    0  501    0  0.00000000000E+00  0.00000000000E+00  0.97871388964E+02  0.97871388997E+02  0.25500000000E-02 0.  1.
         -2   -1    0    0    0  501 -0.00000000000E+00 -0.00000000000E+00 -0.28107620147E+03  0.28107620148E+03  0.25500000000E-02 0. -1.
    5000001    1    1    2    0    0  0.87012036622E+02 -0.60573962931E+02 -0.10512009171E+03  0.19600901302E+03  0.12700000000E+03 0.  0.
   -5000001    1    1    2    0    0 -0.87012036622E+02  0.60573962931E+02 -0.78084720794E+02  0.18293857746E+03  0.12700000000E+03 0.  0.
<mgrwt>
<rscale>  0 0.33171867E+03</rscale>
<asrwt>0</asrwt>
<pdfrwt beam="1">  1        2 0.13981627E-01 0.33171867E+03</pdfrwt>
<pdfrwt beam="2">  1       -2 0.40153743E-01 0.33171867E+03</pdfrwt>
<totfact> 0.25170620E+03</totfact>
</mgrwt>
</event>
<event>
 4    1  0.2581031E-004  0.7756849E+03  0.7818608E-02  0.9595895E-01
         -2   -1    0    0    0  501 -0.00000000000E+00  0.00000000000E+00  0.25213921169E+03  0.25213921170E+03  0.25500000000E-02 0. -1.
          2   -1    0    0  501    0  0.00000000000E+00 -0.00000000000E+00 -0.59658225657E+03  0.59658225657E+03  0.25500000000E-02 0.  1.
    5000001    1    1    2    0    0  0.22955031779E+03 -0.22921075140E+03 -0.35874845810E+03  0.50006036950E+03  0.12700000000E+03 0.  0.
   -5000001    1    1    2    0    0 -0.22955031779E+03  0.22921075140E+03  0.14305413214E+02  0.34866109878E+03  0.12700000000E+03 0.  0.
<mgrwt>
<rscale>  0 0.77568494E+03</rscale>
<asrwt>0</asrwt>
<pdfrwt beam="1">  1        2 0.85226036E-01 0.77568494E+03</pdfrwt>
<pdfrwt beam="2">  1       -2 0.36019888E-01 0.77568494E+03</pdfrwt>
<totfact> 0.39786256E+02</totfact>
</mgrwt>
</event>
<event>
 4    1  0.2581031E-004  0.3704355E+03  0.7818608E-02  0.1054527E+00
          2   -1    0    0  501    0  0.00000000000E+00  0.00000000000E+00  0.17260045761E+04  0.17260045761E+04  0.25500000000E-02 0.  1.
         -2   -1    0    0    0  501 -0.00000000000E+00 -0.00000000000E+00 -0.19875733298E+02  0.19875733462E+02  0.25500000000E-02 0. -1.
    5000001    1    1    2    0    0 -0.48955769157E+02  0.12540338487E+03  0.81845302308E+03  0.83911681383E+03  0.12700000000E+03 0.  0.
   -5000001    1    1    2    0    0  0.48955769157E+02 -0.12540338487E+03  0.88767581977E+03  0.90676349577E+03  0.12700000000E+03 0.  0.
<mgrwt>
<rscale>  0 0.37043546E+03</rscale>
<asrwt>0</asrwt>
<pdfrwt beam="1">  1        2 0.24657206E+00 0.37043546E+03</pdfrwt>
<pdfrwt beam="2">  1       -2 0.28393907E-02 0.37043546E+03</pdfrwt>
<totfact> 0.55450964E+03</totfact>
</mgrwt>
</event>
<event>
 4    1  0.2581031E-004  0.4665073E+03  0.7818608E-02  0.1022911E+00
         -2   -1    0    0    0  501 -0.00000000000E+00  0.00000000000E+00  0.40262171771E+02  0.40262171852E+02  0.25500000000E-02 0. -1.
          2   -1    0    0  501    0  0.00000000000E+00 -0.00000000000E+00 -0.13513246786E+04  0.13513246786E+04  0.25500000000E-02 0.  1.
    5000001    1    1    2    0    0  0.17406108415E+03 -0.52992778545E+02 -0.44098868023E+03  0.49366538433E+03  0.12700000000E+03 0.  0.
   -5000001    1    1    2    0    0 -0.17406108415E+03  0.52992778545E+02 -0.87007382662E+03  0.89792146614E+03  0.12700000000E+03 0.  0.
<mgrwt>
<rscale>  0 0.46650730E+03</rscale>
<asrwt>0</asrwt>
<pdfrwt beam="1">  1        2 0.19304635E+00 0.46650730E+03</pdfrwt>
<pdfrwt beam="2">  1       -2 0.57517397E-02 0.46650730E+03</pdfrwt>
<totfact> 0.29423183E+03</totfact>
</mgrwt>
</event>
<event>
 4    1  0.2581031E-004  0.3700402E+03  0.7818608E-02  0.1054678E+00
          2   -1    0    0  501    0  0.00000000000E+00  0.00000000000E+00  0.57966847039E+02  0.57966847095E+02  0.25500000000E-02 0.  1.
         -2   -1    0    0    0  501 -0.00000000000E+00 -0.00000000000E+00 -0.59055211228E+03  0.59055211228E+03  0.25500000000E-02 0. -1.
    5000001    1    1    2    0    0  0.10526037793E+03  0.37520826997E+02 -0.13495692855E+03  0.21640224626E+03  0.12700000000E+03 0.  0.
   -5000001    1    1    2    0    0 -0.10526037793E+03 -0.37520826997E+02 -0.39762833669E+03  0.43211671312E+03  0.12700000000E+03 0.  0.
<mgrwt>
<rscale>  0 0.37004024E+03</rscale>
<asrwt>0</asrwt>
<pdfrwt beam="1">  1        2 0.82809785E-02 0.37004024E+03</pdfrwt>
<pdfrwt beam="2">  1       -2 0.84364584E-01 0.37004024E+03</pdfrwt>
<totfact> 0.10365609E+03</totfact>
</mgrwt>
</event>
<event>
 4    1  0.2581031E-004  0.8548544E+03  0.7818608E-02  0.9483845E-01
          2   -1    0    0  501    0  0.00000000000E+00  0.00000000000E+00  0.15721498120E+04  0.15721498121E+04  0.25500000000E-02 0.  1.
         -2   -1    0    0    0  501 -0.00000000000E+00 -0.00000000000E+00 -0.11620650342E+03  0.11620650345E+03  0.25500000000E-02 0. -1.
    5000001    1    1    2    0    0  0.28208938084E+03 -0.11507634485E+03  0.12643203103E+04  0.13066950031E+04  0.12700000000E+03 0.  0.
   -5000001    1    1    2    0    0 -0.28208938084E+03  0.11507634485E+03  0.19162299828E+03  0.38166131242E+03  0.12700000000E+03 0.  0.
<mgrwt>
<rscale>  0 0.85485445E+03</rscale>
<asrwt>0</asrwt>
<pdfrwt beam="1">  1        2 0.22459281E+00 0.85485445E+03</pdfrwt>
<pdfrwt beam="2">  1       -2 0.16600931E-01 0.85485445E+03</pdfrwt>
<totfact> 0.39672628E+02</totfact>
</mgrwt>
</event>
<event>
 4    1  0.2581031E-004  0.4637215E+03  0.7818608E-02  0.1023707E+00
          2   -1    0    0  501    0  0.00000000000E+00  0.00000000000E+00  0.32543049319E+03  0.32543049320E+03  0.25500000000E-02 0.  1.
         -2   -1    0    0    0  501 -0.00000000000E+00 -0.00000000000E+00 -0.16519472695E+03  0.16519472697E+03  0.25500000000E-02 0. -1.
    5000001    1    1    2    0    0  0.59792888215E+02  0.18077419699E+03  0.40872699682E+02  0.23249532761E+03  0.12700000000E+03 0.  0.
   -5000001    1    1    2    0    0 -0.59792888215E+02 -0.18077419699E+03  0.11936306656E+03  0.25812989257E+03  0.12700000000E+03 0.  0.
<mgrwt>
<rscale>  0 0.46372147E+03</rscale>
<asrwt>0</asrwt>
<pdfrwt beam="1">  1        2 0.46490070E-01 0.46372147E+03</pdfrwt>
<pdfrwt beam="2">  1       -2 0.23599247E-01 0.46372147E+03</pdfrwt>
<totfact> 0.17218950E+03</totfact>
</mgrwt>
</event>
<event>
 4    1  0.2581031E-004  0.3990093E+03  0.7818608E-02  0.1044123E+00
          2   -1    0    0  501    0  0.00000000000E+00  0.00000000000E+00  0.48089750690E+03  0.48089750691E+03  0.25500000000E-02 0.  1.
         -2   -1    0    0    0  501 -0.00000000000E+00 -0.00000000000E+00 -0.82766314063E+02  0.82766314102E+02  0.25500000000E-02 0. -1.
    5000001    1    1    2    0    0 -0.13626873233E+03 -0.55834053007E+02  0.13610309853E+03  0.23735977400E+03  0.12700000000E+03 0.  0.
   -5000001    1    1    2    0    0  0.13626873233E+03  0.55834053007E+02  0.26202809431E+03  0.32630404701E+03  0.12700000000E+03 0.  0.
<mgrwt>
<rscale>  0 0.39900934E+03</rscale>
<asrwt>0</asrwt>
<pdfrwt beam="1">  1        2 0.68699641E-01 0.39900934E+03</pdfrwt>
<pdfrwt beam="2">  1       -2 0.11823760E-01 0.39900934E+03</pdfrwt>
<totfact> 0.36039177E+03</totfact>
</mgrwt>
</event>
<event>
 4    1  0.2581031E-004  0.3266264E+03  0.7818608E-02  0.1072639E+00
         -2   -1    0    0    0  501 -0.00000000000E+00  0.00000000000E+00  0.95056434147E+01  0.95056437567E+01  0.25500000000E-02 0. -1.
          2   -1    0    0  501    0  0.00000000000E+00 -0.00000000000E+00 -0.28058276475E+04  0.28058276475E+04  0.25500000000E-02 0.  1.
    5000001    1    1    2    0    0 -0.83848254065E+02 -0.53039293609E+02 -0.16259654199E+04  0.16339327536E+04  0.12700000000E+03 0.  0.
   -5000001    1    1    2    0    0  0.83848254065E+02  0.53039293609E+02 -0.11703565841E+04  0.11814005377E+04  0.12700000000E+03 0.  0.
<mgrwt>
<rscale>  0 0.32662638E+03</rscale>
<asrwt>0</asrwt>
<pdfrwt beam="1">  1        2 0.40083199E+00 0.32662638E+03</pdfrwt>
<pdfrwt beam="2">  1       -2 0.13579509E-02 0.32662638E+03</pdfrwt>
<totfact> 0.47781952E+03</totfact>
</mgrwt>
</event>
<event>
 4    1  0.2581031E-004  0.4024746E+03  0.7818608E-02  0.1042926E+00
          2   -1    0    0  501    0  0.00000000000E+00  0.00000000000E+00  0.15133060751E+03  0.15133060753E+03  0.25500000000E-02 0.  1.
         -2   -1    0    0    0  501 -0.00000000000E+00 -0.00000000000E+00 -0.26760249908E+03  0.26760249909E+03  0.25500000000E-02 0. -1.
    5000001    1    1    2    0    0 -0.15396104804E+03 -0.22096140907E+02 -0.44358158559E+02  0.20564262688E+03  0.12700000000E+03 0.  0.
   -5000001    1    1    2    0    0  0.15396104804E+03  0.22096140907E+02 -0.71913733009E+02  0.21329047975E+03  0.12700000000E+03 0.  0.
<mgrwt>
<rscale>  0 0.40247459E+03</rscale>
<asrwt>0</asrwt>
<pdfrwt beam="1">  1        2 0.21618658E-01 0.40247459E+03</pdfrwt>
<pdfrwt beam="2">  1       -2 0.38228928E-01 0.40247459E+03</pdfrwt>
<totfact> 0.16627361E+03</totfact>
</mgrwt>
</event>
<event>
 4    1  0.2581031E-004  0.2870950E+03  0.7818608E-02  0.1091876E+00
          2   -1    0    0  501    0  0.00000000000E+00  0.00000000000E+00  0.21373606992E+03  0.21373606994E+03  0.25500000000E-02 0.  1.
         -2   -1    0    0    0  501 -0.00000000000E+00 -0.00000000000E+00 -0.96408110748E+02  0.96408110781E+02  0.25500000000E-02 0. -1.
    5000001    1    1    2    0    0  0.30050679686E+01 -0.61822373621E+02  0.31210003291E+02  0.14468621434E+03  0.12700000000E+03 0.  0.
   -5000001    1    1    2    0    0 -0.30050679686E+01  0.61822373621E+02  0.86117955882E+02  0.16545796638E+03  0.12700000000E+03 0.  0.
<mgrwt>
<rscale>  0 0.28709504E+03</rscale>
<asrwt>0</asrwt>
<pdfrwt beam="1">  1        2 0.30533725E-01 0.28709504E+03</pdfrwt>
<pdfrwt beam="2">  1       -2 0.13772587E-01 0.28709504E+03</pdfrwt>
<totfact> 0.67440496E+03</totfact>
</mgrwt>
</event>
<event>
 4    1  0.2581031E-004  0.9027116E+03  0.7818608E-02  0.9422198E-01
          2   -1    0    0  501    0  0.00000000000E+00  0.00000000000E+00  0.15075604552E+03  0.15075604554E+03  0.25500000000E-02 0.  1.
         -2   -1    0    0    0  501 -0.00000000000E+00 -0.00000000000E+00 -0.13513358383E+04  0.13513358383E+04  0.25500000000E-02 0. -1.
    5000001    1    1    2    0    0 -0.40044692522E+03 -0.15715536113E+03 -0.51646934956E+03  0.68405053650E+03  0.12700000000E+03 0.  0.
   -5000001    1    1    2    0    0  0.40044692522E+03  0.15715536113E+03 -0.68411044325E+03  0.81804134738E+03  0.12700000000E+03 0.  0.
<mgrwt>
<rscale>  0 0.90271158E+03</rscale>
<asrwt>0</asrwt>
<pdfrwt beam="1">  1        2 0.21536579E-01 0.90271158E+03</pdfrwt>
<pdfrwt beam="2">  1       -2 0.19304797E+00 0.90271158E+03</pdfrwt>
<totfact> 0.38791883E+01</totfact>
</mgrwt>
</event>
<event>
 4    1  0.2581031E-004  0.4073551E+03  0.7818608E-02  0.1041262E+00
         -2   -1    0    0    0  501 -0.00000000000E+00  0.00000000000E+00  0.11252776510E+04  0.11252776510E+04  0.25500000000E-02 0. -1.
          2   -1    0    0  501    0  0.00000000000E+00 -0.00000000000E+00 -0.36866053896E+02  0.36866053984E+02  0.25500000000E-02 0.  1.
    5000001    1    1    2    0    0 -0.67997302010E+00  0.10662017878E+03  0.20680011509E+03  0.26507284374E+03  0.12700000000E+03 0.  0.
   -5000001    1    1    2    0    0  0.67997302010E+00 -0.10662017878E+03  0.88161148203E+03  0.89707086126E+03  0.12700000000E+03 0.  0.
<mgrwt>
<rscale>  0 0.40735511E+03</rscale>
<asrwt>0</asrwt>
<pdfrwt beam="1">  1        2 0.52665800E-02 0.40735511E+03</pdfrwt>
<pdfrwt beam="2">  1       -2 0.16075392E+00 0.40735511E+03</pdfrwt>
<totfact> 0.38954200E+02</totfact>
</mgrwt>
</event>
<event>
 4    1  0.2581031E-004  0.2992136E+03  0.7818608E-02  0.1085634E+00
         -2   -1    0    0    0  501 -0.00000000000E+00  0.00000000000E+00  0.41080168132E+02  0.41080168212E+02  0.25500000000E-02 0. -1.
          2   -1    0    0  501    0  0.00000000000E+00 -0.00000000000E+00 -0.54484176195E+03  0.54484176195E+03  0.25500000000E-02 0.  1.
    5000001    1    1    2    0    0 -0.77809273657E+02  0.13713702715E+02 -0.25832876995E+03  0.29850477734E+03  0.12700000000E+03 0.  0.
   -5000001    1    1    2    0    0  0.77809273657E+02 -0.13713702715E+02 -0.24543282386E+03  0.28741715283E+03  0.12700000000E+03 0.  0.
<mgrwt>
<rscale>  0 0.29921358E+03</rscale>
<asrwt>0</asrwt>
<pdfrwt beam="1">  1        2 0.77834533E-01 0.29921358E+03</pdfrwt>
<pdfrwt beam="2">  1       -2 0.58685958E-02 0.29921358E+03</pdfrwt>
<totfact> 0.93935323E+03</totfact>
</mgrwt>
</event>
<event>
 4    1  0.2581031E-004  0.3058135E+03  0.7818608E-02  0.1082370E+00
          2   -1    0    0  501    0  0.00000000000E+00  0.00000000000E+00  0.10626878887E+03  0.10626878890E+03  0.25500000000E-02 0.  1.
         -2   -1    0    0    0  501 -0.00000000000E+00 -0.00000000000E+00 -0.22001258813E+03  0.22001258814E+03  0.25500000000E-02 0. -1.
    5000001    1    1    2    0    0  0.67968992377E+02 -0.41737858101E+02 -0.25048801367E+02  0.15204695056E+03  0.12700000000E+03 0.  0.
   -5000001    1    1    2    0    0 -0.67968992377E+02  0.41737858101E+02 -0.88694997887E+02  0.17423442649E+03  0.12700000000E+03 0.  0.
<mgrwt>
<rscale>  0 0.30581348E+03</rscale>
<asrwt>0</asrwt>
<pdfrwt beam="1">  1        2 0.15181256E-01 0.30581348E+03</pdfrwt>
<pdfrwt beam="2">  1       -2 0.31430370E-01 0.30581348E+03</pdfrwt>
<totfact> 0.36040873E+03</totfact>
</mgrwt>
</event>
<event>
 4    1  0.2581031E-004  0.4480566E+03  0.7818608E-02  0.1028303E+00
         -2   -1    0    0    0  501 -0.00000000000E+00  0.00000000000E+00  0.30587603068E+02  0.30587603174E+02  0.25500000000E-02 0. -1.
          2   -1    0    0  501    0  0.00000000000E+00 -0.00000000000E+00 -0.16408175132E+04  0.16408175132E+04  0.25500000000E-02 0.  1.
    5000001    1    1    2    0    0  0.13700719131E+03  0.10799912483E+03 -0.58052181354E+03  0.61932976469E+03  0.12700000000E+03 0.  0.
   -5000001    1    1    2    0    0 -0.13700719131E+03 -0.10799912483E+03 -0.10297080965E+04  0.10520753516E+04  0.12700000000E+03 0.  0.
<mgrwt>
<rscale>  0 0.44805658E+03</rscale>
<asrwt>0</asrwt>
<pdfrwt beam="1">  1        2 0.23440245E+00 0.44805658E+03</pdfrwt>
<pdfrwt beam="2">  1       -2 0.43696586E-02 0.44805658E+03</pdfrwt>
<totfact> 0.31847651E+03</totfact>
</mgrwt>
</event>
<event>
 4    1  0.2581031E-004  0.4858085E+03  0.7818608E-02  0.1017551E+00
         -2   -1    0    0    0  501 -0.00000000000E+00  0.00000000000E+00  0.51136751575E+03  0.51136751575E+03  0.25500000000E-02 0. -1.
          2   -1    0    0  501    0  0.00000000000E+00 -0.00000000000E+00 -0.11538172272E+03  0.11538172275E+03  0.25500000000E-02 0.  1.
    5000001    1    1    2    0    0  0.99141662176E+02 -0.17706726525E+03  0.25105383473E+03  0.34689899616E+03  0.12700000000E+03 0.  0.
   -5000001    1    1    2    0    0 -0.99141662176E+02  0.17706726525E+03  0.14493195830E+03  0.27985024234E+03  0.12700000000E+03 0.  0.
<mgrwt>
<rscale>  0 0.48580846E+03</rscale>
<asrwt>0</asrwt>
<pdfrwt beam="1">  1        2 0.16483104E-01 0.48580846E+03</pdfrwt>
<pdfrwt beam="2">  1       -2 0.73052501E-01 0.48580846E+03</pdfrwt>
<totfact> 0.60976406E+02</totfact>
</mgrwt>
</event>
<event>
 4    1  0.2581031E-004  0.4018513E+03  0.7818608E-02  0.1043141E+00
         -2   -1    0    0    0  501 -0.00000000000E+00  0.00000000000E+00  0.14769277045E+03  0.14769277048E+03  0.25500000000E-02 0. -1.
          2   -1    0    0  501    0  0.00000000000E+00 -0.00000000000E+00 -0.27334523882E+03  0.27334523883E+03  0.25500000000E-02 0.  1.
    5000001    1    1    2    0    0 -0.15148819637E+03  0.35285191789E+02 -0.70115203739E+02  0.21269428811E+03  0.12700000000E+03 0.  0.
   -5000001    1    1    2    0    0  0.15148819637E+03 -0.35285191789E+02 -0.55537264627E+02  0.20834372120E+03  0.12700000000E+03 0.  0.
<mgrwt>
<rscale>  0 0.40185129E+03</rscale>
<asrwt>0</asrwt>
<pdfrwt beam="1">  1        2 0.39049320E-01 0.40185129E+03</pdfrwt>
<pdfrwt beam="2">  1       -2 0.21098967E-01 0.40185129E+03</pdfrwt>
<totfact> 0.25317796E+03</totfact>
</mgrwt>
</event>
<event>
 4    1  0.2581031E-004  0.4137799E+03  0.7818608E-02  0.1039110E+00
         -2   -1    0    0    0  501 -0.00000000000E+00  0.00000000000E+00  0.32510928484E+02  0.32510928584E+02  0.25500000000E-02 0. -1.
          2   -1    0    0  501    0  0.00000000000E+00 -0.00000000000E+00 -0.13165867700E+04  0.13165867700E+04  0.25500000000E-02 0.  1.
    5000001    1    1    2    0    0 -0.81806271538E+02  0.14135515039E+03 -0.63892121239E+03  0.67158235552E+03  0.12700000000E+03 0.  0.
   -5000001    1    1    2    0    0  0.81806271538E+02 -0.14135515039E+03 -0.64515462914E+03  0.67751534308E+03  0.12700000000E+03 0.  0.
<mgrwt>
<rscale>  0 0.41377993E+03</rscale>
<asrwt>0</asrwt>
<pdfrwt beam="1">  1        2 0.18808379E+00 0.41377993E+03</pdfrwt>
<pdfrwt beam="2">  1       -2 0.46444192E-02 0.41377993E+03</pdfrwt>
<totfact> 0.42693221E+03</totfact>
</mgrwt>
</event>
<event>
 4    1  0.2581031E-004  0.5119959E+03  0.7818608E-02  0.1010694E+00
         -2   -1    0    0    0  501 -0.00000000000E+00  0.00000000000E+00  0.68683613279E+02  0.68683613326E+02  0.25500000000E-02 0. -1.
          2   -1    0    0  501    0  0.00000000000E+00 -0.00000000000E+00 -0.95415682036E+03  0.95415682037E+03  0.25500000000E-02 0.  1.
    5000001    1    1    2    0    0  0.76758663994E+02  0.16167151288E+03 -0.70607909614E+03  0.73939587542E+03  0.12700000000E+03 0.  0.
   -5000001    1    1    2    0    0 -0.76758663994E+02 -0.16167151288E+03 -0.17939411094E+03  0.28344455827E+03  0.12700000000E+03 0.  0.
<mgrwt>
<rscale>  0 0.51199585E+03</rscale>
<asrwt>0</asrwt>
<pdfrwt beam="1">  1        2 0.13630811E+00 0.51199585E+03</pdfrwt>
<pdfrwt beam="2">  1       -2 0.98119453E-02 0.51199585E+03</pdfrwt>
<totfact> 0.21277497E+03</totfact>
</mgrwt>
</event>
<event>
 4    1  0.2581031E-004  0.4483552E+03  0.7818608E-02  0.1028214E+00
          2   -1    0    0  501    0  0.00000000000E+00  0.00000000000E+00  0.11091452297E+04  0.11091452297E+04  0.25500000000E-02 0.  1.
         -2   -1    0    0    0  501 -0.00000000000E+00 -0.00000000000E+00 -0.45310209866E+02  0.45310209938E+02  0.25500000000E-02 0. -1.
    5000001    1    1    2    0    0  0.13815411537E+03 -0.11483555484E+03  0.42108331607E+03  0.47509359428E+03  0.12700000000E+03 0.  0.
   -5000001    1    1    2    0    0 -0.13815411537E+03  0.11483555484E+03  0.64275170379E+03  0.67936184539E+03  0.12700000000E+03 0.  0.
<mgrwt>
<rscale>  0 0.44835523E+03</rscale>
<asrwt>0</asrwt>
<pdfrwt beam="1">  1        2 0.15844929E+00 0.44835523E+03</pdfrwt>
<pdfrwt beam="2">  1       -2 0.64728884E-02 0.44835523E+03</pdfrwt>
<totfact> 0.33270094E+03</totfact>
</mgrwt>
</event>
<event>
 4    1  0.2581031E-004  0.4588827E+03  0.7818608E-02  0.1025106E+00
          2   -1    0    0  501    0  0.00000000000E+00  0.00000000000E+00  0.20631924179E+04  0.20631924179E+04  0.25500000000E-02 0.  1.
         -2   -1    0    0    0  501 -0.00000000000E+00 -0.00000000000E+00 -0.25515477995E+02  0.25515478122E+02  0.25500000000E-02 0. -1.
    5000001    1    1    2    0    0 -0.17212894875E+03  0.76569152899E+02  0.87324511644E+03  0.90231770656E+03  0.12700000000E+03 0.  0.
   -5000001    1    1    2    0    0  0.17212894875E+03 -0.76569152899E+02  0.11644318234E+04  0.11863901894E+04  0.12700000000E+03 0.  0.
<mgrwt>
<rscale>  0 0.45888273E+03</rscale>
<asrwt>0</asrwt>
<pdfrwt beam="1">  1        2 0.29474177E+00 0.45888273E+03</pdfrwt>
<pdfrwt beam="2">  1       -2 0.36450684E-02 0.45888273E+03</pdfrwt>
<totfact> 0.25826077E+03</totfact>
</mgrwt>
</event>
<event>
 4    1  0.2581031E-004  0.4306869E+03  0.7818608E-02  0.1033643E+00
         -2   -1    0    0    0  501 -0.00000000000E+00  0.00000000000E+00  0.48041255911E+02  0.48041255978E+02  0.25500000000E-02 0. -1.
          2   -1    0    0  501    0  0.00000000000E+00 -0.00000000000E+00 -0.96527020249E+03  0.96527020250E+03  0.25500000000E-02 0.  1.
    5000001    1    1    2    0    0 -0.38213700854E+02 -0.15442811982E+03 -0.62390395816E+03  0.65627241305E+03  0.12700000000E+03 0.  0.
   -5000001    1    1    2    0    0  0.38213700854E+02  0.15442811982E+03 -0.29332498843E+03  0.35703904543E+03  0.12700000000E+03 0.  0.
<mgrwt>
<rscale>  0 0.43068686E+03</rscale>
<asrwt>0</asrwt>
<pdfrwt beam="1">  1        2 0.13789573E+00 0.43068686E+03</pdfrwt>
<pdfrwt beam="2">  1       -2 0.68630372E-02 0.43068686E+03</pdfrwt>
<totfact> 0.36926166E+03</totfact>
</mgrwt>
</event>
<event>
 4    1  0.2581031E-004  0.3132484E+03  0.7818608E-02  0.1078799E+00
         -2   -1    0    0    0  501 -0.00000000000E+00  0.00000000000E+00  0.42774443383E+03  0.42774443384E+03  0.25500000000E-02 0. -1.
          2   -1    0    0  501    0  0.00000000000E+00 -0.00000000000E+00 -0.57349997817E+02  0.57349997874E+02  0.25500000000E-02 0.  1.
    5000001    1    1    2    0    0  0.58700175743E+02  0.57309130327E+02  0.12187327900E+03  0.19419614617E+03  0.12700000000E+03 0.  0.
   -5000001    1    1    2    0    0 -0.58700175743E+02 -0.57309130327E+02  0.24852115701E+03  0.29089828555E+03  0.12700000000E+03 0.  0.
<mgrwt>
<rscale>  0 0.31324841E+03</rscale>
<asrwt>0</asrwt>
<pdfrwt beam="1">  1        2 0.81928572E-02 0.31324841E+03</pdfrwt>
<pdfrwt beam="2">  1       -2 0.61106345E-01 0.31324841E+03</pdfrwt>
<totfact> 0.21049422E+03</totfact>
</mgrwt>
</event>
<event>
 4    1  0.2581031E-004  0.6565037E+03  0.7818608E-02  0.9794651E-01
         -2   -1    0    0    0  501 -0.00000000000E+00  0.00000000000E+00  0.40245895692E+02  0.40245895773E+02  0.25500000000E-02 0. -1.
          2   -1    0    0  501    0  0.00000000000E+00 -0.00000000000E+00 -0.26772737185E+04  0.26772737185E+04  0.25500000000E-02 0.  1.
    5000001    1    1    2    0    0 -0.27868691940E+03  0.30915938306E+02 -0.84658651942E+03  0.90081070662E+03  0.12700000000E+03 0.  0.
   -5000001    1    1    2    0    0  0.27868691940E+03 -0.30915938306E+02 -0.17904413034E+04  0.18167089076E+04  0.12700000000E+03 0.  0.
<mgrwt>
<rscale>  0 0.65650371E+03</rscale>
<asrwt>0</asrwt>
<pdfrwt beam="1">  1        2 0.38246756E+00 0.65650371E+03</pdfrwt>
<pdfrwt beam="2">  1       -2 0.57494154E-02 0.65650371E+03</pdfrwt>
<totfact> 0.61563864E+02</totfact>
</mgrwt>
</event>
<event>
 4    1  0.2581031E-004  0.4007888E+03  0.7818608E-02  0.1043507E+00
          2   -1    0    0  501    0  0.00000000000E+00  0.00000000000E+00  0.95137714789E+03  0.95137714789E+03  0.25500000000E-02 0.  1.
         -2   -1    0    0    0  501 -0.00000000000E+00 -0.00000000000E+00 -0.42210298347E+02  0.42210298424E+02  0.25500000000E-02 0. -1.
    5000001    1    1    2    0    0  0.93353989329E+02  0.10221981044E+03  0.28166770873E+03  0.33856986740E+03  0.12700000000E+03 0.  0.
   -5000001    1    1    2    0    0 -0.93353989329E+02 -0.10221981044E+03  0.62749914081E+03  0.65501757891E+03  0.12700000000E+03 0.  0.
<mgrwt>
<rscale>  0 0.40078879E+03</rscale>
<asrwt>0</asrwt>
<pdfrwt beam="1">  1        2 0.13591103E+00 0.40078879E+03</pdfrwt>
<pdfrwt beam="2">  1       -2 0.60300424E-02 0.40078879E+03</pdfrwt>
<totfact> 0.46035812E+03</totfact>
</mgrwt>
</event>
<event>
 4    1  0.2581031E-004  0.7082923E+03  0.7818608E-02  0.9703155E-01
         -2   -1    0    0    0  501 -0.00000000000E+00  0.00000000000E+00  0.86147196630E+02  0.86147196667E+02  0.25500000000E-02 0. -1.
          2   -1    0    0  501    0  0.00000000000E+00 -0.00000000000E+00 -0.14558745193E+04  0.14558745193E+04  0.25500000000E-02 0.  1.
    5000001    1    1    2    0    0 -0.25323564946E+03  0.15985779781E+03 -0.38001010848E+03  0.50021944407E+03  0.12700000000E+03 0.  0.
   -5000001    1    1    2    0    0  0.25323564946E+03 -0.15985779781E+03 -0.98971721418E+03  0.10418022719E+04  0.12700000000E+03 0.  0.
<mgrwt>
<rscale>  0 0.70829234E+03</rscale>
<asrwt>0</asrwt>
<pdfrwt beam="1">  1        2 0.20798206E+00 0.70829234E+03</pdfrwt>
<pdfrwt beam="2">  1       -2 0.12306743E-01 0.70829234E+03</pdfrwt>
<totfact> 0.76133486E+02</totfact>
</mgrwt>
</event>
<event>
 4    1  0.2581031E-004  0.4232845E+03  0.7818608E-02  0.1036003E+00
          2   -1    0    0  501    0  0.00000000000E+00  0.00000000000E+00  0.82985656903E+03  0.82985656903E+03  0.25500000000E-02 0.  1.
         -2   -1    0    0    0  501 -0.00000000000E+00 -0.00000000000E+00 -0.53976113293E+02  0.53976113353E+02  0.25500000000E-02 0. -1.
    5000001    1    1    2    0    0 -0.13698077350E+03 -0.14943682041E+01  0.18020996781E+03  0.25955846729E+03  0.12700000000E+03 0.  0.
   -5000001    1    1    2    0    0  0.13698077350E+03  0.14943682041E+01  0.59567048793E+03  0.62427421510E+03  0.12700000000E+03 0.  0.
<mgrwt>
<rscale>  0 0.42328445E+03</rscale>
<asrwt>0</asrwt>
<pdfrwt beam="1">  1        2 0.11855093E+00 0.42328445E+03</pdfrwt>
<pdfrwt beam="2">  1       -2 0.77108737E-02 0.42328445E+03</pdfrwt>
<totfact> 0.37525478E+03</totfact>
</mgrwt>
</event>
<event>
 4    1  0.2581031E-004  0.5413550E+03  0.7818608E-02  0.1003515E+00
         -2   -1    0    0    0  501 -0.00000000000E+00  0.00000000000E+00  0.38012877376E+03  0.38012877377E+03  0.25500000000E-02 0. -1.
          2   -1    0    0  501    0  0.00000000000E+00 -0.00000000000E+00 -0.19274075787E+03  0.19274075788E+03  0.25500000000E-02 0.  1.
    5000001    1    1    2    0    0 -0.17976276518E+03 -0.15449187842E+03  0.60993379947E+02  0.27573825386E+03  0.12700000000E+03 0.  0.
   -5000001    1    1    2    0    0  0.17976276518E+03  0.15449187842E+03  0.12639463595E+03  0.29713127779E+03  0.12700000000E+03 0.  0.
<mgrwt>
<rscale>  0 0.54135500E+03</rscale>
<asrwt>0</asrwt>
<pdfrwt beam="1">  1        2 0.27534394E-01 0.54135500E+03</pdfrwt>
<pdfrwt beam="2">  1       -2 0.54304110E-01 0.54135500E+03</pdfrwt>
<totfact> 0.63046667E+02</totfact>
</mgrwt>
</event>
<event>
 4    1  0.2581031E-004  0.3911364E+03  0.7818608E-02  0.1046893E+00
         -2   -1    0    0    0  501 -0.00000000000E+00  0.00000000000E+00  0.15312778702E+04  0.15312778702E+04  0.25500000000E-02 0. -1.
          2   -1    0    0  501    0  0.00000000000E+00 -0.00000000000E+00 -0.24977123333E+02  0.24977123464E+02  0.25500000000E-02 0.  1.
    5000001    1    1    2    0    0  0.13712036400E+03 -0.32738423867E+02  0.94163475347E+03  0.96056171461E+03  0.12700000000E+03 0.  0.
   -5000001    1    1    2    0    0 -0.13712036400E+03  0.32738423867E+02  0.56466599340E+03  0.59569327906E+03  0.12700000000E+03 0.  0.
<mgrwt>
<rscale>  0 0.39113638E+03</rscale>
<asrwt>0</asrwt>
<pdfrwt beam="1">  1        2 0.35681597E-02 0.39113638E+03</pdfrwt>
<pdfrwt beam="2">  1       -2 0.21875403E+00 0.39113638E+03</pdfrwt>
<totfact> 0.27270740E+02</totfact>
</mgrwt>
</event>
<event>
 4    1  0.2581031E-004  0.3308923E+03  0.7818608E-02  0.1070743E+00
         -2   -1    0    0    0  501 -0.00000000000E+00  0.00000000000E+00  0.74335511137E+02  0.74335511180E+02  0.25500000000E-02 0. -1.
          2   -1    0    0  501    0  0.00000000000E+00 -0.00000000000E+00 -0.36822817346E+03  0.36822817347E+03  0.25500000000E-02 0.  1.
    5000001    1    1    2    0    0 -0.53662218953E+01  0.10476723438E+03 -0.12629268843E+03  0.20756640597E+03  0.12700000000E+03 0.  0.
   -5000001    1    1    2    0    0  0.53662218953E+01 -0.10476723438E+03 -0.16759997389E+03  0.23499727867E+03  0.12700000000E+03 0.  0.
<mgrwt>
<rscale>  0 0.33089231E+03</rscale>
<asrwt>0</asrwt>
<pdfrwt beam="1">  1        2 0.52604024E-01 0.33089231E+03</pdfrwt>
<pdfrwt beam="2">  1       -2 0.10619359E-01 0.33089231E+03</pdfrwt>
<totfact> 0.57223810E+03</totfact>
</mgrwt>
</event>
<event>
 4    1  0.2581031E-004  0.3349996E+03  0.7818608E-02  0.1068946E+00
         -2   -1    0    0    0  501 -0.00000000000E+00  0.00000000000E+00  0.27977359445E+02  0.27977359561E+02  0.25500000000E-02 0. -1.
          2   -1    0    0  501    0  0.00000000000E+00 -0.00000000000E+00 -0.10028175066E+04  0.10028175066E+04  0.25500000000E-02 0.  1.
    5000001    1    1    2    0    0  0.25324374520E+02  0.71123294574E+02 -0.73023712860E+03  0.74503363076E+03  0.12700000000E+03 0.  0.
   -5000001    1    1    2    0    0 -0.25324374520E+02 -0.71123294574E+02 -0.24460301858E+03  0.28576123543E+03  0.12700000000E+03 0.  0.
<mgrwt>
<rscale>  0 0.33499962E+03</rscale>
<asrwt>0</asrwt>
<pdfrwt beam="1">  1        2 0.14325962E+00 0.33499962E+03</pdfrwt>
<pdfrwt beam="2">  1       -2 0.39967663E-02 0.33499962E+03</pdfrwt>
<totfact> 0.80162032E+03</totfact>
</mgrwt>
</event>
<event>
 4    1  0.2581031E-004  0.3051440E+03  0.7818608E-02  0.1082697E+00
         -2   -1    0    0    0  501 -0.00000000000E+00  0.00000000000E+00  0.84090395470E+02  0.84090395509E+02  0.25500000000E-02 0. -1.
          2   -1    0    0  501    0  0.00000000000E+00 -0.00000000000E+00 -0.27682376714E+03  0.27682376715E+03  0.25500000000E-02 0.  1.
    5000001    1    1    2    0    0  0.75078734152E+02 -0.17865955713E+02 -0.13722286367E+03  0.20227486994E+03  0.12700000000E+03 0.  0.
   -5000001    1    1    2    0    0 -0.75078734152E+02  0.17865955713E+02 -0.55510507992E+02  0.15863929271E+03  0.12700000000E+03 0.  0.
<mgrwt>
<rscale>  0 0.30514403E+03</rscale>
<asrwt>0</asrwt>
<pdfrwt beam="1">  1        2 0.39546252E-01 0.30514403E+03</pdfrwt>
<pdfrwt beam="2">  1       -2 0.12012914E-01 0.30514403E+03</pdfrwt>
<totfact> 0.63704769E+03</totfact>
</mgrwt>
</event>
<event>
 4    1  0.2581031E-004  0.2992290E+03  0.7818608E-02  0.1085627E+00
          2   -1    0    0  501    0  0.00000000000E+00  0.00000000000E+00  0.55549002582E+03  0.55549002583E+03  0.25500000000E-02 0.  1.
         -2   -1    0    0    0  501 -0.00000000000E+00 -0.00000000000E+00 -0.40296848203E+02  0.40296848284E+02  0.25500000000E-02 0. -1.
    5000001    1    1    2    0    0 -0.35035814370E+02 -0.56314286905E+02  0.17180257808E+03  0.22370501343E+03  0.12700000000E+03 0.  0.
   -5000001    1    1    2    0    0  0.35035814370E+02  0.56314286905E+02  0.34339059953E+03  0.37208186068E+03  0.12700000000E+03 0.  0.
<mgrwt>
<rscale>  0 0.29922899E+03</rscale>
<asrwt>0</asrwt>
<pdfrwt beam="1">  1        2 0.79355722E-01 0.29922899E+03</pdfrwt>
<pdfrwt beam="2">  1       -2 0.57566923E-02 0.29922899E+03</pdfrwt>
<totfact> 0.94665420E+03</totfact>
</mgrwt>
</event>
<event>
 4    1  0.2581031E-004  0.6667906E+03  0.7818608E-02  0.9775773E-01
         -2   -1    0    0    0  501 -0.00000000000E+00  0.00000000000E+00  0.49692597776E+02  0.49692597842E+02  0.25500000000E-02 0. -1.
          2   -1    0    0  501    0  0.00000000000E+00 -0.00000000000E+00 -0.22368007597E+04  0.22368007597E+04  0.25500000000E-02 0.  1.
    5000001    1    1    2    0    0  0.27087665700E+03  0.94010748651E+02 -0.14816832728E+04  0.15145053665E+04  0.12700000000E+03 0.  0.
   -5000001    1    1    2    0    0 -0.27087665700E+03 -0.94010748651E+02 -0.70542488914E+03  0.77198799109E+03  0.12700000000E+03 0.  0.
<mgrwt>
<rscale>  0 0.66679064E+03</rscale>
<asrwt>0</asrwt>
<pdfrwt beam="1">  1        2 0.31954290E+00 0.66679064E+03</pdfrwt>
<pdfrwt beam="2">  1       -2 0.70989440E-02 0.66679064E+03</pdfrwt>
<totfact> 0.74300266E+02</totfact>
</mgrwt>
</event>
<event>
 4    1  0.2581031E-004  0.3802315E+03  0.7818608E-02  0.1050848E+00
          2   -1    0    0  501    0  0.00000000000E+00  0.00000000000E+00  0.35335283770E+03  0.35335283771E+03  0.25500000000E-02 0.  1.
         -2   -1    0    0    0  501 -0.00000000000E+00 -0.00000000000E+00 -0.10228869016E+03  0.10228869020E+03  0.25500000000E-02 0. -1.
    5000001    1    1    2    0    0 -0.83130707058E+02 -0.97402705137E+02  0.19760120865E+03  0.26753175342E+03  0.12700000000E+03 0.  0.
   -5000001    1    1    2    0    0  0.83130707058E+02  0.97402705137E+02  0.53462938879E+02  0.18810977449E+03  0.12700000000E+03 0.  0.
<mgrwt>
<rscale>  0 0.38023150E+03</rscale>
<asrwt>0</asrwt>
<pdfrwt beam="1">  1        2 0.50478977E-01 0.38023150E+03</pdfrwt>
<pdfrwt beam="2">  1       -2 0.14612670E-01 0.38023150E+03</pdfrwt>
<totfact> 0.35671903E+03</totfact>
</mgrwt>
</event>
<event>
 4    1  0.2581031E-004  0.2755125E+03  0.7818608E-02  0.1098165E+00
          2   -1    0    0  501    0  0.00000000000E+00  0.00000000000E+00  0.21033312958E+04  0.21033312958E+04  0.25500000000E-02 0.  1.
         -2   -1    0    0    0  501 -0.00000000000E+00 -0.00000000000E+00 -0.90222546356E+01  0.90222549959E+01  0.25500000000E-02 0. -1.
    5000001    1    1    2    0    0  0.40207881443E+01 -0.49582959212E+02  0.11952594360E+04  0.12030165235E+04  0.12700000000E+03 0.  0.
   -5000001    1    1    2    0    0 -0.40207881443E+01  0.49582959212E+02  0.89904960520E+03  0.90933702728E+03  0.12700000000E+03 0.  0.
<mgrwt>
<rscale>  0 0.27551255E+03</rscale>
<asrwt>0</asrwt>
<pdfrwt beam="1">  1        2 0.30047602E+00 0.27551255E+03</pdfrwt>
<pdfrwt beam="2">  1       -2 0.12888930E-02 0.27551255E+03</pdfrwt>
<totfact> 0.11584505E+04</totfact>
</mgrwt>
</event>
<event>
 4    1  0.2581031E-004  0.3526714E+03  0.7818608E-02  0.1061524E+00
         -2   -1    0    0    0  501 -0.00000000000E+00  0.00000000000E+00  0.51366991640E+03  0.51366991640E+03  0.25500000000E-02 0. -1.
          2   -1    0    0  501    0  0.00000000000E+00 -0.00000000000E+00 -0.60533572972E+02  0.60533573025E+02  0.25500000000E-02 0.  1.
    5000001    1    1    2    0    0  0.31526385828E+02  0.87941752836E+02  0.35515744360E+03  0.38857878820E+03  0.12700000000E+03 0.  0.
   -5000001    1    1    2    0    0 -0.31526385828E+02 -0.87941752836E+02  0.97978899828E+02  0.18562470123E+03  0.12700000000E+03 0.  0.
<mgrwt>
<rscale>  0 0.35267138E+03</rscale>
<asrwt>0</asrwt>
<pdfrwt beam="1">  1        2 0.86476532E-02 0.35267138E+03</pdfrwt>
<pdfrwt beam="2">  1       -2 0.73381417E-01 0.35267138E+03</pdfrwt>
<totfact> 0.13340407E+03</totfact>
</mgrwt>
</event>
<event>
 4    1  0.2581031E-004  0.6525972E+03  0.7818608E-02  0.9801918E-01
          2   -1    0    0  501    0  0.00000000000E+00  0.00000000000E+00  0.52493729405E+03  0.52493729406E+03  0.25500000000E-02 0.  1.
         -2   -1    0    0    0  501 -0.00000000000E+00 -0.00000000000E+00 -0.20282573251E+03  0.20282573252E+03  0.25500000000E-02 0. -1.
    5000001    1    1    2    0    0  0.17383952566E+03  0.12182786246E+03  0.39835480811E+03  0.46891125162E+03  0.12700000000E+03 0.  0.
   -5000001    1    1    2    0    0 -0.17383952566E+03 -0.12182786246E+03 -0.76243246565E+02  0.25885177496E+03  0.12700000000E+03 0.  0.
<mgrwt>
<rscale>  0 0.65259725E+03</rscale>
<asrwt>0</asrwt>
<pdfrwt beam="1">  1        2 0.74991042E-01 0.65259725E+03</pdfrwt>
<pdfrwt beam="2">  1       -2 0.28975105E-01 0.65259725E+03</pdfrwt>
<totfact> 0.69703436E+02</totfact>
</mgrwt>
</event>
<event>
 4    1  0.2581031E-004  0.3702928E+03  0.7818608E-02  0.1054581E+00
          2   -1    0    0  501    0  0.00000000000E+00  0.00000000000E+00  0.37919901325E+03  0.37919901326E+03  0.25500000000E-02 0.  1.
         -2   -1    0    0    0  501 -0.00000000000E+00 -0.00000000000E+00 -0.90398919625E+02  0.90398919661E+02  0.25500000000E-02 0. -1.
    5000001    1    1    2    0    0 -0.45928047057E+02 -0.11577591235E+03  0.79280090553E+02  0.19475055878E+03  0.12700000000E+03 0.  0.
   -5000001    1    1    2    0    0  0.45928047057E+02  0.11577591235E+03  0.20952000308E+03  0.27484737415E+03  0.12700000000E+03 0.  0.
<mgrwt>
<rscale>  0 0.37029276E+03</rscale>
<asrwt>0</asrwt>
<pdfrwt beam="1">  1        2 0.54171288E-01 0.37029276E+03</pdfrwt>
<pdfrwt beam="2">  1       -2 0.12914131E-01 0.37029276E+03</pdfrwt>
<totfact> 0.40475264E+03</totfact>
</mgrwt>
</event>
<event>
 4    1  0.2581031E-004  0.4757488E+03  0.7818608E-02  0.1020310E+00
          2   -1    0    0  501    0  0.00000000000E+00  0.00000000000E+00  0.92126320098E+03  0.92126320098E+03  0.25500000000E-02 0.  1.
         -2   -1    0    0    0  501 -0.00000000000E+00 -0.00000000000E+00 -0.61420277610E+02  0.61420277663E+02  0.25500000000E-02 0. -1.
    5000001    1    1    2    0    0 -0.37656067419E+02 -0.17501853729E+03  0.24054554063E+03  0.32563879518E+03  0.12700000000E+03 0.  0.
   -5000001    1    1    2    0    0  0.37656067419E+02  0.17501853729E+03  0.61929738274E+03  0.65704468347E+03  0.12700000000E+03 0.  0.
<mgrwt>
<rscale>  0 0.47574885E+03</rscale>
<asrwt>0</asrwt>
<pdfrwt beam="1">  1        2 0.13160903E+00 0.47574885E+03</pdfrwt>
<pdfrwt beam="2">  1       -2 0.87743254E-02 0.47574885E+03</pdfrwt>
<totfact> 0.26690942E+03</totfact>
</mgrwt>
</event>
<event>
 4    1  0.2581031E-004  0.5992183E+03  0.7818608E-02  0.9907029E-01
         -2   -1    0    0    0  501 -0.00000000000E+00  0.00000000000E+00  0.49860370058E+02  0.49860370123E+02  0.25500000000E-02 0. -1.
          2   -1    0    0  501    0  0.00000000000E+00 -0.00000000000E+00 -0.18003405905E+04  0.18003405905E+04  0.25500000000E-02 0.  1.
    5000001    1    1    2    0    0 -0.36034103275E+02 -0.26431158075E+03 -0.10289308314E+04  0.10705076945E+04  0.12700000000E+03 0.  0.
   -5000001    1    1    2    0    0  0.36034103275E+02  0.26431158075E+03 -0.72154938912E+03  0.77969326614E+03  0.12700000000E+03 0.  0.
<mgrwt>
<rscale>  0 0.59921832E+03</rscale>
<asrwt>0</asrwt>
<pdfrwt beam="1">  1        2 0.25719147E+00 0.59921832E+03</pdfrwt>
<pdfrwt beam="2">  1       -2 0.71229112E-02 0.59921832E+03</pdfrwt>
<totfact> 0.12310823E+03</totfact>
</mgrwt>
</event>
<event>
 4    1  0.2581031E-004  0.3753110E+03  0.7818608E-02  0.1052681E+00
          2   -1    0    0  501    0  0.00000000000E+00  0.00000000000E+00  0.35296670070E+03  0.35296670071E+03  0.25500000000E-02 0.  1.
         -2   -1    0    0    0  501 -0.00000000000E+00 -0.00000000000E+00 -0.99767454834E+02  0.99767454867E+02  0.25500000000E-02 0. -1.
    5000001    1    1    2    0    0 -0.10373978452E+03 -0.89657541216E+02  0.14697028909E+03  0.23775971792E+03  0.12700000000E+03 0.  0.
   -5000001    1    1    2    0    0  0.10373978452E+03  0.89657541216E+02  0.10622895677E+03  0.21497443766E+03  0.12700000000E+03 0.  0.
<mgrwt>
<rscale>  0 0.37531101E+03</rscale>
<asrwt>0</asrwt>
<pdfrwt beam="1">  1        2 0.50423815E-01 0.37531101E+03</pdfrwt>
<pdfrwt beam="2">  1       -2 0.14252493E-01 0.37531101E+03</pdfrwt>
<totfact> 0.37213494E+03</totfact>
</mgrwt>
</event>
<event>
 4    1  0.2581031E-004  0.3618366E+03  0.7818608E-02  0.1057859E+00
         -2   -1    0    0    0  501 -0.00000000000E+00  0.00000000000E+00  0.57043020798E+02  0.57043020855E+02  0.25500000000E-02 0. -1.
          2   -1    0    0  501    0  0.00000000000E+00 -0.00000000000E+00 -0.57380252113E+03  0.57380252113E+03  0.25500000000E-02 0.  1.
    5000001    1    1    2    0    0  0.45704959377E+02 -0.11984753807E+03 -0.27973642251E+03  0.33291716954E+03  0.12700000000E+03 0.  0.
   -5000001    1    1    2    0    0 -0.45704959377E+02  0.11984753807E+03 -0.23702307782E+03  0.29792837245E+03  0.12700000000E+03 0.  0.
<mgrwt>
<rscale>  0 0.36183659E+03</rscale>
<asrwt>0</asrwt>
<pdfrwt beam="1">  1        2 0.81971785E-01 0.36183659E+03</pdfrwt>
<pdfrwt beam="2">  1       -2 0.81490033E-02 0.36183659E+03</pdfrwt>
<totfact> 0.53464147E+03</totfact>
</mgrwt>
</event>
<event>
 4    1  0.2581031E-004  0.1611064E+04  0.7818608E-02  0.8813780E-01
          2   -1    0    0  501    0  0.00000000000E+00  0.00000000000E+00  0.17179842630E+04  0.17179842630E+04  0.25500000000E-02 0.  1.
         -2   -1    0    0    0  501 -0.00000000000E+00 -0.00000000000E+00 -0.37769929547E+03  0.37769929548E+03  0.25500000000E-02 0. -1.
    5000001    1    1    2    0    0  0.17542539855E+03  0.74234427483E+03  0.96362769870E+03  0.12355389247E+04  0.12700000000E+03 0.  0.
   -5000001    1    1    2    0    0 -0.17542539855E+03 -0.74234427483E+03  0.37665726885E+03  0.86014463377E+03  0.12700000000E+03 0.  0.
<mgrwt>
<rscale>  0 0.16110636E+04</rscale>
<asrwt>0</asrwt>
<pdfrwt beam="1">  1        2 0.24542632E+00 0.16110636E+04</pdfrwt>
<pdfrwt beam="2">  1       -2 0.53957042E-01 0.16110636E+04</pdfrwt>
<totfact> 0.34860644E+01</totfact>
</mgrwt>
</event>
<event>
 4    1  0.2581031E-004  0.5272164E+03  0.7818608E-02  0.1006909E+00
          2   -1    0    0  501    0  0.00000000000E+00  0.00000000000E+00  0.68340786316E+02  0.68340786363E+02  0.25500000000E-02 0.  1.
         -2   -1    0    0    0  501 -0.00000000000E+00 -0.00000000000E+00 -0.10168056044E+04  0.10168056044E+04  0.25500000000E-02 0. -1.
    5000001    1    1    2    0    0  0.19991608398E+03 -0.11011572265E+03 -0.40092897128E+03  0.47850282447E+03  0.12700000000E+03 0.  0.
   -5000001    1    1    2    0    0 -0.19991608398E+03  0.11011572265E+03 -0.54753584685E+03  0.60664356635E+03  0.12700000000E+03 0.  0.
<mgrwt>
<rscale>  0 0.52721644E+03</rscale>
<asrwt>0</asrwt>
<pdfrwt beam="1">  1        2 0.97629701E-02 0.52721644E+03</pdfrwt>
<pdfrwt beam="2">  1       -2 0.14525793E+00 0.52721644E+03</pdfrwt>
<totfact> 0.22715489E+02</totfact>
</mgrwt>
</event>
<event>
 4    1  0.2581031E-004  0.3577110E+03  0.7818608E-02  0.1059494E+00
          2   -1    0    0  501    0  0.00000000000E+00  0.00000000000E+00  0.48967014570E+03  0.48967014570E+03  0.25500000000E-02 0.  1.
         -2   -1    0    0    0  501 -0.00000000000E+00 -0.00000000000E+00 -0.65328234135E+02  0.65328234185E+02  0.25500000000E-02 0. -1.
    5000001    1    1    2    0    0 -0.66116727085E+02  0.10274770608E+03  0.16481064290E+03  0.24128833523E+03  0.12700000000E+03 0.  0.
   -5000001    1    1    2    0    0  0.66116727085E+02 -0.10274770608E+03  0.25953126866E+03  0.31371004466E+03  0.12700000000E+03 0.  0.
<mgrwt>
<rscale>  0 0.35771098E+03</rscale>
<asrwt>0</asrwt>
<pdfrwt beam="1">  1        2 0.69952880E-01 0.35771098E+03</pdfrwt>
<pdfrwt beam="2">  1       -2 0.93326046E-02 0.35771098E+03</pdfrwt>
<totfact> 0.51566700E+03</totfact>
</mgrwt>
</event>
<event>
 4    1  0.2581031E-004  0.3818658E+03  0.7818608E-02  0.1050246E+00
         -2   -1    0    0    0  501 -0.00000000000E+00  0.00000000000E+00  0.18429584576E+02  0.18429584752E+02  0.25500000000E-02 0. -1.
          2   -1    0    0  501    0  0.00000000000E+00 -0.00000000000E+00 -0.19780900905E+04  0.19780900905E+04  0.25500000000E-02 0.  1.
    5000001    1    1    2    0    0 -0.45996518482E+02  0.12101079325E+03 -0.66756788968E+03  0.69176237186E+03  0.12700000000E+03 0.  0.
   -5000001    1    1    2    0    0  0.45996518482E+02 -0.12101079325E+03 -0.12920926163E+04  0.13047573034E+04  0.12700000000E+03 0.  0.
<mgrwt>
<rscale>  0 0.38186583E+03</rscale>
<asrwt>0</asrwt>
<pdfrwt beam="1">  1        2 0.28258416E+00 0.38186583E+03</pdfrwt>
<pdfrwt beam="2">  1       -2 0.26327991E-02 0.38186583E+03</pdfrwt>
<totfact> 0.46578004E+03</totfact>
</mgrwt>
</event>
<event>
 4    1  0.2581031E-004  0.4311010E+03  0.7818608E-02  0.1033513E+00
          2   -1    0    0  501    0  0.00000000000E+00  0.00000000000E+00  0.48263436867E+03  0.48263436868E+03  0.25500000000E-02 0.  1.
         -2   -1    0    0    0  501 -0.00000000000E+00 -0.00000000000E+00 -0.96267535552E+02  0.96267535586E+02  0.25500000000E-02 0. -1.
    5000001    1    1    2    0    0  0.28427345771E+02  0.14970134367E+03  0.30644836445E+03  0.36504548533E+03  0.12700000000E+03 0.  0.
   -5000001    1    1    2    0    0 -0.28427345771E+02 -0.14970134367E+03  0.79918468670E+02  0.21385641894E+03  0.12700000000E+03 0.  0.
<mgrwt>
<rscale>  0 0.43110101E+03</rscale>
<asrwt>0</asrwt>
<pdfrwt beam="1">  1        2 0.68947767E-01 0.43110101E+03</pdfrwt>
<pdfrwt beam="2">  1       -2 0.13752505E-01 0.43110101E+03</pdfrwt>
<totfact> 0.28041849E+03</totfact>
</mgrwt>
</event>
<event>
 4    1  0.2581031E-004  0.3736852E+03  0.7818608E-02  0.1053293E+00
         -2   -1    0    0    0  501 -0.00000000000E+00  0.00000000000E+00  0.10370977885E+03  0.10370977888E+03  0.25500000000E-02 0. -1.
          2   -1    0    0  501    0  0.00000000000E+00 -0.00000000000E+00 -0.33661397835E+03  0.33661397836E+03  0.25500000000E-02 0.  1.
    5000001    1    1    2    0    0 -0.13123604679E+03  0.13266598168E+02 -0.72643350493E+02  0.19698974332E+03  0.12700000000E+03 0.  0.
   -5000001    1    1    2    0    0  0.13123604679E+03 -0.13266598168E+02 -0.16026084901E+03  0.24333401392E+03  0.12700000000E+03 0.  0.
<mgrwt>
<rscale>  0 0.37368522E+03</rscale>
<asrwt>0</asrwt>
<pdfrwt beam="1">  1        2 0.48087710E-01 0.37368522E+03</pdfrwt>
<pdfrwt beam="2">  1       -2 0.14815683E-01 0.37368522E+03</pdfrwt>
<totfact> 0.36741029E+03</totfact>
</mgrwt>
</event>
<event>
 4    1  0.2581031E-004  0.3406127E+03  0.7818608E-02  0.1066535E+00
          2   -1    0    0  501    0  0.00000000000E+00  0.00000000000E+00  0.67749493070E+03  0.67749493071E+03  0.25500000000E-02 0.  1.
         -2   -1    0    0    0  501 -0.00000000000E+00 -0.00000000000E+00 -0.42811020117E+02  0.42811020193E+02  0.25500000000E-02 0. -1.
    5000001    1    1    2    0    0 -0.38675204586E+02  0.59324840281E+02  0.12985606055E+03  0.19495333951E+03  0.12700000000E+03 0.  0.
   -5000001    1    1    2    0    0  0.38675204586E+02 -0.59324840281E+02  0.50482785003E+03  0.52535261139E+03  0.12700000000E+03 0.  0.
<mgrwt>
<rscale>  0 0.34061268E+03</rscale>
<asrwt>0</asrwt>
<pdfrwt beam="1">  1        2 0.96784992E-01 0.34061268E+03</pdfrwt>
<pdfrwt beam="2">  1       -2 0.61158599E-02 0.34061268E+03</pdfrwt>
<totfact> 0.68848381E+03</totfact>
</mgrwt>
</event>
<event>
 4    1  0.2581031E-004  0.3569707E+03  0.7818608E-02  0.1059790E+00
         -2   -1    0    0    0  501 -0.00000000000E+00  0.00000000000E+00  0.27641658157E+02  0.27641658275E+02  0.25500000000E-02 0. -1.
          2   -1    0    0  501    0  0.00000000000E+00 -0.00000000000E+00 -0.11525005688E+04  0.11525005688E+04  0.25500000000E-02 0.  1.
    5000001    1    1    2    0    0 -0.10656003914E+03 -0.49935210242E+02 -0.70575323017E+03  0.72668094034E+03  0.12700000000E+03 0.  0.
   -5000001    1    1    2    0    0  0.10656003914E+03  0.49935210242E+02 -0.41910568049E+03  0.45346128675E+03  0.12700000000E+03 0.  0.
<mgrwt>
<rscale>  0 0.35697074E+03</rscale>
<asrwt>0</asrwt>
<pdfrwt beam="1">  1        2 0.16464291E+00 0.35697074E+03</pdfrwt>
<pdfrwt beam="2">  1       -2 0.39488090E-02 0.35697074E+03</pdfrwt>
<totfact> 0.67048743E+03</totfact>
</mgrwt>
</event>
<event>
 4    1  0.2581031E-004  0.4952175E+03  0.7818608E-02  0.1015035E+00
          2   -1    0    0  501    0  0.00000000000E+00  0.00000000000E+00  0.25162905084E+04  0.25162905084E+04  0.25500000000E-02 0.  1.
         -2   -1    0    0    0  501 -0.00000000000E+00 -0.00000000000E+00 -0.24365264775E+02  0.24365264908E+02  0.25500000000E-02 0. -1.
    5000001    1    1    2    0    0 -0.83555371639E+02 -0.48170209228E+02  0.22177501995E+04  0.22234762910E+04  0.12700000000E+03 0.  0.
   -5000001    1    1    2    0    0  0.83555371639E+02  0.48170209228E+02  0.27417504412E+03  0.31717948232E+03  0.12700000000E+03 0.  0.
<mgrwt>
<rscale>  0 0.49521747E+03</rscale>
<asrwt>0</asrwt>
<pdfrwt beam="1">  1        2 0.35946986E+00 0.49521747E+03</pdfrwt>
<pdfrwt beam="2">  1       -2 0.34807542E-02 0.49521747E+03</pdfrwt>
<totfact> 0.16367822E+03</totfact>
</mgrwt>
</event>
<event>
 4    1  0.2581031E-004  0.6075045E+03  0.7818608E-02  0.9889958E-01
          2   -1    0    0  501    0  0.00000000000E+00  0.00000000000E+00  0.14844236709E+04  0.14844236709E+04  0.25500000000E-02 0.  1.
         -2   -1    0    0    0  501 -0.00000000000E+00 -0.00000000000E+00 -0.62155723686E+02  0.62155723738E+02  0.25500000000E-02 0. -1.
    5000001    1    1    2    0    0  0.18916759411E+03  0.19737545695E+03  0.80621774250E+03  0.86073079299E+03  0.12700000000E+03 0.  0.
   -5000001    1    1    2    0    0 -0.18916759411E+03 -0.19737545695E+03  0.61605020474E+03  0.68584860168E+03  0.12700000000E+03 0.  0.
<mgrwt>
<rscale>  0 0.60750449E+03</rscale>
<asrwt>0</asrwt>
<pdfrwt beam="1">  1        2 0.21206051E+00 0.60750449E+03</pdfrwt>
<pdfrwt beam="2">  1       -2 0.88793896E-02 0.60750449E+03</pdfrwt>
<totfact> 0.12573273E+03</totfact>
</mgrwt>
</event>
<event>
 4    1  0.2581031E-004  0.3165210E+03  0.7818608E-02  0.1077262E+00
          2   -1    0    0  501    0  0.00000000000E+00  0.00000000000E+00  0.45333920184E+04  0.45333920184E+04  0.25500000000E-02 0.  1.
         -2   -1    0    0    0  501 -0.00000000000E+00 -0.00000000000E+00 -0.55248674255E+01  0.55248680140E+01  0.25500000000E-02 0. -1.
    5000001    1    1    2    0    0 -0.28206549443E+02  0.67185089466E+02  0.31252835434E+04  0.31287115035E+04  0.12700000000E+03 0.  0.
   -5000001    1    1    2    0    0  0.28206549443E+02 -0.67185089466E+02  0.14025836076E+04  0.14102053829E+04  0.12700000000E+03 0.  0.
<mgrwt>
<rscale>  0 0.31652103E+03</rscale>
<asrwt>0</asrwt>
<pdfrwt beam="1">  1        2 0.64763059E+00 0.31652103E+03</pdfrwt>
<pdfrwt beam="2">  1       -2 0.78926296E-03 0.31652103E+03</pdfrwt>
<totfact> 0.90684291E+02</totfact>
</mgrwt>
</event>
<event>
 4    1  0.2581031E-004  0.4138619E+03  0.7818608E-02  0.1039083E+00
          2   -1    0    0  501    0  0.00000000000E+00  0.00000000000E+00  0.14954406858E+04  0.14954406858E+04  0.25500000000E-02 0.  1.
         -2   -1    0    0    0  501 -0.00000000000E+00 -0.00000000000E+00 -0.28633978206E+02  0.28633978319E+02  0.25500000000E-02 0. -1.
    5000001    1    1    2    0    0  0.12621105166E+03 -0.81956205530E+02  0.49918023203E+03  0.53661527488E+03  0.12700000000E+03 0.  0.
   -5000001    1    1    2    0    0 -0.12621105166E+03  0.81956205530E+02  0.96762647559E+03  0.98745938926E+03  0.12700000000E+03 0.  0.
<mgrwt>
<rscale>  0 0.41386189E+03</rscale>
<asrwt>0</asrwt>
<pdfrwt beam="1">  1        2 0.21363439E+00 0.41386189E+03</pdfrwt>
<pdfrwt beam="2">  1       -2 0.40905682E-02 0.41386189E+03</pdfrwt>
<totfact> 0.41785975E+03</totfact>
</mgrwt>
</event>
<event>
 4    1  0.2581031E-004  0.5343308E+03  0.7818608E-02  0.1005187E+00
          2   -1    0    0  501    0  0.00000000000E+00  0.00000000000E+00  0.16940233748E+03  0.16940233750E+03  0.25500000000E-02 0.  1.
         -2   -1    0    0    0  501 -0.00000000000E+00 -0.00000000000E+00 -0.42134810999E+03  0.42134811000E+03  0.25500000000E-02 0. -1.
    5000001    1    1    2    0    0  0.43088789450E+02  0.17540534237E+03  0.40324349914E+02  0.22445206861E+03  0.12700000000E+03 0.  0.
   -5000001    1    1    2    0    0 -0.43088789450E+02 -0.17540534237E+03 -0.29227012243E+03  0.36629837889E+03  0.12700000000E+03 0.  0.
<mgrwt>
<rscale>  0 0.53433081E+03</rscale>
<asrwt>0</asrwt>
<pdfrwt beam="1">  1        2 0.24200334E-01 0.53433081E+03</pdfrwt>
<pdfrwt beam="2">  1       -2 0.60192587E-01 0.53433081E+03</pdfrwt>
<totfact> 0.58952897E+02</totfact>
</mgrwt>
</event>
<event>
 4    1  0.2581031E-004  0.2749240E+03  0.7818608E-02  0.1098494E+00
         -2   -1    0    0    0  501 -0.00000000000E+00  0.00000000000E+00  0.16618556333E+02  0.16618556529E+02  0.25500000000E-02 0. -1.
          2   -1    0    0  501    0  0.00000000000E+00 -0.00000000000E+00 -0.11370305085E+04  0.11370305085E+04  0.25500000000E-02 0.  1.
    5000001    1    1    2    0    0 -0.51315153985E+02 -0.11474598146E+02 -0.55443062238E+03  0.57121556917E+03  0.12700000000E+03 0.  0.
   -5000001    1    1    2    0    0  0.51315153985E+02  0.11474598146E+02 -0.56598132976E+03  0.58243349583E+03  0.12700000000E+03 0.  0.
<mgrwt>
<rscale>  0 0.27492403E+03</rscale>
<asrwt>0</asrwt>
<pdfrwt beam="1">  1        2 0.16243288E+00 0.27492403E+03</pdfrwt>
<pdfrwt beam="2">  1       -2 0.23740802E-02 0.27492403E+03</pdfrwt>
<totfact> 0.14536362E+04</totfact>
</mgrwt>
</event>
<event>
 4    1  0.2581031E-004  0.4625797E+03  0.7818608E-02  0.1024036E+00
          2   -1    0    0  501    0  0.00000000000E+00  0.00000000000E+00  0.57227431233E+03  0.57227431233E+03  0.25500000000E-02 0.  1.
         -2   -1    0    0    0  501 -0.00000000000E+00 -0.00000000000E+00 -0.93477898177E+02  0.93477898212E+02  0.25500000000E-02 0. -1.
    5000001    1    1    2    0    0  0.83975067083E+02 -0.17403496550E+03  0.24673945121E+03  0.33815578939E+03  0.12700000000E+03 0.  0.
   -5000001    1    1    2    0    0 -0.83975067083E+02  0.17403496550E+03  0.23205696293E+03  0.32759642116E+03  0.12700000000E+03 0.  0.
<mgrwt>
<rscale>  0 0.46257972E+03</rscale>
<asrwt>0</asrwt>
<pdfrwt beam="1">  1        2 0.81753473E-01 0.46257972E+03</pdfrwt>
<pdfrwt beam="2">  1       -2 0.13353985E-01 0.46257972E+03</pdfrwt>
<totfact> 0.24278213E+03</totfact>
</mgrwt>
</event>
<event>
 4    1  0.2581031E-004  0.5721411E+03  0.7818608E-02  0.9964952E-01
          2   -1    0    0  501    0  0.00000000000E+00  0.00000000000E+00  0.63127540763E+03  0.63127540763E+03  0.25500000000E-02 0.  1.
         -2   -1    0    0    0  501 -0.00000000000E+00 -0.00000000000E+00 -0.12963654091E+03  0.12963654093E+03  0.25500000000E-02 0. -1.
    5000001    1    1    2    0    0  0.12265546489E+03 -0.72876056418E+02  0.53404330083E+03  0.56717416181E+03  0.12700000000E+03 0.  0.
   -5000001    1    1    2    0    0 -0.12265546489E+03  0.72876056418E+02 -0.32404434109E+02  0.19373778676E+03  0.12700000000E+03 0.  0.
<mgrwt>
<rscale>  0 0.57214110E+03</rscale>
<asrwt>0</asrwt>
<pdfrwt beam="1">  1        2 0.90182203E-01 0.57214110E+03</pdfrwt>
<pdfrwt beam="2">  1       -2 0.18519506E-01 0.57214110E+03</pdfrwt>
<totfact> 0.12471352E+03</totfact>
</mgrwt>
</event>
<event>
 4    1  0.2581031E-004  0.2957193E+03  0.7818608E-02  0.1087400E+00
          2   -1    0    0  501    0  0.00000000000E+00  0.00000000000E+00  0.36747194246E+04  0.36747194246E+04  0.25500000000E-02 0.  1.
         -2   -1    0    0    0  501 -0.00000000000E+00 -0.00000000000E+00 -0.59494265209E+01  0.59494270674E+01  0.25500000000E-02 0. -1.
    5000001    1    1    2    0    0 -0.47653814192E+02 -0.51536546907E+02  0.21878682251E+04  0.21926749126E+04  0.12700000000E+03 0.  0.
   -5000001    1    1    2    0    0  0.47653814192E+02  0.51536546907E+02  0.14809017730E+04  0.14879939391E+04  0.12700000000E+03 0.  0.
<mgrwt>
<rscale>  0 0.29571929E+03</rscale>
<asrwt>0</asrwt>
<pdfrwt beam="1">  1        2 0.52496029E+00 0.29571929E+03</pdfrwt>
<pdfrwt beam="2">  1       -2 0.84991751E-03 0.29571929E+03</pdfrwt>
<totfact> 0.31186154E+03</totfact>
</mgrwt>
</event>
<event>
 4    1  0.2581031E-004  0.3267408E+03  0.7818608E-02  0.1072588E+00
          2   -1    0    0  501    0  0.00000000000E+00  0.00000000000E+00  0.15546576733E+04  0.15546576733E+04  0.25500000000E-02 0. -1.
         -2   -1    0    0    0  501 -0.00000000000E+00 -0.00000000000E+00 -0.17167698585E+02  0.17167698775E+02  0.25500000000E-02 0.  1.
    5000001    1    1    2    0    0  0.27669538338E+02 -0.92625237057E+02  0.93648707674E+03  0.94999056985E+03  0.12700000000E+03 0.  0.
   -5000001    1    1    2    0    0 -0.27669538338E+02  0.92625237057E+02  0.60100289793E+03  0.62183480219E+03  0.12700000000E+03 0.  0.
<mgrwt>
<rscale>  0 0.32674084E+03</rscale>
<asrwt>0</asrwt>
<pdfrwt beam="1">  1        2 0.22209377E+00 0.32674084E+03</pdfrwt>
<pdfrwt beam="2">  1       -2 0.24525304E-02 0.32674084E+03</pdfrwt>
<totfact> 0.83978847E+03</totfact>
</mgrwt>
</event>
<event>
 4    1  0.2581031E-004  0.4925888E+03  0.7818608E-02  0.1015732E+00
          2   -1    0    0  501    0  0.00000000000E+00  0.00000000000E+00  0.52485403317E+03  0.52485403318E+03  0.25500000000E-02 0.  1.
         -2   -1    0    0    0  501 -0.00000000000E+00 -0.00000000000E+00 -0.11557676928E+03  0.11557676931E+03  0.25500000000E-02 0. -1.
    5000001    1    1    2    0    0  0.14199081415E+03 -0.14840561800E+03  0.26761546350E+03  0.36046172483E+03  0.12700000000E+03 0.  0.
   -5000001    1    1    2    0    0 -0.14199081415E+03  0.14840561800E+03  0.14166180039E+03  0.27996907766E+03  0.12700000000E+03 0.  0.
<mgrwt>
<rscale>  0 0.49258881E+03</rscale>
<asrwt>0</asrwt>
<pdfrwt beam="1">  1        2 0.74979148E-01 0.49258881E+03</pdfrwt>
<pdfrwt beam="2">  1       -2 0.16510967E-01 0.49258881E+03</pdfrwt>
<totfact> 0.18805279E+03</totfact>
</mgrwt>
</event>
<event>
 4    1  0.2581031E-004  0.4133256E+03  0.7818608E-02  0.1039261E+00
         -2   -1    0    0    0  501 -0.00000000000E+00  0.00000000000E+00  0.91387243854E+02  0.91387243890E+02  0.25500000000E-02 0. -1.
          2   -1    0    0  501    0  0.00000000000E+00 -0.00000000000E+00 -0.46734656387E+03  0.46734656388E+03  0.25500000000E-02 0.  1.
    5000001    1    1    2    0    0  0.56022679440E+02  0.13468098671E+03 -0.28642013064E+03  0.34560526621E+03  0.12700000000E+03 0.  0.
   -5000001    1    1    2    0    0 -0.56022679440E+02 -0.13468098671E+03 -0.89539189374E+02  0.21312854156E+03  0.12700000000E+03 0.  0.
<mgrwt>
<rscale>  0 0.41332561E+03</rscale>
<asrwt>0</asrwt>
<pdfrwt beam="1">  1        2 0.66763793E-01 0.41332561E+03</pdfrwt>
<pdfrwt beam="2">  1       -2 0.13055321E-01 0.41332561E+03</pdfrwt>
<totfact> 0.31656171E+03</totfact>
</mgrwt>
</event>
<event>
 4    1  0.2581031E-004  0.2909778E+03  0.7818608E-02  0.1089840E+00
          2   -1    0    0  501    0  0.00000000000E+00  0.00000000000E+00  0.11881213465E+04  0.11881213465E+04  0.25500000000E-02 0.  1.
         -2   -1    0    0    0  501 -0.00000000000E+00 -0.00000000000E+00 -0.17815542326E+02  0.17815542508E+02  0.25500000000E-02 0. -1.
    5000001    1    1    2    0    0 -0.35103216914E+02  0.36201309358E+02  0.79217761011E+03  0.80387631922E+03  0.12700000000E+03 0.  0.
   -5000001    1    1    2    0    0  0.35103216914E+02 -0.36201309358E+02  0.37812819405E+03  0.40206056978E+03  0.12700000000E+03 0.  0.
<mgrwt>
<rscale>  0 0.29097784E+03</rscale>
<asrwt>0</asrwt>
<pdfrwt beam="1">  1        2 0.16973169E+00 0.29097784E+03</pdfrwt>
<pdfrwt beam="2">  1       -2 0.25450764E-02 0.29097784E+03</pdfrwt>
<totfact> 0.12314733E+04</totfact>
</mgrwt>
</event>
<event>
 4    1  0.2581031E-004  0.6173536E+03  0.7818608E-02  0.9870043E-01
          2   -1    0    0  501    0  0.00000000000E+00  0.00000000000E+00  0.87586767876E+03  0.87586767877E+03  0.25500000000E-02 0.  1.
         -2   -1    0    0    0  501 -0.00000000000E+00 -0.00000000000E+00 -0.10878512067E+03  0.10878512070E+03  0.25500000000E-02 0. -1.
    5000001    1    1    2    0    0 -0.12966101262E+03  0.97145731734E+02  0.75039226018E+03  0.77811748183E+03  0.12700000000E+03 0.  0.
   -5000001    1    1    2    0    0  0.12966101262E+03 -0.97145731734E+02  0.16690297913E+02  0.20653531764E+03  0.12700000000E+03 0.  0.
<mgrwt>
<rscale>  0 0.61735361E+03</rscale>
<asrwt>0</asrwt>
<pdfrwt beam="1">  1        2 0.12512395E+00 0.61735361E+03</pdfrwt>
<pdfrwt beam="2">  1       -2 0.15540732E-01 0.61735361E+03</pdfrwt>
<totfact> 0.11165331E+03</totfact>
</mgrwt>
</event>
<event>
 4    1  0.2581031E-004  0.3533165E+03  0.7818608E-02  0.1061262E+00
         -2   -1    0    0    0  501 -0.00000000000E+00  0.00000000000E+00  0.41988746776E+02  0.41988746854E+02  0.25500000000E-02 0. -1.
          2   -1    0    0  501    0  0.00000000000E+00 -0.00000000000E+00 -0.74325012069E+03  0.74325012069E+03  0.25500000000E-02 0.  1.
    5000001    1    1    2    0    0  0.12214100745E+03  0.12633833739E+02 -0.35296342875E+03  0.39470270013E+03  0.12700000000E+03 0.  0.
   -5000001    1    1    2    0    0 -0.12214100745E+03 -0.12633833739E+02 -0.34829794516E+03  0.39053616742E+03  0.12700000000E+03 0.  0.
<mgrwt>
<rscale>  0 0.35331652E+03</rscale>
<asrwt>0</asrwt>
<pdfrwt beam="1">  1        2 0.10617858E+00 0.35331652E+03</pdfrwt>
<pdfrwt beam="2">  1       -2 0.59983929E-02 0.35331652E+03</pdfrwt>
<totfact> 0.63516887E+03</totfact>
</mgrwt>
</event>
<event>
 4    1  0.2581031E-004  0.1607391E+04  0.7818608E-02  0.8816021E-01
          2   -1    0    0  501    0  0.00000000000E+00  0.00000000000E+00  0.22346189759E+04  0.22346189760E+04  0.25500000000E-02 0.  1.
         -2   -1    0    0    0  501 -0.00000000000E+00 -0.00000000000E+00 -0.28905423865E+03  0.28905423866E+03  0.25500000000E-02 0. -1.
    5000001    1    1    2    0    0  0.72192461766E+03 -0.32639866494E+03  0.90107683070E+03  0.12065569596E+04  0.12700000000E+03 0.  0.
   -5000001    1    1    2    0    0 -0.72192461766E+03  0.32639866494E+03  0.10444879066E+04  0.13171162550E+04  0.12700000000E+03 0.  0.
<mgrwt>
<rscale>  0 0.16073905E+04</rscale>
<asrwt>0</asrwt>
<pdfrwt beam="1">  1        2 0.31923128E+00 0.16073905E+04</pdfrwt>
<pdfrwt beam="2">  1       -2 0.41293463E-01 0.16073905E+04</pdfrwt>
<totfact> 0.32382564E+01</totfact>
</mgrwt>
</event>
<event>
 4    1  0.2581031E-004  0.3085568E+03  0.7818608E-02  0.1081040E+00
         -2   -1    0    0    0  501 -0.00000000000E+00  0.00000000000E+00  0.38211230038E+03  0.38211230039E+03  0.25500000000E-02 0. -1.
          2   -1    0    0  501    0  0.00000000000E+00 -0.00000000000E+00 -0.62290139928E+02  0.62290139980E+02  0.25500000000E-02 0.  1.
    5000001    1    1    2    0    0  0.62048170953E+02 -0.21344071388E+02  0.76335166063E+02  0.16205431953E+03  0.12700000000E+03 0.  0.
   -5000001    1    1    2    0    0 -0.62048170953E+02  0.21344071388E+02  0.24348699439E+03  0.28234812084E+03  0.12700000000E+03 0.  0.
<mgrwt>
<rscale>  0 0.30855683E+03</rscale>
<asrwt>0</asrwt>
<pdfrwt beam="1">  1        2 0.88985910E-02 0.30855683E+03</pdfrwt>
<pdfrwt beam="2">  1       -2 0.54587474E-01 0.30855683E+03</pdfrwt>
<totfact> 0.23906214E+03</totfact>
</mgrwt>
</event>
<event>
 4    1  0.2581031E-004  0.6270163E+03  0.7818608E-02  0.9850889E-01
         -2   -1    0    0    0  501 -0.00000000000E+00  0.00000000000E+00  0.15739381594E+03  0.15739381596E+03  0.25500000000E-02 0. -1.
          2   -1    0    0  501    0  0.00000000000E+00 -0.00000000000E+00 -0.62446780000E+03  0.62446780001E+03  0.25500000000E-02 0.  1.
    5000001    1    1    2    0    0 -0.24292803427E+03  0.38703248636E+02 -0.50075945465E+02  0.28133355933E+03  0.12700000000E+03 0.  0.
   -5000001    1    1    2    0    0  0.24292803427E+03 -0.38703248636E+02 -0.41699803860E+03  0.50052805664E+03  0.12700000000E+03 0.  0.
<mgrwt>
<rscale>  0 0.62701633E+03</rscale>
<asrwt>0</asrwt>
<pdfrwt beam="1">  1        2 0.89209684E-01 0.62701633E+03</pdfrwt>
<pdfrwt beam="2">  1       -2 0.22484831E-01 0.62701633E+03</pdfrwt>
<totfact> 0.89959853E+02</totfact>
</mgrwt>
</event>
<event>
 4    1  0.2581031E-004  0.7905939E+03  0.7818608E-02  0.9573733E-01
          2   -1    0    0  501    0  0.00000000000E+00  0.00000000000E+00  0.43337527919E+03  0.43337527920E+03  0.25500000000E-02 0.  1.
         -2   -1    0    0    0  501 -0.00000000000E+00 -0.00000000000E+00 -0.36056438955E+03  0.36056438956E+03  0.25500000000E-02 0. -1.
    5000001    1    1    2    0    0 -0.31954708192E+03  0.19185635304E+03  0.71359283429E+02  0.40017539292E+03  0.12700000000E+03 0.  0.
   -5000001    1    1    2    0    0  0.31954708192E+03 -0.19185635304E+03  0.14516062141E+01  0.39376427584E+03  0.12700000000E+03 0.  0.
<mgrwt>
<rscale>  0 0.79059394E+03</rscale>
<asrwt>0</asrwt>
<pdfrwt beam="1">  1        2 0.61910754E-01 0.79059394E+03</pdfrwt>
<pdfrwt beam="2">  1       -2 0.51509199E-01 0.79059394E+03</pdfrwt>
<totfact> 0.28323017E+02</totfact>
</mgrwt>
</event>
<event>
 4    1  0.2581031E-004  0.3035511E+03  0.7818608E-02  0.1083479E+00
          2   -1    0    0  501    0  0.00000000000E+00  0.00000000000E+00  0.28925262189E+04  0.28925262189E+04  0.25500000000E-02 0.  1.
         -2   -1    0    0    0  501 -0.00000000000E+00 -0.00000000000E+00 -0.79639087760E+01  0.79639091842E+01  0.25500000000E-02 0. -1.
    5000001    1    1    2    0    0  0.50839018494E+02 -0.58501673650E+02  0.17288994349E+04  0.17352894017E+04  0.12700000000E+03 0.  0.
   -5000001    1    1    2    0    0 -0.50839018494E+02  0.58501673650E+02  0.11556628753E+04  0.11652007264E+04  0.12700000000E+03 0.  0.
<mgrwt>
<rscale>  0 0.30355109E+03</rscale>
<asrwt>0</asrwt>
<pdfrwt beam="1">  1        2 0.41321959E+00 0.30355109E+03</pdfrwt>
<pdfrwt beam="2">  1       -2 0.11376970E-02 0.30355109E+03</pdfrwt>
<totfact> 0.55837137E+03</totfact>
</mgrwt>
</event>
<event>
 4    1  0.2581031E-004  0.4131656E+03  0.7818608E-02  0.1039314E+00
          2   -1    0    0  501    0  0.00000000000E+00  0.00000000000E+00  0.88710716213E+02  0.88710716249E+02  0.25500000000E-02 0. -1.
         -2   -1    0    0    0  501 -0.00000000000E+00 -0.00000000000E+00 -0.48107430938E+03  0.48107430938E+03  0.25500000000E-02 0.  1.
    5000001    1    1    2    0    0 -0.68035366116E+02  0.13815661189E+03 -0.12280031802E+03  0.23436078716E+03  0.12700000000E+03 0.  0.
   -5000001    1    1    2    0    0  0.68035366116E+02 -0.13815661189E+03 -0.26956327515E+03  0.33542423848E+03  0.12700000000E+03 0.  0.
<mgrwt>
<rscale>  0 0.41316557E+03</rscale>
<asrwt>0</asrwt>
<pdfrwt beam="1">  1        2 0.12672960E-01 0.41316557E+03</pdfrwt>
<pdfrwt beam="2">  1       -2 0.68724900E-01 0.41316557E+03</pdfrwt>
<totfact> 0.95581336E+02</totfact>
</mgrwt>
</event>
<event>
 4    1  0.2581031E-004  0.4886445E+03  0.7818608E-02  0.1016786E+00
          2   -1    0    0  501    0  0.00000000000E+00  0.00000000000E+00  0.56519573395E+03  0.56519573395E+03  0.25500000000E-02 0.  1.
         -2   -1    0    0    0  501 -0.00000000000E+00 -0.00000000000E+00 -0.10561535966E+03  0.10561535970E+03  0.25500000000E-02 0. -1.
    5000001    1    1    2    0    0  0.15855533430E+03 -0.11998258097E+03  0.31692500312E+03  0.39510260867E+03  0.12700000000E+03 0.  0.
   -5000001    1    1    2    0    0 -0.15855533430E+03  0.11998258097E+03  0.14265537116E+03  0.27570848498E+03  0.12700000000E+03 0.  0.
<mgrwt>
<rscale>  0 0.48864445E+03</rscale>
<asrwt>0</asrwt>
<pdfrwt beam="1">  1        2 0.80742249E-01 0.48864445E+03</pdfrwt>
<pdfrwt beam="2">  1       -2 0.15087908E-01 0.48864445E+03</pdfrwt>
<totfact> 0.20107162E+03</totfact>
</mgrwt>
</event>
<event>
 4    1  0.2581031E-004  0.2826679E+03  0.7818608E-02  0.1094241E+00
         -2   -1    0    0    0  501 -0.00000000000E+00  0.00000000000E+00  0.71675790459E+02  0.71675790504E+02  0.25500000000E-02 0. -1.
          2   -1    0    0  501    0  0.00000000000E+00 -0.00000000000E+00 -0.27868941773E+03  0.27868941774E+03  0.25500000000E-02 0.  1.
    5000001    1    1    2    0    0  0.56390746231E+02 -0.25245100259E+02 -0.96825839868E+02  0.17123514421E+03  0.12700000000E+03 0.  0.
   -5000001    1    1    2    0    0 -0.56390746231E+02  0.25245100259E+02 -0.11018778740E+03  0.17913006403E+03  0.12700000000E+03 0.  0.
<mgrwt>
<rscale>  0 0.28266789E+03</rscale>
<asrwt>0</asrwt>
<pdfrwt beam="1">  1        2 0.39812773E-01 0.28266789E+03</pdfrwt>
<pdfrwt beam="2">  1       -2 0.10239399E-01 0.28266789E+03</pdfrwt>
<totfact> 0.81516716E+03</totfact>
</mgrwt>
</event>
<event>
 4    1  0.2581031E-004  0.3075829E+03  0.7818608E-02  0.1081510E+00
         -2   -1    0    0    0  501 -0.00000000000E+00  0.00000000000E+00  0.10325601313E+03  0.10325601316E+03  0.25500000000E-02 0. -1.
          2   -1    0    0  501    0  0.00000000000E+00 -0.00000000000E+00 -0.22905983169E+03  0.22905983171E+03  0.25500000000E-02 0.  1.
    5000001    1    1    2    0    0  0.15078260477E+02 -0.26900931356E+02 -0.15048711986E+03  0.19931479446E+03  0.12700000000E+03 0.  0.
   -5000001    1    1    2    0    0 -0.15078260477E+02  0.26900931356E+02  0.24683301304E+02  0.13300105041E+03  0.12700000000E+03 0.  0.
<mgrwt>
<rscale>  0 0.30758287E+03</rscale>
<asrwt>0</asrwt>
<pdfrwt beam="1">  1        2 0.32722833E-01 0.30758287E+03</pdfrwt>
<pdfrwt beam="2">  1       -2 0.14750859E-01 0.30758287E+03</pdfrwt>
<totfact> 0.55966395E+03</totfact>
</mgrwt>
</event>
<event>
 4    1  0.2581031E-004  0.3252721E+03  0.7818608E-02  0.1073248E+00
          2   -1    0    0  501    0  0.00000000000E+00  0.00000000000E+00  0.48527030946E+03  0.48527030947E+03  0.25500000000E-02 0.  1.
         -2   -1    0    0    0  501 -0.00000000000E+00 -0.00000000000E+00 -0.54506704486E+02  0.54506704545E+02  0.25500000000E-02 0. -1.
    5000001    1    1    2    0    0 -0.36018247099E+02  0.70419089091E+02  0.10957463119E+03  0.18545016051E+03  0.12700000000E+03 0.  0.
   -5000001    1    1    2    0    0  0.36018247099E+02 -0.70419089091E+02  0.32118897379E+03  0.35432685351E+03  0.12700000000E+03 0.  0.
<mgrwt>
<rscale>  0 0.32527210E+03</rscale>
<asrwt>0</asrwt>
<pdfrwt beam="1">  1        2 0.69324330E-01 0.32527210E+03</pdfrwt>
<pdfrwt beam="2">  1       -2 0.77866720E-02 0.32527210E+03</pdfrwt>
<totfact> 0.69141219E+03</totfact>
</mgrwt>
</event>
<event>
 4    1  0.2581031E-004  0.3702619E+03  0.7818608E-02  0.1054593E+00
         -2   -1    0    0    0  501 -0.00000000000E+00  0.00000000000E+00  0.57837812191E+02  0.57837812248E+02  0.25500000000E-02 0. -1.
          2   -1    0    0  501    0  0.00000000000E+00 -0.00000000000E+00 -0.59257882089E+03  0.59257882089E+03  0.25500000000E-02 0.  1.
    5000001    1    1    2    0    0  0.11592611443E+03 -0.31957139113E+02 -0.16074465779E+03  0.23754571719E+03  0.12700000000E+03 0.  0.
   -5000001    1    1    2    0    0 -0.11592611443E+03  0.31957139113E+02 -0.37399635090E+03  0.41287091595E+03  0.12700000000E+03 0.  0.
<mgrwt>
<rscale>  0 0.37026187E+03</rscale>
<asrwt>0</asrwt>
<pdfrwt beam="1">  1        2 0.84654114E-01 0.37026187E+03</pdfrwt>
<pdfrwt beam="2">  1       -2 0.82625450E-02 0.37026187E+03</pdfrwt>
<totfact> 0.50437703E+03</totfact>
</mgrwt>
</event>
<event>
 4    1  0.2581031E-004  0.2980281E+03  0.7818608E-02  0.1086231E+00
          2   -1    0    0  501    0  0.00000000000E+00  0.00000000000E+00  0.29913179412E+03  0.29913179413E+03  0.25500000000E-02 0.  1.
         -2   -1    0    0    0  501 -0.00000000000E+00 -0.00000000000E+00 -0.74232103165E+02  0.74232103209E+02  0.25500000000E-02 0. -1.
    5000001    1    1    2    0    0 -0.32001871196E+02 -0.47437204792E+02  0.17876178178E+03  0.22662564459E+03  0.12700000000E+03 0.  0.
   -5000001    1    1    2    0    0  0.32001871196E+02  0.47437204792E+02  0.46137909175E+02  0.14673825275E+03  0.12700000000E+03 0.  0.
<mgrwt>
<rscale>  0 0.29802807E+03</rscale>
<asrwt>0</asrwt>
<pdfrwt beam="1">  1        2 0.42733114E-01 0.29802807E+03</pdfrwt>
<pdfrwt beam="2">  1       -2 0.10604586E-01 0.29802807E+03</pdfrwt>
<totfact> 0.71552826E+03</totfact>
</mgrwt>
</event>
<event>
 4    1  0.2581031E-004  0.3125019E+03  0.7818608E-02  0.1079153E+00
          2   -1    0    0  501    0  0.00000000000E+00  0.00000000000E+00  0.74580880606E+03  0.74580880606E+03  0.25500000000E-02 0.  1.
         -2   -1    0    0    0  501 -0.00000000000E+00 -0.00000000000E+00 -0.32735413599E+02  0.32735413699E+02  0.25500000000E-02 0. -1.
    5000001    1    1    2    0    0  0.38983230785E+02 -0.69633124169E+02  0.24746053659E+03  0.28936859096E+03  0.12700000000E+03 0.  0.
   -5000001    1    1    2    0    0 -0.38983230785E+02  0.69633124169E+02  0.46561285587E+03  0.48917562880E+03  0.12700000000E+03 0.  0.
<mgrwt>
<rscale>  0 0.31250190E+03</rscale>
<asrwt>0</asrwt>
<pdfrwt beam="1">  1        2 0.10654410E+00 0.31250190E+03</pdfrwt>
<pdfrwt beam="2">  1       -2 0.46764885E-02 0.31250190E+03</pdfrwt>
<totfact> 0.92304115E+03</totfact>
</mgrwt>
</event>
<event>
 4    1  0.2581031E-004  0.1375540E+04  0.7818608E-02  0.8971717E-01
         -2   -1    0    0    0  501 -0.00000000000E+00  0.00000000000E+00  0.57390510273E+03  0.57390510274E+03  0.25500000000E-02 0. -1.
          2   -1    0    0  501    0  0.00000000000E+00 -0.00000000000E+00 -0.82422629870E+03  0.82422629870E+03  0.25500000000E-02 0.  1.
    5000001    1    1    2    0    0  0.41152879789E+03 -0.35556442330E+03  0.28282511337E+03  0.62602001195E+03  0.12700000000E+03 0.  0.
   -5000001    1    1    2    0    0 -0.41152879789E+03  0.35556442330E+03 -0.53314630933E+03  0.77211138948E+03  0.12700000000E+03 0.  0.
<mgrwt>
<rscale>  0 0.13755402E+04</rscale>
<asrwt>0</asrwt>
<pdfrwt beam="1">  1        2 0.11774661E+00 0.13755402E+04</pdfrwt>
<pdfrwt beam="2">  1       -2 0.81986443E-01 0.13755402E+04</pdfrwt>
<totfact> 0.46706362E+01</totfact>
</mgrwt>
</event>
<event>
 4    1  0.2581031E-004  0.5535170E+03  0.7818608E-02  0.1000683E+00
         -2   -1    0    0    0  501 -0.00000000000E+00  0.00000000000E+00  0.60799789865E+02  0.60799789919E+02  0.25500000000E-02 0. -1.
          2   -1    0    0  501    0  0.00000000000E+00 -0.00000000000E+00 -0.12597948804E+04  0.12597948804E+04  0.25500000000E-02 0.  1.
    5000001    1    1    2    0    0  0.21883576652E+03  0.86232714463E+02 -0.42843056021E+03  0.50498209738E+03  0.12700000000E+03 0.  0.
   -5000001    1    1    2    0    0 -0.21883576652E+03 -0.86232714463E+02 -0.77056453033E+03  0.81561257295E+03  0.12700000000E+03 0.  0.
<mgrwt>
<rscale>  0 0.55351699E+03</rscale>
<asrwt>0</asrwt>
<pdfrwt beam="1">  1        2 0.17997068E+00 0.55351699E+03</pdfrwt>
<pdfrwt beam="2">  1       -2 0.86856850E-02 0.55351699E+03</pdfrwt>
<totfact> 0.17199182E+03</totfact>
</mgrwt>
</event>
<event>
 4    1  0.2581031E-004  0.3891815E+03  0.7818608E-02  0.1047591E+00
         -2   -1    0    0    0  501 -0.00000000000E+00  0.00000000000E+00  0.13899385390E+03  0.13899385393E+03  0.25500000000E-02 0. -1.
          2   -1    0    0  501    0  0.00000000000E+00 -0.00000000000E+00 -0.27242610377E+03  0.27242610378E+03  0.25500000000E-02 0.  1.
    5000001    1    1    2    0    0  0.70835267155E+02  0.12930127362E+03 -0.67049822518E+02  0.20581820408E+03  0.12700000000E+03 0.  0.
   -5000001    1    1    2    0    0 -0.70835267155E+02 -0.12930127362E+03 -0.66382427350E+02  0.20560175362E+03  0.12700000000E+03 0.  0.
<mgrwt>
<rscale>  0 0.38918147E+03</rscale>
<asrwt>0</asrwt>
<pdfrwt beam="1">  1        2 0.38918014E-01 0.38918147E+03</pdfrwt>
<pdfrwt beam="2">  1       -2 0.19856265E-01 0.38918147E+03</pdfrwt>
<totfact> 0.28210374E+03</totfact>
</mgrwt>
</event>
<event>
 4    1  0.2581031E-004  0.6983476E+03  0.7818608E-02  0.9720062E-01
         -2   -1    0    0    0  501 -0.00000000000E+00  0.00000000000E+00  0.37292041706E+03  0.37292041706E+03  0.25500000000E-02 0. -1.
          2   -1    0    0  501    0  0.00000000000E+00 -0.00000000000E+00 -0.32693928040E+03  0.32693928041E+03  0.25500000000E-02 0.  1.
    5000001    1    1    2    0    0  0.14494442734E+03  0.28312288597E+03  0.91151639746E+02  0.35440806566E+03  0.12700000000E+03 0.  0.
   -5000001    1    1    2    0    0 -0.14494442734E+03 -0.28312288597E+03 -0.45170503093E+02  0.34545163182E+03  0.12700000000E+03 0.  0.
<mgrwt>
<rscale>  0 0.69834757E+03</rscale>
<asrwt>0</asrwt>
<pdfrwt beam="1">  1        2 0.46705612E-01 0.69834757E+03</pdfrwt>
<pdfrwt beam="2">  1       -2 0.53274345E-01 0.69834757E+03</pdfrwt>
<totfact> 0.36296036E+02</totfact>
</mgrwt>
</event>
<event>
 4    1  0.2581031E-004  0.3916468E+03  0.7818608E-02  0.1046711E+00
         -2   -1    0    0    0  501 -0.00000000000E+00  0.00000000000E+00  0.13485767345E+03  0.13485767348E+03  0.25500000000E-02 0. -1.
          2   -1    0    0  501    0  0.00000000000E+00 -0.00000000000E+00 -0.28435015366E+03  0.28435015367E+03  0.25500000000E-02 0.  1.
    5000001    1    1    2    0    0  0.10048156448E+03  0.71820585288E+02  0.14570909844E+02  0.17775278531E+03  0.12700000000E+03 0.  0.
   -5000001    1    1    2    0    0 -0.10048156448E+03 -0.71820585288E+02 -0.16406339005E+03  0.24145504184E+03  0.12700000000E+03 0.  0.
<mgrwt>
<rscale>  0 0.39164678E+03</rscale>
<asrwt>0</asrwt>
<pdfrwt beam="1">  1        2 0.40621451E-01 0.39164678E+03</pdfrwt>
<pdfrwt beam="2">  1       -2 0.19265382E-01 0.39164678E+03</pdfrwt>
<totfact> 0.28360979E+03</totfact>
</mgrwt>
</event>
<event>
 4    1  0.2581031E-004  0.3065230E+03  0.7818608E-02  0.1082025E+00
         -2   -1    0    0    0  501 -0.00000000000E+00  0.00000000000E+00  0.77748591159E+02  0.77748591201E+02  0.25500000000E-02 0. -1.
          2   -1    0    0  501    0  0.00000000000E+00 -0.00000000000E+00 -0.30211595806E+03  0.30211595808E+03  0.25500000000E-02 0.  1.
    5000001    1    1    2    0    0  0.19850082114E+02  0.41482334816E+02 -0.20193689989E+03  0.24294509955E+03  0.12700000000E+03 0.  0.
   -5000001    1    1    2    0    0 -0.19850082114E+02 -0.41482334816E+02 -0.22430467020E+02  0.13691944972E+03  0.12700000000E+03 0.  0.
<mgrwt>
<rscale>  0 0.30652302E+03</rscale>
<asrwt>0</asrwt>
<pdfrwt beam="1">  1        2 0.43159422E-01 0.30652302E+03</pdfrwt>
<pdfrwt beam="2">  1       -2 0.11106942E-01 0.30652302E+03</pdfrwt>
<totfact> 0.65788902E+03</totfact>
</mgrwt>
</event>
<event>
 4    1  0.2581031E-004  0.4627767E+03  0.7818608E-02  0.1023979E+00
         -2   -1    0    0    0  501 -0.00000000000E+00  0.00000000000E+00  0.33347562656E+02  0.33347562753E+02  0.25500000000E-02 0. -1.
          2   -1    0    0  501    0  0.00000000000E+00 -0.00000000000E+00 -0.16055318964E+04  0.16055318964E+04  0.25500000000E-02 0.  1.
    5000001    1    1    2    0    0 -0.17356112152E+03  0.83646755312E+01 -0.48521564760E+03  0.53080755023E+03  0.12700000000E+03 0.  0.
   -5000001    1    1    2    0    0  0.17356112152E+03 -0.83646755312E+01 -0.10869686861E+04  0.11080719089E+04  0.12700000000E+03 0.  0.
<mgrwt>
<rscale>  0 0.46277673E+03</rscale>
<asrwt>0</asrwt>
<pdfrwt beam="1">  1        2 0.22936165E+00 0.46277673E+03</pdfrwt>
<pdfrwt beam="2">  1       -2 0.47639385E-02 0.46277673E+03</pdfrwt>
<totfact> 0.29060232E+03</totfact>
</mgrwt>
</event>
<event>
 4    1  0.2581031E-004  0.4351443E+03  0.7818608E-02  0.1032247E+00
          2   -1    0    0  501    0  0.00000000000E+00  0.00000000000E+00  0.49570688552E+03  0.49570688552E+03  0.25500000000E-02 0.  1.
         -2   -1    0    0    0  501 -0.00000000000E+00 -0.00000000000E+00 -0.95495215022E+02  0.95495215056E+02  0.25500000000E-02 0. -1.
    5000001    1    1    2    0    0  0.17457490861E+03  0.27054599491E+02  0.20083186360E+03  0.29609253200E+03  0.12700000000E+03 0.  0.
   -5000001    1    1    2    0    0 -0.17457490861E+03 -0.27054599491E+02  0.19937980690E+03  0.29510956858E+03  0.12700000000E+03 0.  0.
<mgrwt>
<rscale>  0 0.43514428E+03</rscale>
<asrwt>0</asrwt>
<pdfrwt beam="1">  1        2 0.70815270E-01 0.43514428E+03</pdfrwt>
<pdfrwt beam="2">  1       -2 0.13642173E-01 0.43514428E+03</pdfrwt>
<totfact> 0.27581982E+03</totfact>
</mgrwt>
</event>
<event>
 4    1  0.2581031E-004  0.3153721E+03  0.7818608E-02  0.1077799E+00
         -2   -1    0    0    0  501 -0.00000000000E+00  0.00000000000E+00  0.26236662727E+02  0.26236662851E+02  0.25500000000E-02 0. -1.
          2   -1    0    0  501    0  0.00000000000E+00 -0.00000000000E+00 -0.94771526622E+03  0.94771526622E+03  0.25500000000E-02 0.  1.
    5000001    1    1    2    0    0  0.42812679347E+02 -0.54903859196E+02 -0.26816123249E+03  0.30477336806E+03  0.12700000000E+03 0.  0.
   -5000001    1    1    2    0    0 -0.42812679347E+02  0.54903859196E+02 -0.65331737100E+03  0.66917856101E+03  0.12700000000E+03 0.  0.
<mgrwt>
<rscale>  0 0.31537207E+03</rscale>
<asrwt>0</asrwt>
<pdfrwt beam="1">  1        2 0.13538787E+00 0.31537207E+03</pdfrwt>
<pdfrwt beam="2">  1       -2 0.37480953E-02 0.31537207E+03</pdfrwt>
<totfact> 0.95185550E+03</totfact>
</mgrwt>
</event>
<event>
 4    1  0.2581031E-004  0.3531881E+03  0.7818608E-02  0.1061314E+00
          2   -1    0    0  501    0  0.00000000000E+00  0.00000000000E+00  0.19405196240E+04  0.19405196240E+04  0.25500000000E-02 0.  1.
         -2   -1    0    0    0  501 -0.00000000000E+00 -0.00000000000E+00 -0.16070676167E+02  0.16070676369E+02  0.25500000000E-02 0. -1.
    5000001    1    1    2    0    0 -0.12751574135E+02  0.12082750867E+03  0.10573047433E+04  0.10718135144E+04  0.12700000000E+03 0.  0.
   -5000001    1    1    2    0    0  0.12751574135E+02 -0.12082750867E+03  0.86714420449E+03  0.88477678591E+03  0.12700000000E+03 0.  0.
<mgrwt>
<rscale>  0 0.35318812E+03</rscale>
<asrwt>0</asrwt>
<pdfrwt beam="1">  1        2 0.27721692E+00 0.35318812E+03</pdfrwt>
<pdfrwt beam="2">  1       -2 0.22958123E-02 0.35318812E+03</pdfrwt>
<totfact> 0.59632409E+03</totfact>
</mgrwt>
</event>
<event>
 4    1  0.2581031E-004  0.3043710E+03  0.7818608E-02  0.1083076E+00
          2   -1    0    0  501    0  0.00000000000E+00  0.00000000000E+00  0.10624124850E+04  0.10624124850E+04  0.25500000000E-02 0.  1.
         -2   -1    0    0    0  501 -0.00000000000E+00 -0.00000000000E+00 -0.21799842585E+02  0.21799842734E+02  0.25500000000E-02 0. -1.
    5000001    1    1    2    0    0  0.54950320960E+02 -0.46845242033E+02  0.67216429616E+03  0.68785743836E+03  0.12700000000E+03 0.  0.
   -5000001    1    1    2    0    0 -0.54950320960E+02  0.46845242033E+02  0.36844834624E+03  0.39635488936E+03  0.12700000000E+03 0.  0.
<mgrwt>
<rscale>  0 0.30437099E+03</rscale>
<asrwt>0</asrwt>
<pdfrwt beam="1">  1        2 0.15177320E+00 0.30437099E+03</pdfrwt>
<pdfrwt beam="2">  1       -2 0.31142635E-02 0.30437099E+03</pdfrwt>
<totfact> 0.10737603E+04</totfact>
</mgrwt>
</event>
<event>
 4    1  0.2581031E-004  0.3701292E+03  0.7818608E-02  0.1054644E+00
         -2   -1    0    0    0  501 -0.00000000000E+00  0.00000000000E+00  0.53776984346E+02  0.53776984406E+02  0.25500000000E-02 0. -1.
          2   -1    0    0  501    0  0.00000000000E+00 -0.00000000000E+00 -0.63686930640E+03  0.63686930640E+03  0.25500000000E-02 0.  1.
    5000001    1    1    2    0    0 -0.90711270207E+02 -0.28446151255E+02 -0.11371917741E+03  0.19518906059E+03  0.12700000000E+03 0.  0.
   -5000001    1    1    2    0    0  0.90711270207E+02  0.28446151255E+02 -0.46937314464E+03  0.49545723022E+03  0.12700000000E+03 0.  0.
<mgrwt>
<rscale>  0 0.37012922E+03</rscale>
<asrwt>0</asrwt>
<pdfrwt beam="1">  1        2 0.90981325E-01 0.37012922E+03</pdfrwt>
<pdfrwt beam="2">  1       -2 0.76824267E-02 0.37012922E+03</pdfrwt>
<totfact> 0.52018281E+03</totfact>
</mgrwt>
</event>
<event>
 4    1  0.2581031E-004  0.4746019E+03  0.7818608E-02  0.1020629E+00
          2   -1    0    0  501    0  0.00000000000E+00  0.00000000000E+00  0.82956864738E+02  0.82956864777E+02  0.25500000000E-02 0.  1.
         -2   -1    0    0    0  501 -0.00000000000E+00 -0.00000000000E+00 -0.67880752905E+03  0.67880752905E+03  0.25500000000E-02 0. -1.
    5000001    1    1    2    0    0  0.13938512593E+03  0.11438469012E+03 -0.15735038203E+03  0.27092473750E+03  0.12700000000E+03 0.  0.
   -5000001    1    1    2    0    0 -0.13938512593E+03 -0.11438469012E+03 -0.43850028228E+03  0.49083965633E+03  0.12700000000E+03 0.  0.
<mgrwt>
<rscale>  0 0.47460191E+03</rscale>
<asrwt>0</asrwt>
<pdfrwt beam="1">  1        2 0.11850981E-01 0.47460191E+03</pdfrwt>
<pdfrwt beam="2">  1       -2 0.96972501E-01 0.47460191E+03</pdfrwt>
<totfact> 0.48072897E+02</totfact>
</mgrwt>
</event>
<event>
 4    1  0.2581031E-004  0.7271828E+03  0.7818608E-02  0.9671843E-01
          2   -1    0    0  501    0  0.00000000000E+00  0.00000000000E+00  0.12728343405E+04  0.12728343405E+04  0.25500000000E-02 0.  1.
         -2   -1    0    0    0  501 -0.00000000000E+00 -0.00000000000E+00 -0.10386168271E+03  0.10386168274E+03  0.25500000000E-02 0. -1.
    5000001    1    1    2    0    0 -0.39334305033E+02  0.32974426902E+03  0.72855861483E+03  0.81068188936E+03  0.12700000000E+03 0.  0.
   -5000001    1    1    2    0    0  0.39334305033E+02 -0.32974426902E+03  0.44041404294E+03  0.56601413385E+03  0.12700000000E+03 0.  0.
<mgrwt>
<rscale>  0 0.72718283E+03</rscale>
<asrwt>0</asrwt>
<pdfrwt beam="1">  1        2 0.18183347E+00 0.72718283E+03</pdfrwt>
<pdfrwt beam="2">  1       -2 0.14837384E-01 0.72718283E+03</pdfrwt>
<totfact> 0.69848436E+02</totfact>
</mgrwt>
</event>
<event>
 4    1  0.2581031E-004  0.6719846E+03  0.7818608E-02  0.9766379E-01
         -2   -1    0    0    0  501 -0.00000000000E+00  0.00000000000E+00  0.59948129150E+03  0.59948129150E+03  0.25500000000E-02 0. -1.
          2   -1    0    0  501    0  0.00000000000E+00 -0.00000000000E+00 -0.18831418209E+03  0.18831418210E+03  0.25500000000E-02 0.  1.
    5000001    1    1    2    0    0  0.25061113818E+03  0.73990389797E+02  0.77344337819E+01  0.29063609863E+03  0.12700000000E+03 0.  0.
   -5000001    1    1    2    0    0 -0.25061113818E+03 -0.73990389797E+02  0.40343267563E+03  0.49715937498E+03  0.12700000000E+03 0.  0.
<mgrwt>
<rscale>  0 0.67198461E+03</rscale>
<asrwt>0</asrwt>
<pdfrwt beam="1">  1        2 0.26902026E-01 0.67198461E+03</pdfrwt>
<pdfrwt beam="2">  1       -2 0.85640184E-01 0.67198461E+03</pdfrwt>
<totfact> 0.24103349E+02</totfact>
</mgrwt>
</event>
<event>
 4    1  0.2581031E-004  0.7501502E+03  0.7818608E-02  0.9635115E-01
          2   -1    0    0  501    0  0.00000000000E+00  0.00000000000E+00  0.71023781877E+03  0.71023781878E+03  0.25500000000E-02 0.  1.
         -2   -1    0    0    0  501 -0.00000000000E+00 -0.00000000000E+00 -0.19807636468E+03  0.19807636470E+03  0.25500000000E-02 0. -1.
    5000001    1    1    2    0    0  0.28000306312E+03  0.18620814432E+02 -0.30619767990E+01  0.30803705263E+03  0.12700000000E+03 0.  0.
   -5000001    1    1    2    0    0 -0.28000306312E+03 -0.18620814432E+02  0.51522343089E+03  0.60027713085E+03  0.12700000000E+03 0.  0.
<mgrwt>
<rscale>  0 0.75015019E+03</rscale>
<asrwt>0</asrwt>
<pdfrwt beam="1">  1        2 0.10146255E+00 0.75015019E+03</pdfrwt>
<pdfrwt beam="2">  1       -2 0.28296623E-01 0.75015019E+03</pdfrwt>
<totfact> 0.50691507E+02</totfact>
</mgrwt>
</event>
<event>
 4    1  0.2581031E-004  0.5469576E+03  0.7818608E-02  0.1002201E+00
          2   -1    0    0  501    0  0.00000000000E+00  0.00000000000E+00  0.16423625284E+04  0.16423625284E+04  0.25500000000E-02 0.  1.
         -2   -1    0    0    0  501 -0.00000000000E+00 -0.00000000000E+00 -0.45538463194E+02  0.45538463265E+02  0.25500000000E-02 0. -1.
    5000001    1    1    2    0    0 -0.73379876077E+02  0.21815607041E+03  0.56573256428E+03  0.62382610682E+03  0.12700000000E+03 0.  0.
   -5000001    1    1    2    0    0  0.73379876077E+02 -0.21815607041E+03  0.10310915010E+04  0.10640748849E+04  0.12700000000E+03 0.  0.
<mgrwt>
<rscale>  0 0.54695764E+03</rscale>
<asrwt>0</asrwt>
<pdfrwt beam="1">  1        2 0.23462324E+00 0.54695764E+03</pdfrwt>
<pdfrwt beam="2">  1       -2 0.65054941E-02 0.54695764E+03</pdfrwt>
<totfact> 0.17114967E+03</totfact>
</mgrwt>
</event>
<event>
 4    1  0.2581031E-004  0.2135742E+04  0.7818608E-02  0.8545660E-01
          2   -1    0    0  501    0  0.00000000000E+00  0.00000000000E+00  0.16264717915E+04  0.16264717915E+04  0.25500000000E-02 0.  1.
         -2   -1    0    0    0  501 -0.00000000000E+00 -0.00000000000E+00 -0.70111778147E+03  0.70111778147E+03  0.25500000000E-02 0. -1.
    5000001    1    1    2    0    0  0.78814935833E+03  0.70908892452E+03  0.44604936441E+03  0.11571843196E+04  0.12700000000E+03 0.  0.
   -5000001    1    1    2    0    0 -0.78814935833E+03 -0.70908892452E+03  0.47930464561E+03  0.11704052534E+04  0.12700000000E+03 0.  0.
<mgrwt>
<rscale>  0 0.21357418E+04</rscale>
<asrwt>0</asrwt>
<pdfrwt beam="1">  1        2 0.23235311E+00 0.21357418E+04</pdfrwt>
<pdfrwt beam="2">  1       -2 0.10015968E+00 0.21357418E+04</pdfrwt>
<totfact> 0.95205545E+00</totfact>
</mgrwt>
</event>
<event>
 4    1  0.2581031E-004  0.7177551E+03  0.7818608E-02  0.9687341E-01
          2   -1    0    0  501    0  0.00000000000E+00  0.00000000000E+00  0.10820174328E+04  0.10820174328E+04  0.25500000000E-02 0.  1.
         -2   -1    0    0    0  501 -0.00000000000E+00 -0.00000000000E+00 -0.11903051019E+03  0.11903051021E+03  0.25500000000E-02 0. -1.
    5000001    1    1    2    0    0 -0.69675003018E+01 -0.31319882864E+03  0.27984365580E+03  0.43884339349E+03  0.12700000000E+03 0.  0.
   -5000001    1    1    2    0    0  0.69675003018E+01  0.31319882864E+03  0.68314326683E+03  0.76220454954E+03  0.12700000000E+03 0.  0.
<mgrwt>
<rscale>  0 0.71775508E+03</rscale>
<asrwt>0</asrwt>
<pdfrwt beam="1">  1        2 0.15457392E+00 0.71775508E+03</pdfrwt>
<pdfrwt beam="2">  1       -2 0.17004359E-01 0.71775508E+03</pdfrwt>
<totfact> 0.71168417E+02</totfact>
</mgrwt>
</event>
<event>
 4    1  0.2581031E-004  0.4523605E+03  0.7818608E-02  0.1027020E+00
         -2   -1    0    0    0  501 -0.00000000000E+00  0.00000000000E+00  0.20118827262E+03  0.20118827263E+03  0.25500000000E-02 0. -1.
          2   -1    0    0  501    0  0.00000000000E+00 -0.00000000000E+00 -0.25427677079E+03  0.25427677080E+03  0.25500000000E-02 0.  1.
    5000001    1    1    2    0    0 -0.17867290563E+03 -0.19681197512E+02 -0.79028256894E+02  0.23384999921E+03  0.12700000000E+03 0.  0.
   -5000001    1    1    2    0    0  0.17867290563E+03  0.19681197512E+02  0.25939758723E+02  0.22161504422E+03  0.12700000000E+03 0.  0.
<mgrwt>
<rscale>  0 0.45236049E+03</rscale>
<asrwt>0</asrwt>
<pdfrwt beam="1">  1        2 0.36325253E-01 0.45236049E+03</pdfrwt>
<pdfrwt beam="2">  1       -2 0.28741182E-01 0.45236049E+03</pdfrwt>
<totfact> 0.15835681E+03</totfact>
</mgrwt>
</event>
<event>
 4    1  0.2581031E-004  0.5013044E+03  0.7818608E-02  0.1013439E+00
         -2   -1    0    0    0  501 -0.00000000000E+00  0.00000000000E+00  0.13393399150E+04  0.13393399150E+04  0.25500000000E-02 0. -1.
          2   -1    0    0  501    0  0.00000000000E+00 -0.00000000000E+00 -0.46908566483E+02  0.46908566552E+02  0.25500000000E-02 0.  1.
    5000001    1    1    2    0    0 -0.45407303854E+02 -0.13310535221E+03  0.10999130834E+04  0.11161167721E+04  0.12700000000E+03 0.  0.
   -5000001    1    1    2    0    0  0.45407303854E+02  0.13310535221E+03  0.19251826516E+03  0.27013170945E+03  0.12700000000E+03 0.  0.
<mgrwt>
<rscale>  0 0.50130436E+03</rscale>
<asrwt>0</asrwt>
<pdfrwt beam="1">  1        2 0.67012243E-02 0.50130436E+03</pdfrwt>
<pdfrwt beam="2">  1       -2 0.19133426E+00 0.50130436E+03</pdfrwt>
<totfact> 0.17416202E+02</totfact>
</mgrwt>
</event>
<event>
 4    1  0.2581031E-004  0.3971891E+03  0.7818608E-02  0.1044757E+00
         -2   -1    0    0    0  501 -0.00000000000E+00  0.00000000000E+00  0.34749504950E+02  0.34749505044E+02  0.25500000000E-02 0. -1.
          2   -1    0    0  501    0  0.00000000000E+00 -0.00000000000E+00 -0.11349740942E+04  0.11349740942E+04  0.25500000000E-02 0.  1.
    5000001    1    1    2    0    0  0.12797737186E+03 -0.59953024366E+02 -0.37995791549E+03  0.42481712581E+03  0.12700000000E+03 0.  0.
   -5000001    1    1    2    0    0 -0.12797737186E+03  0.59953024366E+02 -0.72026667375E+03  0.74490647342E+03  0.12700000000E+03 0.  0.
<mgrwt>
<rscale>  0 0.39718906E+03</rscale>
<asrwt>0</asrwt>
<pdfrwt beam="1">  1        2 0.16213913E+00 0.39718906E+03</pdfrwt>
<pdfrwt beam="2">  1       -2 0.49642157E-02 0.39718906E+03</pdfrwt>
<totfact> 0.48457991E+03</totfact>
</mgrwt>
</event>
<event>
 4    1  0.2581031E-004  0.8444545E+03  0.7818608E-02  0.9497810E-01
         -2   -1    0    0    0  501 -0.00000000000E+00  0.00000000000E+00  0.20598699123E+03  0.20598699125E+03  0.25500000000E-02 0. -1.
          2   -1    0    0  501    0  0.00000000000E+00 -0.00000000000E+00 -0.86547130907E+03  0.86547130908E+03  0.25500000000E-02 0.  1.
    5000001    1    1    2    0    0 -0.26134507079E+03 -0.25040743244E+02 -0.71713376455E+03  0.77416931036E+03  0.12700000000E+03 0.  0.
   -5000001    1    1    2    0    0  0.26134507079E+03  0.25040743244E+02  0.57649446711E+02  0.29728898996E+03  0.12700000000E+03 0.  0.
<mgrwt>
<rscale>  0 0.84445445E+03</rscale>
<asrwt>0</asrwt>
<pdfrwt beam="1">  1        2 0.12363876E+00 0.84445445E+03</pdfrwt>
<pdfrwt beam="2">  1       -2 0.29426713E-01 0.84445445E+03</pdfrwt>
<totfact> 0.36481708E+02</totfact>
</mgrwt>
</event>
<event>
 4    1  0.2581031E-004  0.3672353E+03  0.7818608E-02  0.1055755E+00
          2   -1    0    0  501    0  0.00000000000E+00  0.00000000000E+00  0.68655588123E+03  0.68655588124E+03  0.25500000000E-02 0.  1.
         -2   -1    0    0    0  501 -0.00000000000E+00 -0.00000000000E+00 -0.49108089709E+02  0.49108089775E+02  0.25500000000E-02 0. -1.
    5000001    1    1    2    0    0 -0.10552652670E+03 -0.30773937715E+02  0.17011080537E+03  0.23905976069E+03  0.12700000000E+03 0.  0.
   -5000001    1    1    2    0    0  0.10552652670E+03  0.30773937715E+02  0.46733698616E+03  0.49660421032E+03  0.12700000000E+03 0.  0.
<mgrwt>
<rscale>  0 0.36723534E+03</rscale>
<asrwt>0</asrwt>
<pdfrwt beam="1">  1        2 0.98079415E-01 0.36723534E+03</pdfrwt>
<pdfrwt beam="2">  1       -2 0.70154411E-02 0.36723534E+03</pdfrwt>
<totfact> 0.54859198E+03</totfact>
</mgrwt>
</event>
<event>
 4    1  0.2581031E-004  0.4659979E+03  0.7818608E-02  0.1023056E+00
         -2   -1    0    0    0  501 -0.00000000000E+00  0.00000000000E+00  0.25681514141E+02  0.25681514267E+02  0.25500000000E-02 0. -1.
          2   -1    0    0  501    0  0.00000000000E+00 -0.00000000000E+00 -0.21139138537E+04  0.21139138537E+04  0.25500000000E-02 0.  1.
    5000001    1    1    2    0    0  0.18143360970E+03  0.49789279483E+02 -0.12854340671E+04  0.13053225149E+04  0.12700000000E+03 0.  0.
   -5000001    1    1    2    0    0 -0.18143360970E+03 -0.49789279483E+02 -0.80279827245E+03  0.83427285305E+03  0.12700000000E+03 0.  0.
<mgrwt>
<rscale>  0 0.46599789E+03</rscale>
<asrwt>0</asrwt>
<pdfrwt beam="1">  1        2 0.30198758E+00 0.46599789E+03</pdfrwt>
<pdfrwt beam="2">  1       -2 0.36687891E-02 0.46599789E+03</pdfrwt>
<totfact> 0.24121539E+03</totfact>
</mgrwt>
</event>
<event>
 4    1  0.2581031E-004  0.4295069E+03  0.7818608E-02  0.1034016E+00
         -2   -1    0    0    0  501 -0.00000000000E+00  0.00000000000E+00  0.12629583591E+03  0.12629583594E+03  0.25500000000E-02 0. -1.
          2   -1    0    0  501    0  0.00000000000E+00 -0.00000000000E+00 -0.36516670302E+03  0.36516670302E+03  0.25500000000E-02 0.  1.
    5000001    1    1    2    0    0 -0.11122757693E+03 -0.13030091826E+03 -0.14838584230E+03  0.25980235057E+03  0.12700000000E+03 0.  0.
   -5000001    1    1    2    0    0  0.11122757693E+03  0.13030091826E+03 -0.90485024805E+02  0.23166018839E+03  0.12700000000E+03 0.  0.
<mgrwt>
<rscale>  0 0.42950685E+03</rscale>
<asrwt>0</asrwt>
<pdfrwt beam="1">  1        2 0.52166671E-01 0.42950685E+03</pdfrwt>
<pdfrwt beam="2">  1       -2 0.18042262E-01 0.42950685E+03</pdfrwt>
<totfact> 0.24183802E+03</totfact>
</mgrwt>
</event>
<event>
 4    1  0.2581031E-004  0.4844100E+03  0.7818608E-02  0.1017930E+00
         -2   -1    0    0    0  501 -0.00000000000E+00  0.00000000000E+00  0.21515059871E+03  0.21515059872E+03  0.25500000000E-02 0. -1.
          2   -1    0    0  501    0  0.00000000000E+00 -0.00000000000E+00 -0.27266140182E+03  0.27266140183E+03  0.25500000000E-02 0.  1.
    5000001    1    1    2    0    0 -0.24704136253E+02  0.44440205618E+02 -0.23003165235E+03  0.26763554940E+03  0.12700000000E+03 0.  0.
   -5000001    1    1    2    0    0  0.24704136253E+02 -0.44440205618E+02  0.17252084923E+03  0.22017645115E+03  0.12700000000E+03 0.  0.
<mgrwt>
<rscale>  0 0.48441001E+03</rscale>
<asrwt>0</asrwt>
<pdfrwt beam="1">  1        2 0.38951629E-01 0.48441001E+03</pdfrwt>
<pdfrwt beam="2">  1       -2 0.30735800E-01 0.48441001E+03</pdfrwt>
<totfact> 0.12970876E+03</totfact>
</mgrwt>
</event>
<event>
 4    1  0.2581031E-004  0.8517331E+03  0.7818608E-02  0.9488014E-01
          2   -1    0    0  501    0  0.00000000000E+00  0.00000000000E+00  0.78722470362E+03  0.78722470363E+03  0.25500000000E-02 0.  1.
         -2   -1    0    0    0  501 -0.00000000000E+00 -0.00000000000E+00 -0.23038190306E+03  0.23038190308E+03  0.25500000000E-02 0. -1.
    5000001    1    1    2    0    0 -0.22358268856E+03  0.33533269654E+03  0.34159736893E+03  0.54337371895E+03  0.12700000000E+03 0.  0.
   -5000001    1    1    2    0    0  0.22358268856E+03 -0.33533269654E+03  0.21524543163E+03  0.47423288775E+03  0.12700000000E+03 0.  0.
<mgrwt>
<rscale>  0 0.85173312E+03</rscale>
<asrwt>0</asrwt>
<pdfrwt beam="1">  1        2 0.11246067E+00 0.85173312E+03</pdfrwt>
<pdfrwt beam="2">  1       -2 0.32911700E-01 0.85173312E+03</pdfrwt>
<totfact> 0.33487508E+02</totfact>
</mgrwt>
</event>
<event>
 4    1  0.2581031E-004  0.4492419E+03  0.7818608E-02  0.1027948E+00
         -2   -1    0    0    0  501 -0.00000000000E+00  0.00000000000E+00  0.31378136209E+03  0.31378136210E+03  0.25500000000E-02 0. -1.
          2   -1    0    0  501    0  0.00000000000E+00 -0.00000000000E+00 -0.16079527807E+03  0.16079527809E+03  0.25500000000E-02 0.  1.
    5000001    1    1    2    0    0 -0.14773593223E+03  0.10699689102E+03  0.42240420344E+02  0.22624653251E+03  0.12700000000E+03 0.  0.
   -5000001    1    1    2    0    0  0.14773593223E+03 -0.10699689102E+03  0.11074566368E+03  0.24833010769E+03  0.12700000000E+03 0.  0.
<mgrwt>
<rscale>  0 0.44924186E+03</rscale>
<asrwt>0</asrwt>
<pdfrwt beam="1">  1        2 0.22970754E-01 0.44924186E+03</pdfrwt>
<pdfrwt beam="2">  1       -2 0.44825908E-01 0.44924186E+03</pdfrwt>
<totfact> 0.11399000E+03</totfact>
</mgrwt>
</event>
<event>
 4    1  0.2581031E-004  0.6328273E+03  0.7818608E-02  0.9839547E-01
         -2   -1    0    0    0  501 -0.00000000000E+00  0.00000000000E+00  0.18474108732E+03  0.18474108734E+03  0.25500000000E-02 0. -1.
          2   -1    0    0  501    0  0.00000000000E+00 -0.00000000000E+00 -0.54193471528E+03  0.54193471529E+03  0.25500000000E-02 0.  1.
    5000001    1    1    2    0    0 -0.12121244328E+03 -0.16975655014E+03  0.52433855969E+02  0.24977600360E+03  0.12700000000E+03 0.  0.
   -5000001    1    1    2    0    0  0.12121244328E+03  0.16975655014E+03 -0.40962748393E+03  0.47689979903E+03  0.12700000000E+03 0.  0.
<mgrwt>
<rscale>  0 0.63282733E+03</rscale>
<asrwt>0</asrwt>
<pdfrwt beam="1">  1        2 0.77419244E-01 0.63282733E+03</pdfrwt>
<pdfrwt beam="2">  1       -2 0.26391584E-01 0.63282733E+03</pdfrwt>
<totfact> 0.79711657E+02</totfact>
</mgrwt>
</event>
<event>
 4    1  0.2581031E-004  0.3082459E+03  0.7818608E-02  0.1081190E+00
         -2   -1    0    0    0  501 -0.00000000000E+00  0.00000000000E+00  0.31135919188E+02  0.31135919292E+02  0.25500000000E-02 0. -1.
          2   -1    0    0  501    0  0.00000000000E+00 -0.00000000000E+00 -0.76290915903E+03  0.76290915904E+03  0.25500000000E-02 0.  1.
    5000001    1    1    2    0    0 -0.30602388157E+02  0.81647679360E+02 -0.35379629405E+03  0.38588037964E+03  0.12700000000E+03 0.  0.
   -5000001    1    1    2    0    0  0.30602388157E+02 -0.81647679360E+02 -0.37797694579E+03  0.40816469869E+03  0.12700000000E+03 0.  0.
<mgrwt>
<rscale>  0 0.30824586E+03</rscale>
<asrwt>0</asrwt>
<pdfrwt beam="1">  1        2 0.10898701E+00 0.30824586E+03</pdfrwt>
<pdfrwt beam="2">  1       -2 0.44479889E-02 0.30824586E+03</pdfrwt>
<totfact> 0.96837869E+03</totfact>
</mgrwt>
</event>
<event>
 4    1  0.2581031E-004  0.4150694E+03  0.7818608E-02  0.1038683E+00
         -2   -1    0    0    0  501 -0.00000000000E+00  0.00000000000E+00  0.36727258390E+02  0.36727258478E+02  0.25500000000E-02 0. -1.
          2   -1    0    0  501    0  0.00000000000E+00 -0.00000000000E+00 -0.11727159619E+04  0.11727159619E+04  0.25500000000E-02 0.  1.
    5000001    1    1    2    0    0 -0.12231266968E+03  0.45714308786E+01 -0.24932752823E+03  0.30540874820E+03  0.12700000000E+03 0.  0.
   -5000001    1    1    2    0    0  0.12231266968E+03 -0.45714308786E+01 -0.88666117532E+03  0.90403447222E+03  0.12700000000E+03 0.  0.
<mgrwt>
<rscale>  0 0.41506935E+03</rscale>
<asrwt>0</asrwt>
<pdfrwt beam="1">  1        2 0.16753083E+00 0.41506935E+03</pdfrwt>
<pdfrwt beam="2">  1       -2 0.52467519E-02 0.41506935E+03</pdfrwt>
<totfact> 0.42403854E+03</totfact>
</mgrwt>
</event>
<event>
 4    1  0.2581031E-004  0.3183000E+03  0.7818608E-02  0.1076434E+00
         -2   -1    0    0    0  501 -0.00000000000E+00  0.00000000000E+00  0.17405753899E+02  0.17405754085E+02  0.25500000000E-02 0. -1.
          2   -1    0    0  501    0  0.00000000000E+00 -0.00000000000E+00 -0.14551926645E+04  0.14551926645E+04  0.25500000000E-02 0.  1.
    5000001    1    1    2    0    0 -0.79584872812E+02  0.50631901237E+02 -0.79934366164E+03  0.81484761201E+03  0.12700000000E+03 0.  0.
   -5000001    1    1    2    0    0  0.79584872812E+02 -0.50631901237E+02 -0.63844324901E+03  0.65775080662E+03  0.12700000000E+03 0.  0.
<mgrwt>
<rscale>  0 0.31830002E+03</rscale>
<asrwt>0</asrwt>
<pdfrwt beam="1">  1        2 0.20788459E+00 0.31830002E+03</pdfrwt>
<pdfrwt beam="2">  1       -2 0.24865372E-02 0.31830002E+03</pdfrwt>
<totfact> 0.92389832E+03</totfact>
</mgrwt>
</event>
<event>
 4    1  0.2581031E-004  0.5306344E+03  0.7818608E-02  0.1006078E+00
         -2   -1    0    0    0  501 -0.00000000000E+00  0.00000000000E+00  0.17595329466E+03  0.17595329468E+03  0.25500000000E-02 0. -1.
          2   -1    0    0  501    0  0.00000000000E+00 -0.00000000000E+00 -0.40006764608E+03  0.40006764609E+03  0.25500000000E-02 0.  1.
    5000001    1    1    2    0    0 -0.95349499726E+02  0.16298030466E+03 -0.26014432456E+03  0.34562722174E+03  0.12700000000E+03 0.  0.
   -5000001    1    1    2    0    0  0.95349499726E+02 -0.16298030466E+03  0.36029973136E+02  0.23039371903E+03  0.12700000000E+03 0.  0.
<mgrwt>
<rscale>  0 0.53063441E+03</rscale>
<asrwt>0</asrwt>
<pdfrwt beam="1">  1        2 0.57152520E-01 0.53063441E+03</pdfrwt>
<pdfrwt beam="2">  1       -2 0.25136185E-01 0.53063441E+03</pdfrwt>
<totfact> 0.12266167E+03</totfact>
</mgrwt>
</event>
<event>
 4    1  0.2581031E-004  0.3648034E+03  0.7818608E-02  0.1056698E+00
          2   -1    0    0  501    0  0.00000000000E+00  0.00000000000E+00  0.11604242485E+03  0.11604242488E+03  0.25500000000E-02 0.  1.
         -2   -1    0    0    0  501 -0.00000000000E+00 -0.00000000000E+00 -0.28670878340E+03  0.28670878341E+03  0.25500000000E-02 0. -1.
    5000001    1    1    2    0    0  0.12464535998E+03  0.22127598540E+02 -0.48463352264E+02  0.18575196606E+03  0.12700000000E+03 0.  0.
   -5000001    1    1    2    0    0 -0.12464535998E+03 -0.22127598540E+02 -0.12220300629E+03  0.21699924223E+03  0.12700000000E+03 0.  0.
<mgrwt>
<rscale>  0 0.36480341E+03</rscale>
<asrwt>0</asrwt>
<pdfrwt beam="1">  1        2 0.16577489E-01 0.36480341E+03</pdfrwt>
<pdfrwt beam="2">  1       -2 0.40958397E-01 0.36480341E+03</pdfrwt>
<totfact> 0.19813547E+03</totfact>
</mgrwt>
</event>
<event>
 4    1  0.2581031E-004  0.3527427E+03  0.7818608E-02  0.1061495E+00
         -2   -1    0    0    0  501 -0.00000000000E+00  0.00000000000E+00  0.16063643818E+03  0.16063643820E+03  0.25500000000E-02 0. -1.
          2   -1    0    0  501    0  0.00000000000E+00 -0.00000000000E+00 -0.19364757032E+03  0.19364757034E+03  0.25500000000E-02 0.  1.
    5000001    1    1    2    0    0  0.88184841543E+02 -0.83531812762E+02 -0.31528393217E+02  0.17854178671E+03  0.12700000000E+03 0.  0.
   -5000001    1    1    2    0    0 -0.88184841543E+02  0.83531812762E+02 -0.14827389201E+01  0.17574222184E+03  0.12700000000E+03 0.  0.
<mgrwt>
<rscale>  0 0.35274272E+03</rscale>
<asrwt>0</asrwt>
<pdfrwt beam="1">  1        2 0.27663938E-01 0.35274272E+03</pdfrwt>
<pdfrwt beam="2">  1       -2 0.22948063E-01 0.35274272E+03</pdfrwt>
<totfact> 0.31891520E+03</totfact>
</mgrwt>
</event>
<event>
 4    1  0.2581031E-004  0.3520958E+03  0.7818608E-02  0.1061758E+00
          2   -1    0    0  501    0  0.00000000000E+00  0.00000000000E+00  0.72888545647E+03  0.72888545647E+03  0.25500000000E-02 0.  1.
         -2   -1    0    0    0  501 -0.00000000000E+00 -0.00000000000E+00 -0.42520885190E+02  0.42520885267E+02  0.25500000000E-02 0. -1.
    5000001    1    1    2    0    0 -0.91509614405E+01  0.11286452255E+03  0.44217879993E+03  0.47378606105E+03  0.12700000000E+03 0.  0.
   -5000001    1    1    2    0    0  0.91509614405E+01 -0.11286452255E+03  0.24418577135E+03  0.29762028069E+03  0.12700000000E+03 0.  0.
<mgrwt>
<rscale>  0 0.35209575E+03</rscale>
<asrwt>0</asrwt>
<pdfrwt beam="1">  1        2 0.10412649E+00 0.35209575E+03</pdfrwt>
<pdfrwt beam="2">  1       -2 0.60744126E-02 0.35209575E+03</pdfrwt>
<totfact> 0.63785173E+03</totfact>
</mgrwt>
</event>
<event>
 4    1  0.2581031E-004  0.3147528E+03  0.7818608E-02  0.1078090E+00
          2   -1    0    0  501    0  0.00000000000E+00  0.00000000000E+00  0.26982992842E+03  0.26982992843E+03  0.25500000000E-02 0.  1.
         -2   -1    0    0    0  501 -0.00000000000E+00 -0.00000000000E+00 -0.91788668923E+02  0.91788668958E+02  0.25500000000E-02 0. -1.
    5000001    1    1    2    0    0  0.36751721298E+02  0.46681132551E+02  0.69045117107E+01  0.14037980423E+03  0.12700000000E+03 0.  0.
   -5000001    1    1    2    0    0 -0.36751721298E+02 -0.46681132551E+02  0.17113674779E+03  0.22123879316E+03  0.12700000000E+03 0.  0.
<mgrwt>
<rscale>  0 0.31475279E+03</rscale>
<asrwt>0</asrwt>
<pdfrwt beam="1">  1        2 0.38547133E-01 0.31475279E+03</pdfrwt>
<pdfrwt beam="2">  1       -2 0.13112667E-01 0.31475279E+03</pdfrwt>
<totfact> 0.56857266E+03</totfact>
</mgrwt>
</event>
<event>
 4    1  0.2581031E-004  0.3050480E+03  0.7818608E-02  0.1082744E+00
          2   -1    0    0  501    0  0.00000000000E+00  0.00000000000E+00  0.83044312599E+03  0.83044312599E+03  0.25500000000E-02 0.  1.
         -2   -1    0    0    0  501 -0.00000000000E+00 -0.00000000000E+00 -0.28013434723E+02  0.28013434839E+02  0.25500000000E-02 0. -1.
    5000001    1    1    2    0    0  0.42909562101E+02 -0.20091733361E+02  0.59799865216E+03  0.61316906009E+03  0.12700000000E+03 0.  0.
   -5000001    1    1    2    0    0 -0.42909562101E+02  0.20091733361E+02  0.20443103910E+03  0.24528750074E+03  0.12700000000E+03 0.  0.
<mgrwt>
<rscale>  0 0.30504796E+03</rscale>
<asrwt>0</asrwt>
<pdfrwt beam="1">  1        2 0.11863475E+00 0.30504796E+03</pdfrwt>
<pdfrwt beam="2">  1       -2 0.40019187E-02 0.30504796E+03</pdfrwt>
<totfact> 0.10222503E+04</totfact>
</mgrwt>
</event>
<event>
 4    1  0.2581031E-004  0.4707727E+03  0.7818608E-02  0.1021702E+00
          2   -1    0    0  501    0  0.00000000000E+00  0.00000000000E+00  0.10879723619E+04  0.10879723619E+04  0.25500000000E-02 0.  1.
         -2   -1    0    0    0  501 -0.00000000000E+00 -0.00000000000E+00 -0.50926590989E+02  0.50926591053E+02  0.25500000000E-02 0. -1.
    5000001    1    1    2    0    0  0.34753503079E+02 -0.17757974798E+03  0.71409566614E+03  0.74753193461E+03  0.12700000000E+03 0.  0.
   -5000001    1    1    2    0    0 -0.34753503079E+02  0.17757974798E+03  0.32295010475E+03  0.39136701832E+03  0.12700000000E+03 0.  0.
<mgrwt>
<rscale>  0 0.47077266E+03</rscale>
<asrwt>0</asrwt>
<pdfrwt beam="1">  1        2 0.15542463E+00 0.47077266E+03</pdfrwt>
<pdfrwt beam="2">  1       -2 0.72752272E-02 0.47077266E+03</pdfrwt>
<totfact> 0.28491653E+03</totfact>
</mgrwt>
</event>
<event>
 4    1  0.2581031E-004  0.3775064E+03  0.7818608E-02  0.1051859E+00
          2   -1    0    0  501    0  0.00000000000E+00  0.00000000000E+00  0.36152473913E+02  0.36152474003E+02  0.25500000000E-02 0.  1.
         -2   -1    0    0    0  501 -0.00000000000E+00 -0.00000000000E+00 -0.98548629281E+03  0.98548629282E+03  0.25500000000E-02 0. -1.
    5000001    1    1    2    0    0 -0.84223031927E+02 -0.11088915282E+03 -0.50290112643E+03  0.53705536612E+03  0.12700000000E+03 0.  0.
   -5000001    1    1    2    0    0  0.84223031927E+02  0.11088915282E+03 -0.44643269247E+03  0.48458340069E+03  0.12700000000E+03 0.  0.
<mgrwt>
<rscale>  0 0.37750638E+03</rscale>
<asrwt>0</asrwt>
<pdfrwt beam="1">  1        2 0.51646398E-02 0.37750638E+03</pdfrwt>
<pdfrwt beam="2">  1       -2 0.14078374E+00 0.37750638E+03</pdfrwt>
<totfact> 0.56527284E+02</totfact>
</mgrwt>
</event>
<event>
 4    1  0.2581031E-004  0.3048960E+03  0.7818608E-02  0.1082818E+00
         -2   -1    0    0    0  501 -0.00000000000E+00  0.00000000000E+00  0.13053295922E+03  0.13053295925E+03  0.25500000000E-02 0. -1.
          2   -1    0    0  501    0  0.00000000000E+00 -0.00000000000E+00 -0.17804229814E+03  0.17804229815E+03  0.25500000000E-02 0.  1.
    5000001    1    1    2    0    0 -0.54266890348E+02 -0.57174434791E+02  0.65664473775E+01  0.14961928222E+03  0.12700000000E+03 0.  0.
   -5000001    1    1    2    0    0  0.54266890348E+02  0.57174434791E+02 -0.54075786293E+02  0.15895597518E+03  0.12700000000E+03 0.  0.
<mgrwt>
<rscale>  0 0.30489597E+03</rscale>
<asrwt>0</asrwt>
<pdfrwt beam="1">  1        2 0.25434614E-01 0.30489597E+03</pdfrwt>
<pdfrwt beam="2">  1       -2 0.18647566E-01 0.30489597E+03</pdfrwt>
<totfact> 0.49914519E+03</totfact>
</mgrwt>
</event>
<event>
 4    1  0.2581031E-004  0.3865169E+03  0.7818608E-02  0.1048551E+00
         -2   -1    0    0    0  501 -0.00000000000E+00  0.00000000000E+00  0.19202281518E+02  0.19202281687E+02  0.25500000000E-02 0. -1.
          2   -1    0    0  501    0  0.00000000000E+00 -0.00000000000E+00 -0.19450204064E+04  0.19450204064E+04  0.25500000000E-02 0.  1.
    5000001    1    1    2    0    0  0.10392850872E+03 -0.98523244308E+02 -0.10984969960E+04  0.11150482567E+04  0.12700000000E+03 0.  0.
   -5000001    1    1    2    0    0 -0.10392850872E+03  0.98523244308E+02 -0.82732112881E+03  0.84917443130E+03  0.12700000000E+03 0.  0.
<mgrwt>
<rscale>  0 0.38651691E+03</rscale>
<asrwt>0</asrwt>
<pdfrwt beam="1">  1        2 0.27785993E+00 0.38651691E+03</pdfrwt>
<pdfrwt beam="2">  1       -2 0.27431843E-02 0.38651691E+03</pdfrwt>
<totfact> 0.45476172E+03</totfact>
</mgrwt>
</event>
<event>
 4    1  0.2581031E-004  0.3261865E+03  0.7818608E-02  0.1072837E+00
          2   -1    0    0  501    0  0.00000000000E+00  0.00000000000E+00  0.16594208345E+03  0.16594208347E+03  0.25500000000E-02 0.  1.
         -2   -1    0    0    0  501 -0.00000000000E+00 -0.00000000000E+00 -0.16029334842E+03  0.16029334844E+03  0.25500000000E-02 0. -1.
    5000001    1    1    2    0    0  0.33269086473E+02  0.69434579758E+02 -0.64583209787E+02  0.16195056026E+03  0.12700000000E+03 0.  0.
   -5000001    1    1    2    0    0 -0.33269086473E+02 -0.69434579758E+02  0.70231944824E+02  0.16428487166E+03  0.12700000000E+03 0.  0.
<mgrwt>
<rscale>  0 0.32618652E+03</rscale>
<asrwt>0</asrwt>
<pdfrwt beam="1">  1        2 0.23706012E-01 0.32618652E+03</pdfrwt>
<pdfrwt beam="2">  1       -2 0.22899050E-01 0.32618652E+03</pdfrwt>
<totfact> 0.37993749E+03</totfact>
</mgrwt>
</event>
<event>
 4    1  0.2581031E-004  0.4303196E+03  0.7818608E-02  0.1033759E+00
         -2   -1    0    0    0  501 -0.00000000000E+00  0.00000000000E+00  0.29038969760E+02  0.29038969872E+02  0.25500000000E-02 0. -1.
          2   -1    0    0  501    0  0.00000000000E+00 -0.00000000000E+00 -0.15941932324E+04  0.15941932324E+04  0.25500000000E-02 0.  1.
    5000001    1    1    2    0    0 -0.15882436508E+03 -0.16459280360E+02 -0.52483532281E+03  0.56309608676E+03  0.12700000000E+03 0.  0.
   -5000001    1    1    2    0    0  0.15882436508E+03  0.16459280360E+02 -0.10403189398E+04  0.10601361155E+04  0.12700000000E+03 0.  0.
<mgrwt>
<rscale>  0 0.43031955E+03</rscale>
<asrwt>0</asrwt>
<pdfrwt beam="1">  1        2 0.22774184E+00 0.43031955E+03</pdfrwt>
<pdfrwt beam="2">  1       -2 0.41484253E-02 0.43031955E+03</pdfrwt>
<totfact> 0.36414568E+03</totfact>
</mgrwt>
</event>
<event>
 4    1  0.2581031E-004  0.2903693E+03  0.7818608E-02  0.1090156E+00
         -2   -1    0    0    0  501 -0.00000000000E+00  0.00000000000E+00  0.14660711134E+02  0.14660711356E+02  0.25500000000E-02 0. -1.
          2   -1    0    0  501    0  0.00000000000E+00 -0.00000000000E+00 -0.14377602853E+04  0.14377602854E+04  0.25500000000E-02 0.  1.
    5000001    1    1    2    0    0  0.54410865830E+02 -0.36063976103E+02 -0.84279197174E+03  0.85480317052E+03  0.12700000000E+03 0.  0.
   -5000001    1    1    2    0    0 -0.54410865830E+02  0.36063976103E+02 -0.58030760247E+03  0.59761782619E+03  0.12700000000E+03 0.  0.
<mgrwt>
<rscale>  0 0.29036934E+03</rscale>
<asrwt>0</asrwt>
<pdfrwt beam="1">  1        2 0.20539424E+00 0.29036934E+03</pdfrwt>
<pdfrwt beam="2">  1       -2 0.20943882E-02 0.29036934E+03</pdfrwt>
<totfact> 0.12134149E+04</totfact>
</mgrwt>
</event>
<event>
 4    1  0.2581031E-004  0.3214995E+03  0.7818608E-02  0.1074961E+00
         -2   -1    0    0    0  501 -0.00000000000E+00  0.00000000000E+00  0.88827227099E+01  0.88827230759E+01  0.25500000000E-02 0. -1.
          2   -1    0    0  501    0  0.00000000000E+00 -0.00000000000E+00 -0.29090718845E+04  0.29090718845E+04  0.25500000000E-02 0.  1.
    5000001    1    1    2    0    0 -0.72877597545E+02  0.53086088034E+02 -0.18111129337E+04  0.18177976608E+04  0.12700000000E+03 0.  0.
   -5000001    1    1    2    0    0  0.72877597545E+02 -0.53086088034E+02 -0.10890762281E+04  0.11001569467E+04  0.12700000000E+03 0.  0.
<mgrwt>
<rscale>  0 0.32149948E+03</rscale>
<asrwt>0</asrwt>
<pdfrwt beam="1">  1        2 0.41558109E+00 0.32149948E+03</pdfrwt>
<pdfrwt beam="2">  1       -2 0.12689623E-02 0.32149948E+03</pdfrwt>
<totfact> 0.46619393E+03</totfact>
</mgrwt>
</event>
<event>
 4    1  0.2581031E-004  0.3598352E+03  0.7818608E-02  0.1058649E+00
         -2   -1    0    0    0  501 -0.00000000000E+00  0.00000000000E+00  0.37090782703E+02  0.37090782790E+02  0.25500000000E-02 0. -1.
          2   -1    0    0  501    0  0.00000000000E+00 -0.00000000000E+00 -0.87273285383E+03  0.87273285383E+03  0.25500000000E-02 0.  1.
    5000001    1    1    2    0    0  0.28052476183E+02 -0.36286303753E+02 -0.11718360390E+03  0.17878656069E+03  0.12700000000E+03 0.  0.
   -5000001    1    1    2    0    0 -0.28052476183E+02  0.36286303753E+02 -0.71845846723E+03  0.73103707593E+03  0.12700000000E+03 0.  0.
<mgrwt>
<rscale>  0 0.35983521E+03</rscale>
<asrwt>0</asrwt>
<pdfrwt beam="1">  1        2 0.12467611E+00 0.35983521E+03</pdfrwt>
<pdfrwt beam="2">  1       -2 0.52986838E-02 0.35983521E+03</pdfrwt>
<totfact> 0.62867585E+03</totfact>
</mgrwt>
</event>
<event>
 4    1  0.2581031E-004  0.5811421E+03  0.7818608E-02  0.9945322E-01
         -2   -1    0    0    0  501 -0.00000000000E+00  0.00000000000E+00  0.58212056156E+02  0.58212056212E+02  0.25500000000E-02 0. -1.
          2   -1    0    0  501    0  0.00000000000E+00 -0.00000000000E+00 -0.14504130757E+04  0.14504130757E+04  0.25500000000E-02 0.  1.
    5000001    1    1    2    0    0 -0.10845907941E+03  0.22479644899E+03 -0.49492214535E+03  0.56865960410E+03  0.12700000000E+03 0.  0.
   -5000001    1    1    2    0    0  0.10845907941E+03 -0.22479644899E+03 -0.89727887419E+03  0.93996552780E+03  0.12700000000E+03 0.  0.
<mgrwt>
<rscale>  0 0.58114207E+03</rscale>
<asrwt>0</asrwt>
<pdfrwt beam="1">  1        2 0.20720185E+00 0.58114207E+03</pdfrwt>
<pdfrwt beam="2">  1       -2 0.83160089E-02 0.58114207E+03</pdfrwt>
<totfact> 0.14563076E+03</totfact>
</mgrwt>
</event>
<event>
 4    1  0.2581031E-004  0.2732264E+03  0.7818608E-02  0.1099447E+00
          2   -1    0    0  501    0  0.00000000000E+00  0.00000000000E+00  0.44869137009E+03  0.44869137009E+03  0.25500000000E-02 0.  1.
         -2   -1    0    0    0  501 -0.00000000000E+00 -0.00000000000E+00 -0.41594668042E+02  0.41594668120E+02  0.25500000000E-02 0. -1.
    5000001    1    1    2    0    0 -0.40084521860E+02  0.77737820309E+01  0.25638416261E+03  0.28901390869E+03  0.12700000000E+03 0.  0.
   -5000001    1    1    2    0    0  0.40084521860E+02 -0.77737820309E+01  0.15071253944E+03  0.20127212952E+03  0.12700000000E+03 0.  0.
<mgrwt>
<rscale>  0 0.27322642E+03</rscale>
<asrwt>0</asrwt>
<pdfrwt beam="1">  1        2 0.64098762E-01 0.27322642E+03</pdfrwt>
<pdfrwt beam="2">  1       -2 0.59420959E-02 0.27322642E+03</pdfrwt>
<totfact> 0.11383535E+04</totfact>
</mgrwt>
</event>
<event>
 4    1  0.2581031E-004  0.8015038E+03  0.7818608E-02  0.9557843E-01
         -2   -1    0    0    0  501 -0.00000000000E+00  0.00000000000E+00  0.55645311468E+02  0.55645311527E+02  0.25500000000E-02 0. -1.
          2   -1    0    0  501    0  0.00000000000E+00 -0.00000000000E+00 -0.28861749362E+04  0.28861749362E+04  0.25500000000E-02 0.  1.
    5000001    1    1    2    0    0 -0.30114709299E+03  0.22289958832E+03 -0.11802660076E+04  0.12448014487E+04  0.12700000000E+03 0.  0.
   -5000001    1    1    2    0    0  0.30114709299E+03 -0.22289958832E+03 -0.16502636172E+04  0.16970187991E+04  0.12700000000E+03 0.  0.
<mgrwt>
<rscale>  0 0.80150384E+03</rscale>
<asrwt>0</asrwt>
<pdfrwt beam="1">  1        2 0.41231061E+00 0.80150384E+03</pdfrwt>
<pdfrwt beam="2">  1       -2 0.79493321E-02 0.80150384E+03</pdfrwt>
<totfact> 0.28182963E+02</totfact>
</mgrwt>
</event>
<event>
 4    1  0.2581031E-004  0.4310955E+03  0.7818608E-02  0.1033514E+00
         -2   -1    0    0    0  501 -0.00000000000E+00  0.00000000000E+00  0.43853466677E+02  0.43853466751E+02  0.25500000000E-02 0. -1.
          2   -1    0    0  501    0  0.00000000000E+00 -0.00000000000E+00 -0.10594561828E+04  0.10594561828E+04  0.25500000000E-02 0.  1.
    5000001    1    1    2    0    0  0.56738473997E+02  0.15542162966E+03 -0.64696531922E+03  0.67975603099E+03  0.12700000000E+03 0.  0.
   -5000001    1    1    2    0    0 -0.56738473997E+02 -0.15542162966E+03 -0.36863739689E+03  0.42355361855E+03  0.12700000000E+03 0.  0.
<mgrwt>
<rscale>  0 0.43109547E+03</rscale>
<asrwt>0</asrwt>
<pdfrwt beam="1">  1        2 0.15135087E+00 0.43109547E+03</pdfrwt>
<pdfrwt beam="2">  1       -2 0.62647816E-02 0.43109547E+03</pdfrwt>
<totfact> 0.37398227E+03</totfact>
</mgrwt>
</event>
<event>
 4    1  0.2581031E-004  0.3848286E+03  0.7818608E-02  0.1049163E+00
         -2   -1    0    0    0  501 -0.00000000000E+00  0.00000000000E+00  0.35700590423E+02  0.35700590514E+02  0.25500000000E-02 0. -1.
          2   -1    0    0  501    0  0.00000000000E+00 -0.00000000000E+00 -0.10370490234E+04  0.10370490234E+04  0.25500000000E-02 0.  1.
    5000001    1    1    2    0    0  0.66278339974E+02 -0.10972509141E+03 -0.31447046109E+03  0.36256459416E+03  0.12700000000E+03 0.  0.
   -5000001    1    1    2    0    0 -0.66278339974E+02  0.10972509141E+03 -0.68687797190E+03  0.71018501978E+03  0.12700000000E+03 0.  0.
<mgrwt>
<rscale>  0 0.38482860E+03</rscale>
<asrwt>0</asrwt>
<pdfrwt beam="1">  1        2 0.14814984E+00 0.38482860E+03</pdfrwt>
<pdfrwt beam="2">  1       -2 0.51000850E-02 0.38482860E+03</pdfrwt>
<totfact> 0.52911797E+03</totfact>
</mgrwt>
</event>
<event>
 4    1  0.2581031E-004  0.3391069E+03  0.7818608E-02  0.1067177E+00
         -2   -1    0    0    0  501 -0.00000000000E+00  0.00000000000E+00  0.68645318752E+02  0.68645318799E+02  0.25500000000E-02 0.  1.
          2   -1    0    0  501    0  0.00000000000E+00 -0.00000000000E+00 -0.41879570914E+03  0.41879570915E+03  0.25500000000E-02 0. -1.
    5000001    1    1    2    0    0  0.57083799574E+02  0.87833902204E+02 -0.11675730562E+03  0.20182820161E+03  0.12700000000E+03 0.  0.
   -5000001    1    1    2    0    0 -0.57083799574E+02 -0.87833902204E+02 -0.23339308477E+03  0.28561282633E+03  0.12700000000E+03 0.  0.
<mgrwt>
<rscale>  0 0.33910686E+03</rscale>
<asrwt>0</asrwt>
<pdfrwt beam="1">  1        2 0.59827957E-01 0.33910686E+03</pdfrwt>
<pdfrwt beam="2">  1       -2 0.98064743E-02 0.33910686E+03</pdfrwt>
<totfact> 0.56541981E+03</totfact>
</mgrwt>
</event>
<event>
 4    1  0.2581031E-004  0.3412593E+03  0.7818608E-02  0.1066261E+00
         -2   -1    0    0    0  501 -0.00000000000E+00  0.00000000000E+00  0.35886222579E+02  0.35886222670E+02  0.25500000000E-02 0. -1.
          2   -1    0    0  501    0  0.00000000000E+00 -0.00000000000E+00 -0.81129953126E+03  0.81129953126E+03  0.25500000000E-02 0.  1.
    5000001    1    1    2    0    0  0.10022705316E+03  0.54044687782E+02 -0.39858033515E+03  0.43354535407E+03  0.12700000000E+03 0.  0.
   -5000001    1    1    2    0    0 -0.10022705316E+03 -0.54044687782E+02 -0.37683297353E+03  0.41364039987E+03  0.12700000000E+03 0.  0.
<mgrwt>
<rscale>  0 0.34125929E+03</rscale>
<asrwt>0</asrwt>
<pdfrwt beam="1">  1        2 0.11589992E+00 0.34125929E+03</pdfrwt>
<pdfrwt beam="2">  1       -2 0.51266037E-02 0.34125929E+03</pdfrwt>
<totfact> 0.72493203E+03</totfact>
</mgrwt>
</event>
<event>
 4    1  0.2581031E-004  0.6165919E+03  0.7818608E-02  0.9871569E-01
          2   -1    0    0  501    0  0.00000000000E+00  0.00000000000E+00  0.10178710478E+04  0.10178710478E+04  0.25500000000E-02 0.  1.
         -2   -1    0    0    0  501 -0.00000000000E+00 -0.00000000000E+00 -0.93377637389E+02  0.93377637424E+02  0.25500000000E-02 0. -1.
    5000001    1    1    2    0    0  0.23124051605E+03  0.15578017649E+03  0.40039655857E+03  0.50416866599E+03  0.12700000000E+03 0.  0.
   -5000001    1    1    2    0    0 -0.23124051605E+03 -0.15578017649E+03  0.52409685185E+03  0.60708001925E+03  0.12700000000E+03 0.  0.
<mgrwt>
<rscale>  0 0.61659190E+03</rscale>
<asrwt>0</asrwt>
<pdfrwt beam="1">  1        2 0.14541015E+00 0.61659190E+03</pdfrwt>
<pdfrwt beam="2">  1       -2 0.13339662E-01 0.61659190E+03</pdfrwt>
<totfact> 0.11744494E+03</totfact>
</mgrwt>
</event>
<event>
 4    1  0.2581031E-004  0.4940417E+03  0.7818608E-02  0.1015346E+00
          2   -1    0    0  501    0  0.00000000000E+00  0.00000000000E+00  0.95118523426E+03  0.95118523426E+03  0.25500000000E-02 0.  1.
         -2   -1    0    0    0  501 -0.00000000000E+00 -0.00000000000E+00 -0.64150806480E+02  0.64150806530E+02  0.25500000000E-02 0. -1.
    5000001    1    1    2    0    0 -0.20160008204E+03  0.80198763937E+01  0.31059110514E+03  0.39153894581E+03  0.12700000000E+03 0.  0.
   -5000001    1    1    2    0    0  0.20160008204E+03 -0.80198763937E+01  0.57644332264E+03  0.62379709498E+03  0.12700000000E+03 0.  0.
<mgrwt>
<rscale>  0 0.49404170E+03</rscale>
<asrwt>0</asrwt>
<pdfrwt beam="1">  1        2 0.13588361E+00 0.49404170E+03</pdfrwt>
<pdfrwt beam="2">  1       -2 0.91644005E-02 0.49404170E+03</pdfrwt>
<totfact> 0.23848051E+03</totfact>
</mgrwt>
</event>
<event>
 4    1  0.2581031E-004  0.3761846E+03  0.7818608E-02  0.1052353E+00
         -2   -1    0    0    0  501 -0.00000000000E+00  0.00000000000E+00  0.31597195218E+02  0.31597195321E+02  0.25500000000E-02 0. -1.
          2   -1    0    0  501    0  0.00000000000E+00 -0.00000000000E+00 -0.11196789685E+04  0.11196789685E+04  0.25500000000E-02 0.  1.
    5000001    1    1    2    0    0  0.11525760514E+03  0.25071926747E+02 -0.76761363758E+03  0.78693876105E+03  0.12700000000E+03 0.  0.
   -5000001    1    1    2    0    0 -0.11525760514E+03 -0.25071926747E+02 -0.32046813569E+03  0.36433740276E+03  0.12700000000E+03 0.  0.
<mgrwt>
<rscale>  0 0.37618461E+03</rscale>
<asrwt>0</asrwt>
<pdfrwt beam="1">  1        2 0.15995411E+00 0.37618461E+03</pdfrwt>
<pdfrwt beam="2">  1       -2 0.45138857E-02 0.37618461E+03</pdfrwt>
<totfact> 0.57135836E+03</totfact>
</mgrwt>
</event>
<event>
 4    1  0.2581031E-004  0.4589018E+03  0.7818608E-02  0.1025100E+00
          2   -1    0    0  501    0  0.00000000000E+00  0.00000000000E+00  0.25844339134E+04  0.25844339134E+04  0.25500000000E-02 0.  1.
         -2   -1    0    0    0  501 -0.00000000000E+00 -0.00000000000E+00 -0.20371085148E+02  0.20371085307E+02  0.25500000000E-02 0. -1.
    5000001    1    1    2    0    0  0.33157635296E+02  0.95502435932E+02  0.22025266979E+04  0.22085001695E+04  0.12700000000E+03 0.  0.
   -5000001    1    1    2    0    0 -0.33157635296E+02 -0.95502435932E+02  0.36153613039E+03  0.39630482917E+03  0.12700000000E+03 0.  0.
<mgrwt>
<rscale>  0 0.45890183E+03</rscale>
<asrwt>0</asrwt>
<pdfrwt beam="1">  1        2 0.36920457E+00 0.45890183E+03</pdfrwt>
<pdfrwt beam="2">  1       -2 0.29101572E-02 0.45890183E+03</pdfrwt>
<totfact> 0.19860527E+03</totfact>
</mgrwt>
</event>
<event>
 4    1  0.2581031E-004  0.2989147E+03  0.7818608E-02  0.1085784E+00
         -2   -1    0    0    0  501 -0.00000000000E+00  0.00000000000E+00  0.87913722076E+01  0.87913725774E+01  0.25500000000E-02 0. -1.
          2   -1    0    0  501    0  0.00000000000E+00 -0.00000000000E+00 -0.25408438368E+04  0.25408438368E+04  0.25500000000E-02 0.  1.
    5000001    1    1    2    0    0  0.55199501361E+02 -0.55397392864E+02 -0.13481274125E+04  0.13563526003E+04  0.12700000000E+03 0.  0.
   -5000001    1    1    2    0    0 -0.55199501361E+02  0.55397392864E+02 -0.11839250520E+04  0.11932826090E+04  0.12700000000E+03 0.  0.
<mgrwt>
<rscale>  0 0.29891473E+03</rscale>
<asrwt>0</asrwt>
<pdfrwt beam="1">  1        2 0.36297722E+00 0.29891473E+03</pdfrwt>
<pdfrwt beam="2">  1       -2 0.12559120E-02 0.29891473E+03</pdfrwt>
<totfact> 0.73195679E+03</totfact>
</mgrwt>
</event>
<event>
 4    1  0.2581031E-004  0.4256343E+03  0.7818608E-02  0.1035248E+00
          2   -1    0    0  501    0  0.00000000000E+00  0.00000000000E+00  0.53329491791E+02  0.53329491852E+02  0.25500000000E-02 0.  1.
         -2   -1    0    0    0  501 -0.00000000000E+00 -0.00000000000E+00 -0.84927018272E+03  0.84927018273E+03  0.25500000000E-02 0. -1.
    5000001    1    1    2    0    0  0.30734173533E+02  0.16755797828E+03 -0.42322967380E+03  0.47357430494E+03  0.12700000000E+03 0.  0.
   -5000001    1    1    2    0    0 -0.30734173533E+02 -0.16755797828E+03 -0.37271101713E+03  0.42902536964E+03  0.12700000000E+03 0.  0.
<mgrwt>
<rscale>  0 0.42563434E+03</rscale>
<asrwt>0</asrwt>
<pdfrwt beam="1">  1        2 0.76184994E-02 0.42563434E+03</pdfrwt>
<pdfrwt beam="2">  1       -2 0.12132430E+00 0.42563434E+03</pdfrwt>
<totfact> 0.49248294E+02</totfact>
</mgrwt>
</event>
<event>
 4    1  0.2581031E-004  0.3847228E+03  0.7818608E-02  0.1049202E+00
         -2   -1    0    0    0  501 -0.00000000000E+00  0.00000000000E+00  0.14151105037E+02  0.14151105267E+02  0.25500000000E-02 0. -1.
          2   -1    0    0  501    0  0.00000000000E+00 -0.00000000000E+00 -0.26148425516E+04  0.26148425516E+04  0.25500000000E-02 0.  1.
    5000001    1    1    2    0    0 -0.24881550943E+02  0.14209422284E+03 -0.12456556504E+04  0.12603955169E+04  0.12700000000E+03 0.  0.
   -5000001    1    1    2    0    0  0.24881550943E+02 -0.14209422284E+03 -0.13550357962E+04  0.13685981399E+04  0.12700000000E+03 0.  0.
<mgrwt>
<rscale>  0 0.38472282E+03</rscale>
<asrwt>0</asrwt>
<pdfrwt beam="1">  1        2 0.37354863E+00 0.38472282E+03</pdfrwt>
<pdfrwt beam="2">  1       -2 0.20215881E-02 0.38472282E+03</pdfrwt>
<totfact> 0.33207686E+03</totfact>
</mgrwt>
</event>
<event>
 4    1  0.2581031E-004  0.6632524E+03  0.7818608E-02  0.9782225E-01
          2   -1    0    0  501    0  0.00000000000E+00  0.00000000000E+00  0.93854733838E+03  0.93854733839E+03  0.25500000000E-02 0.  1.
         -2   -1    0    0    0  501 -0.00000000000E+00 -0.00000000000E+00 -0.11717674892E+03  0.11717674895E+03  0.25500000000E-02 0. -1.
    5000001    1    1    2    0    0 -0.33135084295E+02 -0.28970005290E+03  0.56019748212E+03  0.64418496834E+03  0.12700000000E+03 0.  0.
   -5000001    1    1    2    0    0  0.33135084295E+02  0.28970005290E+03  0.26117310734E+03  0.41153911899E+03  0.12700000000E+03 0.  0.
<mgrwt>
<rscale>  0 0.66325237E+03</rscale>
<asrwt>0</asrwt>
<pdfrwt beam="1">  1        2 0.13407820E+00 0.66325237E+03</pdfrwt>
<pdfrwt beam="2">  1       -2 0.16739535E-01 0.66325237E+03</pdfrwt>
<totfact> 0.89574593E+02</totfact>
</mgrwt>
</event>
<event>
 4    1  0.2581031E-004  0.3159516E+03  0.7818608E-02  0.1077528E+00
         -2   -1    0    0    0  501 -0.00000000000E+00  0.00000000000E+00  0.40208387827E+02  0.40208387908E+02  0.25500000000E-02 0. -1.
          2   -1    0    0  501    0  0.00000000000E+00 -0.00000000000E+00 -0.62067540428E+03  0.62067540429E+03  0.25500000000E-02 0.  1.
    5000001    1    1    2    0    0  0.27017192430E+02 -0.55177034303E+02 -0.43892149222E+03  0.46103742812E+03  0.12700000000E+03 0.  0.
   -5000001    1    1    2    0    0 -0.27017192430E+02  0.55177034303E+02 -0.14154552424E+03  0.19984636407E+03  0.12700000000E+03 0.  0.
<mgrwt>
<rscale>  0 0.31595163E+03</rscale>
<asrwt>0</asrwt>
<pdfrwt beam="1">  1        2 0.88667909E-01 0.31595163E+03</pdfrwt>
<pdfrwt beam="2">  1       -2 0.57440558E-02 0.31595163E+03</pdfrwt>
<totfact> 0.83835324E+03</totfact>
</mgrwt>
</event>
<event>
 4    1  0.2581031E-004  0.3327946E+03  0.7818608E-02  0.1069907E+00
          2   -1    0    0  501    0  0.00000000000E+00  0.00000000000E+00  0.19345288752E+04  0.19345288752E+04  0.25500000000E-02 0.  1.
         -2   -1    0    0    0  501 -0.00000000000E+00 -0.00000000000E+00 -0.14312564577E+02  0.14312564804E+02  0.25500000000E-02 0. -1.
    5000001    1    1    2    0    0  0.39780863785E+02 -0.90315825246E+02  0.71031033570E+03  0.72829200080E+03  0.12700000000E+03 0.  0.
   -5000001    1    1    2    0    0 -0.39780863785E+02  0.90315825246E+02  0.12099059750E+04  0.12205494392E+04  0.12700000000E+03 0.  0.
<mgrwt>
<rscale>  0 0.33279465E+03</rscale>
<asrwt>0</asrwt>
<pdfrwt beam="1">  1        2 0.27636147E+00 0.33279465E+03</pdfrwt>
<pdfrwt beam="2">  1       -2 0.20446506E-02 0.33279465E+03</pdfrwt>
<totfact> 0.71284276E+03</totfact>
</mgrwt>
</event>
<event>
 4    1  0.2581031E-004  0.3310631E+03  0.7818608E-02  0.1070667E+00
          2   -1    0    0  501    0  0.00000000000E+00  0.00000000000E+00  0.11434021286E+04  0.11434021286E+04  0.25500000000E-02 0.  1.
         -2   -1    0    0    0  501 -0.00000000000E+00 -0.00000000000E+00 -0.23964181902E+02  0.23964182038E+02  0.25500000000E-02 0. -1.
    5000001    1    1    2    0    0  0.53868710435E+02 -0.90821487083E+02  0.59855687471E+03  0.62092649544E+03  0.12700000000E+03 0.  0.
   -5000001    1    1    2    0    0 -0.53868710435E+02  0.90821487083E+02  0.52088107202E+03  0.54643981523E+03  0.12700000000E+03 0.  0.
<mgrwt>
<rscale>  0 0.33106312E+03</rscale>
<asrwt>0</asrwt>
<pdfrwt beam="1">  1        2 0.16334316E+00 0.33106312E+03</pdfrwt>
<pdfrwt beam="2">  1       -2 0.34234547E-02 0.33106312E+03</pdfrwt>
<totfact> 0.84018259E+03</totfact>
</mgrwt>
</event>
<event>
 4    1  0.2581031E-004  0.4400345E+03  0.7818608E-02  0.1030736E+00
          2   -1    0    0  501    0  0.00000000000E+00  0.00000000000E+00  0.37070138523E+04  0.37070138523E+04  0.25500000000E-02 0.  1.
         -2   -1    0    0    0  501 -0.00000000000E+00 -0.00000000000E+00 -0.13058381239E+02  0.13058381488E+02  0.25500000000E-02 0. -1.
    5000001    1    1    2    0    0  0.14848368223E+03  0.10046397709E+03  0.17475982693E+04  0.17613543441E+04  0.12700000000E+03 0.  0.
   -5000001    1    1    2    0    0 -0.14848368223E+03 -0.10046397709E+03  0.19463572018E+04  0.19587178897E+04  0.12700000000E+03 0.  0.
<mgrwt>
<rscale>  0 0.44003455E+03</rscale>
<asrwt>0</asrwt>
<pdfrwt beam="1">  1        2 0.52957280E+00 0.44003455E+03</pdfrwt>
<pdfrwt beam="2">  1       -2 0.18654852E-02 0.44003455E+03</pdfrwt>
<totfact> 0.92150113E+02</totfact>
</mgrwt>
</event>
<event>
 4    1  0.2581031E-004  0.3031661E+03  0.7818608E-02  0.1083669E+00
          2   -1    0    0  501    0  0.00000000000E+00  0.00000000000E+00  0.51427849550E+03  0.51427849550E+03  0.25500000000E-02 0.  1.
         -2   -1    0    0    0  501 -0.00000000000E+00 -0.00000000000E+00 -0.44678959511E+02  0.44678959583E+02  0.25500000000E-02 0. -1.
    5000001    1    1    2    0    0 -0.60265879056E+02 -0.50341965716E+02  0.28295398231E+03  0.31993475240E+03  0.12700000000E+03 0.  0.
   -5000001    1    1    2    0    0  0.60265879056E+02  0.50341965716E+02  0.18664555367E+03  0.23902270268E+03  0.12700000000E+03 0.  0.
<mgrwt>
<rscale>  0 0.30316615E+03</rscale>
<asrwt>0</asrwt>
<pdfrwt beam="1">  1        2 0.73468354E-01 0.30316615E+03</pdfrwt>
<pdfrwt beam="2">  1       -2 0.63827087E-02 0.30316615E+03</pdfrwt>
<totfact> 0.88094484E+03</totfact>
</mgrwt>
</event>
<event>
 4    1  0.2581031E-004  0.4949151E+03  0.7818608E-02  0.1015115E+00
         -2   -1    0    0    0  501 -0.00000000000E+00  0.00000000000E+00  0.87206080255E+02  0.87206080293E+02  0.25500000000E-02 0. -1.
          2   -1    0    0  501    0  0.00000000000E+00 -0.00000000000E+00 -0.70218989403E+03  0.70218989403E+03  0.25500000000E-02 0.  1.
    5000001    1    1    2    0    0  0.15532606277E+03  0.14396916603E+03 -0.28212559612E+03  0.37493620595E+03  0.12700000000E+03 0.  0.
   -5000001    1    1    2    0    0 -0.15532606277E+03 -0.14396916603E+03 -0.33285821765E+03  0.41445976838E+03  0.12700000000E+03 0.  0.
<mgrwt>
<rscale>  0 0.49491506E+03</rscale>
<asrwt>0</asrwt>
<pdfrwt beam="1">  1        2 0.10031284E+00 0.49491506E+03</pdfrwt>
<pdfrwt beam="2">  1       -2 0.12458012E-01 0.49491506E+03</pdfrwt>
<totfact> 0.21380474E+03</totfact>
</mgrwt>
</event>
<event>
 4    1  0.2581031E-004  0.4440346E+03  0.7818608E-02  0.1029516E+00
         -2   -1    0    0    0  501 -0.00000000000E+00  0.00000000000E+00  0.93283143834E+02  0.93283143869E+02  0.25500000000E-02 0. -1.
          2   -1    0    0  501    0  0.00000000000E+00 -0.00000000000E+00 -0.52840920773E+03  0.52840920774E+03  0.25500000000E-02 0.  1.
    5000001    1    1    2    0    0  0.29810523180E+02 -0.12242280188E+03 -0.40164630553E+03  0.43968712110E+03  0.12700000000E+03 0.  0.
   -5000001    1    1    2    0    0 -0.29810523180E+02  0.12242280188E+03 -0.33479758366E+02  0.18200523051E+03  0.12700000000E+03 0.  0.
<mgrwt>
<rscale>  0 0.44403456E+03</rscale>
<asrwt>0</asrwt>
<pdfrwt beam="1">  1        2 0.75487028E-01 0.44403456E+03</pdfrwt>
<pdfrwt beam="2">  1       -2 0.13326164E-01 0.44403456E+03</pdfrwt>
<totfact> 0.26680893E+03</totfact>
</mgrwt>
</event>
<event>
 4    1  0.2581031E-004  0.6366227E+03  0.7818608E-02  0.9832210E-01
         -2   -1    0    0    0  501 -0.00000000000E+00  0.00000000000E+00  0.49057813571E+03  0.49057813572E+03  0.25500000000E-02 0. -1.
          2   -1    0    0  501    0  0.00000000000E+00 -0.00000000000E+00 -0.20653613432E+03  0.20653613434E+03  0.25500000000E-02 0.  1.
    5000001    1    1    2    0    0 -0.11952483479E+03 -0.93317111913E+02  0.41511553690E+03  0.45983059759E+03  0.12700000000E+03 0.  0.
   -5000001    1    1    2    0    0  0.11952483479E+03  0.93317111913E+02 -0.13107353551E+03  0.23728367246E+03  0.12700000000E+03 0.  0.
<mgrwt>
<rscale>  0 0.63662269E+03</rscale>
<asrwt>0</asrwt>
<pdfrwt beam="1">  1        2 0.29505162E-01 0.63662269E+03</pdfrwt>
<pdfrwt beam="2">  1       -2 0.70082591E-01 0.63662269E+03</pdfrwt>
<totfact> 0.33949871E+02</totfact>
</mgrwt>
</event>
<event>
 4    1  0.2581031E-004  0.3322478E+03  0.7818608E-02  0.1070147E+00
         -2   -1    0    0    0  501 -0.00000000000E+00  0.00000000000E+00  0.24792885293E+03  0.24792885294E+03  0.25500000000E-02 0. -1.
          2   -1    0    0  501    0  0.00000000000E+00 -0.00000000000E+00 -0.11131076035E+03  0.11131076038E+03  0.25500000000E-02 0.  1.
    5000001    1    1    2    0    0  0.67834585507E+02  0.68765179371E+02  0.18314487450E+02  0.16060697785E+03  0.12700000000E+03 0.  0.
   -5000001    1    1    2    0    0 -0.67834585507E+02 -0.68765179371E+02  0.11830360513E+03  0.19863263546E+03  0.12700000000E+03 0.  0.
<mgrwt>
<rscale>  0 0.33224779E+03</rscale>
<asrwt>0</asrwt>
<pdfrwt beam="1">  1        2 0.15901537E-01 0.33224779E+03</pdfrwt>
<pdfrwt beam="2">  1       -2 0.35418407E-01 0.33224779E+03</pdfrwt>
<totfact> 0.27392597E+03</totfact>
</mgrwt>
</event>
<event>
 4    1  0.2581031E-004  0.3329341E+03  0.7818608E-02  0.1069846E+00
         -2   -1    0    0    0  501 -0.00000000000E+00  0.00000000000E+00  0.86928323296E+02  0.86928323334E+02  0.25500000000E-02 0. -1.
          2   -1    0    0  501    0  0.00000000000E+00 -0.00000000000E+00 -0.31878316513E+03  0.31878316515E+03  0.25500000000E-02 0.  1.
    5000001    1    1    2    0    0  0.72310076259E+02  0.41261229941E+02 -0.19903382004E+03  0.25034915168E+03  0.12700000000E+03 0.  0.
   -5000001    1    1    2    0    0 -0.72310076259E+02 -0.41261229941E+02 -0.32821021796E+02  0.15536233680E+03  0.12700000000E+03 0.  0.
<mgrwt>
<rscale>  0 0.33293414E+03</rscale>
<asrwt>0</asrwt>
<pdfrwt beam="1">  1        2 0.45540452E-01 0.33293414E+03</pdfrwt>
<pdfrwt beam="2">  1       -2 0.12418332E-01 0.33293414E+03</pdfrwt>
<totfact> 0.51960247E+03</totfact>
</mgrwt>
</event>
<event>
 4    1  0.2581031E-004  0.3003830E+03  0.7818608E-02  0.1085049E+00
          2   -1    0    0  501    0  0.00000000000E+00  0.00000000000E+00  0.58347863289E+02  0.58347863344E+02  0.25500000000E-02 0.  1.
         -2   -1    0    0    0  501 -0.00000000000E+00 -0.00000000000E+00 -0.38660336342E+03  0.38660336343E+03  0.25500000000E-02 0. -1.
    5000001    1    1    2    0    0  0.41684317968E+02  0.52073675607E+02 -0.23002772810E+03  0.27109224583E+03  0.12700000000E+03 0.  0.
   -5000001    1    1    2    0    0 -0.41684317968E+02 -0.52073675607E+02 -0.98227772035E+02  0.17385898094E+03  0.12700000000E+03 0.  0.
<mgrwt>
<rscale>  0 0.30038296E+03</rscale>
<asrwt>0</asrwt>
<pdfrwt beam="1">  1        2 0.83354093E-02 0.30038296E+03</pdfrwt>
<pdfrwt beam="2">  1       -2 0.55229050E-01 0.30038296E+03</pdfrwt>
<totfact> 0.25340172E+03</totfact>
</mgrwt>
</event>
<event>
 4    1  0.2581031E-004  0.4327583E+03  0.7818608E-02  0.1032992E+00
         -2   -1    0    0    0  501 -0.00000000000E+00  0.00000000000E+00  0.53514332193E+02  0.53514332253E+02  0.25500000000E-02 0. -1.
          2   -1    0    0  501    0  0.00000000000E+00 -0.00000000000E+00 -0.87490445618E+03  0.87490445619E+03  0.25500000000E-02 0.  1.
    5000001    1    1    2    0    0  0.16897057520E+03  0.35027251414E+02 -0.34587261693E+03  0.40685971878E+03  0.12700000000E+03 0.  0.
   -5000001    1    1    2    0    0 -0.16897057520E+03 -0.35027251414E+02 -0.47551750706E+03  0.52155906966E+03  0.12700000000E+03 0.  0.
<mgrwt>
<rscale>  0 0.43275826E+03</rscale>
<asrwt>0</asrwt>
<pdfrwt beam="1">  1        2 0.12498634E+00 0.43275826E+03</pdfrwt>
<pdfrwt beam="2">  1       -2 0.76449051E-02 0.43275826E+03</pdfrwt>
<totfact> 0.35534709E+03</totfact>
</mgrwt>
</event>
<event>
 4    1  0.2581031E-004  0.4552380E+03  0.7818608E-02  0.1026171E+00
         -2   -1    0    0    0  501 -0.00000000000E+00  0.00000000000E+00  0.10448621876E+03  0.10448621879E+03  0.25500000000E-02 0. -1.
          2   -1    0    0  501    0  0.00000000000E+00 -0.00000000000E+00 -0.49585881624E+03  0.49585881624E+03  0.25500000000E-02 0.  1.
    5000001    1    1    2    0    0  0.68784386192E+02 -0.12971186585E+03 -0.35241765966E+03  0.40234769388E+03  0.12700000000E+03 0.  0.
   -5000001    1    1    2    0    0 -0.68784386192E+02  0.12971186585E+03 -0.38954937816E+02  0.19799734116E+03  0.12700000000E+03 0.  0.
<mgrwt>
<rscale>  0 0.45523802E+03</rscale>
<asrwt>0</asrwt>
<pdfrwt beam="1">  1        2 0.70836973E-01 0.45523802E+03</pdfrwt>
<pdfrwt beam="2">  1       -2 0.14926603E-01 0.45523802E+03</pdfrwt>
<totfact> 0.23751562E+03</totfact>
</mgrwt>
</event>
<event>
 4    1  0.2581031E-004  0.3892031E+03  0.7818608E-02  0.1047584E+00
         -2   -1    0    0    0  501 -0.00000000000E+00  0.00000000000E+00  0.15515635801E+02  0.15515636011E+02  0.25500000000E-02 0. -1.
          2   -1    0    0  501    0  0.00000000000E+00 -0.00000000000E+00 -0.24407479312E+04  0.24407479312E+04  0.25500000000E-02 0.  1.
    5000001    1    1    2    0    0 -0.97431973517E+02 -0.39840488664E+02 -0.18642258601E+04  0.18715093672E+04  0.12700000000E+03 0.  0.
   -5000001    1    1    2    0    0  0.97431973517E+02  0.39840488664E+02 -0.56100643528E+03  0.58475420001E+03  0.12700000000E+03 0.  0.
<mgrwt>
<rscale>  0 0.38920306E+03</rscale>
<asrwt>0</asrwt>
<pdfrwt beam="1">  1        2 0.34867803E+00 0.38920306E+03</pdfrwt>
<pdfrwt beam="2">  1       -2 0.22165210E-02 0.38920306E+03</pdfrwt>
<totfact> 0.35470443E+03</totfact>
</mgrwt>
</event>
<event>
 4    1  0.2581031E-004  0.5758678E+03  0.7818608E-02  0.9956777E-01
          2   -1    0    0  501    0  0.00000000000E+00  0.00000000000E+00  0.60829930729E+03  0.60829930729E+03  0.25500000000E-02 0.  1.
         -2   -1    0    0    0  501 -0.00000000000E+00 -0.00000000000E+00 -0.13629134887E+03  0.13629134889E+03  0.25500000000E-02 0. -1.
    5000001    1    1    2    0    0 -0.24494709777E+03  0.80215857332E+02  0.25995984364E+03  0.38748133475E+03  0.12700000000E+03 0.  0.
   -5000001    1    1    2    0    0  0.24494709777E+03 -0.80215857332E+02  0.21204811478E+03  0.35710932143E+03  0.12700000000E+03 0.  0.
<mgrwt>
<rscale>  0 0.57586781E+03</rscale>
<asrwt>0</asrwt>
<pdfrwt beam="1">  1        2 0.86899901E-01 0.57586781E+03</pdfrwt>
<pdfrwt beam="2">  1       -2 0.19470193E-01 0.57586781E+03</pdfrwt>
<totfact> 0.11950212E+03</totfact>
</mgrwt>
</event>
<event>
 4    1  0.2581031E-004  0.3843493E+03  0.7818608E-02  0.1049338E+00
          2   -1    0    0  501    0  0.00000000000E+00  0.00000000000E+00  0.17869115054E+03  0.17869115056E+03  0.25500000000E-02 0.  1.
         -2   -1    0    0    0  501 -0.00000000000E+00 -0.00000000000E+00 -0.20667552478E+03  0.20667552479E+03  0.25500000000E-02 0. -1.
    5000001    1    1    2    0    0 -0.14410540769E+03  0.17843048165E+01 -0.82731377716E+01  0.19226803447E+03  0.12700000000E+03 0.  0.
   -5000001    1    1    2    0    0  0.14410540769E+03 -0.17843048165E+01 -0.19711236464E+02  0.19309864089E+03  0.12700000000E+03 0.  0.
<mgrwt>
<rscale>  0 0.38434925E+03</rscale>
<asrwt>0</asrwt>
<pdfrwt beam="1">  1        2 0.25527307E-01 0.38434925E+03</pdfrwt>
<pdfrwt beam="2">  1       -2 0.29525075E-01 0.38434925E+03</pdfrwt>
<totfact> 0.22276097E+03</totfact>
</mgrwt>
</event>
<event>
 4    1  0.2581031E-004  0.4849864E+03  0.7818608E-02  0.1017774E+00
          2   -1    0    0  501    0  0.00000000000E+00  0.00000000000E+00  0.12328101838E+03  0.12328101841E+03  0.25500000000E-02 0.  1.
         -2   -1    0    0    0  501 -0.00000000000E+00 -0.00000000000E+00 -0.47698296429E+03  0.47698296429E+03  0.25500000000E-02 0. -1.
    5000001    1    1    2    0    0  0.18662738705E+03  0.18998357053E+02 -0.28391835710E+03  0.36322080428E+03  0.12700000000E+03 0.  0.
   -5000001    1    1    2    0    0 -0.18662738705E+03 -0.18998357053E+02 -0.69783588804E+02  0.23704317842E+03  0.12700000000E+03 0.  0.
<mgrwt>
<rscale>  0 0.48498637E+03</rscale>
<asrwt>0</asrwt>
<pdfrwt beam="1">  1        2 0.17611574E-01 0.48498637E+03</pdfrwt>
<pdfrwt beam="2">  1       -2 0.68140423E-01 0.48498637E+03</pdfrwt>
<totfact> 0.65551949E+02</totfact>
</mgrwt>
</event>
<event>
 4    1  0.2581031E-004  0.3430204E+03  0.7818608E-02  0.1065517E+00
          2   -1    0    0  501    0  0.00000000000E+00  0.00000000000E+00  0.19042616070E+03  0.19042616071E+03  0.25500000000E-02 0.  1.
         -2   -1    0    0    0  501 -0.00000000000E+00 -0.00000000000E+00 -0.15447322139E+03  0.15447322141E+03  0.25500000000E-02 0. -1.
    5000001    1    1    2    0    0 -0.77817248581E+02 -0.81849711254E+02 -0.52115825025E+01  0.17003252630E+03  0.12700000000E+03 0.  0.
   -5000001    1    1    2    0    0  0.77817248581E+02  0.81849711254E+02  0.41164521807E+02  0.17486685582E+03  0.12700000000E+03 0.  0.
<mgrwt>
<rscale>  0 0.34302036E+03</rscale>
<asrwt>0</asrwt>
<pdfrwt beam="1">  1        2 0.27203737E-01 0.34302036E+03</pdfrwt>
<pdfrwt beam="2">  1       -2 0.22067603E-01 0.34302036E+03</pdfrwt>
<totfact> 0.34771052E+03</totfact>
</mgrwt>
</event>
<event>
 4    1  0.2581031E-004  0.5220981E+03  0.7818608E-02  0.1008167E+00
         -2   -1    0    0    0  501 -0.00000000000E+00  0.00000000000E+00  0.20826111238E+03  0.20826111239E+03  0.25500000000E-02 0. -1.
          2   -1    0    0  501    0  0.00000000000E+00 -0.00000000000E+00 -0.32721712737E+03  0.32721712738E+03  0.25500000000E-02 0.  1.
    5000001    1    1    2    0    0  0.54705467254E+02  0.19642850474E+03 -0.16427666673E+03  0.29102004889E+03  0.12700000000E+03 0.  0.
   -5000001    1    1    2    0    0 -0.54705467254E+02 -0.19642850474E+03  0.45320651735E+02  0.24445819089E+03  0.12700000000E+03 0.  0.
<mgrwt>
<rscale>  0 0.52209809E+03</rscale>
<asrwt>0</asrwt>
<pdfrwt beam="1">  1        2 0.46745304E-01 0.52209809E+03</pdfrwt>
<pdfrwt beam="2">  1       -2 0.29751588E-01 0.52209809E+03</pdfrwt>
<totfact> 0.11273693E+03</totfact>
</mgrwt>
</event>
<event>
 4    1  0.2581031E-004  0.3718025E+03  0.7818608E-02  0.1054006E+00
         -2   -1    0    0    0  501 -0.00000000000E+00  0.00000000000E+00  0.54865776725E+02  0.54865776784E+02  0.25500000000E-02 0. -1.
          2   -1    0    0  501    0  0.00000000000E+00 -0.00000000000E+00 -0.62988760176E+03  0.62988760177E+03  0.25500000000E-02 0.  1.
    5000001    1    1    2    0    0 -0.32777693121E+02  0.13054504428E+03 -0.25488156335E+03  0.31497618495E+03  0.12700000000E+03 0.  0.
   -5000001    1    1    2    0    0  0.32777693121E+02 -0.13054504428E+03 -0.32014026168E+03  0.36977719360E+03  0.12700000000E+03 0.  0.
<mgrwt>
<rscale>  0 0.37180249E+03</rscale>
<asrwt>0</asrwt>
<pdfrwt beam="1">  1        2 0.89983939E-01 0.37180249E+03</pdfrwt>
<pdfrwt beam="2">  1       -2 0.78379685E-02 0.37180249E+03</pdfrwt>
<totfact> 0.51064531E+03</totfact>
</mgrwt>
</event>
<event>
 4    1  0.2581031E-004  0.3633180E+03  0.7818608E-02  0.1057278E+00
          2   -1    0    0  501    0  0.00000000000E+00  0.00000000000E+00  0.23429904901E+03  0.23429904902E+03  0.25500000000E-02 0. -1.
         -2   -1    0    0    0  501 -0.00000000000E+00 -0.00000000000E+00 -0.14084559855E+03  0.14084559858E+03  0.25500000000E-02 0.  1.
    5000001    1    1    2    0    0 -0.81564056306E+02 -0.46647462326E+02 -0.45871407239E+02  0.16450491490E+03  0.12700000000E+03 0.  0.
   -5000001    1    1    2    0    0  0.81564056306E+02  0.46647462326E+02  0.13932485770E+03  0.21063973271E+03  0.12700000000E+03 0.  0.
<mgrwt>
<rscale>  0 0.36331799E+03</rscale>
<asrwt>0</asrwt>
<pdfrwt beam="1">  1        2 0.33471293E-01 0.36331799E+03</pdfrwt>
<pdfrwt beam="2">  1       -2 0.20120800E-01 0.36331799E+03</pdfrwt>
<totfact> 0.32482932E+03</totfact>
</mgrwt>
</event>
<event>
 4    1  0.2581031E-004  0.2756659E+03  0.7818608E-02  0.1098080E+00
         -2   -1    0    0    0  501 -0.00000000000E+00  0.00000000000E+00  0.12283039938E+03  0.12283039940E+03  0.25500000000E-02 0. -1.
          2   -1    0    0  501    0  0.00000000000E+00 -0.00000000000E+00 -0.15466787978E+03  0.15466787981E+03  0.25500000000E-02 0.  1.
    5000001    1    1    2    0    0 -0.51493483764E+02 -0.13762221593E+02 -0.21239691003E+02  0.13935961426E+03  0.12700000000E+03 0.  0.
   -5000001    1    1    2    0    0  0.51493483764E+02  0.13762221593E+02 -0.10597789405E+02  0.13813866495E+03  0.12700000000E+03 0.  0.
<mgrwt>
<rscale>  0 0.27566587E+03</rscale>
<asrwt>0</asrwt>
<pdfrwt beam="1">  1        2 0.22095411E-01 0.27566587E+03</pdfrwt>
<pdfrwt beam="2">  1       -2 0.17547200E-01 0.27566587E+03</pdfrwt>
<totfact> 0.64587618E+03</totfact>
</mgrwt>
</event>
<event>
 4    1  0.2581031E-004  0.1060394E+04  0.7818608E-02  0.9244678E-01
          2   -1    0    0  501    0  0.00000000000E+00  0.00000000000E+00  0.21224045901E+04  0.21224045901E+04  0.25500000000E-02 0.  1.
         -2   -1    0    0    0  501 -0.00000000000E+00 -0.00000000000E+00 -0.13244839527E+03  0.13244839530E+03  0.25500000000E-02 0. -1.
    5000001    1    1    2    0    0  0.29257635350E+02  0.41973718593E+03  0.16255807600E+04  0.16839468881E+04  0.12700000000E+03 0.  0.
   -5000001    1    1    2    0    0 -0.29257635350E+02 -0.41973718593E+03  0.36437543480E+03  0.57090609733E+03  0.12700000000E+03 0.  0.
<mgrwt>
<rscale>  0 0.10603944E+04</rscale>
<asrwt>0</asrwt>
<pdfrwt beam="1">  1        2 0.30320063E+00 0.10603944E+04</pdfrwt>
<pdfrwt beam="2">  1       -2 0.18921201E-01 0.10603944E+04</pdfrwt>
<totfact> 0.16299535E+02</totfact>
</mgrwt>
</event>
<event>
 4    1  0.2581031E-004  0.9541945E+03  0.7818608E-02  0.9360261E-01
          2   -1    0    0  501    0  0.00000000000E+00  0.00000000000E+00  0.24402713533E+04  0.24402713533E+04  0.25500000000E-02 0.  1.
         -2   -1    0    0    0  501 -0.00000000000E+00 -0.00000000000E+00 -0.93277236251E+02  0.93277236286E+02  0.25500000000E-02 0. -1.
    5000001    1    1    2    0    0  0.30583569821E+03 -0.34282973493E+03  0.11187550665E+04  0.12160631563E+04  0.12700000000E+03 0.  0.
   -5000001    1    1    2    0    0 -0.30583569821E+03  0.34282973493E+03  0.12282390506E+04  0.13174854332E+04  0.12700000000E+03 0.  0.
<mgrwt>
<rscale>  0 0.95419446E+03</rscale>
<asrwt>0</asrwt>
<pdfrwt beam="1">  1        2 0.34861021E+00 0.95419446E+03</pdfrwt>
<pdfrwt beam="2">  1       -2 0.13325319E-01 0.95419446E+03</pdfrwt>
<totfact> 0.20534553E+02</totfact>
</mgrwt>
</event>
<event>
 4    1  0.2581031E-004  0.4772182E+03  0.7818608E-02  0.1019902E+00
         -2   -1    0    0    0  501 -0.00000000000E+00  0.00000000000E+00  0.39925004266E+02  0.39925004347E+02  0.25500000000E-02 0. -1.
          2   -1    0    0  501    0  0.00000000000E+00 -0.00000000000E+00 -0.14260312777E+04  0.14260312777E+04  0.25500000000E-02 0.  1.
    5000001    1    1    2    0    0 -0.60221520506E+02  0.11123813974E+03 -0.11768593436E+04  0.11904316318E+04  0.12700000000E+03 0.  0.
   -5000001    1    1    2    0    0  0.60221520506E+02 -0.11123813974E+03 -0.20924692975E+03  0.27552465021E+03  0.12700000000E+03 0.  0.
<mgrwt>
<rscale>  0 0.47721821E+03</rscale>
<asrwt>0</asrwt>
<pdfrwt beam="1">  1        2 0.20371872E+00 0.47721821E+03</pdfrwt>
<pdfrwt beam="2">  1       -2 0.57035729E-02 0.47721821E+03</pdfrwt>
<totfact> 0.27221299E+03</totfact>
</mgrwt>
</event>
<event>
 4    1  0.2581031E-004  0.3436133E+03  0.7818608E-02  0.1065267E+00
         -2   -1    0    0    0  501 -0.00000000000E+00  0.00000000000E+00  0.32793997439E+03  0.32793997440E+03  0.25500000000E-02 0. -1.
          2   -1    0    0  501    0  0.00000000000E+00 -0.00000000000E+00 -0.90008947131E+02  0.90008947167E+02  0.25500000000E-02 0.  1.
    5000001    1    1    2    0    0  0.28491544516E+02  0.99058757278E+02  0.55016752302E+02  0.17256954696E+03  0.12700000000E+03 0.  0.
   -5000001    1    1    2    0    0 -0.28491544516E+02 -0.99058757278E+02  0.18291427496E+03  0.24537937461E+03  0.12700000000E+03 0.  0.
<mgrwt>
<rscale>  0 0.34361334E+03</rscale>
<asrwt>0</asrwt>
<pdfrwt beam="1">  1        2 0.12858421E-01 0.34361334E+03</pdfrwt>
<pdfrwt beam="2">  1       -2 0.46848567E-01 0.34361334E+03</pdfrwt>
<totfact> 0.20639554E+03</totfact>
</mgrwt>
</event>
<event>
 4    1  0.2581031E-004  0.3143945E+03  0.7818608E-02  0.1078258E+00
         -2   -1    0    0    0  501 -0.00000000000E+00  0.00000000000E+00  0.36943046392E+02  0.36943046480E+02  0.25500000000E-02 0. -1.
          2   -1    0    0  501    0  0.00000000000E+00 -0.00000000000E+00 -0.66889381222E+03  0.66889381222E+03  0.25500000000E-02 0.  1.
    5000001    1    1    2    0    0  0.44317977002E+02 -0.58877321079E+02 -0.18994422324E+03  0.24008004908E+03  0.12700000000E+03 0.  0.
   -5000001    1    1    2    0    0 -0.44317977002E+02  0.58877321079E+02 -0.44200654259E+03  0.46575680962E+03  0.12700000000E+03 0.  0.
<mgrwt>
<rscale>  0 0.31439450E+03</rscale>
<asrwt>0</asrwt>
<pdfrwt beam="1">  1        2 0.95556252E-01 0.31439450E+03</pdfrwt>
<pdfrwt beam="2">  1       -2 0.52775785E-02 0.31439450E+03</pdfrwt>
<totfact> 0.87458775E+03</totfact>
</mgrwt>
</event>
<event>
 4    1  0.2581031E-004  0.3302880E+03  0.7818608E-02  0.1071010E+00
          2   -1    0    0  501    0  0.00000000000E+00  0.00000000000E+00  0.67568855665E+03  0.67568855666E+03  0.25500000000E-02 0.  1.
         -2   -1    0    0    0  501 -0.00000000000E+00 -0.00000000000E+00 -0.40362586615E+02  0.40362586696E+02  0.25500000000E-02 0. -1.
    5000001    1    1    2    0    0 -0.10538035010E+03 -0.27626817952E+01  0.30561425101E+03  0.34733517101E+03  0.12700000000E+03 0.  0.
   -5000001    1    1    2    0    0  0.10538035010E+03  0.27626817952E+01  0.32971171903E+03  0.36871597234E+03  0.12700000000E+03 0.  0.
<mgrwt>
<rscale>  0 0.33028798E+03</rscale>
<asrwt>0</asrwt>
<pdfrwt beam="1">  1        2 0.96526924E-01 0.33028798E+03</pdfrwt>
<pdfrwt beam="2">  1       -2 0.57660846E-02 0.33028798E+03</pdfrwt>
<totfact> 0.75563922E+03</totfact>
</mgrwt>
</event>
<event>
 4    1  0.2581031E-004  0.4089303E+03  0.7818608E-02  0.1040731E+00
          2   -1    0    0  501    0  0.00000000000E+00  0.00000000000E+00  0.22655622015E+04  0.22655622015E+04  0.25500000000E-02 0.  1.
         -2   -1    0    0    0  501 -0.00000000000E+00 -0.00000000000E+00 -0.18452813941E+02  0.18452814118E+02  0.25500000000E-02 0. -1.
    5000001    1    1    2    0    0 -0.13858338431E+03  0.39662195391E+02  0.73263855197E+03  0.75740787690E+03  0.12700000000E+03 0.  0.
   -5000001    1    1    2    0    0  0.13858338431E+03 -0.39662195391E+02  0.15144708356E+04  0.15266071387E+04  0.12700000000E+03 0.  0.
<mgrwt>
<rscale>  0 0.40893030E+03</rscale>
<asrwt>0</asrwt>
<pdfrwt beam="1">  1        2 0.32365167E+00 0.40893030E+03</pdfrwt>
<pdfrwt beam="2">  1       -2 0.26361169E-02 0.40893030E+03</pdfrwt>
<totfact> 0.33469694E+03</totfact>
</mgrwt>
</event>
<event>
 4    1  0.2581031E-004  0.4476943E+03  0.7818608E-02  0.1028412E+00
         -2   -1    0    0    0  501 -0.00000000000E+00  0.00000000000E+00  0.71847687274E+02  0.71847687319E+02  0.25500000000E-02 0. -1.
          2   -1    0    0  501    0  0.00000000000E+00 -0.00000000000E+00 -0.69741350632E+03  0.69741350633E+03  0.25500000000E-02 0.  1.
    5000001    1    1    2    0    0 -0.37186483221E+02  0.10151009795E+03 -0.56932643252E+03  0.59325266227E+03  0.12700000000E+03 0.  0.
   -5000001    1    1    2    0    0  0.37186483221E+02 -0.10151009795E+03 -0.56239386528E+02  0.17600853138E+03  0.12700000000E+03 0.  0.
<mgrwt>
<rscale>  0 0.44769430E+03</rscale>
<asrwt>0</asrwt>
<pdfrwt beam="1">  1        2 0.99630497E-01 0.44769430E+03</pdfrwt>
<pdfrwt beam="2">  1       -2 0.10263956E-01 0.44769430E+03</pdfrwt>
<totfact> 0.29534448E+03</totfact>
</mgrwt>
</event>
<event>
 4    1  0.2581031E-004  0.6018827E+03  0.7818608E-02  0.9901508E-01
         -2   -1    0    0    0  501 -0.00000000000E+00  0.00000000000E+00  0.70506792933E+03  0.70506792934E+03  0.25500000000E-02 0. -1.
          2   -1    0    0  501    0  0.00000000000E+00 -0.00000000000E+00 -0.12844959431E+03  0.12844959433E+03  0.25500000000E-02 0.  1.
    5000001    1    1    2    0    0 -0.24329958884E+03 -0.71891520272E+01  0.11762773095E+03  0.29868320496E+03  0.12700000000E+03 0.  0.
   -5000001    1    1    2    0    0  0.24329958884E+03  0.71891520272E+01  0.45899060407E+03  0.53483431871E+03  0.12700000000E+03 0.  0.
<mgrwt>
<rscale>  0 0.60188268E+03</rscale>
<asrwt>0</asrwt>
<pdfrwt beam="1">  1        2 0.18349941E-01 0.60188268E+03</pdfrwt>
<pdfrwt beam="2">  1       -2 0.10072399E+00 0.60188268E+03</pdfrwt>
<totfact> 0.25844146E+02</totfact>
</mgrwt>
</event>
<event>
 4    1  0.2581031E-004  0.3200831E+03  0.7818608E-02  0.1075611E+00
         -2   -1    0    0    0  501 -0.00000000000E+00  0.00000000000E+00  0.85744230616E+01  0.85744234408E+01  0.25500000000E-02 0. -1.
          2   -1    0    0  501    0  0.00000000000E+00 -0.00000000000E+00 -0.29871736488E+04  0.29871736488E+04  0.25500000000E-02 0.  1.
    5000001    1    1    2    0    0 -0.39898243011E+02  0.20039823406E+02 -0.22993415048E+04  0.23032789280E+04  0.12700000000E+03 0.  0.
   -5000001    1    1    2    0    0  0.39898243011E+02 -0.20039823406E+02 -0.67925772086E+03  0.69246914420E+03  0.12700000000E+03 0.  0.
<mgrwt>
<rscale>  0 0.32008306E+03</rscale>
<asrwt>0</asrwt>
<pdfrwt beam="1">  1        2 0.42673843E+00 0.32008306E+03</pdfrwt>
<pdfrwt beam="2">  1       -2 0.12249195E-02 0.32008306E+03</pdfrwt>
<totfact> 0.44642369E+03</totfact>
</mgrwt>
</event>
<event>
 4    1  0.2581031E-004  0.6865492E+03  0.7818608E-02  0.9740515E-01
         -2   -1    0    0    0  501 -0.00000000000E+00  0.00000000000E+00  0.18701218867E+03  0.18701218869E+03  0.25500000000E-02 0. -1.
          2   -1    0    0  501    0  0.00000000000E+00 -0.00000000000E+00 -0.63010569454E+03  0.63010569454E+03  0.25500000000E-02 0.  1.
    5000001    1    1    2    0    0  0.26250417818E+03 -0.18013300923E+03 -0.24387971670E+03  0.42066930099E+03  0.12700000000E+03 0.  0.
   -5000001    1    1    2    0    0 -0.26250417818E+03  0.18013300923E+03 -0.19921378916E+03  0.39644858225E+03  0.12700000000E+03 0.  0.
<mgrwt>
<rscale>  0 0.68654918E+03</rscale>
<asrwt>0</asrwt>
<pdfrwt beam="1">  1        2 0.90015098E-01 0.68654918E+03</pdfrwt>
<pdfrwt beam="2">  1       -2 0.26716027E-01 0.68654918E+03</pdfrwt>
<totfact> 0.65244027E+02</totfact>
</mgrwt>
</event>
<event>
 4    1  0.2581031E-004  0.4119889E+03  0.7818608E-02  0.1039706E+00
         -2   -1    0    0    0  501 -0.00000000000E+00  0.00000000000E+00  0.45855496082E+02  0.45855496152E+02  0.25500000000E-02 0. -1.
          2   -1    0    0  501    0  0.00000000000E+00 -0.00000000000E+00 -0.92537887444E+03  0.92537887444E+03  0.25500000000E-02 0.  1.
    5000001    1    1    2    0    0  0.14795690876E+03  0.65188286109E+02 -0.40957666865E+03  0.45828245329E+03  0.12700000000E+03 0.  0.
   -5000001    1    1    2    0    0 -0.14795690876E+03 -0.65188286109E+02 -0.46994670971E+03  0.51295191730E+03  0.12700000000E+03 0.  0.
<mgrwt>
<rscale>  0 0.41198887E+03</rscale>
<asrwt>0</asrwt>
<pdfrwt beam="1">  1        2 0.13219697E+00 0.41198887E+03</pdfrwt>
<pdfrwt beam="2">  1       -2 0.65507857E-02 0.41198887E+03</pdfrwt>
<totfact> 0.42019891E+03</totfact>
</mgrwt>
</event>
<event>
 4    1  0.2581031E-004  0.3570138E+03  0.7818608E-02  0.1059773E+00
         -2   -1    0    0    0  501 -0.00000000000E+00  0.00000000000E+00  0.46814286104E+02  0.46814286174E+02  0.25500000000E-02 0. -1.
          2   -1    0    0  501    0  0.00000000000E+00 -0.00000000000E+00 -0.68066231303E+03  0.68066231304E+03  0.25500000000E-02 0.  1.
    5000001    1    1    2    0    0 -0.33703432266E+02  0.52579664410E+02 -0.53860138889E+03  0.55688508561E+03  0.12700000000E+03 0.  0.
   -5000001    1    1    2    0    0  0.33703432266E+02 -0.52579664410E+02 -0.95246638036E+02  0.17059151360E+03  0.12700000000E+03 0.  0.
<mgrwt>
<rscale>  0 0.35701384E+03</rscale>
<asrwt>0</asrwt>
<pdfrwt beam="1">  1        2 0.97237467E-01 0.35701384E+03</pdfrwt>
<pdfrwt beam="2">  1       -2 0.66877556E-02 0.35701384E+03</pdfrwt>
<totfact> 0.59677007E+03</totfact>
</mgrwt>
</event>
<event>
 4    1  0.2581031E-004  0.3492186E+03  0.7818608E-02  0.1062936E+00
          2   -1    0    0  501    0  0.00000000000E+00  0.00000000000E+00  0.75426318792E+03  0.75426318792E+03  0.25500000000E-02 0.  1.
         -2   -1    0    0    0  501 -0.00000000000E+00 -0.00000000000E+00 -0.40421438955E+02  0.40421439036E+02  0.25500000000E-02 0. -1.
    5000001    1    1    2    0    0 -0.11904389537E+03 -0.91617977122E+01  0.33371236264E+03  0.37649479219E+03  0.12700000000E+03 0.  0.
   -5000001    1    1    2    0    0  0.11904389537E+03  0.91617977122E+01  0.38012938632E+03  0.41818983477E+03  0.12700000000E+03 0.  0.
<mgrwt>
<rscale>  0 0.34921858E+03</rscale>
<asrwt>0</asrwt>
<pdfrwt beam="1">  1        2 0.10775189E+00 0.34921858E+03</pdfrwt>
<pdfrwt beam="2">  1       -2 0.57744912E-02 0.34921858E+03</pdfrwt>
<totfact> 0.66136737E+03</totfact>
</mgrwt>
</event>
<event>
 4    1  0.2581031E-004  0.3189469E+03  0.7818608E-02  0.1076135E+00
          2   -1    0    0  501    0  0.00000000000E+00  0.00000000000E+00  0.12982223291E+04  0.12982223291E+04  0.25500000000E-02 0.  1.
         -2   -1    0    0    0  501 -0.00000000000E+00 -0.00000000000E+00 -0.19589699036E+02  0.19589699201E+02  0.25500000000E-02 0. -1.
    5000001    1    1    2    0    0  0.61593858258E+02  0.65195442562E+02  0.78589398818E+03  0.80112583890E+03  0.12700000000E+03 0.  0.
   -5000001    1    1    2    0    0 -0.61593858258E+02 -0.65195442562E+02  0.49273864184E+03  0.51668618935E+03  0.12700000000E+03 0.  0.
<mgrwt>
<rscale>  0 0.31894692E+03</rscale>
<asrwt>0</asrwt>
<pdfrwt beam="1">  1        2 0.18546031E+00 0.31894692E+03</pdfrwt>
<pdfrwt beam="2">  1       -2 0.27985287E-02 0.31894692E+03</pdfrwt>
<totfact> 0.93527459E+03</totfact>
</mgrwt>
</event>
<event>
 4    1  0.2581031E-004  0.3218521E+03  0.7818608E-02  0.1074800E+00
         -2   -1    0    0    0  501 -0.00000000000E+00  0.00000000000E+00  0.18186562696E+02  0.18186562875E+02  0.25500000000E-02 0. -1.
          2   -1    0    0  501    0  0.00000000000E+00 -0.00000000000E+00 -0.14239741788E+04  0.14239741788E+04  0.25500000000E-02 0.  1.
    5000001    1    1    2    0    0 -0.93161090040E+02  0.10144870985E+02 -0.56217267181E+03  0.58390840038E+03  0.12700000000E+03 0.  0.
   -5000001    1    1    2    0    0  0.93161090040E+02 -0.10144870985E+02 -0.84361494428E+03  0.85825234128E+03  0.12700000000E+03 0.  0.
<mgrwt>
<rscale>  0 0.32185211E+03</rscale>
<asrwt>0</asrwt>
<pdfrwt beam="1">  1        2 0.20342481E+00 0.32185211E+03</pdfrwt>
<pdfrwt beam="2">  1       -2 0.25980813E-02 0.32185211E+03</pdfrwt>
<totfact> 0.89827967E+03</totfact>
</mgrwt>
</event>
<event>
 4    1  0.2581031E-004  0.4015782E+03  0.7818608E-02  0.1043235E+00
          2   -1    0    0  501    0  0.00000000000E+00  0.00000000000E+00  0.10130788880E+04  0.10130788880E+04  0.25500000000E-02 0.  1.
         -2   -1    0    0    0  501 -0.00000000000E+00 -0.00000000000E+00 -0.39795768709E+02  0.39795768791E+02  0.25500000000E-02 0. -1.
    5000001    1    1    2    0    0  0.13722638832E+03  0.56072142688E+01  0.29532374265E+03  0.34958208689E+03  0.12700000000E+03 0.  0.
   -5000001    1    1    2    0    0 -0.13722638832E+03 -0.56072142688E+01  0.67795937659E+03  0.70329256985E+03  0.12700000000E+03 0.  0.
<mgrwt>
<rscale>  0 0.40157815E+03</rscale>
<asrwt>0</asrwt>
<pdfrwt beam="1">  1        2 0.14472552E+00 0.40157815E+03</pdfrwt>
<pdfrwt beam="2">  1       -2 0.56851111E-02 0.40157815E+03</pdfrwt>
<totfact> 0.46274394E+03</totfact>
</mgrwt>
</event>
<event>
 4    1  0.2581031E-004  0.2920857E+03  0.7818608E-02  0.1089265E+00
         -2   -1    0    0    0  501 -0.00000000000E+00  0.00000000000E+00  0.32887063918E+02  0.32887064017E+02  0.25500000000E-02 0. -1.
          2   -1    0    0  501    0  0.00000000000E+00 -0.00000000000E+00 -0.64853788622E+03  0.64853788622E+03  0.25500000000E-02 0.  1.
    5000001    1    1    2    0    0  0.36369502524E+02  0.53659984558E+02 -0.38150317874E+03  0.40727854110E+03  0.12700000000E+03 0.  0.
   -5000001    1    1    2    0    0 -0.36369502524E+02 -0.53659984558E+02 -0.23414764356E+03  0.27414640913E+03  0.12700000000E+03 0.  0.
<mgrwt>
<rscale>  0 0.29208565E+03</rscale>
<asrwt>0</asrwt>
<pdfrwt beam="1">  1        2 0.92648261E-01 0.29208565E+03</pdfrwt>
<pdfrwt beam="2">  1       -2 0.46981524E-02 0.29208565E+03</pdfrwt>
<totfact> 0.10798575E+04</totfact>
</mgrwt>
</event>
<event>
 4    1  0.2581031E-004  0.3690766E+03  0.7818608E-02  0.1055047E+00
         -2   -1    0    0    0  501 -0.00000000000E+00  0.00000000000E+00  0.65367241667E+02  0.65367241716E+02  0.25500000000E-02 0. -1.
          2   -1    0    0  501    0  0.00000000000E+00 -0.00000000000E+00 -0.52097029712E+03  0.52097029713E+03  0.25500000000E-02 0.  1.
    5000001    1    1    2    0    0  0.99838663959E+02 -0.89014760595E+02 -0.21853745569E+03  0.28597028860E+03  0.12700000000E+03 0.  0.
   -5000001    1    1    2    0    0 -0.99838663959E+02  0.89014760595E+02 -0.23706559976E+03  0.30036725024E+03  0.12700000000E+03 0.  0.
<mgrwt>
<rscale>  0 0.36907664E+03</rscale>
<asrwt>0</asrwt>
<pdfrwt beam="1">  1        2 0.74424326E-01 0.36907664E+03</pdfrwt>
<pdfrwt beam="2">  1       -2 0.93381777E-02 0.36907664E+03</pdfrwt>
<totfact> 0.48099899E+03</totfact>
</mgrwt>
</event>
<event>
 4    1  0.2581031E-004  0.6896967E+03  0.7818608E-02  0.9735016E-01
          2   -1    0    0  501    0  0.00000000000E+00  0.00000000000E+00  0.74516972187E+03  0.74516972188E+03  0.25500000000E-02 0.  1.
         -2   -1    0    0    0  501 -0.00000000000E+00 -0.00000000000E+00 -0.15958832946E+03  0.15958832948E+03  0.25500000000E-02 0. -1.
    5000001    1    1    2    0    0 -0.22084612945E+03 -0.23125104958E+03  0.26226922586E+03  0.43262478854E+03  0.12700000000E+03 0.  0.
   -5000001    1    1    2    0    0  0.22084612945E+03  0.23125104958E+03  0.32331216655E+03  0.47213326282E+03  0.12700000000E+03 0.  0.
<mgrwt>
<rscale>  0 0.68969672E+03</rscale>
<asrwt>0</asrwt>
<pdfrwt beam="1">  1        2 0.10645282E+00 0.68969672E+03</pdfrwt>
<pdfrwt beam="2">  1       -2 0.22798332E-01 0.68969672E+03</pdfrwt>
<totfact> 0.70664595E+02</totfact>
</mgrwt>
</event>
<event>
 4    1  0.2581031E-004  0.4337014E+03  0.7818608E-02  0.1032697E+00
          2   -1    0    0  501    0  0.00000000000E+00  0.00000000000E+00  0.22395700273E+04  0.22395700273E+04  0.25500000000E-02 0.  1.
         -2   -1    0    0    0  501 -0.00000000000E+00 -0.00000000000E+00 -0.20996987298E+02  0.20996987453E+02  0.25500000000E-02 0. -1.
    5000001    1    1    2    0    0  0.84976473085E+02 -0.11082835036E+03  0.55298120852E+03  0.58431253726E+03  0.12700000000E+03 0.  0.
   -5000001    1    1    2    0    0 -0.84976473085E+02  0.11082835036E+03  0.16655918314E+04  0.16762544775E+04  0.12700000000E+03 0.  0.
<mgrwt>
<rscale>  0 0.43370139E+03</rscale>
<asrwt>0</asrwt>
<pdfrwt beam="1">  1        2 0.31993867E+00 0.43370139E+03</pdfrwt>
<pdfrwt beam="2">  1       -2 0.29995687E-02 0.43370139E+03</pdfrwt>
<totfact> 0.28369717E+03</totfact>
</mgrwt>
</event>
