<event>
 8    1  0.3893101E-010  0.2067649E+04  0.7818608E-02  0.8575630E-01
         -1   -1    0    0    0  501 -0.00000000000E+00  0.00000000000E+00  0.45188059168E+03  0.45188059170E+03  0.50400000000E-02 0. -1.
          1   -1    0    0  501    0  0.00000000000E+00 -0.00000000000E+00 -0.23652103448E+04  0.23652103448E+04  0.50400000000E-02 0.  1.
     200001    2    1    2    0    0  0.24006715954E+03  0.78599511665E+02 -0.19344548627E+04  0.20726069578E+04  0.69983845393E+03 0.  0.
    5000001    2    3    3    0    0  0.10143084580E+03  0.50468148749E+02 -0.67092498126E+03  0.70640083784E+03  0.18980664558E+03 0.  0.
        -11    1    4    4    0    0  0.44622577671E+01 -0.63635293726E+02 -0.13809085020E+03  0.15211326458E+03  0.51100000000E-03 0. -1.
     200002    1    4    4    0    0  0.96968588037E+02  0.11410344247E+03 -0.53283413105E+03  0.55428757326E+03  0.30000000000E+02 0. -1.
     200000    1    3    3    0    0  0.13863631374E+03  0.28131362916E+02 -0.12635298814E+04  0.13662061200E+04  0.50000000000E+03 0.  1.
    -200001    1    1    2    0    0 -0.24006715954E+03 -0.78599511665E+02  0.21125109503E+02  0.74448397872E+03  0.70000000000E+03 0. -1.
<mgrwt>
<rscale>  0 0.20676486E+04</rscale>
<asrwt>0</asrwt>
<pdfrwt beam="1">  1        1 0.33788719E+00 0.20676486E+04</pdfrwt>
<pdfrwt beam="2">  1       -1 0.64554371E-01 0.20676486E+04</pdfrwt>
<totfact> 0.49360956E+00</totfact>
</mgrwt>
</event>
<event>
 8    1  0.3893101E-010  0.1818400E+04  0.7818608E-02  0.8696576E-01
         -1   -1    0    0    0  501 -0.00000000000E+00  0.00000000000E+00  0.93362595652E+03  0.93362595654E+03  0.50400000000E-02 0. -1.
          1   -1    0    0  501    0  0.00000000000E+00 -0.00000000000E+00 -0.88541273682E+03  0.88541273684E+03  0.50400000000E-02 0.  1.
     200001    2    1    2    0    0 -0.25199289479E+03 -0.51924735487E+03  0.41045094203E+02  0.91175173955E+03  0.70461925907E+03 0.  0.
    5000001    2    3    3    0    0 -0.51522234103E+02 -0.11577697251E+03  0.36365875727E+02  0.23869993596E+03  0.19898827739E+03 0.  0.
        -11    1    4    4    0    0 -0.66278292141E+02  0.38837593768E+02  0.21240551734E+01  0.76848437261E+02  0.51100000000E-03 0. -1.
     200002    1    4    4    0    0  0.14756058038E+02 -0.15461456628E+03  0.34241820553E+02  0.16185149869E+03  0.30000000000E+02 0. -1.
     200000    1    3    3    0    0 -0.20047066068E+03 -0.40347038236E+03  0.46792184761E+01  0.67305180359E+03  0.50000000000E+03 0. -1.
    -200001    1    1    2    0    0  0.25199289479E+03  0.51924735487E+03  0.71681254952E+01  0.90728695383E+03  0.70000000000E+03 0. -1.
<mgrwt>
<rscale>  0 0.18183996E+04</rscale>
<asrwt>0</asrwt>
<pdfrwt beam="1">  1        1 0.12648753E+00 0.18183996E+04</pdfrwt>
<pdfrwt beam="2">  1       -1 0.13337514E+00 0.18183996E+04</pdfrwt>
<totfact> 0.95075013E+00</totfact>
</mgrwt>
</event>
<event>
 8    1  0.3893101E-010  0.2224767E+04  0.7818608E-02  0.8508190E-01
          1   -1    0    0  501    0  0.00000000000E+00  0.00000000000E+00  0.11750200727E+04  0.11750200728E+04  0.50400000000E-02 0. -1.
         -1   -1    0    0    0  501 -0.00000000000E+00 -0.00000000000E+00 -0.10530856772E+04  0.10530856773E+04  0.50400000000E-02 0.  1.
     200001    2    1    2    0    0  0.18161205562E+02 -0.82187802741E+03  0.32869527930E+03  0.11287589510E+04  0.70017345107E+03 0.  0.
    5000001    2    3    3    0    0  0.35981839172E+02 -0.26643245052E+03  0.16780411619E+03  0.36408691007E+03  0.17922085045E+03 0.  0.
        -11    1    4    4    0    0 -0.46686343099E+02 -0.19270149987E+03  0.14848093369E+03  0.24770964930E+03  0.51100000000E-03 0. -1.
     200002    1    4    4    0    0  0.82668182271E+02 -0.73730950651E+02  0.19323182493E+02  0.11637726078E+03  0.30000000000E+02 0. -1.
     200000    1    3    3    0    0 -0.17820633610E+02 -0.55544557689E+03  0.16089116311E+03  0.76467204097E+03  0.50000000000E+03 0.  1.
    -200001    1    1    2    0    0 -0.18161205562E+02  0.82187802741E+03 -0.20676088380E+03  0.10993467990E+04  0.70000000000E+03 0.  1.
<mgrwt>
<rscale>  0 0.22247668E+04</rscale>
<asrwt>0</asrwt>
<pdfrwt beam="1">  1        1 0.16786001E+00 0.22247668E+04</pdfrwt>
<pdfrwt beam="2">  1       -1 0.15044081E+00 0.22247668E+04</pdfrwt>
<totfact> 0.40772936E+00</totfact>
</mgrwt>
</event>
<event>
 8    1  0.3893101E-010  0.1436680E+04  0.7818608E-02  0.8927687E-01
          1   -1    0    0  501    0  0.00000000000E+00  0.00000000000E+00  0.19187729189E+04  0.19187729189E+04  0.50400000000E-02 0.  1.
         -1   -1    0    0    0  501 -0.00000000000E+00 -0.00000000000E+00 -0.26892841388E+03  0.26892841393E+03  0.50400000000E-02 0. -1.
     200001    2    1    2    0    0 -0.96469298434E+02 -0.41684498722E+02  0.10083986201E+04  0.12324543772E+04  0.70073682072E+03 0.  0.
    5000001    2    3    3    0    0 -0.95449034090E+02 -0.12943778295E+03  0.24418250486E+03  0.31499704816E+03  0.11718953412E+03 0.  0.
        -11    1    4    4    0    0 -0.72219244670E+01 -0.57526940937E+02  0.19185775159E+02  0.61070443713E+02  0.51100000000E-03 0. -1.
     200002    1    4    4    0    0 -0.88227109623E+02 -0.71910842016E+02  0.22499672970E+03  0.25392660445E+03  0.30000000000E+02 0. -1.
     200000    1    3    3    0    0 -0.10202643437E+01  0.87753284232E+02  0.76421611523E+03  0.91745732904E+03  0.50000000000E+03 0.  1.
    -200001    1    1    2    0    0  0.96469298434E+02  0.41684498722E+02  0.64144588498E+03  0.95524695568E+03  0.70000000000E+03 0.  1.
<mgrwt>
<rscale>  0 0.14366803E+04</rscale>
<asrwt>0</asrwt>
<pdfrwt beam="1">  1        1 0.27411041E+00 0.14366803E+04</pdfrwt>
<pdfrwt beam="2">  1       -1 0.38418346E-01 0.14366803E+04</pdfrwt>
<totfact> 0.26763505E+01</totfact>
</mgrwt>
</event>
<event>
 8    1  0.3893101E-010  0.1553408E+04  0.7818608E-02  0.8849694E-01
          1   -1    0    0  501    0  0.00000000000E+00  0.00000000000E+00  0.19503152426E+04  0.19503152426E+04  0.50400000000E-02 0. -1.
         -1   -1    0    0    0  501 -0.00000000000E+00 -0.00000000000E+00 -0.30931893467E+03  0.30931893471E+03  0.50400000000E-02 0.  1.
     200001    2    1    2    0    0 -0.23111622401E+03 -0.86595346811E+02  0.11485189945E+04  0.13688775510E+04  0.70272071678E+03 0.  0.
    5000001    2    3    3    0    0 -0.94839990008E+02 -0.74350361983E+02  0.40158064642E+03  0.45968117647E+03  0.18845999149E+03 0.  0.
        -11    1    4    4    0    0 -0.77297019221E+02  0.48352657634E+02  0.12124502873E+03  0.15170090861E+03  0.51100000000E-03 0. -1.
     200002    1    4    4    0    0 -0.17542970787E+02 -0.12270301962E+03  0.28033561769E+03  0.30798026787E+03  0.30000000000E+02 0. -1.
     200000    1    3    3    0    0 -0.13627623400E+03 -0.12244984828E+02  0.74693834810E+03  0.90919637454E+03  0.50000000000E+03 0. -1.
    -200001    1    1    2    0    0  0.23111622401E+03  0.86595346811E+02  0.49247731340E+03  0.89075662630E+03  0.70000000000E+03 0.  1.
<mgrwt>
<rscale>  0 0.15534084E+04</rscale>
<asrwt>0</asrwt>
<pdfrwt beam="1">  1        1 0.27861646E+00 0.15534084E+04</pdfrwt>
<pdfrwt beam="2">  1       -1 0.44188419E-01 0.15534084E+04</pdfrwt>
<totfact> 0.19579197E+01</totfact>
</mgrwt>
</event>
<event>
 8    1  0.3893101E-010  0.1453067E+04  0.7818608E-02  0.8916277E-01
          1   -1    0    0  501    0  0.00000000000E+00  0.00000000000E+00  0.11535206392E+04  0.11535206392E+04  0.50400000000E-02 0.  1.
         -1   -1    0    0    0  501 -0.00000000000E+00 -0.00000000000E+00 -0.45759975314E+03  0.45759975316E+03  0.50400000000E-02 0. -1.
     200001    2    1    2    0    0 -0.16404174979E+03  0.34073003427E+02  0.23513570715E+03  0.75648968477E+03  0.69922612734E+03 0.  0.
    5000001    2    3    3    0    0 -0.62291176569E+02 -0.61968639794E+02  0.64166255743E+02  0.20985659970E+03  0.17944966164E+03 0.  0.
        -11    1    4    4    0    0 -0.28199973853E+02  0.31048841601E+02 -0.43552214643E+02  0.60465399119E+02  0.51100000000E-03 0. -1.
     200002    1    4    4    0    0 -0.34091202716E+02 -0.93017481395E+02  0.10771847039E+03  0.14939120058E+03  0.30000000000E+02 0. -1.
     200000    1    3    3    0    0 -0.10175057322E+03  0.96041643221E+02  0.17096945140E+03  0.54663308507E+03  0.50000000000E+03 0.  1.
    -200001    1    1    2    0    0  0.16404174979E+03 -0.34073003427E+02  0.46078517887E+03  0.85463070756E+03  0.70000000000E+03 0.  1.
<mgrwt>
<rscale>  0 0.14530668E+04</rscale>
<asrwt>0</asrwt>
<pdfrwt beam="1">  1        1 0.16478866E+00 0.14530668E+04</pdfrwt>
<pdfrwt beam="2">  1       -1 0.65371394E-01 0.14530668E+04</pdfrwt>
<totfact> 0.30779776E+01</totfact>
</mgrwt>
</event>
<event>
 8    1  0.3893101E-010  0.1596447E+04  0.7818608E-02  0.8822734E-01
         -1   -1    0    0    0  501 -0.00000000000E+00  0.00000000000E+00  0.39172514570E+03  0.39172514574E+03  0.50400000000E-02 0. -1.
          1   -1    0    0  501    0  0.00000000000E+00 -0.00000000000E+00 -0.16265499122E+04  0.16265499122E+04  0.50400000000E-02 0.  1.
     200001    2    1    2    0    0  0.17634958726E+03 -0.21444085949E+03 -0.95082894333E+03  0.12134535332E+04  0.70093490327E+03 0.  0.
    5000001    2    3    3    0    0  0.37431226065E+02  0.26594461697E+01 -0.10008365017E+03  0.19355235778E+03  0.16136173286E+03 0.  0.
        -11    1    4    4    0    0  0.50766886251E+02  0.66207600319E+02 -0.87546372026E+02  0.12093423971E+03  0.51100000000E-03 0. -1.
     200002    1    4    4    0    0 -0.13335660187E+02 -0.63548154149E+02 -0.12537278148E+02  0.72618118068E+02  0.30000000000E+02 0. -1.
     200000    1    3    3    0    0  0.13891836119E+03 -0.21710030566E+03 -0.85074529315E+03  0.10199011754E+04  0.50000000000E+03 0.  1.
    -200001    1    1    2    0    0 -0.17634958726E+03  0.21444085949E+03 -0.28399582319E+03  0.80482152477E+03  0.70000000000E+03 0. -1.
<mgrwt>
<rscale>  0 0.15964467E+04</rscale>
<asrwt>0</asrwt>
<pdfrwt beam="1">  1        1 0.23236427E+00 0.15964467E+04</pdfrwt>
<pdfrwt beam="2">  1       -1 0.55960736E-01 0.15964467E+04</pdfrwt>
<totfact> 0.19993081E+01</totfact>
</mgrwt>
</event>
<event>
 8    1  0.3893101E-010  0.1527902E+04  0.7818608E-02  0.8866108E-01
         -1   -1    0    0    0  501 -0.00000000000E+00  0.00000000000E+00  0.22833424557E+03  0.22833424563E+03  0.50400000000E-02 0. -1.
          1   -1    0    0  501    0  0.00000000000E+00 -0.00000000000E+00 -0.25559944910E+04  0.25559944910E+04  0.50400000000E-02 0.  1.
     200001    2    1    2    0    0  0.26713291971E+03 -0.14951030919E+03 -0.11527271075E+04  0.13828362436E+04  0.69981637804E+03 0.  0.
    5000001    2    3    3    0    0  0.55451752075E+02 -0.22488168918E+02 -0.51682319694E+03  0.53707190038E+03  0.13326437907E+03 0.  0.
        -11    1    4    4    0    0  0.25046819538E+02  0.35217747601E+02 -0.56238865599E+02  0.70925615395E+02  0.51100000000E-03 0. -1.
     200002    1    4    4    0    0  0.30404932537E+02 -0.57705916518E+02 -0.46058433134E+03  0.46614628498E+03  0.30000000000E+02 0. -1.
     200000    1    3    3    0    0  0.21168116763E+03 -0.12702214027E+03 -0.63590391058E+03  0.84576434327E+03  0.50000000000E+03 0.  1.
    -200001    1    1    2    0    0 -0.26713291971E+03  0.14951030919E+03 -0.11749331379E+04  0.14014924930E+04  0.70000000000E+03 0. -1.
<mgrwt>
<rscale>  0 0.15279019E+04</rscale>
<asrwt>0</asrwt>
<pdfrwt beam="1">  1        1 0.36514205E+00 0.15279019E+04</pdfrwt>
<pdfrwt beam="2">  1       -1 0.32619179E-01 0.15279019E+04</pdfrwt>
<totfact> 0.14119060E+01</totfact>
</mgrwt>
</event>
<event>
 8    1  0.3893101E-010  0.1566975E+04  0.7818608E-02  0.8841098E-01
          1   -1    0    0  501    0  0.00000000000E+00  0.00000000000E+00  0.31402369395E+04  0.31402369395E+04  0.50400000000E-02 0.  1.
         -1   -1    0    0    0  501 -0.00000000000E+00 -0.00000000000E+00 -0.19547964714E+03  0.19547964721E+03  0.50400000000E-02 0. -1.
     200001    2    1    2    0    0  0.69390097713E+02 -0.15010315012E+03  0.21331253130E+04  0.22512386426E+04  0.70036125223E+03 0.  0.
    5000001    2    3    3    0    0 -0.14358239245E+02 -0.52879050813E+02  0.62542011588E+03  0.65761344486E+03  0.19571093089E+03 0.  0.
        -11    1    4    4    0    0 -0.99295366189E+02 -0.48485746619E+02  0.39522932705E+03  0.41038598701E+03  0.51100000000E-03 0. -1.
     200002    1    4    4    0    0  0.84937126944E+02 -0.43933041939E+01  0.23019078883E+03  0.24722745785E+03  0.30000000000E+02 0. -1.
     200000    1    3    3    0    0  0.83748336958E+02 -0.97224099302E+02  0.15077051971E+04  0.15936251977E+04  0.50000000000E+03 0.  1.
    -200001    1    1    2    0    0 -0.69390097713E+02  0.15010315012E+03  0.81163197932E+03  0.10844779441E+04  0.70000000000E+03 0. -1.
<mgrwt>
<rscale>  0 0.15669747E+04</rscale>
<asrwt>0</asrwt>
<pdfrwt beam="1">  1        1 0.44860525E+00 0.15669747E+04</pdfrwt>
<pdfrwt beam="2">  1       -1 0.27925666E-01 0.15669747E+04</pdfrwt>
<totfact> 0.77031416E+00</totfact>
</mgrwt>
</event>
<event>
 8    1  0.3893101E-010  0.1461624E+04  0.7818608E-02  0.8910381E-01
         -1   -1    0    0    0  501 -0.00000000000E+00  0.00000000000E+00  0.53020252882E+03  0.53020252884E+03  0.50400000000E-02 0. -1.
          1   -1    0    0  501    0  0.00000000000E+00 -0.00000000000E+00 -0.10073251037E+04  0.10073251037E+04  0.50400000000E-02 0.  1.
     200001    2    1    2    0    0  0.12258566020E+03 -0.90725040344E+02 -0.84851368450E+02  0.72074432196E+03  0.69929560693E+03 0.  0.
    5000001    2    3    3    0    0 -0.86804233334E+02 -0.36974908985E+01 -0.87167612931E+02  0.17172402464E+03  0.11975934841E+03 0.  0.
        -11    1    4    4    0    0 -0.66714924197E+02  0.39065528307E+02 -0.12352056767E+02  0.78291569911E+02  0.51100000000E-03 0. -1.
     200002    1    4    4    0    0 -0.20089309138E+02 -0.42763019205E+02 -0.74815556165E+02  0.93432454733E+02  0.30000000000E+02 0. -1.
     200000    1    3    3    0    0  0.20938989353E+03 -0.87027549445E+02  0.23162444809E+01  0.54902029732E+03  0.50000000000E+03 0. -1.
    -200001    1    1    2    0    0 -0.12258566020E+03  0.90725040344E+02 -0.39227120639E+03  0.81678331055E+03  0.70000000000E+03 0.  1.
<mgrwt>
<rscale>  0 0.14616242E+04</rscale>
<asrwt>0</asrwt>
<pdfrwt beam="1">  1        1 0.14390359E+00 0.14616242E+04</pdfrwt>
<pdfrwt beam="2">  1       -1 0.75743219E-01 0.14616242E+04</pdfrwt>
<totfact> 0.29012094E+01</totfact>
</mgrwt>
</event>
<event>
 8    1  0.3893101E-010  0.1651560E+04  0.7818608E-02  0.8789484E-01
          1   -1    0    0  501    0  0.00000000000E+00  0.00000000000E+00  0.16996538103E+04  0.16996538103E+04  0.50400000000E-02 0.  1.
         -1   -1    0    0    0  501 -0.00000000000E+00 -0.00000000000E+00 -0.40120700741E+03  0.40120700744E+03  0.50400000000E-02 0. -1.
     200001    2    1    2    0    0 -0.25307328934E+03  0.57410880450E+02  0.10981706316E+04  0.13279102089E+04  0.70001763383E+03 0.  0.
    5000001    2    3    3    0    0 -0.71375474896E+02  0.94454832244E+02  0.42914440913E+03  0.47235048767E+03  0.15790467241E+03 0.  0.
        -11    1    4    4    0    0  0.97781755031E+01 -0.18709195003E+02  0.10041107911E+01  0.21134212372E+02  0.51100000000E-03 0. -1.
     200002    1    4    4    0    0 -0.81153650399E+02  0.11316402725E+03  0.42814029834E+03  0.45121627530E+03  0.30000000000E+02 0. -1.
     200000    1    3    3    0    0 -0.18169781445E+03 -0.37043951794E+02  0.66902622248E+03  0.85555972118E+03  0.50000000000E+03 0.  1.
    -200001    1    1    2    0    0  0.25307328934E+03 -0.57410880450E+02  0.20027617125E+03  0.77295060886E+03  0.70000000000E+03 0. -1.
<mgrwt>
<rscale>  0 0.16515605E+04</rscale>
<asrwt>0</asrwt>
<pdfrwt beam="1">  1        1 0.24280769E+00 0.16515605E+04</pdfrwt>
<pdfrwt beam="2">  1       -1 0.57315287E-01 0.16515605E+04</pdfrwt>
<totfact> 0.17052699E+01</totfact>
</mgrwt>
</event>
<event>
 8    1  0.3893101E-010  0.1515336E+04  0.7818608E-02  0.8874318E-01
         -1   -1    0    0    0  501 -0.00000000000E+00  0.00000000000E+00  0.14906402670E+04  0.14906402670E+04  0.50400000000E-02 0. -1.
          1   -1    0    0  501    0  0.00000000000E+00 -0.00000000000E+00 -0.38511026828E+03  0.38511026831E+03  0.50400000000E-02 0.  1.
     200001    2    1    2    0    0  0.89897555347E+00  0.10349476110E+03  0.21601507693E+03  0.73911129183E+03  0.69922172057E+03 0.  0.
    5000001    2    3    3    0    0  0.84931844043E+02 -0.16925613149E+01  0.58141108382E+02  0.19777028495E+03  0.16886803792E+03 0.  0.
        -11    1    4    4    0    0  0.49532934904E+02 -0.82241218202E+02  0.32174711567E+02  0.10125384771E+03  0.51100000000E-03 0. -1.
     200002    1    4    4    0    0  0.35398909139E+02  0.80548656887E+02  0.25966396815E+02  0.96516437243E+02  0.30000000000E+02 0. -1.
     200000    1    3    3    0    0 -0.84032868490E+02  0.10518732241E+03  0.15787396855E+03  0.54134100688E+03  0.50000000000E+03 0.  1.
    -200001    1    1    2    0    0 -0.89897555347E+00 -0.10349476110E+03  0.88951492176E+03  0.11366392435E+04  0.70000000000E+03 0. -1.
<mgrwt>
<rscale>  0 0.15153361E+04</rscale>
<asrwt>0</asrwt>
<pdfrwt beam="1">  1        1 0.55015752E-01 0.15153361E+04</pdfrwt>
<pdfrwt beam="2">  1       -1 0.21294861E+00 0.15153361E+04</pdfrwt>
<totfact> 0.82733587E+00</totfact>
</mgrwt>
</event>
<event>
 8    1  0.3893101E-010  0.1460917E+04  0.7818608E-02  0.8910867E-01
          1   -1    0    0  501    0  0.00000000000E+00  0.00000000000E+00  0.18555559720E+04  0.18555559720E+04  0.50400000000E-02 0.  1.
         -1   -1    0    0    0  501 -0.00000000000E+00 -0.00000000000E+00 -0.28755236754E+03  0.28755236759E+03  0.50400000000E-02 0. -1.
     200001    2    1    2    0    0  0.16648629406E+03 -0.80159284928E+02  0.64866435306E+03  0.97292550935E+03  0.70119569788E+03 0.  0.
    5000001    2    3    3    0    0 -0.26855822910E+02 -0.43513747564E+02  0.29947811401E+03  0.33210174329E+03  0.13412585757E+03 0.  0.
        -11    1    4    4    0    0 -0.41384341603E+02  0.19706609703E+02  0.22204735386E+03  0.22672900466E+03  0.51100000000E-03 0. -1.
     200002    1    4    4    0    0  0.14528518693E+02 -0.63220357267E+02  0.77430760152E+02  0.10537273863E+03  0.30000000000E+02 0. -1.
     200000    1    3    3    0    0  0.19334211697E+03 -0.36645537364E+02  0.34918623905E+03  0.64082376606E+03  0.50000000000E+03 0. -1.
    -200001    1    1    2    0    0 -0.16648629406E+03  0.80159284928E+02  0.91933925141E+03  0.11701828303E+04  0.70000000000E+03 0. -1.
<mgrwt>
<rscale>  0 0.14609169E+04</rscale>
<asrwt>0</asrwt>
<pdfrwt beam="1">  1        1 0.26507943E+00 0.14609169E+04</pdfrwt>
<pdfrwt beam="2">  1       -1 0.41078909E-01 0.14609169E+04</pdfrwt>
<totfact> 0.25909902E+01</totfact>
</mgrwt>
</event>
<event>
 8    1  0.3955535E-010  0.1824581E+04  0.7818608E-02  0.8693336E-01
         -1   -1    0    0    0  501 -0.00000000000E+00  0.00000000000E+00  0.40160367775E+03  0.40160367778E+03  0.50400000000E-02 0.  1.
          1   -1    0    0  501    0  0.00000000000E+00 -0.00000000000E+00 -0.20723763804E+04  0.20723763804E+04  0.50400000000E-02 0. -1.
     200001    2    1    2    0    0 -0.94329713702E+02 -0.56073868446E+03 -0.98328343684E+03  0.13399750063E+04  0.71088728580E+03 0.  0.
    5000001    2    3    3    0    0 -0.35964815529E+02 -0.24287741066E+03 -0.21040091177E+03  0.36437793355E+03  0.16798758949E+03 0.  0.
        -11    1    4    4    0    0 -0.69881901127E+02 -0.69518455764E+02 -0.15758623375E+02  0.99822993383E+02  0.51100000000E-03 0. -1.
     200002    1    4    4    0    0  0.33917085598E+02 -0.17335895490E+03 -0.19464228839E+03  0.26455494017E+03  0.30000000000E+02 0. -1.
     200000    1    3    3    0    0 -0.58364898173E+02 -0.31786127380E+03 -0.77288252507E+03  0.97559707271E+03  0.50000000000E+03 0. -1.
    -200001    1    1    2    0    0  0.94329713702E+02  0.56073868446E+03 -0.68748926578E+03  0.11340050519E+04  0.70000000000E+03 0.  1.
<mgrwt>
<rscale>  0 0.18245810E+04</rscale>
<asrwt>0</asrwt>
<pdfrwt beam="1">  1        1 0.29605376E+00 0.18245810E+04</pdfrwt>
<pdfrwt beam="2">  1       -1 0.57371955E-01 0.18245810E+04</pdfrwt>
<totfact> 0.97458157E+00</totfact>
</mgrwt>
</event>
<event>
 8    1  0.3893101E-010  0.1442650E+04  0.7818608E-02  0.8923512E-01
          1   -1    0    0  501    0  0.00000000000E+00  0.00000000000E+00  0.14659282947E+04  0.14659282947E+04  0.50400000000E-02 0.  1.
         -1   -1    0    0    0  501 -0.00000000000E+00 -0.00000000000E+00 -0.35493549381E+03  0.35493549385E+03  0.50400000000E-02 0. -1.
     200001    2    1    2    0    0  0.10385125483E+03  0.12567073540E+03  0.62905877235E+03  0.95550916487E+03  0.70050311078E+03 0.  0.
    5000001    2    3    3    0    0  0.24761838787E+01 -0.37935465615E+02  0.26699495693E+03  0.30887627021E+03  0.15057560305E+03 0.  0.
        -11    1    4    4    0    0 -0.88555707995E+01 -0.68154395509E+02  0.44081212939E+02  0.81649225936E+02  0.51100000000E-03 0. -1.
     200002    1    4    4    0    0  0.11331754678E+02  0.30218929894E+02  0.22291374399E+03  0.22722704427E+03  0.30000000000E+02 0. -1.
     200000    1    3    3    0    0  0.10137507095E+03  0.16360620101E+03  0.36206381542E+03  0.64663289466E+03  0.50000000000E+03 0.  1.
    -200001    1    1    2    0    0 -0.10385125483E+03 -0.12567073540E+03  0.48193402852E+03  0.86535462367E+03  0.70000000000E+03 0. -1.
<mgrwt>
<rscale>  0 0.14426503E+04</rscale>
<asrwt>0</asrwt>
<pdfrwt beam="1">  1        1 0.20941833E+00 0.14426503E+04</pdfrwt>
<pdfrwt beam="2">  1       -1 0.50705069E-01 0.14426503E+04</pdfrwt>
<totfact> 0.31121655E+01</totfact>
</mgrwt>
</event>
<event>
 8    1  0.3893101E-010  0.1834201E+04  0.7818608E-02  0.8688320E-01
         -1   -1    0    0    0  501 -0.00000000000E+00  0.00000000000E+00  0.50604597331E+03  0.50604597334E+03  0.50400000000E-02 0. -1.
          1   -1    0    0  501    0  0.00000000000E+00 -0.00000000000E+00 -0.16620488815E+04  0.16620488815E+04  0.50400000000E-02 0.  1.
     200001    2    1    2    0    0  0.58820030805E+03 -0.85328966917E+02 -0.56708157349E+03  0.10771828632E+04  0.69676450458E+03 0.  0.
    5000001    2    3    3    0    0  0.16713566374E+03  0.74832710624E+02 -0.21333128030E+03  0.31686288612E+03  0.14614235790E+03 0.  0.
        -11    1    4    4    0    0  0.10404679651E+03  0.83438095604E+02 -0.20692953506E+03  0.24618587316E+03  0.51100000000E-03 0. -1.
     200002    1    4    4    0    0  0.63088867234E+02 -0.86053849798E+01 -0.64017452384E+01  0.70677012965E+02  0.30000000000E+02 0. -1.
     200000    1    3    3    0    0  0.42106464431E+03 -0.16016167754E+03 -0.35375029319E+03  0.76031997710E+03  0.50000000000E+03 0.  1.
    -200001    1    1    2    0    0 -0.58820030805E+03  0.85328966917E+02 -0.58892133466E+03  0.10909119916E+04  0.70000000000E+03 0.  1.
<mgrwt>
<rscale>  0 0.18342008E+04</rscale>
<asrwt>0</asrwt>
<pdfrwt beam="1">  1        1 0.23743555E+00 0.18342008E+04</pdfrwt>
<pdfrwt beam="2">  1       -1 0.72292283E-01 0.18342008E+04</pdfrwt>
<totfact> 0.11124717E+01</totfact>
</mgrwt>
</event>
<event>
 8    1  0.3893101E-010  0.2443064E+04  0.7818608E-02  0.8423555E-01
          1   -1    0    0  501    0  0.00000000000E+00  0.00000000000E+00  0.22280333225E+04  0.22280333225E+04  0.50400000000E-02 0.  1.
         -1   -1    0    0    0  501 -0.00000000000E+00 -0.00000000000E+00 -0.66971215788E+03  0.66971215790E+03  0.50400000000E-02 0. -1.
     200001    2    1    2    0    0  0.76970479429E+03  0.47740319238E+03  0.12824527310E+04  0.17202639854E+04  0.70303904143E+03 0.  0.
    5000001    2    3    3    0    0  0.28992149318E+03  0.17726291872E+03  0.42667601939E+03  0.57893582048E+03  0.19400423747E+03 0.  0.
        -11    1    4    4    0    0  0.30332915362E+03  0.14179882020E+03  0.32634953351E+03  0.46756764095E+03  0.51100000000E-03 0. -1.
     200002    1    4    4    0    0 -0.13407660442E+02  0.35464098520E+02  0.10032648588E+03  0.11136817953E+03  0.30000000000E+02 0. -1.
     200000    1    3    3    0    0  0.47978330111E+03  0.30014027365E+03  0.85577671161E+03  0.11413281649E+04  0.50000000000E+03 0. -1.
    -200001    1    1    2    0    0 -0.76970479429E+03 -0.47740319238E+03  0.27586843363E+03  0.11774814950E+04  0.70000000000E+03 0. -1.
<mgrwt>
<rscale>  0 0.24430645E+04</rscale>
<asrwt>0</asrwt>
<pdfrwt beam="1">  1        1 0.31829048E+00 0.24430645E+04</pdfrwt>
<pdfrwt beam="2">  1       -1 0.95673164E-01 0.24430645E+04</pdfrwt>
<totfact> 0.25306099E+00</totfact>
</mgrwt>
</event>
<event>
 8    1  0.3893101E-010  0.1539023E+04  0.7818608E-02  0.8858910E-01
         -1   -1    0    0    0  501 -0.00000000000E+00  0.00000000000E+00  0.51235969701E+03  0.51235969703E+03  0.50400000000E-02 0.  1.
          1   -1    0    0  501    0  0.00000000000E+00 -0.00000000000E+00 -0.11557272587E+04  0.11557272587E+04  0.50400000000E-02 0. -1.
     200001    2    1    2    0    0  0.20325374010E+02  0.23347069183E+03 -0.55924508108E+03  0.92512109073E+03  0.69869327107E+03 0.  0.
    5000001    2    3    3    0    0 -0.10845181162E+03  0.64612931457E+02 -0.27390202604E+03  0.31151114473E+03  0.77975939006E+02 0.  0.
        -11    1    4    4    0    0 -0.21479258793E+02  0.50522332275E+02 -0.90657098109E+02  0.10598383865E+03  0.51100000000E-03 0. -1.
     200002    1    4    4    0    0 -0.86972552831E+02  0.14090599182E+02 -0.18324492793E+03  0.20552730608E+03  0.30000000000E+02 0. -1.
     200000    1    3    3    0    0  0.12877718563E+03  0.16885776037E+03 -0.28534305504E+03  0.61360994601E+03  0.50000000000E+03 0.  1.
    -200001    1    1    2    0    0 -0.20325374010E+02 -0.23347069183E+03 -0.84122480573E+02  0.74296586497E+03  0.70000000000E+03 0.  1.
<mgrwt>
<rscale>  0 0.15390232E+04</rscale>
<asrwt>0</asrwt>
<pdfrwt beam="1">  1        1 0.16510389E+00 0.15390232E+04</pdfrwt>
<pdfrwt beam="2">  1       -1 0.73194243E-01 0.15390232E+04</pdfrwt>
<totfact> 0.24166141E+01</totfact>
</mgrwt>
</event>
<event>
 8    1  0.3893101E-010  0.2231033E+04  0.7818608E-02  0.8505621E-01
         -1   -1    0    0    0  501 -0.00000000000E+00  0.00000000000E+00  0.80981599434E+03  0.80981599436E+03  0.50400000000E-02 0.  1.
          1   -1    0    0  501    0  0.00000000000E+00 -0.00000000000E+00 -0.15366169367E+04  0.15366169367E+04  0.50400000000E-02 0. -1.
     200001    2    1    2    0    0 -0.83914469313E+03  0.11033160527E+02 -0.59181289627E+03  0.12452938303E+04  0.70443500263E+03 0.  0.
    5000001    2    3    3    0    0 -0.34332042877E+03 -0.42384310336E+02 -0.21536325027E+03  0.44503795665E+03  0.17891927432E+03 0.  0.
        -11    1    4    4    0    0 -0.11113616229E+02 -0.47736367871E+02 -0.58729681009E+02  0.76494762663E+02  0.51100000000E-03 0. -1.
     200002    1    4    4    0    0 -0.33220681254E+03  0.53520575352E+01 -0.15663356926E+03  0.36854319399E+03  0.30000000000E+02 0. -1.
     200000    1    3    3    0    0 -0.49582426437E+03  0.53417470863E+02 -0.37644964599E+03  0.80025587364E+03  0.50000000000E+03 0. -1.
    -200001    1    1    2    0    0  0.83914469313E+03 -0.11033160527E+02 -0.13498804608E+03  0.11011391008E+04  0.70000000000E+03 0.  1.
<mgrwt>
<rscale>  0 0.22310329E+04</rscale>
<asrwt>0</asrwt>
<pdfrwt beam="1">  1        1 0.21951671E+00 0.22310329E+04</pdfrwt>
<pdfrwt beam="2">  1       -1 0.11568800E+00 0.22310329E+04</pdfrwt>
<totfact> 0.45497822E+00</totfact>
</mgrwt>
</event>
<event>
 8    1  0.3893101E-010  0.1878152E+04  0.7818608E-02  0.8665809E-01
         -1   -1    0    0    0  501 -0.00000000000E+00  0.00000000000E+00  0.98140003714E+03  0.98140003716E+03  0.50400000000E-02 0. -1.
          1   -1    0    0  501    0  0.00000000000E+00 -0.00000000000E+00 -0.89857724322E+03  0.89857724324E+03  0.50400000000E-02 0.  1.
     200001    2    1    2    0    0 -0.30088042423E+03  0.21563550515E+03 -0.46463621764E+03  0.91730440236E+03  0.69895125086E+03 0.  0.
    5000001    2    3    3    0    0 -0.26146041157E+02 -0.32916146475E+02 -0.10751462906E+03  0.19981382138E+03  0.16309224257E+03 0.  0.
        -11    1    4    4    0    0 -0.89189156177E+02 -0.20303489175E+02 -0.33833001039E+02  0.97527479265E+02  0.51100000000E-03 0. -1.
     200002    1    4    4    0    0  0.63043115019E+02 -0.12612657300E+02 -0.73681628024E+02  0.10228634212E+03  0.30000000000E+02 0. -1.
     200000    1    3    3    0    0 -0.27473438307E+03  0.24855165162E+03 -0.35712158858E+03  0.71749058098E+03  0.50000000000E+03 0.  1.
    -200001    1    1    2    0    0  0.30088042423E+03 -0.21563550515E+03  0.54745901156E+03  0.96267287803E+03  0.70000000000E+03 0. -1.
<mgrwt>
<rscale>  0 0.18781520E+04</rscale>
<asrwt>0</asrwt>
<pdfrwt beam="1">  1        1 0.12836818E+00 0.18781520E+04</pdfrwt>
<pdfrwt beam="2">  1       -1 0.14020001E+00 0.18781520E+04</pdfrwt>
<totfact> 0.81169063E+00</totfact>
</mgrwt>
</event>
<event>
 8    1  0.3893101E-010  0.2308039E+04  0.7818608E-02  0.8474758E-01
         -1   -1    0    0    0  501 -0.00000000000E+00  0.00000000000E+00  0.61647098819E+03  0.61647098821E+03  0.50400000000E-02 0. -1.
          1   -1    0    0  501    0  0.00000000000E+00 -0.00000000000E+00 -0.21602970519E+04  0.21602970519E+04  0.50400000000E-02 0.  1.
     200001    2    1    2    0    0 -0.48487738073E+03  0.77444740415E+03 -0.89988885255E+03  0.14578556139E+04  0.69330237838E+03 0.  0.
    5000001    2    3    3    0    0 -0.17476868589E+03  0.34657651464E+03 -0.32407842133E+03  0.53006331310E+03  0.15899974419E+03 0.  0.
        -11    1    4    4    0    0 -0.52770166377E+02  0.11388559849E+02 -0.81112502600E+02  0.97435249439E+02  0.51100000000E-03 0. -1.
     200002    1    4    4    0    0 -0.12199851952E+03  0.33518795479E+03 -0.24296591873E+03  0.43262806366E+03  0.30000000000E+02 0. -1.
     200000    1    3    3    0    0 -0.31010869484E+03  0.42787088951E+03 -0.57581043122E+03  0.92779230079E+03  0.50000000000E+03 0.  1.
    -200001    1    1    2    0    0  0.48487738073E+03 -0.77444740415E+03 -0.64393721118E+03  0.13189124262E+04  0.70000000000E+03 0.  1.
<mgrwt>
<rscale>  0 0.23080385E+04</rscale>
<asrwt>0</asrwt>
<pdfrwt beam="1">  1        1 0.30861386E+00 0.23080385E+04</pdfrwt>
<pdfrwt beam="2">  1       -1 0.88067285E-01 0.23080385E+04</pdfrwt>
<totfact> 0.33950425E+00</totfact>
</mgrwt>
</event>
<event>
 8    1  0.3893101E-010  0.1802976E+04  0.7818608E-02  0.8704718E-01
         -1   -1    0    0    0  501 -0.00000000000E+00  0.00000000000E+00  0.33830121625E+03  0.33830121628E+03  0.50400000000E-02 0. -1.
          1   -1    0    0  501    0  0.00000000000E+00 -0.00000000000E+00 -0.24022398391E+04  0.24022398391E+04  0.50400000000E-02 0.  1.
     200001    2    1    2    0    0 -0.66526519646E+02  0.25601685262E+03 -0.17960856726E+04  0.19457356644E+04  0.69999508974E+03 0.  0.
    5000001    2    3    3    0    0  0.50175345326E+02  0.46627561052E+02 -0.45532477100E+03  0.49483835719E+03  0.18125302188E+03 0.  0.
        -11    1    4    4    0    0 -0.41920222055E+02 -0.20052185637E+02 -0.34454113717E+02  0.57848778019E+02  0.51100000000E-03 0. -1.
     200002    1    4    4    0    0  0.92095567381E+02  0.66679746688E+02 -0.42087065728E+03  0.43698957917E+03  0.30000000000E+02 0. -1.
     200000    1    3    3    0    0 -0.11670186497E+03  0.20938929157E+03 -0.13407609016E+04  0.14508973072E+04  0.50000000000E+03 0.  1.
    -200001    1    1    2    0    0  0.66526519646E+02 -0.25601685262E+03 -0.26785295027E+03  0.79480539103E+03  0.70000000000E+03 0. -1.
<mgrwt>
<rscale>  0 0.18029761E+04</rscale>
<asrwt>0</asrwt>
<pdfrwt beam="1">  1        1 0.34317711E+00 0.18029761E+04</pdfrwt>
<pdfrwt beam="2">  1       -1 0.48328746E-01 0.18029761E+04</pdfrwt>
<totfact> 0.84113090E+00</totfact>
</mgrwt>
</event>
<event>
 8    1  0.3893101E-010  0.1819101E+04  0.7818608E-02  0.8696207E-01
          1   -1    0    0  501    0  0.00000000000E+00  0.00000000000E+00  0.12200358027E+04  0.12200358027E+04  0.50400000000E-02 0.  1.
         -1   -1    0    0    0  501 -0.00000000000E+00 -0.00000000000E+00 -0.67808014146E+03  0.67808014148E+03  0.50400000000E-02 0. -1.
     200001    2    1    2    0    0 -0.10560872140E+03  0.23616056443E+03 -0.27157657698E+03  0.79414143503E+03  0.69998697663E+03 0.  0.
    5000001    2    3    3    0    0 -0.10681353245E+03  0.35489749415E+02 -0.64506575757E+02  0.21695150704E+03  0.17389135995E+03 0.  0.
        -11    1    4    4    0    0 -0.13233619521E+03 -0.20479723655E+01  0.27409084492E+00  0.13235232480E+03  0.51100000000E-03 0. -1.
     200002    1    4    4    0    0  0.25522662762E+02  0.37537721781E+02 -0.64780666602E+02  0.84599182244E+02  0.30000000000E+02 0. -1.
     200000    1    3    3    0    0  0.12048110449E+01  0.20067081501E+03 -0.20707000122E+03  0.57718992799E+03  0.50000000000E+03 0. -1.
    -200001    1    1    2    0    0  0.10560872140E+03 -0.23616056443E+03  0.81353223821E+03  0.11039745091E+04  0.70000000000E+03 0.  1.
<mgrwt>
<rscale>  0 0.18191009E+04</rscale>
<asrwt>0</asrwt>
<pdfrwt beam="1">  1        1 0.17429083E+00 0.18191009E+04</pdfrwt>
<pdfrwt beam="2">  1       -1 0.96868591E-01 0.18191009E+04</pdfrwt>
<totfact> 0.11608607E+01</totfact>
</mgrwt>
</event>
<event>
 8    1  0.3893101E-010  0.1494741E+04  0.7818608E-02  0.8887958E-01
         -1   -1    0    0    0  501 -0.00000000000E+00  0.00000000000E+00  0.90836564057E+03  0.90836564058E+03  0.50400000000E-02 0. -1.
          1   -1    0    0  501    0  0.00000000000E+00 -0.00000000000E+00 -0.61490952139E+03  0.61490952141E+03  0.50400000000E-02 0.  1.
     200001    2    1    2    0    0  0.36207630056E+02 -0.27827992625E+02  0.40716403466E+03  0.81263117258E+03  0.70178449818E+03 0.  0.
    5000001    2    3    3    0    0 -0.32823230306E+02  0.24145641396E+02  0.10359576794E+03  0.22134426179E+03  0.19131341470E+03 0.  0.
        -11    1    4    4    0    0 -0.21106905008E+02 -0.81429509938E+02  0.33239003332E+02  0.90449421615E+02  0.51100000000E-03 0. -1.
     200002    1    4    4    0    0 -0.11716325297E+02  0.10557515133E+03  0.70356764605E+02  0.13089484017E+03  0.30000000000E+02 0. -1.
     200000    1    3    3    0    0  0.69030860362E+02 -0.51973634021E+02  0.30356826672E+03  0.59128691079E+03  0.50000000000E+03 0. -1.
    -200001    1    1    2    0    0 -0.36207630056E+02  0.27827992625E+02 -0.11370791548E+03  0.71064398942E+03  0.70000000000E+03 0.  1.
<mgrwt>
<rscale>  0 0.14947410E+04</rscale>
<asrwt>0</asrwt>
<pdfrwt beam="1">  1        1 0.87844218E-01 0.14947410E+04</pdfrwt>
<pdfrwt beam="2">  1       -1 0.12976652E+00 0.14947410E+04</pdfrwt>
<totfact> 0.18183022E+01</totfact>
</mgrwt>
</event>
<event>
 8    1  0.3893101E-010  0.2368518E+04  0.7818608E-02  0.8451385E-01
          1   -1    0    0  501    0  0.00000000000E+00  0.00000000000E+00  0.26412332615E+04  0.26412332615E+04  0.50400000000E-02 0.  1.
         -1   -1    0    0    0  501 -0.00000000000E+00 -0.00000000000E+00 -0.53099019422E+03  0.53099019425E+03  0.50400000000E-02 0. -1.
     200001    2    1    2    0    0 -0.48487766774E+03 -0.21354120895E+03  0.21196019546E+04  0.22942748300E+04  0.70019879259E+03 0.  0.
    5000001    2    3    3    0    0  0.82424921062E+01 -0.68044572874E+02  0.36383918143E+03  0.39768850749E+03  0.14518676412E+03 0.  0.
        -11    1    4    4    0    0  0.39473583575E+02 -0.94593144221E+02  0.29381705678E+03  0.31118240565E+03  0.51100000000E-03 0. -1.
     200002    1    4    4    0    0 -0.31231091469E+02  0.26548571347E+02  0.70022124648E+02  0.86506101837E+02  0.30000000000E+02 0. -1.
     200000    1    3    3    0    0 -0.49312015985E+03 -0.14549663608E+03  0.17557627732E+04  0.18965863225E+04  0.50000000000E+03 0.  1.
    -200001    1    1    2    0    0  0.48487766774E+03  0.21354120895E+03 -0.93588873500E+01  0.87794862570E+03  0.70000000000E+03 0. -1.
<mgrwt>
<rscale>  0 0.23685176E+04</rscale>
<asrwt>0</asrwt>
<pdfrwt beam="1">  1        1 0.37731904E+00 0.23685176E+04</pdfrwt>
<pdfrwt beam="2">  1       -1 0.75855742E-01 0.23685176E+04</pdfrwt>
<totfact> 0.23028865E+00</totfact>
</mgrwt>
</event>
<event>
 8    1  0.3893101E-010  0.1615657E+04  0.7818608E-02  0.8810986E-01
         -1   -1    0    0    0  501 -0.00000000000E+00  0.00000000000E+00  0.11151772000E+04  0.11151772000E+04  0.50400000000E-02 0. -1.
          1   -1    0    0  501    0  0.00000000000E+00 -0.00000000000E+00 -0.58518694771E+03  0.58518694773E+03  0.50400000000E-02 0.  1.
     200001    2    1    2    0    0 -0.11432336937E+03 -0.26017099409E+03  0.56662352080E+03  0.94399071135E+03  0.69949801274E+03 0.  0.
    5000001    2    3    3    0    0 -0.11815724445E+03 -0.29611407582E+02  0.12383522754E+03  0.23742585645E+03  0.16185766542E+03 0.  0.
        -11    1    4    4    0    0 -0.10015635984E+03 -0.59646732943E+02  0.12892897579E+02  0.11728280341E+03  0.51100000000E-03 0. -1.
     200002    1    4    4    0    0 -0.18000884608E+02  0.30035325361E+02  0.11094232996E+03  0.12014305304E+03  0.30000000000E+02 0. -1.
     200000    1    3    3    0    0  0.38338750752E+01 -0.23055958651E+03  0.44278829326E+03  0.70656485490E+03  0.50000000000E+03 0. -1.
    -200001    1    1    2    0    0  0.11432336937E+03  0.26017099409E+03 -0.36633268487E+02  0.75637343641E+03  0.70000000000E+03 0.  1.
<mgrwt>
<rscale>  0 0.16156573E+04</rscale>
<asrwt>0</asrwt>
<pdfrwt beam="1">  1        1 0.83598136E-01 0.16156573E+04</pdfrwt>
<pdfrwt beam="2">  1       -1 0.15931103E+00 0.16156573E+04</pdfrwt>
<totfact> 0.11216700E+01</totfact>
</mgrwt>
</event>
<event>
 8    1  0.3893101E-010  0.1533316E+04  0.7818608E-02  0.8862596E-01
          1   -1    0    0  501    0  0.00000000000E+00  0.00000000000E+00  0.11735693778E+04  0.11735693778E+04  0.50400000000E-02 0.  1.
         -1   -1    0    0    0  501 -0.00000000000E+00 -0.00000000000E+00 -0.50083474947E+03  0.50083474949E+03  0.50400000000E-02 0. -1.
     200001    2    1    2    0    0  0.28775631307E+03 -0.59485380308E+02  0.45872910043E+03  0.88564524642E+03  0.69827853235E+03 0.  0.
    5000001    2    3    3    0    0  0.58910032733E+02  0.49238245963E+02  0.19218606102E+03  0.26497090444E+03  0.16546691913E+03 0.  0.
        -11    1    4    4    0    0  0.28231728565E+02  0.17942377096E+00 -0.25311697134E+02  0.37917604127E+02  0.51100000000E-03 0. -1.
     200002    1    4    4    0    0  0.30678304169E+02  0.49058822192E+02  0.21749775815E+03  0.22705330031E+03  0.30000000000E+02 0. -1.
     200000    1    3    3    0    0  0.22884628034E+03 -0.10872362627E+03  0.26654303941E+03  0.62067434198E+03  0.50000000000E+03 0. -1.
    -200001    1    1    2    0    0 -0.28775631307E+03  0.59485380308E+02  0.21400552788E+03  0.78875888087E+03  0.70000000000E+03 0. -1.
<mgrwt>
<rscale>  0 0.15333158E+04</rscale>
<asrwt>0</asrwt>
<pdfrwt beam="1">  1        1 0.16765277E+00 0.15333158E+04</pdfrwt>
<pdfrwt beam="2">  1       -1 0.71547823E-01 0.15333158E+04</pdfrwt>
<totfact> 0.24621179E+01</totfact>
</mgrwt>
</event>
<event>
 8    1  0.3893101E-010  0.1447660E+04  0.7818608E-02  0.8920024E-01
          1   -1    0    0  501    0  0.00000000000E+00  0.00000000000E+00  0.13916157269E+04  0.13916157269E+04  0.50400000000E-02 0.  1.
         -1   -1    0    0    0  501 -0.00000000000E+00 -0.00000000000E+00 -0.37649031728E+03  0.37649031732E+03  0.50400000000E-02 0. -1.
     200001    2    1    2    0    0 -0.86079511492E+01 -0.81098546545E+02  0.70963925206E+03  0.10000091340E+04  0.69984236003E+03 0.  0.
    5000001    2    3    3    0    0  0.39633801018E+01  0.59845843277E+02  0.29219002036E+03  0.33346039574E+03  0.14907580016E+03 0.  0.
        -11    1    4    4    0    0 -0.53251454283E+01  0.89497871911E+02  0.27081295409E+03  0.28526808857E+03  0.51100000000E-03 0. -1.
     200002    1    4    4    0    0  0.92885255301E+01 -0.29652028634E+02  0.21377066263E+02  0.48192307173E+02  0.30000000000E+02 0. -1.
     200000    1    3    3    0    0 -0.12571331251E+02 -0.14094438982E+03  0.41744923171E+03  0.66654873824E+03  0.50000000000E+03 0.  1.
    -200001    1    1    2    0    0  0.86079511492E+01  0.81098546545E+02  0.30548615755E+03  0.76809691025E+03  0.70000000000E+03 0. -1.
<mgrwt>
<rscale>  0 0.14476600E+04</rscale>
<asrwt>0</asrwt>
<pdfrwt beam="1">  1        1 0.19880225E+00 0.14476600E+04</pdfrwt>
<pdfrwt beam="2">  1       -1 0.53784331E-01 0.14476600E+04</pdfrwt>
<totfact> 0.31106189E+01</totfact>
</mgrwt>
</event>
<event>
 8    1  0.3893101E-010  0.1733583E+04  0.7818608E-02  0.8742439E-01
         -1   -1    0    0    0  501 -0.00000000000E+00  0.00000000000E+00  0.22804514955E+04  0.22804514955E+04  0.50400000000E-02 0. -1.
          1   -1    0    0  501    0  0.00000000000E+00 -0.00000000000E+00 -0.32946454457E+03  0.32946454461E+03  0.50400000000E-02 0.  1.
     200001    2    1    2    0    0  0.94966820497E+02 -0.48264893021E+03  0.11846662058E+04  0.14613446792E+04  0.70008968374E+03 0.  0.
    5000001    2    3    3    0    0 -0.82903920356E+01 -0.17259200747E+03  0.40720750877E+03  0.48091652121E+03  0.18869555781E+03 0.  0.
        -11    1    4    4    0    0  0.77903511086E+02 -0.50963846368E+02  0.91675142837E+02  0.13065451577E+03  0.51100000000E-03 0. -1.
     200002    1    4    4    0    0 -0.86193903122E+02 -0.12162816110E+03  0.31553236593E+03  0.35026200545E+03  0.30000000000E+02 0. -1.
     200000    1    3    3    0    0  0.10325721253E+03 -0.31005692275E+03  0.77745869706E+03  0.98042815796E+03  0.50000000000E+03 0.  1.
    -200001    1    1    2    0    0 -0.94966820497E+02  0.48264893021E+03  0.76632074513E+03  0.11485713610E+04  0.70000000000E+03 0.  1.
<mgrwt>
<rscale>  0 0.17335835E+04</rscale>
<asrwt>0</asrwt>
<pdfrwt beam="1">  1        1 0.47066365E-01 0.17335835E+04</pdfrwt>
<pdfrwt beam="2">  1       -1 0.32577878E+00 0.17335835E+04</pdfrwt>
<totfact> 0.18277048E+00</totfact>
</mgrwt>
</event>
<event>
 8    1  0.3893101E-010  0.1638674E+04  0.7818608E-02  0.8797135E-01
         -1   -1    0    0    0  501 -0.00000000000E+00  0.00000000000E+00  0.25555121161E+03  0.25555121166E+03  0.50400000000E-02 0. -1.
          1   -1    0    0  501    0  0.00000000000E+00 -0.00000000000E+00 -0.26269221362E+04  0.26269221362E+04  0.50400000000E-02 0.  1.
     200001    2    1    2    0    0  0.35417545228E+03  0.14796173589E+03 -0.14848277462E+04  0.16894554379E+04  0.70867010276E+03 0.  0.
    5000001    2    3    3    0    0  0.12978700664E+03  0.10315943770E+03 -0.48518549022E+03  0.54856014895E+03  0.19500446255E+03 0.  0.
        -11    1    4    4    0    0  0.34129343459E+02  0.16607522744E+02  0.72350723421E+01  0.38638946268E+02  0.51100000000E-03 0. -1.
     200002    1    4    4    0    0  0.95657663177E+02  0.86551914959E+02 -0.49242056256E+03  0.50992120268E+03  0.30000000000E+02 0. -1.
     200000    1    3    3    0    0  0.22438844564E+03  0.44802298192E+02 -0.99964225596E+03  0.11408952890E+04  0.50000000000E+03 0.  1.
    -200001    1    1    2    0    0 -0.35417545228E+03 -0.14796173589E+03 -0.88654317835E+03  0.11930179099E+04  0.70000000000E+03 0.  1.
<mgrwt>
<rscale>  0 0.16386740E+04</rscale>
<asrwt>0</asrwt>
<pdfrwt beam="1">  1        1 0.37527458E+00 0.16386740E+04</pdfrwt>
<pdfrwt beam="2">  1       -1 0.36507317E-01 0.16386740E+04</pdfrwt>
<totfact> 0.10301447E+01</totfact>
</mgrwt>
</event>
<event>
 8    1  0.3893101E-010  0.1820074E+04  0.7818608E-02  0.8695697E-01
         -1   -1    0    0    0  501 -0.00000000000E+00  0.00000000000E+00  0.72685271184E+03  0.72685271185E+03  0.50400000000E-02 0.  1.
          1   -1    0    0  501    0  0.00000000000E+00 -0.00000000000E+00 -0.11393883044E+04  0.11393883044E+04  0.50400000000E-02 0. -1.
     200001    2    1    2    0    0 -0.44312378296E+03 -0.32647605711E+03 -0.14354590496E+02  0.89079577777E+03  0.70026120879E+03 0.  0.
    5000001    2    3    3    0    0 -0.80041510541E+02  0.73772069921E+01  0.61849638655E+02  0.18433005104E+03  0.15391921038E+03 0.  0.
        -11    1    4    4    0    0 -0.17383102928E+02  0.47314880112E+02  0.86824917598E+02  0.10039639667E+03  0.51100000000E-03 0. -1.
     200002    1    4    4    0    0 -0.62658407613E+02 -0.39937673120E+02 -0.24975278943E+02  0.83933654377E+02  0.30000000000E+02 0. -1.
     200000    1    3    3    0    0 -0.36308227242E+03 -0.33385326410E+03 -0.76204229151E+02  0.70646572672E+03  0.50000000000E+03 0.  1.
    -200001    1    1    2    0    0  0.44312378296E+03  0.32647605711E+03 -0.39818100206E+03  0.97544523849E+03  0.70000000000E+03 0. -1.
<mgrwt>
<rscale>  0 0.18200742E+04</rscale>
<asrwt>0</asrwt>
<pdfrwt beam="1">  1        1 0.16276976E+00 0.18200742E+04</pdfrwt>
<pdfrwt beam="2">  1       -1 0.10383610E+00 0.18200742E+04</pdfrwt>
<totfact> 0.11275764E+01</totfact>
</mgrwt>
</event>
<event>
 8    1  0.3893101E-010  0.1487700E+04  0.7818608E-02  0.8892674E-01
          1   -1    0    0  501    0  0.00000000000E+00  0.00000000000E+00  0.54728515270E+03  0.54728515273E+03  0.50400000000E-02 0. -1.
         -1   -1    0    0    0  501 -0.00000000000E+00 -0.00000000000E+00 -0.10110139982E+04  0.10110139982E+04  0.50400000000E-02 0.  1.
     200001    2    1    2    0    0  0.19749854322E+03  0.15490547773E+03 -0.24804774330E+03  0.78401256353E+03  0.70010473160E+03 0.  0.
    5000001    2    3    3    0    0  0.63414352241E+02  0.92112541845E+02 -0.73334220033E+02  0.23406134908E+03  0.19209556702E+03 0.  0.
        -11    1    4    4    0    0  0.23187151278E+02 -0.57739809312E+02 -0.35221931395E+02  0.71499049051E+02  0.51100000000E-03 0. -1.
     200002    1    4    4    0    0  0.40227200962E+02  0.14985235116E+03 -0.38112288638E+02  0.16256230003E+03  0.30000000000E+02 0. -1.
     200000    1    3    3    0    0  0.13408419098E+03  0.62792935886E+02 -0.17471352326E+03  0.54995121445E+03  0.50000000000E+03 0.  1.
    -200001    1    1    2    0    0 -0.19749854322E+03 -0.15490547773E+03 -0.21568110221E+03  0.77428658742E+03  0.70000000000E+03 0.  1.
<mgrwt>
<rscale>  0 0.14877002E+04</rscale>
<asrwt>0</asrwt>
<pdfrwt beam="1">  1        1 0.78183593E-01 0.14877002E+04</pdfrwt>
<pdfrwt beam="2">  1       -1 0.14443057E+00 0.14877002E+04</pdfrwt>
<totfact> 0.16241341E+01</totfact>
</mgrwt>
</event>
<event>
 8    1  0.4045290E-010  0.1719347E+04  0.7818608E-02  0.8750406E-01
          1   -1    0    0  501    0  0.00000000000E+00  0.00000000000E+00  0.11622810723E+04  0.11622810723E+04  0.50400000000E-02 0.  1.
         -1   -1    0    0    0  501 -0.00000000000E+00 -0.00000000000E+00 -0.63585172880E+03  0.63585172882E+03  0.50400000000E-02 0. -1.
     200001    2    1    2    0    0  0.14451216291E+01  0.11151711238E+03 -0.24665275971E+03  0.74927909682E+03  0.69867261742E+03 0.  0.
    5000001    2    3    3    0    0 -0.28753334996E+02  0.94672815407E+02 -0.13699894900E+03  0.23622974702E+03  0.16506388188E+03 0.  0.
        -11    1    4    4    0    0 -0.17808161721E+02  0.13225893398E+03 -0.13019678295E+03  0.18644237322E+03  0.51100000000E-03 0. -1.
     200002    1    4    4    0    0 -0.10945173275E+02 -0.37586118571E+02 -0.68021660525E+01  0.49787373804E+02  0.30000000000E+02 0.  1.
     200000    1    3    3    0    0  0.30198456625E+02  0.16844296972E+02 -0.10965381070E+03  0.51304934979E+03  0.50000000000E+03 0. -1.
    -200001    1    1    2    0    0 -0.14451216291E+01 -0.11151711238E+03  0.77308210317E+03  0.10488537043E+04  0.70000000000E+03 0.  1.
<mgrwt>
<rscale>  0 0.17193469E+04</rscale>
<asrwt>0</asrwt>
<pdfrwt beam="1">  1        1 0.16604015E+00 0.17193469E+04</pdfrwt>
<pdfrwt beam="2">  1       -1 0.90835963E-01 0.17193469E+04</pdfrwt>
<totfact> 0.14832505E+01</totfact>
</mgrwt>
</event>
<event>
 8    1  0.3893101E-010  0.5386641E+04  0.7818608E-02  0.7771483E-01
          1   -1    0    0  501    0  0.00000000000E+00  0.00000000000E+00  0.34209349659E+04  0.34209349659E+04  0.50400000000E-02 0.  1.
         -1   -1    0    0    0  501 -0.00000000000E+00 -0.00000000000E+00 -0.21204656177E+04  0.21204656177E+04  0.50400000000E-02 0. -1.
     200001    2    1    2    0    0 -0.13013687116E+04  0.12714865125E+04  0.25620677520E+04  0.32193607460E+04  0.69989568652E+03 0.  0.
    5000001    2    3    3    0    0 -0.36638739329E+03  0.32498194708E+03  0.80236778347E+03  0.95736938058E+03  0.18140860796E+03 0.  0.
        -11    1    4    4    0    0 -0.40025594438E+02 -0.14552924959E+02  0.29460087544E+02  0.51785447698E+02  0.51100000000E-03 0. -1.
     200002    1    4    4    0    0 -0.32636179885E+03  0.33953487204E+03  0.77290769593E+03  0.90558393289E+03  0.30000000000E+02 0. -1.
     200000    1    3    3    0    0 -0.93498131834E+03  0.94650456537E+03  0.17596999685E+04  0.22619913654E+04  0.50000000000E+03 0.  1.
    -200001    1    1    2    0    0  0.13013687116E+04 -0.12714865125E+04 -0.12615984038E+04  0.23220398376E+04  0.70000000000E+03 0. -1.
<mgrwt>
<rscale>  0 0.53866409E+04</rscale>
<asrwt>0</asrwt>
<pdfrwt beam="1">  1        1 0.48870500E+00 0.53866409E+04</pdfrwt>
<pdfrwt beam="2">  1       -1 0.30292366E+00 0.53866409E+04</pdfrwt>
<totfact> 0.99377728E-03</totfact>
</mgrwt>
</event>
<event>
 8    1  0.3893101E-010  0.2041543E+04  0.7818608E-02  0.8587441E-01
          1   -1    0    0  501    0  0.00000000000E+00  0.00000000000E+00  0.93667708573E+03  0.93667708575E+03  0.50400000000E-02 0.  1.
         -1   -1    0    0    0  501 -0.00000000000E+00 -0.00000000000E+00 -0.11124153428E+04  0.11124153428E+04  0.50400000000E-02 0. -1.
     200001    2    1    2    0    0 -0.64080750507E+03  0.35181423995E+03 -0.21330793570E+03  0.10362651981E+04  0.70280706263E+03 0.  0.
    5000001    2    3    3    0    0 -0.14237171946E+03  0.56195311752E+02 -0.14956838801E+03  0.26822124552E+03  0.16169203534E+03 0.  0.
        -11    1    4    4    0    0  0.27067576224E+02 -0.20714970125E+02 -0.20314030611E+02  0.39679005908E+02  0.51100000000E-03 0. -1.
     200002    1    4    4    0    0 -0.16943929569E+03  0.76910281877E+02 -0.12925435740E+03  0.22854223962E+03  0.30000000000E+02 0. -1.
     200000    1    3    3    0    0 -0.49843578561E+03  0.29561892820E+03 -0.63739547689E+02  0.76804395253E+03  0.50000000000E+03 0. -1.
    -200001    1    1    2    0    0  0.64080750507E+03 -0.35181423995E+03  0.37569678684E+02  0.10128272305E+04  0.70000000000E+03 0.  1.
<mgrwt>
<rscale>  0 0.20415425E+04</rscale>
<asrwt>0</asrwt>
<pdfrwt beam="1">  1        1 0.13381101E+00 0.20415425E+04</pdfrwt>
<pdfrwt beam="2">  1       -1 0.15891648E+00 0.20415425E+04</pdfrwt>
<totfact> 0.53320191E+00</totfact>
</mgrwt>
</event>
<event>
 8    1  0.3893101E-010  0.1806196E+04  0.7818608E-02  0.8703011E-01
         -1   -1    0    0    0  501 -0.00000000000E+00  0.00000000000E+00  0.10673953653E+04  0.10673953653E+04  0.50400000000E-02 0. -1.
          1   -1    0    0  501    0  0.00000000000E+00 -0.00000000000E+00 -0.76408998348E+03  0.76408998350E+03  0.50400000000E-02 0.  1.
     200001    2    1    2    0    0 -0.27560468209E+03 -0.49847632179E+03  0.18794067826E+03  0.92168009546E+03  0.69981134290E+03 0.  0.
    5000001    2    3    3    0    0 -0.63842002739E+02 -0.33597193133E+02  0.85707818082E+01  0.18470682839E+03  0.16981926113E+03 0.  0.
        -11    1    4    4    0    0  0.13580462308E+02  0.12352635295E+02  0.69532537014E+02  0.71915160147E+02  0.51100000000E-03 0. -1.
     200002    1    4    4    0    0 -0.77422465047E+02 -0.45949828428E+02 -0.60961755205E+02  0.11279166824E+03  0.30000000000E+02 0. -1.
     200000    1    3    3    0    0 -0.21176267935E+03 -0.46487912866E+03  0.17936989645E+03  0.73697326707E+03  0.50000000000E+03 0. -1.
    -200001    1    1    2    0    0  0.27560468209E+03  0.49847632179E+03  0.11536470355E+03  0.90980525334E+03  0.70000000000E+03 0.  1.
<mgrwt>
<rscale>  0 0.18061961E+04</rscale>
<asrwt>0</asrwt>
<pdfrwt beam="1">  1        1 0.10915571E+00 0.18061961E+04</pdfrwt>
<pdfrwt beam="2">  1       -1 0.15248505E+00 0.18061961E+04</pdfrwt>
<totfact> 0.84316341E+00</totfact>
</mgrwt>
</event>
<event>
 8    1  0.3893101E-010  0.2005073E+04  0.7818608E-02  0.8604252E-01
          1   -1    0    0  501    0  0.00000000000E+00  0.00000000000E+00  0.42560555465E+04  0.42560555465E+04  0.50400000000E-02 0.  1.
         -1   -1    0    0    0  501 -0.00000000000E+00 -0.00000000000E+00 -0.23615283164E+03  0.23615283169E+03  0.50400000000E-02 0. -1.
     200001    2    1    2    0    0 -0.12491588592E+03  0.26412575993E+03  0.54163456133E+03  0.93219212212E+03  0.70017694828E+03 0.  0.
    5000001    2    3    3    0    0  0.15084085606E+02  0.10983337070E+03  0.12230432219E+03  0.24717826616E+03  0.18397784942E+03 0.  0.
        -11    1    4    4    0    0  0.44682168786E+02  0.33676038718E+02  0.14651390984E+03  0.15683398091E+03  0.51100000000E-03 0. -1.
     200002    1    4    4    0    0 -0.29598083179E+02  0.76157331983E+02 -0.24209587655E+02  0.90344285249E+02  0.30000000000E+02 0. -1.
     200000    1    3    3    0    0 -0.13999997153E+03  0.15429238923E+03  0.41933023914E+03  0.68501385596E+03  0.50000000000E+03 0. -1.
    -200001    1    1    2    0    0  0.12491588592E+03 -0.26412575993E+03  0.34782681536E+04  0.35600162561E+04  0.70000000000E+03 0.  1.
<mgrwt>
<rscale>  0 0.20050731E+04</rscale>
<asrwt>0</asrwt>
<pdfrwt beam="1">  1        1 0.60800791E+00 0.20050731E+04</pdfrwt>
<pdfrwt beam="2">  1       -1 0.33736120E-01 0.20050731E+04</pdfrwt>
<totfact> 0.82060848E-01</totfact>
</mgrwt>
</event>
<event>
 8    1  0.3893101E-010  0.1471667E+04  0.7818608E-02  0.8903516E-01
          1   -1    0    0  501    0  0.00000000000E+00  0.00000000000E+00  0.93619091122E+03  0.93619091123E+03  0.50400000000E-02 0.  1.
         -1   -1    0    0    0  501 -0.00000000000E+00 -0.00000000000E+00 -0.57835498418E+03  0.57835498420E+03  0.50400000000E-02 0. -1.
     200001    2    1    2    0    0  0.34635482330E+02 -0.16950936193E+03  0.25191438160E+02  0.72045182267E+03  0.69891571724E+03 0.  0.
    5000001    2    3    3    0    0 -0.11161423988E+02 -0.35213558312E+02  0.13189814128E+03  0.18986814407E+03  0.13148467738E+03 0.  0.
        -11    1    4    4    0    0  0.34550411495E+02  0.33856024323E+02  0.50433374745E+02  0.69881947639E+02  0.51100000000E-03 0. -1.
     200002    1    4    4    0    0 -0.45711835483E+02 -0.69069582635E+02  0.81464766534E+02  0.11998619644E+03  0.30000000000E+02 0. -1.
     200000    1    3    3    0    0  0.45796906318E+02 -0.13429580361E+03 -0.10670670312E+03  0.53058367859E+03  0.50000000000E+03 0. -1.
    -200001    1    1    2    0    0 -0.34635482330E+02  0.16950936193E+03  0.33264448888E+03  0.79409407277E+03  0.70000000000E+03 0. -1.
<mgrwt>
<rscale>  0 0.14716666E+04</rscale>
<asrwt>0</asrwt>
<pdfrwt beam="1">  1        1 0.13374156E+00 0.14716666E+04</pdfrwt>
<pdfrwt beam="2">  1       -1 0.82622141E-01 0.14716666E+04</pdfrwt>
<totfact> 0.27304304E+01</totfact>
</mgrwt>
</event>
<event>
 8    1  0.3893101E-010  0.2050876E+04  0.7818608E-02  0.8583197E-01
         -1   -1    0    0    0  501 -0.00000000000E+00  0.00000000000E+00  0.97216740141E+03  0.97216740142E+03  0.50400000000E-02 0. -1.
          1   -1    0    0  501    0  0.00000000000E+00 -0.00000000000E+00 -0.10816270963E+04  0.10816270963E+04  0.50400000000E-02 0.  1.
     200001    2    1    2    0    0  0.67441905401E+03 -0.26303581520E+03 -0.24867768649E+03  0.10372264726E+04  0.69997804477E+03 0.  0.
    5000001    2    3    3    0    0  0.12716810678E+03 -0.48407526013E+02 -0.20859118070E+02  0.23258356925E+03  0.18746999205E+03 0.  0.
        -11    1    4    4    0    0  0.14025863561E+03  0.25913920412E+02  0.15757779458E+02  0.14350025696E+03  0.51100000000E-03 0. -1.
     200002    1    4    4    0    0 -0.13090528824E+02 -0.74321446424E+02 -0.36616897528E+02  0.89083312287E+02  0.30000000000E+02 0. -1.
     200000    1    3    3    0    0  0.54725094723E+03 -0.21462828919E+03 -0.22781856842E+03  0.80464290333E+03  0.50000000000E+03 0.  1.
    -200001    1    1    2    0    0 -0.67441905401E+03  0.26303581520E+03  0.13921799164E+03  0.10165680251E+04  0.70000000000E+03 0.  1.
<mgrwt>
<rscale>  0 0.20508755E+04</rscale>
<asrwt>0</asrwt>
<pdfrwt beam="1">  1        1 0.15451816E+00 0.20508755E+04</pdfrwt>
<pdfrwt beam="2">  1       -1 0.13888106E+00 0.20508755E+04</pdfrwt>
<totfact> 0.59640861E+00</totfact>
</mgrwt>
</event>
<event>
 8    1  0.3893101E-010  0.1933044E+04  0.7818608E-02  0.8638581E-01
          1   -1    0    0  501    0  0.00000000000E+00  0.00000000000E+00  0.33161576804E+04  0.33161576804E+04  0.50400000000E-02 0.  1.
         -1   -1    0    0    0  501 -0.00000000000E+00 -0.00000000000E+00 -0.28170098439E+03  0.28170098444E+03  0.50400000000E-02 0. -1.
     200001    2    1    2    0    0 -0.36407204035E+03  0.36463110452E+03  0.73852541087E+03  0.11429035208E+04  0.70377864596E+03 0.  0.
    5000001    2    3    3    0    0 -0.15081839865E+03  0.10387863259E+03  0.23659563768E+03  0.35842760374E+03  0.19737246938E+03 0.  0.
        -11    1    4    4    0    0  0.32938717113E+02  0.67481469030E+02  0.98093332627E+02  0.12353545909E+03  0.51100000000E-03 0. -1.
     200002    1    4    4    0    0 -0.18375711576E+03  0.36397163561E+02  0.13850230506E+03  0.23489214464E+03  0.30000000000E+02 0. -1.
     200000    1    3    3    0    0 -0.21325364170E+03  0.26075247193E+03  0.50192977319E+03  0.78447591711E+03  0.50000000000E+03 0. -1.
    -200001    1    1    2    0    0  0.36407204035E+03 -0.36463110452E+03  0.22959312851E+04  0.24549551440E+04  0.70000000000E+03 0.  1.
<mgrwt>
<rscale>  0 0.19330441E+04</rscale>
<asrwt>0</asrwt>
<pdfrwt beam="1">  1        1 0.47373680E+00 0.19330441E+04</pdfrwt>
<pdfrwt beam="2">  1       -1 0.40242999E-01 0.19330441E+04</pdfrwt>
<totfact> 0.29533025E+00</totfact>
</mgrwt>
</event>
<event>
 8    1  0.3893101E-010  0.1784493E+04  0.7818608E-02  0.8714590E-01
          1   -1    0    0  501    0  0.00000000000E+00  0.00000000000E+00  0.25348477429E+04  0.25348477429E+04  0.50400000000E-02 0.  1.
         -1   -1    0    0    0  501 -0.00000000000E+00 -0.00000000000E+00 -0.31406362452E+03  0.31406362456E+03  0.50400000000E-02 0. -1.
     200001    2    1    2    0    0 -0.11226739773E+03  0.54015232595E+03  0.11051864758E+04  0.14210014950E+04  0.70245255970E+03 0.  0.
    5000001    2    3    3    0    0  0.12455906872E+02  0.10545339148E+03  0.11077095211E+03  0.21959344603E+03  0.15708440507E+03 0.  0.
        -11    1    4    4    0    0  0.25429396720E+02 -0.40715890919E+01 -0.29167072946E+02  0.38909512972E+02  0.51100000000E-03 0. -1.
     200002    1    4    4    0    0 -0.12973489848E+02  0.10952498057E+03  0.13993802506E+03  0.18068393305E+03  0.30000000000E+02 0. -1.
     200000    1    3    3    0    0 -0.12472330460E+03  0.43469893447E+03  0.99441552370E+03  0.12014080490E+04  0.50000000000E+03 0. -1.
    -200001    1    1    2    0    0  0.11226739773E+03 -0.54015232595E+03  0.11155976426E+04  0.14279098725E+04  0.70000000000E+03 0. -1.
<mgrwt>
<rscale>  0 0.17844926E+04</rscale>
<asrwt>0</asrwt>
<pdfrwt beam="1">  1        1 0.36212113E+00 0.17844926E+04</pdfrwt>
<pdfrwt beam="2">  1       -1 0.44866229E-01 0.17844926E+04</pdfrwt>
<totfact> 0.79796681E+00</totfact>
</mgrwt>
</event>
<event>
 8    1  0.3893101E-010  0.1725528E+04  0.7818608E-02  0.8746937E-01
         -1   -1    0    0    0  501 -0.00000000000E+00  0.00000000000E+00  0.35691543083E+03  0.35691543086E+03  0.50400000000E-02 0.  1.
          1   -1    0    0  501    0  0.00000000000E+00 -0.00000000000E+00 -0.20855401788E+04  0.20855401788E+04  0.50400000000E-02 0. -1.
     200001    2    1    2    0    0 -0.47363771748E+03  0.17204002086E+03 -0.89209330137E+03  0.12409085580E+04  0.70006652169E+03 0.  0.
    5000001    2    3    3    0    0 -0.73223869855E+02  0.54386149435E+02 -0.12070345660E+03  0.23134628879E+03  0.17502054888E+03 0.  0.
        -11    1    4    4    0    0 -0.71501378159E+02  0.47802144054E+02 -0.15987342556E+03  0.18154064079E+03  0.51100000000E-03 0. -1.
     200002    1    4    4    0    0 -0.17224916960E+01  0.65840053805E+01  0.39169968959E+02  0.49805648001E+02  0.30000000000E+02 0. -1.
     200000    1    3    3    0    0 -0.40041384763E+03  0.11765387142E+03 -0.77138984476E+03  0.10095622692E+04  0.50000000000E+03 0.  1.
    -200001    1    1    2    0    0  0.47363771748E+03 -0.17204002086E+03 -0.83653144661E+03  0.12015470517E+04  0.70000000000E+03 0.  1.
<mgrwt>
<rscale>  0 0.17255277E+04</rscale>
<asrwt>0</asrwt>
<pdfrwt beam="1">  1        1 0.29793430E+00 0.17255277E+04</pdfrwt>
<pdfrwt beam="2">  1       -1 0.50987920E-01 0.17255277E+04</pdfrwt>
<totfact> 0.12113250E+01</totfact>
</mgrwt>
</event>
<event>
 8    1  0.3893101E-010  0.2059011E+04  0.7818608E-02  0.8579518E-01
         -1   -1    0    0    0  501 -0.00000000000E+00  0.00000000000E+00  0.11239071168E+04  0.11239071169E+04  0.50400000000E-02 0. -1.
          1   -1    0    0  501    0  0.00000000000E+00 -0.00000000000E+00 -0.94303262691E+03  0.94303262692E+03  0.50400000000E-02 0.  1.
     200001    2    1    2    0    0  0.38296254610E+03 -0.47968318845E+03  0.53583502441E+03  0.10705697051E+04  0.69443793606E+03 0.  0.
    5000001    2    3    3    0    0  0.11118201942E+03 -0.37595512018E+02  0.92952570315E+02  0.22472631739E+03  0.16759138830E+03 0.  0.
        -11    1    4    4    0    0  0.35676700906E+02  0.22699213109E+01 -0.46394600670E+02  0.58569945380E+02  0.51100000000E-03 0. -1.
     200002    1    4    4    0    0  0.75505318519E+02 -0.39865433329E+02  0.13934717098E+03  0.16615637201E+03  0.30000000000E+02 0. -1.
     200000    1    3    3    0    0  0.27178052667E+03 -0.44208767643E+03  0.44288245410E+03  0.84584338768E+03  0.50000000000E+03 0.  1.
    -200001    1    1    2    0    0 -0.38296254610E+03  0.47968318845E+03 -0.35496053448E+03  0.99637003871E+03  0.70000000000E+03 0.  1.
<mgrwt>
<rscale>  0 0.20590105E+04</rscale>
<asrwt>0</asrwt>
<pdfrwt beam="1">  1        1 0.13471895E+00 0.20590105E+04</pdfrwt>
<pdfrwt beam="2">  1       -1 0.16055816E+00 0.20590105E+04</pdfrwt>
<totfact> 0.51154174E+00</totfact>
</mgrwt>
</event>
<event>
 8    1  0.3893101E-010  0.1471905E+04  0.7818608E-02  0.8903353E-01
         -1   -1    0    0    0  501 -0.00000000000E+00  0.00000000000E+00  0.47068528355E+03  0.47068528358E+03  0.50400000000E-02 0. -1.
          1   -1    0    0  501    0  0.00000000000E+00 -0.00000000000E+00 -0.11507188779E+04  0.11507188779E+04  0.50400000000E-02 0.  1.
     200001    2    1    2    0    0  0.21448209270E+03 -0.47119590639E+02 -0.27547221488E+03  0.78361377381E+03  0.69995912839E+03 0.  0.
    5000001    2    3    3    0    0  0.67630157333E+02  0.37410320690E+02  0.54119240368E+02  0.16124625842E+03  0.13075967805E+03 0.  0.
        -11    1    4    4    0    0 -0.69647643805E+01  0.61313479147E+02  0.46016361146E+02  0.76976335074E+02  0.51100000000E-03 0. -1.
     200002    1    4    4    0    0  0.74594921714E+02 -0.23903158457E+02  0.81028792222E+01  0.84269923350E+02  0.30000000000E+02 0. -1.
     200000    1    3    3    0    0  0.14685193537E+03 -0.84529911329E+02 -0.32959145525E+03  0.62236751539E+03  0.50000000000E+03 0. -1.
    -200001    1    1    2    0    0 -0.21448209270E+03  0.47119590639E+02 -0.40456137944E+03  0.83779038766E+03  0.70000000000E+03 0.  1.
<mgrwt>
<rscale>  0 0.14719055E+04</rscale>
<asrwt>0</asrwt>
<pdfrwt beam="1">  1        1 0.16438841E+00 0.14719055E+04</pdfrwt>
<pdfrwt beam="2">  1       -1 0.67240755E-01 0.14719055E+04</pdfrwt>
<totfact> 0.29160440E+01</totfact>
</mgrwt>
</event>
<event>
 8    1  0.3893101E-010  0.2691506E+04  0.7818608E-02  0.8337766E-01
          1   -1    0    0  501    0  0.00000000000E+00  0.00000000000E+00  0.15112152202E+04  0.15112152202E+04  0.50400000000E-02 0.  1.
         -1   -1    0    0    0  501 -0.00000000000E+00 -0.00000000000E+00 -0.11984072796E+04  0.11984072796E+04  0.50400000000E-02 0. -1.
     200001    2    1    2    0    0 -0.48945308977E+03 -0.10206538553E+04  0.35456739686E+03  0.13780660903E+04  0.70146239462E+03 0.  0.
    5000001    2    3    3    0    0 -0.12784041243E+02 -0.13088456450E+03  0.86009633472E+02  0.22003930097E+03  0.15403063327E+03 0.  0.
        -11    1    4    4    0    0 -0.63647708206E+01 -0.85966357430E+02 -0.30515221340E+02  0.91443445096E+02  0.51100000000E-03 0. -1.
     200002    1    4    4    0    0 -0.64192704222E+01 -0.44918207068E+02  0.11652485481E+03  0.12859585587E+03  0.30000000000E+02 0. -1.
     200000    1    3    3    0    0 -0.47666904853E+03 -0.88976929077E+03  0.26855776339E+03  0.11580267894E+04  0.50000000000E+03 0. -1.
    -200001    1    1    2    0    0  0.48945308977E+03  0.10206538553E+04 -0.41759456248E+02  0.13315564094E+04  0.70000000000E+03 0. -1.
<mgrwt>
<rscale>  0 0.26915061E+04</rscale>
<asrwt>0</asrwt>
<pdfrwt beam="1">  1        1 0.21588789E+00 0.26915061E+04</pdfrwt>
<pdfrwt beam="2">  1       -1 0.17120104E+00 0.26915061E+04</pdfrwt>
<totfact> 0.16213805E+00</totfact>
</mgrwt>
</event>
<event>
 8    1  0.3893101E-010  0.1542549E+04  0.7818608E-02  0.8856641E-01
         -1   -1    0    0    0  501 -0.00000000000E+00  0.00000000000E+00  0.12113121849E+04  0.12113121849E+04  0.50400000000E-02 0. -1.
          1   -1    0    0  501    0  0.00000000000E+00 -0.00000000000E+00 -0.49109076300E+03  0.49109076302E+03  0.50400000000E-02 0.  1.
     200001    2    1    2    0    0 -0.18022903804E+00  0.22971746366E+03  0.61262605504E+03  0.95785818197E+03  0.69957949360E+03 0.  0.
    5000001    2    3    3    0    0  0.23250801821E+02  0.16219686197E+02  0.36637440286E+02  0.16546106025E+03  0.15884389325E+03 0.  0.
        -11    1    4    4    0    0 -0.54286309697E+02 -0.28657153562E+02 -0.62537821649E+01  0.61703692453E+02  0.51100000000E-03 0. -1.
     200002    1    4    4    0    0  0.77537111518E+02  0.44876839759E+02  0.42891222451E+02  0.10375736780E+03  0.30000000000E+02 0. -1.
     200000    1    3    3    0    0 -0.23431030859E+02  0.21349777746E+03  0.57598861475E+03  0.79239712172E+03  0.50000000000E+03 0. -1.
    -200001    1    1    2    0    0  0.18022903804E+00 -0.22971746366E+03  0.10759536690E+03  0.74454476599E+03  0.70000000000E+03 0.  1.
<mgrwt>
<rscale>  0 0.15425488E+04</rscale>
<asrwt>0</asrwt>
<pdfrwt beam="1">  1        1 0.70155822E-01 0.15425488E+04</pdfrwt>
<pdfrwt beam="2">  1       -1 0.17304460E+00 0.15425488E+04</pdfrwt>
<totfact> 0.11357651E+01</totfact>
</mgrwt>
</event>
<event>
 8    1  0.3893101E-010  0.1866504E+04  0.7818608E-02  0.8671712E-01
         -1   -1    0    0    0  501 -0.00000000000E+00  0.00000000000E+00  0.66636058834E+03  0.66636058836E+03  0.50400000000E-02 0.  1.
          1   -1    0    0  501    0  0.00000000000E+00 -0.00000000000E+00 -0.13070388110E+04  0.13070388110E+04  0.50400000000E-02 0. -1.
     200001    2    1    2    0    0  0.44899976684E+03  0.22989176237E+03  0.61106977657E+02  0.86121529572E+03  0.69534646749E+03 0.  0.
    5000001    2    3    3    0    0  0.23067389461E+03  0.13964835958E+02 -0.33338641115E+01  0.27092448085E+03  0.14136299862E+03 0.  0.
        -11    1    4    4    0    0  0.16059780004E+03  0.17751996898E+02  0.59380019692E+02  0.17214172507E+03  0.51100000000E-03 0. -1.
     200002    1    4    4    0    0  0.70076094566E+02 -0.37871609408E+01 -0.62713883804E+02  0.98782755779E+02  0.30000000000E+02 0. -1.
     200000    1    3    3    0    0  0.21832587223E+03  0.21592692641E+03  0.64440841768E+02  0.59029081487E+03  0.50000000000E+03 0.  1.
    -200001    1    1    2    0    0 -0.44899976684E+03 -0.22989176237E+03 -0.70178520034E+03  0.11121841037E+04  0.70000000000E+03 0. -1.
<mgrwt>
<rscale>  0 0.18665038E+04</rscale>
<asrwt>0</asrwt>
<pdfrwt beam="1">  1        1 0.18671983E+00 0.18665038E+04</pdfrwt>
<pdfrwt beam="2">  1       -1 0.95194371E-01 0.18665038E+04</pdfrwt>
<totfact> 0.10484766E+01</totfact>
</mgrwt>
</event>
<event>
 8    1  0.3893101E-010  0.1534459E+04  0.7818608E-02  0.8861856E-01
          1   -1    0    0  501    0  0.00000000000E+00  0.00000000000E+00  0.89352353581E+03  0.89352353582E+03  0.50400000000E-02 0.  1.
         -1   -1    0    0    0  501 -0.00000000000E+00 -0.00000000000E+00 -0.65878672177E+03  0.65878672179E+03  0.50400000000E-02 0. -1.
     200001    2    1    2    0    0  0.47203619374E+02 -0.20713556654E+02  0.42865832772E+03  0.82411880848E+03  0.70197337233E+03 0.  0.
    5000001    2    3    3    0    0 -0.51776453152E+02 -0.87479802671E+02  0.44816684751E+02  0.18256663349E+03  0.14487416421E+03 0.  0.
        -11    1    4    4    0    0 -0.38270109465E+02 -0.86326348147E+02 -0.31425391996E+02  0.99520826590E+02  0.51100000000E-03 0. -1.
     200002    1    4    4    0    0 -0.13506343688E+02 -0.11534545244E+01  0.76242076747E+02  0.83045806901E+02  0.30000000000E+02 0. -1.
     200000    1    3    3    0    0  0.98980072526E+02  0.66766246017E+02  0.38384164297E+03  0.64155217499E+03  0.50000000000E+03 0.  1.
    -200001    1    1    2    0    0 -0.47203619374E+02  0.20713556654E+02 -0.19392151368E+03  0.72819144913E+03  0.70000000000E+03 0. -1.
<mgrwt>
<rscale>  0 0.15344594E+04</rscale>
<asrwt>0</asrwt>
<pdfrwt beam="1">  1        1 0.12764622E+00 0.15344594E+04</pdfrwt>
<pdfrwt beam="2">  1       -1 0.94112389E-01 0.15344594E+04</pdfrwt>
<totfact> 0.22051957E+01</totfact>
</mgrwt>
</event>
<event>
 8    1  0.3893101E-010  0.1442605E+04  0.7818608E-02  0.8923543E-01
         -1   -1    0    0    0  501 -0.00000000000E+00  0.00000000000E+00  0.29150578125E+03  0.29150578129E+03  0.50400000000E-02 0.  1.
          1   -1    0    0  501    0  0.00000000000E+00 -0.00000000000E+00 -0.17847931410E+04  0.17847931410E+04  0.50400000000E-02 0. -1.
     200001    2    1    2    0    0 -0.16614314459E+02  0.17433702789E+03 -0.76993655585E+03  0.10545818283E+04  0.69905013964E+03 0.  0.
    5000001    2    3    3    0    0  0.15073388956E+02 -0.38955394874E+02 -0.22015475679E+03  0.28078741452E+03  0.16920025228E+03 0.  0.
        -11    1    4    4    0    0  0.72311891415E+02 -0.64438107515E+01 -0.18817327733E+03  0.20169212835E+03  0.51100000000E-03 0. -1.
     200002    1    4    4    0    0 -0.57238502459E+02 -0.32511584122E+02 -0.31981479454E+02  0.79095286168E+02  0.30000000000E+02 0. -1.
     200000    1    3    3    0    0 -0.31687703415E+02  0.21329242276E+03 -0.54978179906E+03  0.77379441374E+03  0.50000000000E+03 0.  1.
    -200001    1    1    2    0    0  0.16614314459E+02 -0.17433702789E+03 -0.72335080390E+03  0.10217170940E+04  0.70000000000E+03 0.  1.
<mgrwt>
<rscale>  0 0.14426053E+04</rscale>
<asrwt>0</asrwt>
<pdfrwt beam="1">  1        1 0.25497044E+00 0.14426053E+04</pdfrwt>
<pdfrwt beam="2">  1       -1 0.41643684E-01 0.14426053E+04</pdfrwt>
<totfact> 0.28054781E+01</totfact>
</mgrwt>
</event>
<event>
 8    1  0.3893101E-010  0.2298874E+04  0.7818608E-02  0.8478365E-01
          1   -1    0    0  501    0  0.00000000000E+00  0.00000000000E+00  0.29214961974E+04  0.29214961974E+04  0.50400000000E-02 0.  1.
         -1   -1    0    0    0  501 -0.00000000000E+00 -0.00000000000E+00 -0.45223602638E+03  0.45223602641E+03  0.50400000000E-02 0. -1.
     200001    2    1    2    0    0  0.38331639083E+03 -0.65263028090E+03  0.19804346551E+04  0.22327641594E+04  0.70018328271E+03 0.  0.
    5000001    2    3    3    0    0 -0.14158180540E+02 -0.10598889341E+03  0.41885148299E+03  0.45925215076E+03  0.15505442132E+03 0.  0.
        -11    1    4    4    0    0  0.44410283252E+02 -0.36185410714E+02  0.43759557192E+02  0.72087142078E+02  0.51100000000E-03 0. -1.
     200002    1    4    4    0    0 -0.58568463792E+02 -0.69803482701E+02  0.37509192580E+03  0.38716500868E+03  0.30000000000E+02 0. -1.
     200000    1    3    3    0    0  0.39747457137E+03 -0.54664138749E+03  0.15615831721E+04  0.17735120086E+04  0.50000000000E+03 0.  1.
    -200001    1    1    2    0    0 -0.38331639083E+03  0.65263028090E+03  0.48882551596E+03  0.11409680644E+04  0.70000000000E+03 0. -1.
<mgrwt>
<rscale>  0 0.22988744E+04</rscale>
<asrwt>0</asrwt>
<pdfrwt beam="1">  1        1 0.41735659E+00 0.22988744E+04</pdfrwt>
<pdfrwt beam="2">  1       -1 0.64605147E-01 0.22988744E+04</pdfrwt>
<totfact> 0.21200421E+00</totfact>
</mgrwt>
</event>
<event>
 8    1  0.3893101E-010  0.1824646E+04  0.7818608E-02  0.8693302E-01
          1   -1    0    0  501    0  0.00000000000E+00  0.00000000000E+00  0.69139152588E+03  0.69139152590E+03  0.50400000000E-02 0. -1.
         -1   -1    0    0    0  501 -0.00000000000E+00 -0.00000000000E+00 -0.12038528288E+04  0.12038528289E+04  0.50400000000E-02 0.  1.
     200001    2    1    2    0    0 -0.38568962071E+03 -0.43988154479E+03 -0.26767650132E+03  0.95069586151E+03  0.69994260819E+03 0.  0.
    5000001    2    3    3    0    0  0.49667330280E+02 -0.87989659928E+02 -0.89496132557E+02  0.17926095355E+03  0.11796570592E+03 0.  0.
        -11    1    4    4    0    0  0.43135249299E+02 -0.67062490163E+02  0.27791104223E+01  0.79785655189E+02  0.51100000000E-03 0. -1.
     200002    1    4    4    0    0  0.65320809807E+01 -0.20927169765E+02 -0.92275242979E+02  0.99475298357E+02  0.30000000000E+02 0.  1.
     200000    1    3    3    0    0 -0.43535695099E+03 -0.35189188487E+03 -0.17818036876E+03  0.77143490796E+03  0.50000000000E+03 0. -1.
    -200001    1    1    2    0    0  0.38568962071E+03  0.43988154479E+03 -0.24478480165E+03  0.94454849325E+03  0.70000000000E+03 0.  1.
<mgrwt>
<rscale>  0 0.18246464E+04</rscale>
<asrwt>0</asrwt>
<pdfrwt beam="1">  1        1 0.98770218E-01 0.18246464E+04</pdfrwt>
<pdfrwt beam="2">  1       -1 0.17197898E+00 0.18246464E+04</pdfrwt>
<totfact> 0.69765743E+00</totfact>
</mgrwt>
</event>
<event>
 8    1  0.3893101E-010  0.1663919E+04  0.7818608E-02  0.8782215E-01
         -1   -1    0    0    0  501 -0.00000000000E+00  0.00000000000E+00  0.12185501812E+04  0.12185501812E+04  0.50400000000E-02 0. -1.
          1   -1    0    0  501    0  0.00000000000E+00 -0.00000000000E+00 -0.56801620041E+03  0.56801620043E+03  0.50400000000E-02 0.  1.
     200001    2    1    2    0    0  0.59057777155E+01  0.29616935649E+03 -0.38309338165E+02  0.76077094200E+03  0.69968110941E+03 0.  0.
    5000001    2    3    3    0    0 -0.44997048168E+02  0.17713257337E+03  0.99590856758E+02  0.22618950089E+03  0.88558842971E+02 0.  0.
        -11    1    4    4    0    0 -0.44612520613E+02  0.13415502338E+03  0.40210071185E+02  0.14698536362E+03  0.51100000000E-03 0. -1.
     200002    1    4    4    0    0 -0.38452755559E+00  0.42977549990E+02  0.59380785573E+02  0.79204137265E+02  0.30000000000E+02 0. -1.
     200000    1    3    3    0    0  0.50902825884E+02  0.11903678312E+03 -0.13790019492E+03  0.53458144111E+03  0.50000000000E+03 0.  1.
    -200001    1    1    2    0    0 -0.59057777155E+01 -0.29616935649E+03  0.68884331896E+03  0.10257954396E+04  0.70000000000E+03 0. -1.
<mgrwt>
<rscale>  0 0.16639186E+04</rscale>
<asrwt>0</asrwt>
<pdfrwt beam="1">  1        1 0.81145173E-01 0.16639186E+04</pdfrwt>
<pdfrwt beam="2">  1       -1 0.17407859E+00 0.16639186E+04</pdfrwt>
<totfact> 0.90475434E+00</totfact>
</mgrwt>
</event>
<event>
 8    1  0.3893101E-010  0.1646710E+04  0.7818608E-02  0.8792355E-01
         -1   -1    0    0    0  501 -0.00000000000E+00  0.00000000000E+00  0.50690916356E+03  0.50690916359E+03  0.50400000000E-02 0. -1.
          1   -1    0    0  501    0  0.00000000000E+00 -0.00000000000E+00 -0.13373464865E+04  0.13373464866E+04  0.50400000000E-02 0.  1.
     200001    2    1    2    0    0 -0.11133441519E+03  0.35599573792E+03 -0.66131203358E+03  0.10332490651E+04  0.70081503081E+03 0.  0.
    5000001    2    3    3    0    0 -0.15458040034E+03  0.15602959039E+03 -0.11346471437E+03  0.26383801728E+03  0.92173340551E+02 0.  0.
        -11    1    4    4    0    0 -0.12440655895E+03  0.12605909084E+03 -0.54754553304E+02  0.18538054752E+03  0.51100000000E-03 0. -1.
     200002    1    4    4    0    0 -0.30173841388E+02  0.29970499547E+02 -0.58710161068E+02  0.78457469752E+02  0.30000000000E+02 0.  1.
     200000    1    3    3    0    0  0.43245985150E+02  0.19996614754E+03 -0.54784731921E+03  0.76941104785E+03  0.50000000000E+03 0.  1.
    -200001    1    1    2    0    0  0.11133441519E+03 -0.35599573792E+03 -0.16912528940E+03  0.81100658502E+03  0.70000000000E+03 0. -1.
<mgrwt>
<rscale>  0 0.16467097E+04</rscale>
<asrwt>0</asrwt>
<pdfrwt beam="1">  1        1 0.19104950E+00 0.16467097E+04</pdfrwt>
<pdfrwt beam="2">  1       -1 0.72415595E-01 0.16467097E+04</pdfrwt>
<totfact> 0.18368529E+01</totfact>
</mgrwt>
</event>
<event>
 8    1  0.3893101E-010  0.2103292E+04  0.7818608E-02  0.8559795E-01
          1   -1    0    0  501    0  0.00000000000E+00  0.00000000000E+00  0.96008637310E+03  0.96008637312E+03  0.50400000000E-02 0. -1.
         -1   -1    0    0    0  501 -0.00000000000E+00 -0.00000000000E+00 -0.11519374977E+04  0.11519374977E+04  0.50400000000E-02 0.  1.
     200001    2    1    2    0    0 -0.18893025983E+03  0.73033098927E+03 -0.31346376837E+03  0.10757480233E+04  0.69992590935E+03 0.  0.
    5000001    2    3    3    0    0  0.11069881146E+02  0.22640170955E+03 -0.12110905325E+03  0.31355046899E+03  0.17962799747E+03 0.  0.
        -11    1    4    4    0    0 -0.16020742627E+02  0.16476709534E+03  0.70649136627E+01  0.16569481858E+03  0.51100000000E-03 0. -1.
     200002    1    4    4    0    0  0.27090623773E+02  0.61634614209E+02 -0.12817396691E+03  0.14785565041E+03  0.30000000000E+02 0. -1.
     200000    1    3    3    0    0 -0.20000014097E+03  0.50392927972E+03 -0.19235471512E+03  0.76219755430E+03  0.50000000000E+03 0. -1.
    -200001    1    1    2    0    0  0.18893025983E+03 -0.73033098927E+03  0.12161264381E+03  0.10362758475E+04  0.70000000000E+03 0. -1.
<mgrwt>
<rscale>  0 0.21032922E+04</rscale>
<asrwt>0</asrwt>
<pdfrwt beam="1">  1        1 0.13715520E+00 0.21032922E+04</pdfrwt>
<pdfrwt beam="2">  1       -1 0.16456250E+00 0.21032922E+04</pdfrwt>
<totfact> 0.46135231E+00</totfact>
</mgrwt>
</event>
<event>
 8    1  0.3893101E-010  0.1575087E+04  0.7818608E-02  0.8836001E-01
          1   -1    0    0  501    0  0.00000000000E+00  0.00000000000E+00  0.35192877759E+03  0.35192877762E+03  0.50400000000E-02 0.  1.
         -1   -1    0    0    0  501 -0.00000000000E+00 -0.00000000000E+00 -0.17623579262E+04  0.17623579262E+04  0.50400000000E-02 0. -1.
     200001    2    1    2    0    0 -0.26584290883E+03  0.65587260042E+02 -0.10211169472E+04  0.12678009502E+04  0.69976087967E+03 0.  0.
    5000001    2    3    3    0    0 -0.88044991191E+02  0.14260072588E+02 -0.20287743808E+03  0.29119331461E+03  0.18888891298E+03 0.  0.
        -11    1    4    4    0    0 -0.11814473833E+03 -0.28973764280E+02 -0.59274751014E+02  0.13531871386E+03  0.51100000000E-03 0. -1.
     200002    1    4    4    0    0  0.30099747138E+02  0.43233836868E+02 -0.14360268706E+03  0.15587460075E+03  0.30000000000E+02 0. -1.
     200000    1    3    3    0    0 -0.17779791764E+03  0.51327187454E+02 -0.81823950913E+03  0.97660763564E+03  0.50000000000E+03 0.  1.
    -200001    1    1    2    0    0  0.26584290883E+03 -0.65587260042E+02 -0.38931220140E+03  0.84648575358E+03  0.70000000000E+03 0. -1.
<mgrwt>
<rscale>  0 0.15750866E+04</rscale>
<asrwt>0</asrwt>
<pdfrwt beam="1">  1        1 0.50275541E-01 0.15750866E+04</pdfrwt>
<pdfrwt beam="2">  1       -1 0.25176541E+00 0.15750866E+04</pdfrwt>
<totfact> 0.51294974E+00</totfact>
</mgrwt>
</event>
<event>
 8    1  0.3893101E-010  0.1883287E+04  0.7818608E-02  0.8663220E-01
         -1   -1    0    0    0  501 -0.00000000000E+00  0.00000000000E+00  0.37569951755E+03  0.37569951758E+03  0.50400000000E-02 0. -1.
          1   -1    0    0  501    0  0.00000000000E+00 -0.00000000000E+00 -0.23601117023E+04  0.23601117024E+04  0.50400000000E-02 0.  1.
     200001    2    1    2    0    0 -0.17188194066E+03  0.60474461599E+03 -0.10478544366E+04  0.14082571277E+04  0.69994983059E+03 0.  0.
    5000001    2    3    3    0    0 -0.95221920217E+02  0.20712151518E+03 -0.29303114316E+03  0.41642090465E+03  0.18860695330E+03 0.  0.
        -11    1    4    4    0    0 -0.79432762174E+02  0.21706499549E+03 -0.30167877856E+03  0.38004849876E+03  0.51100000000E-03 0. -1.
     200002    1    4    4    0    0 -0.15789158043E+02 -0.99434803154E+01  0.86476354034E+01  0.36372405895E+02  0.30000000000E+02 0. -1.
     200000    1    3    3    0    0 -0.76660020438E+02  0.39762310081E+03 -0.75482329343E+03  0.99183622304E+03  0.50000000000E+03 0. -1.
    -200001    1    1    2    0    0  0.17188194066E+03 -0.60474461599E+03 -0.93655774821E+03  0.13275540922E+04  0.70000000000E+03 0. -1.
<mgrwt>
<rscale>  0 0.18832874E+04</rscale>
<asrwt>0</asrwt>
<pdfrwt beam="1">  1        1 0.33715880E+00 0.18832874E+04</pdfrwt>
<pdfrwt beam="2">  1       -1 0.53671361E-01 0.18832874E+04</pdfrwt>
<totfact> 0.72698320E+00</totfact>
</mgrwt>
</event>
<event>
 8    1  0.3893101E-010  0.1481378E+04  0.7818608E-02  0.8896931E-01
         -1   -1    0    0    0  501 -0.00000000000E+00  0.00000000000E+00  0.22448341375E+03  0.22448341380E+03  0.50400000000E-02 0.  1.
          1   -1    0    0  501    0  0.00000000000E+00 -0.00000000000E+00 -0.24439240206E+04  0.24439240206E+04  0.50400000000E-02 0. -1.
     200001    2    1    2    0    0  0.87295853429E+02  0.23301516397E+02 -0.70629059602E+03  0.99874085632E+03  0.70033803650E+03 0.  0.
    5000001    2    3    3    0    0  0.28201866855E+02  0.10397678468E+02 -0.15213229293E+03  0.24990840966E+03  0.19597581906E+03 0.  0.
        -11    1    4    4    0    0 -0.58290082110E+02 -0.51333511104E+02 -0.25166319340E+02  0.81646841115E+02  0.51100000000E-03 0. -1.
     200002    1    4    4    0    0  0.86491948965E+02  0.61731189572E+02 -0.12696597359E+03  0.16826156855E+03  0.30000000000E+02 0. -1.
     200000    1    3    3    0    0  0.59093986573E+02  0.12903837930E+02 -0.55415830309E+03  0.74883244666E+03  0.50000000000E+03 0.  1.
    -200001    1    1    2    0    0 -0.87295853429E+02 -0.23301516397E+02 -0.15131500108E+04  0.16696665781E+04  0.70000000000E+03 0. -1.
<mgrwt>
<rscale>  0 0.14813783E+04</rscale>
<asrwt>0</asrwt>
<pdfrwt beam="1">  1        1 0.34913199E+00 0.14813783E+04</pdfrwt>
<pdfrwt beam="2">  1       -1 0.32069061E-01 0.14813783E+04</pdfrwt>
<totfact> 0.17211757E+01</totfact>
</mgrwt>
</event>
<event>
 8    1  0.3893101E-010  0.1938291E+04  0.7818608E-02  0.8636028E-01
         -1   -1    0    0    0  501 -0.00000000000E+00  0.00000000000E+00  0.54083495235E+03  0.54083495237E+03  0.50400000000E-02 0. -1.
          1   -1    0    0  501    0  0.00000000000E+00 -0.00000000000E+00 -0.17366527689E+04  0.17366527689E+04  0.50400000000E-02 0.  1.
     200001    2    1    2    0    0 -0.50125911879E+03 -0.37392874059E+02 -0.11187589114E+04  0.14122727156E+04  0.70016697307E+03 0.  0.
    5000001    2    3    3    0    0 -0.14665523465E+03 -0.21668274168E+02 -0.36039674462E+03  0.43702692417E+03  0.19781164516E+03 0.  0.
        -11    1    4    4    0    0 -0.55237264742E+02 -0.22279020762E+02  0.44302476352E+01  0.59725516127E+02  0.51100000000E-03 0. -1.
     200002    1    4    4    0    0 -0.91417969905E+02  0.61074659431E+00 -0.36482699225E+03  0.37730140804E+03  0.30000000000E+02 0. -1.
     200000    1    3    3    0    0 -0.35460388414E+03 -0.15724599892E+02 -0.75836216673E+03  0.97524579139E+03  0.50000000000E+03 0.  1.
    -200001    1    1    2    0    0  0.50125911879E+03  0.37392874059E+02 -0.77058905172E+02  0.86521500569E+03  0.70000000000E+03 0. -1.
<mgrwt>
<rscale>  0 0.19382905E+04</rscale>
<asrwt>0</asrwt>
<pdfrwt beam="1">  1        1 0.24809325E+00 0.19382905E+04</pdfrwt>
<pdfrwt beam="2">  1       -1 0.77262137E-01 0.19382905E+04</pdfrwt>
<totfact> 0.85993443E+00</totfact>
</mgrwt>
</event>
<event>
 8    1  0.3893101E-010  0.2209988E+04  0.7818608E-02  0.8514282E-01
         -1   -1    0    0    0  501 -0.00000000000E+00  0.00000000000E+00  0.19613271704E+04  0.19613271705E+04  0.50400000000E-02 0. -1.
          1   -1    0    0  501    0  0.00000000000E+00 -0.00000000000E+00 -0.62254357450E+03  0.62254357452E+03  0.50400000000E-02 0.  1.
     200001    2    1    2    0    0  0.20007150417E+03  0.70858678316E+03  0.11773132967E+04  0.15551839639E+04  0.70029045896E+03 0.  0.
    5000001    2    3    3    0    0  0.67675328861E+02  0.22759077129E+03  0.37602481267E+03  0.48703175315E+03  0.19856424533E+03 0.  0.
        -11    1    4    4    0    0 -0.47455152241E+02  0.16931416212E+03  0.23549781049E+03  0.29390218732E+03  0.51100000000E-03 0. -1.
     200002    1    4    4    0    0  0.11513048110E+03  0.58276609169E+02  0.14052700218E+03  0.19312956583E+03  0.30000000000E+02 0. -1.
     200000    1    3    3    0    0  0.13239617531E+03  0.48099601187E+03  0.80128848402E+03  0.10681522107E+04  0.50000000000E+03 0. -1.
    -200001    1    1    2    0    0 -0.20007150417E+03 -0.70858678316E+03  0.16147029926E+03  0.10286867811E+04  0.70000000000E+03 0. -1.
<mgrwt>
<rscale>  0 0.22099879E+04</rscale>
<asrwt>0</asrwt>
<pdfrwt beam="1">  1        1 0.88934795E-01 0.22099879E+04</pdfrwt>
<pdfrwt beam="2">  1       -1 0.28018960E+00 0.22099879E+04</pdfrwt>
<totfact> 0.14678983E+00</totfact>
</mgrwt>
</event>
<event>
 8    1  0.3893101E-010  0.1536027E+04  0.7818608E-02  0.8860843E-01
          1   -1    0    0  501    0  0.00000000000E+00  0.00000000000E+00  0.39155842422E+03  0.39155842425E+03  0.50400000000E-02 0.  1.
         -1   -1    0    0    0  501 -0.00000000000E+00 -0.00000000000E+00 -0.15064031674E+04  0.15064031674E+04  0.50400000000E-02 0. -1.
     200001    2    1    2    0    0 -0.48985853024E+02  0.23840788033E+03 -0.80667028748E+03  0.10953350120E+04  0.69985991791E+03 0.  0.
    5000001    2    3    3    0    0 -0.59783060033E+02  0.84250473453E+02 -0.10680791542E+03  0.22144232664E+03  0.16418470297E+03 0.  0.
        -11    1    4    4    0    0 -0.11064862707E+03  0.41432892146E+02 -0.47157843286E+02  0.12721503609E+03  0.51100000000E-03 0. -1.
     200002    1    4    4    0    0  0.50865567036E+02  0.42817581307E+02 -0.59650072138E+02  0.94227290553E+02  0.30000000000E+02 0. -1.
     200000    1    3    3    0    0  0.10797207009E+02  0.15415740688E+03 -0.69986237206E+03  0.87389268540E+03  0.50000000000E+03 0. -1.
    -200001    1    1    2    0    0  0.48985853024E+02 -0.23840788033E+03 -0.30817445573E+03  0.80262657965E+03  0.70000000000E+03 0.  1.
<mgrwt>
<rscale>  0 0.15360271E+04</rscale>
<asrwt>0</asrwt>
<pdfrwt beam="1">  1        1 0.55936919E-01 0.15360271E+04</pdfrwt>
<pdfrwt beam="2">  1       -1 0.21520045E+00 0.15360271E+04</pdfrwt>
<totfact> 0.78025975E+00</totfact>
</mgrwt>
</event>
<event>
 8    1  0.3893101E-010  0.1671302E+04  0.7818608E-02  0.8777903E-01
         -1   -1    0    0    0  501 -0.00000000000E+00  0.00000000000E+00  0.21836333947E+03  0.21836333953E+03  0.50400000000E-02 0. -1.
          1   -1    0    0  501    0  0.00000000000E+00 -0.00000000000E+00 -0.31979399696E+04  0.31979399696E+04  0.50400000000E-02 0.  1.
     200001    2    1    2    0    0 -0.12964328354E+03 -0.37847222167E+03 -0.10425194090E+04  0.13181519129E+04  0.70044924428E+03 0.  0.
    5000001    2    3    3    0    0 -0.28784487672E+02 -0.19723182963E+03 -0.17274397002E+03  0.29368625186E+03  0.12915956800E+03 0.  0.
        -11    1    4    4    0    0 -0.11046791667E+02  0.75357219606E+01  0.10261124149E+02  0.16855544508E+02  0.51100000000E-03 0. -1.
     200002    1    4    4    0    0 -0.17737696005E+02 -0.20476755159E+03 -0.18300509417E+03  0.27683070735E+03  0.30000000000E+02 0. -1.
     200000    1    3    3    0    0 -0.10085879586E+03 -0.18124039205E+03 -0.86977543894E+03  0.10244656610E+04  0.50000000000E+03 0.  1.
    -200001    1    1    2    0    0  0.12964328354E+03  0.37847222167E+03 -0.19370572212E+04  0.20981513963E+04  0.70000000000E+03 0.  1.
<mgrwt>
<rscale>  0 0.16713023E+04</rscale>
<asrwt>0</asrwt>
<pdfrwt beam="1">  1        1 0.45684854E+00 0.16713023E+04</pdfrwt>
<pdfrwt beam="2">  1       -1 0.31194765E-01 0.16713023E+04</pdfrwt>
<totfact> 0.57490335E+00</totfact>
</mgrwt>
</event>
<event>
 8    1  0.3893101E-010  0.2459303E+04  0.7818608E-02  0.8417629E-01
         -1   -1    0    0    0  501 -0.00000000000E+00  0.00000000000E+00  0.10987957752E+04  0.10987957752E+04  0.50400000000E-02 0. -1.
          1   -1    0    0  501    0  0.00000000000E+00 -0.00000000000E+00 -0.13760905220E+04  0.13760905220E+04  0.50400000000E-02 0.  1.
     200001    2    1    2    0    0  0.79933761615E+03  0.29249350657E+03  0.41017479135E+03  0.11759992960E+04  0.70016991417E+03 0.  0.
    5000001    2    3    3    0    0  0.28276338930E+03  0.13491579386E+03  0.15117468746E+03  0.39576809870E+03  0.18873578374E+03 0.  0.
        -11    1    4    4    0    0  0.98608825341E+02  0.23783059364E+02  0.14694474807E+03  0.17855557492E+03  0.51100000000E-03 0. -1.
     200002    1    4    4    0    0  0.18415456395E+03  0.11113273450E+03  0.42299393861E+01  0.21721252379E+03  0.30000000000E+02 0. -1.
     200000    1    3    3    0    0  0.51657422686E+03  0.15757771271E+03  0.25900010389E+03  0.78023119728E+03  0.50000000000E+03 0. -1.
    -200001    1    1    2    0    0 -0.79933761615E+03 -0.29249350657E+03 -0.68746953811E+03  0.12988870012E+04  0.70000000000E+03 0.  1.
<mgrwt>
<rscale>  0 0.24593027E+04</rscale>
<asrwt>0</asrwt>
<pdfrwt beam="1">  1        1 0.19658436E+00 0.24593027E+04</pdfrwt>
<pdfrwt beam="2">  1       -1 0.15697082E+00 0.24593027E+04</pdfrwt>
<totfact> 0.25944192E+00</totfact>
</mgrwt>
</event>
<event>
 8    1  0.3893101E-010  0.1564238E+04  0.7818608E-02  0.8842824E-01
          1   -1    0    0  501    0  0.00000000000E+00  0.00000000000E+00  0.14953857087E+04  0.14953857087E+04  0.50400000000E-02 0. -1.
         -1   -1    0    0    0  501 -0.00000000000E+00 -0.00000000000E+00 -0.40906507356E+03  0.40906507359E+03  0.50400000000E-02 0.  1.
     200001    2    1    2    0    0 -0.32274387264E+03 -0.67094467076E+02  0.37966635265E+03  0.85658363911E+03  0.69348663766E+03 0.  0.
    5000001    2    3    3    0    0 -0.10731653003E+03 -0.59668417376E+02  0.16994397683E+03  0.27310479538E+03  0.17500890363E+03 0.  0.
        -11    1    4    4    0    0  0.34496663749E+02 -0.10344089473E+02  0.97065643541E+02  0.10353144041E+03  0.51100000000E-03 0. -1.
     200002    1    4    4    0    0 -0.14181319378E+03 -0.49324327903E+02  0.72878333289E+02  0.16957335497E+03  0.30000000000E+02 0. -1.
     200000    1    3    3    0    0 -0.21542734261E+03 -0.74260497001E+01  0.20972237582E+03  0.58347884373E+03  0.50000000000E+03 0.  1.
    -200001    1    1    2    0    0  0.32274387264E+03  0.67094467076E+02  0.70665428251E+03  0.10478671432E+04  0.70000000000E+03 0. -1.
<mgrwt>
<rscale>  0 0.15642379E+04</rscale>
<asrwt>0</asrwt>
<pdfrwt beam="1">  1        1 0.21362654E+00 0.15642379E+04</pdfrwt>
<pdfrwt beam="2">  1       -1 0.58437866E-01 0.15642379E+04</pdfrwt>
<totfact> 0.22397524E+01</totfact>
</mgrwt>
</event>
<event>
 8    1  0.3893101E-010  0.1768420E+04  0.7818608E-02  0.8723276E-01
         -1   -1    0    0    0  501 -0.00000000000E+00  0.00000000000E+00  0.38658869911E+03  0.38658869915E+03  0.50400000000E-02 0. -1.
          1   -1    0    0  501    0  0.00000000000E+00 -0.00000000000E+00 -0.20223749296E+04  0.20223749296E+04  0.50400000000E-02 0.  1.
     200001    2    1    2    0    0 -0.12349455046E+03  0.43174091735E+03 -0.42757153244E+03  0.94218693127E+03  0.70939951677E+03 0.  0.
    5000001    2    3    3    0    0  0.11383025500E+03  0.12091065889E+03 -0.39233215984E+02  0.19804637943E+03  0.10053063603E+03 0.  0.
        -11    1    4    4    0    0  0.76283957934E+01  0.56653541409E+02 -0.40973661848E+02  0.70332475728E+02  0.51100000000E-03 0. -1.
     200002    1    4    4    0    0  0.10620185921E+03  0.64257117486E+02  0.17404458636E+01  0.12771390370E+03  0.30000000000E+02 0. -1.
     200000    1    3    3    0    0 -0.23732480547E+03  0.31083025846E+03 -0.38833831645E+03  0.74414055184E+03  0.50000000000E+03 0. -1.
    -200001    1    1    2    0    0  0.12349455046E+03 -0.43174091735E+03 -0.12082146981E+04  0.14667766975E+04  0.70000000000E+03 0.  1.
<mgrwt>
<rscale>  0 0.17684200E+04</rscale>
<asrwt>0</asrwt>
<pdfrwt beam="1">  1        1 0.28891070E+00 0.17684200E+04</pdfrwt>
<pdfrwt beam="2">  1       -1 0.55226958E-01 0.17684200E+04</pdfrwt>
<totfact> 0.11340915E+01</totfact>
</mgrwt>
</event>
<event>
 8    1  0.3893101E-010  0.2589240E+04  0.7818608E-02  0.8371865E-01
         -1   -1    0    0    0  501 -0.00000000000E+00  0.00000000000E+00  0.13129368658E+04  0.13129368658E+04  0.50400000000E-02 0. -1.
          1   -1    0    0  501    0  0.00000000000E+00 -0.00000000000E+00 -0.12765585889E+04  0.12765585889E+04  0.50400000000E-02 0.  1.
     200001    2    1    2    0    0 -0.42720130157E+03 -0.69202900194E+03  0.74242786007E+03  0.13050067995E+04  0.70031316403E+03 0.  0.
    5000001    2    3    3    0    0 -0.10325271366E+03 -0.15213459764E+03  0.24814492976E+03  0.36121430609E+03  0.18733341955E+03 0.  0.
        -11    1    4    4    0    0  0.15059986930E+02 -0.13711441396E+03  0.11140257194E+03  0.17730679275E+03  0.51100000000E-03 0. -1.
     200002    1    4    4    0    0 -0.11831270059E+03 -0.15020183688E+02  0.13674235782E+03  0.18390751334E+03  0.30000000000E+02 0. -1.
     200000    1    3    3    0    0 -0.32394858790E+03 -0.53989440430E+03  0.49428293032E+03  0.94379249340E+03  0.50000000000E+03 0. -1.
    -200001    1    1    2    0    0  0.42720130157E+03  0.69202900194E+03 -0.70604958314E+03  0.12844886552E+04  0.70000000000E+03 0.  1.
<mgrwt>
<rscale>  0 0.25892399E+04</rscale>
<asrwt>0</asrwt>
<pdfrwt beam="1">  1        1 0.18236551E+00 0.25892399E+04</pdfrwt>
<pdfrwt beam="2">  1       -1 0.18756241E+00 0.25892399E+04</pdfrwt>
<totfact> 0.17868003E+00</totfact>
</mgrwt>
</event>
<event>
 8    1  0.3893101E-010  0.1625991E+04  0.7818608E-02  0.8804738E-01
         -1   -1    0    0    0  501 -0.00000000000E+00  0.00000000000E+00  0.16731014777E+04  0.16731014777E+04  0.50400000000E-02 0. -1.
          1   -1    0    0  501    0  0.00000000000E+00 -0.00000000000E+00 -0.39505194645E+03  0.39505194648E+03  0.50400000000E-02 0.  1.
     200001    2    1    2    0    0 -0.18731206662E+03 -0.15792809013E+03  0.10627116355E+04  0.12958856589E+04  0.69995466200E+03 0.  0.
    5000001    2    3    3    0    0 -0.85533112862E+01 -0.65862296234E+02  0.15798595504E+03  0.24281426540E+03  0.17201222134E+03 0.  0.
        -11    1    4    4    0    0  0.51789219830E+02 -0.90184237806E+02  0.12857521009E+03  0.16536899555E+03  0.51100000000E-03 0. -1.
     200002    1    4    4    0    0 -0.60342531116E+02  0.24321941572E+02  0.29410744955E+02  0.77445269850E+02  0.30000000000E+02 0. -1.
     200000    1    3    3    0    0 -0.17875875533E+03 -0.92065793894E+02  0.90472568043E+03  0.10530713935E+04  0.50000000000E+03 0. -1.
    -200001    1    1    2    0    0  0.18731206662E+03  0.15792809013E+03  0.21533789582E+03  0.77226776530E+03  0.70000000000E+03 0.  1.
<mgrwt>
<rscale>  0 0.16259914E+04</rscale>
<asrwt>0</asrwt>
<pdfrwt beam="1">  1        1 0.56435992E-01 0.16259914E+04</pdfrwt>
<pdfrwt beam="2">  1       -1 0.23901450E+00 0.16259914E+04</pdfrwt>
<totfact> 0.53167829E+00</totfact>
</mgrwt>
</event>
<event>
 8    1  0.3893101E-010  0.1416568E+04  0.7818608E-02  0.8941912E-01
          1   -1    0    0  501    0  0.00000000000E+00  0.00000000000E+00  0.50743035176E+03  0.50743035178E+03  0.50400000000E-02 0.  1.
         -1   -1    0    0    0  501 -0.00000000000E+00 -0.00000000000E+00 -0.98864097411E+03  0.98864097412E+03  0.50400000000E-02 0. -1.
     200001    2    1    2    0    0 -0.10172421827E+03 -0.31056569884E+02 -0.21935196419E+03  0.74116584575E+03  0.69992799601E+03 0.  0.
    5000001    2    3    3    0    0 -0.60818354397E+02  0.44820540481E+01 -0.34368323815E+02  0.20529717649E+03  0.19299426922E+03 0.  0.
        -11    1    4    4    0    0 -0.85401135851E+02 -0.31078684209E+02 -0.90571326498E+02  0.12830589932E+03  0.51100000000E-03 0. -1.
     200002    1    4    4    0    0  0.24582781455E+02  0.35560738258E+02  0.56203002682E+02  0.76991277168E+02  0.30000000000E+02 0. -1.
     200000    1    3    3    0    0 -0.40905863875E+02 -0.35538623932E+02 -0.18498364037E+03  0.53586866926E+03  0.50000000000E+03 0. -1.
    -200001    1    1    2    0    0  0.10172421827E+03  0.31056569884E+02 -0.26185865816E+03  0.75490548016E+03  0.70000000000E+03 0.  1.
<mgrwt>
<rscale>  0 0.14165683E+04</rscale>
<asrwt>0</asrwt>
<pdfrwt beam="1">  1        1 0.72490051E-01 0.14165683E+04</pdfrwt>
<pdfrwt beam="2">  1       -1 0.14123442E+00 0.14165683E+04</pdfrwt>
<totfact> 0.19225064E+01</totfact>
</mgrwt>
</event>
<event>
 8    1  0.3893101E-010  0.1588807E+04  0.7818608E-02  0.8827454E-01
          1   -1    0    0  501    0  0.00000000000E+00  0.00000000000E+00  0.81420982572E+03  0.81420982574E+03  0.50400000000E-02 0.  1.
         -1   -1    0    0    0  501 -0.00000000000E+00 -0.00000000000E+00 -0.77507851673E+03  0.77507851674E+03  0.50400000000E-02 0. -1.
     200001    2    1    2    0    0 -0.13634420383E+03  0.32100077977E+03  0.15549856524E+03  0.79860978526E+03  0.70140326688E+03 0.  0.
    5000001    2    3    3    0    0 -0.13210859163E+03  0.77774622000E+02  0.16576380303E+03  0.24247825464E+03  0.88410936935E+02 0.  0.
        -11    1    4    4    0    0 -0.40736324394E+02 -0.11106576279E+02  0.20616015170E+02  0.46987490287E+02  0.51100000000E-03 0. -1.
     200002    1    4    4    0    0 -0.91372267238E+02  0.88881198279E+02  0.14514778786E+03  0.19549076436E+03  0.30000000000E+02 0. -1.
     200000    1    3    3    0    0 -0.42356121944E+01  0.24322615777E+03 -0.10265237796E+02  0.55613153061E+03  0.50000000000E+03 0. -1.
    -200001    1    1    2    0    0  0.13634420383E+03 -0.32100077977E+03 -0.11636725624E+03  0.79067855722E+03  0.70000000000E+03 0. -1.
<mgrwt>
<rscale>  0 0.15888065E+04</rscale>
<asrwt>0</asrwt>
<pdfrwt beam="1">  1        1 0.11631569E+00 0.15888065E+04</pdfrwt>
<pdfrwt beam="2">  1       -1 0.11072550E+00 0.15888065E+04</pdfrwt>
<totfact> 0.17511067E+01</totfact>
</mgrwt>
</event>
<event>
 8    1  0.3893101E-010  0.1848667E+04  0.7818608E-02  0.8680839E-01
          1   -1    0    0  501    0  0.00000000000E+00  0.00000000000E+00  0.23917267920E+03  0.23917267925E+03  0.50400000000E-02 0.  1.
         -1   -1    0    0    0  501 -0.00000000000E+00 -0.00000000000E+00 -0.35722825049E+04  0.35722825049E+04  0.50400000000E-02 0. -1.
     200001    2    1    2    0    0 -0.24015907061E+03  0.34381652283E+03 -0.77179665355E+03  0.11232938522E+04  0.70016628273E+03 0.  0.
    5000001    2    3    3    0    0  0.19272332711E+02  0.98973671905E+02 -0.14065854755E+03  0.24261912027E+03  0.17003529041E+03 0.  0.
        -11    1    4    4    0    0  0.68260156786E+02  0.12855162738E+02 -0.11757148373E+03  0.13655679405E+03  0.51100000000E-03 0. -1.
     200002    1    4    4    0    0 -0.48987824076E+02  0.86118509167E+02 -0.23087063824E+02  0.10606232623E+03  0.30000000000E+02 0. -1.
     200000    1    3    3    0    0 -0.25943140333E+03  0.24484285093E+03 -0.63113810600E+03  0.88067473197E+03  0.50000000000E+03 0.  1.
    -200001    1    1    2    0    0  0.24015907061E+03 -0.34381652283E+03 -0.25613131721E+04  0.26881613319E+04  0.70000000000E+03 0. -1.
<mgrwt>
<rscale>  0 0.18486670E+04</rscale>
<asrwt>0</asrwt>
<pdfrwt beam="1">  1        1 0.34167528E-01 0.18486670E+04</pdfrwt>
<pdfrwt beam="2">  1       -1 0.51032604E+00 0.18486670E+04</pdfrwt>
<totfact> 0.15565412E-01</totfact>
</mgrwt>
</event>
<event>
 8    1  0.3893101E-010  0.1567376E+04  0.7818608E-02  0.8840845E-01
         -1   -1    0    0    0  501 -0.00000000000E+00  0.00000000000E+00  0.60914242431E+03  0.60914242433E+03  0.50400000000E-02 0. -1.
          1   -1    0    0  501    0  0.00000000000E+00 -0.00000000000E+00 -0.10082483815E+04  0.10082483815E+04  0.50400000000E-02 0.  1.
     200001    2    1    2    0    0  0.30150040271E+03 -0.14703625230E+03 -0.30474446012E+03  0.83545331190E+03  0.70184820158E+03 0.  0.
    5000001    2    3    3    0    0  0.11298757029E+03 -0.98258476607E+02  0.25411627353E+02  0.20543791408E+03  0.13834040072E+03 0.  0.
        -11    1    4    4    0    0  0.69493477199E+02 -0.58279287936E+02 -0.51199181802E+02  0.10414977193E+03  0.51100000000E-03 0. -1.
     200002    1    4    4    0    0  0.43494093095E+02 -0.39979188672E+02  0.76610809155E+02  0.10128814215E+03  0.30000000000E+02 0. -1.
     200000    1    3    3    0    0  0.18851283242E+03 -0.48777775695E+02 -0.33015608747E+03  0.63001539781E+03  0.50000000000E+03 0.  1.
    -200001    1    1    2    0    0 -0.30150040271E+03  0.14703625230E+03 -0.94361497084E+02  0.78193749396E+03  0.70000000000E+03 0. -1.
<mgrwt>
<rscale>  0 0.15673760E+04</rscale>
<asrwt>0</asrwt>
<pdfrwt beam="1">  1        1 0.14403548E+00 0.15673760E+04</pdfrwt>
<pdfrwt beam="2">  1       -1 0.87020348E-01 0.15673760E+04</pdfrwt>
<totfact> 0.21342670E+01</totfact>
</mgrwt>
</event>
<event>
 8    1  0.3893101E-010  0.1809740E+04  0.7818608E-02  0.8701137E-01
         -1   -1    0    0    0  501 -0.00000000000E+00  0.00000000000E+00  0.98802408502E+03  0.98802408503E+03  0.50400000000E-02 0. -1.
          1   -1    0    0  501    0  0.00000000000E+00 -0.00000000000E+00 -0.82871424394E+03  0.82871424396E+03  0.50400000000E-02 0.  1.
     200001    2    1    2    0    0 -0.42527487716E+03 -0.28090452967E+03 -0.16814176874E+03  0.89100044346E+03  0.71122715072E+03 0.  0.
    5000001    2    3    3    0    0 -0.64737151289E+01 -0.34854442033E+02 -0.69177028639E+02  0.18692013644E+03  0.16999098505E+03 0.  0.
        -11    1    4    4    0    0 -0.35189739341E+02 -0.63633427555E+02  0.27576196296E+02  0.77768743463E+02  0.51100000000E-03 0. -1.
     200002    1    4    4    0    0  0.28716024212E+02  0.28778985523E+02 -0.96753224936E+02  0.10915139298E+03  0.30000000000E+02 0. -1.
     200000    1    3    3    0    0 -0.41880116203E+03 -0.24605008764E+03 -0.98964740097E+02  0.70408030702E+03  0.50000000000E+03 0.  1.
    -200001    1    1    2    0    0  0.42527487716E+03  0.28090452967E+03  0.32745160981E+03  0.92573788553E+03  0.70000000000E+03 0. -1.
<mgrwt>
<rscale>  0 0.18097399E+04</rscale>
<asrwt>0</asrwt>
<pdfrwt beam="1">  1        1 0.11838775E+00 0.18097399E+04</pdfrwt>
<pdfrwt beam="2">  1       -1 0.14114630E+00 0.18097399E+04</pdfrwt>
<totfact> 0.91355242E+00</totfact>
</mgrwt>
</event>
<event>
 8    1  0.3893101E-010  0.1586923E+04  0.7818608E-02  0.8828622E-01
          1   -1    0    0  501    0  0.00000000000E+00  0.00000000000E+00  0.64062317213E+03  0.64062317215E+03  0.50400000000E-02 0. -1.
         -1   -1    0    0    0  501 -0.00000000000E+00 -0.00000000000E+00 -0.98276370726E+03  0.98276370727E+03  0.50400000000E-02 0.  1.
     200001    2    1    2    0    0  0.30550109640E+03 -0.12584791596E+03 -0.34954364325E+03  0.84929165023E+03  0.69996209237E+03 0.  0.
    5000001    2    3    3    0    0  0.90454943915E+01  0.11315638292E+02 -0.13930574507E+03  0.21612521207E+03  0.16460301347E+03 0.  0.
        -11    1    4    4    0    0  0.17814323153E+01  0.43636949780E+01  0.36850155537E+02  0.37150360676E+02  0.51100000000E-03 0. -1.
     200002    1    4    4    0    0  0.72640620762E+01  0.69519433135E+01 -0.17615590060E+03  0.17897485139E+03  0.30000000000E+02 0. -1.
     200000    1    3    3    0    0  0.29645560201E+03 -0.13716355425E+03 -0.21023789818E+03  0.63316643816E+03  0.50000000000E+03 0.  1.
    -200001    1    1    2    0    0 -0.30550109640E+03  0.12584791596E+03  0.74031081266E+01  0.77409522920E+03  0.70000000000E+03 0. -1.
<mgrwt>
<rscale>  0 0.15869231E+04</rscale>
<asrwt>0</asrwt>
<pdfrwt beam="1">  1        1 0.91517596E-01 0.15869231E+04</pdfrwt>
<pdfrwt beam="2">  1       -1 0.14039482E+00 0.15869231E+04</pdfrwt>
<totfact> 0.13900934E+01</totfact>
</mgrwt>
</event>
<event>
 8    1  0.3893101E-010  0.1793083E+04  0.7818608E-02  0.8709987E-01
          1   -1    0    0  501    0  0.00000000000E+00  0.00000000000E+00  0.20408324150E+04  0.20408324150E+04  0.50400000000E-02 0.  1.
         -1   -1    0    0    0  501 -0.00000000000E+00 -0.00000000000E+00 -0.39385222128E+03  0.39385222131E+03  0.50400000000E-02 0. -1.
     200001    2    1    2    0    0 -0.42587665170E+03 -0.20664111827E+03  0.41146884944E+03  0.93783469191E+03  0.69724875121E+03 0.  0.
    5000001    2    3    3    0    0 -0.79111492492E+02 -0.32496145437E+02 -0.12506397752E+02  0.17604235968E+03  0.15336190761E+03 0.  0.
        -11    1    4    4    0    0 -0.57090487898E+02 -0.90301631400E+02 -0.65325549845E+01  0.10703449312E+03  0.51100000000E-03 0. -1.
     200002    1    4    4    0    0 -0.22021004594E+02  0.57805485963E+02 -0.59738427673E+01  0.69007866567E+02  0.30000000000E+02 0. -1.
     200000    1    3    3    0    0 -0.34676515921E+03 -0.17414497284E+03  0.42397524719E+03  0.76179233222E+03  0.50000000000E+03 0. -1.
    -200001    1    1    2    0    0  0.42587665170E+03  0.20664111827E+03  0.12355113443E+04  0.14968499444E+04  0.70000000000E+03 0. -1.
<mgrwt>
<rscale>  0 0.17930827E+04</rscale>
<asrwt>0</asrwt>
<pdfrwt beam="1">  1        1 0.29154749E+00 0.17930827E+04</pdfrwt>
<pdfrwt beam="2">  1       -1 0.56264603E-01 0.17930827E+04</pdfrwt>
<totfact> 0.10626385E+01</totfact>
</mgrwt>
</event>
<event>
 8    1  0.3893101E-010  0.1793725E+04  0.7818608E-02  0.8709643E-01
         -1   -1    0    0    0  501 -0.00000000000E+00  0.00000000000E+00  0.39054964736E+03  0.39054964740E+03  0.50400000000E-02 0.  1.
          1   -1    0    0  501    0  0.00000000000E+00 -0.00000000000E+00 -0.20595653712E+04  0.20595653712E+04  0.50400000000E-02 0. -1.
     200001    2    1    2    0    0 -0.49767313907E+03 -0.25623984742E+03 -0.85800709941E+03  0.12413667398E+04  0.70105476760E+03 0.  0.
    5000001    2    3    3    0    0 -0.71448493889E+02 -0.23566777323E+02 -0.20189301247E+03  0.28413641178E+03  0.18523615129E+03 0.  0.
        -11    1    4    4    0    0 -0.10625126749E+03 -0.57066908703E+02 -0.67505366841E+02  0.13821338019E+03  0.51100000000E-03 0. -1.
     200002    1    4    4    0    0  0.34802773597E+02  0.33500131379E+02 -0.13438764562E+03  0.14592303159E+03  0.30000000000E+02 0. -1.
     200000    1    3    3    0    0 -0.42622464518E+03 -0.23267307010E+03 -0.65611408695E+03  0.95723032797E+03  0.50000000000E+03 0. -1.
    -200001    1    1    2    0    0  0.49767313907E+03  0.25623984742E+03 -0.81100862447E+03  0.12087482789E+04  0.70000000000E+03 0. -1.
<mgrwt>
<rscale>  0 0.17937252E+04</rscale>
<asrwt>0</asrwt>
<pdfrwt beam="1">  1        1 0.29422362E+00 0.17937252E+04</pdfrwt>
<pdfrwt beam="2">  1       -1 0.55792808E-01 0.17937252E+04</pdfrwt>
<totfact> 0.10512103E+01</totfact>
</mgrwt>
</event>
<event>
 8    1  0.3893101E-010  0.1820481E+04  0.7818608E-02  0.8695483E-01
         -1   -1    0    0    0  501 -0.00000000000E+00  0.00000000000E+00  0.59728572347E+03  0.59728572349E+03  0.50400000000E-02 0. -1.
          1   -1    0    0  501    0  0.00000000000E+00 -0.00000000000E+00 -0.13871712945E+04  0.13871712945E+04  0.50400000000E-02 0.  1.
     200001    2    1    2    0    0 -0.26581239530E+03 -0.42171850563E+03 -0.72277363727E+03  0.11224786313E+04  0.69932383024E+03 0.  0.
    5000001    2    3    3    0    0 -0.10943264086E+03 -0.12902477278E+03 -0.15696914780E+03  0.29770049803E+03  0.18805153094E+03 0.  0.
        -11    1    4    4    0    0  0.23796520321E+02  0.10070740589E+02  0.21345133463E+02  0.33515801023E+02  0.51100000000E-03 0. -1.
     200002    1    4    4    0    0 -0.13322916118E+03 -0.13909551337E+03 -0.17831428126E+03  0.26418469700E+03  0.30000000000E+02 0. -1.
     200000    1    3    3    0    0 -0.15637975444E+03 -0.29269373285E+03 -0.56580448947E+03  0.82477813329E+03  0.50000000000E+03 0.  1.
    -200001    1    1    2    0    0  0.26581239530E+03  0.42171850563E+03 -0.67111933776E+02  0.86197838670E+03  0.70000000000E+03 0. -1.
<mgrwt>
<rscale>  0 0.18204808E+04</rscale>
<asrwt>0</asrwt>
<pdfrwt beam="1">  1        1 0.19816733E+00 0.18204808E+04</pdfrwt>
<pdfrwt beam="2">  1       -1 0.85326532E-01 0.18204808E+04</pdfrwt>
<totfact> 0.11841540E+01</totfact>
</mgrwt>
</event>
<event>
 8    1  0.3893101E-010  0.1789526E+04  0.7818608E-02  0.8711889E-01
          1   -1    0    0  501    0  0.00000000000E+00  0.00000000000E+00  0.61754823006E+03  0.61754823008E+03  0.50400000000E-02 0. -1.
         -1   -1    0    0    0  501 -0.00000000000E+00 -0.00000000000E+00 -0.12964180162E+04  0.12964180162E+04  0.50400000000E-02 0.  1.
     200001    2    1    2    0    0  0.82776548854E+02 -0.21991522257E+03 -0.87932527511E+03  0.11488537936E+04  0.70102598922E+03 0.  0.
    5000001    2    3    3    0    0 -0.94987851693E+02  0.55547649814E+02 -0.13130525156E+03  0.19124534976E+03  0.85002831408E+02 0.  0.
        -11    1    4    4    0    0 -0.96856083898E+02  0.41740318906E+02 -0.92786983819E+02  0.14047341235E+03  0.51100000000E-03 0. -1.
     200002    1    4    4    0    0  0.18682322053E+01  0.13807330908E+02 -0.38518267743E+02  0.50771937410E+02  0.30000000000E+02 0. -1.
     200000    1    3    3    0    0  0.17776440055E+03 -0.27546287239E+03 -0.74802002354E+03  0.95760844388E+03  0.50000000000E+03 0.  1.
    -200001    1    1    2    0    0 -0.82776548854E+02  0.21991522257E+03  0.20045548896E+03  0.76511245266E+03  0.70000000000E+03 0. -1.
<mgrwt>
<rscale>  0 0.17895258E+04</rscale>
<asrwt>0</asrwt>
<pdfrwt beam="1">  1        1 0.88221176E-01 0.17895258E+04</pdfrwt>
<pdfrwt beam="2">  1       -1 0.18520257E+00 0.17895258E+04</pdfrwt>
<totfact> 0.66175689E+00</totfact>
</mgrwt>
</event>
<event>
 8    1  0.3893101E-010  0.1524668E+04  0.7818608E-02  0.8868213E-01
          1   -1    0    0  501    0  0.00000000000E+00  0.00000000000E+00  0.27934900605E+04  0.27934900605E+04  0.50400000000E-02 0.  1.
         -1   -1    0    0    0  501 -0.00000000000E+00 -0.00000000000E+00 -0.20803833827E+03  0.20803833833E+03  0.50400000000E-02 0. -1.
     200001    2    1    2    0    0  0.28815706009E+03  0.54809084099E+02  0.14387798147E+04  0.16264302239E+04  0.69939215847E+03 0.  0.
    5000001    2    3    3    0    0  0.13772065683E+03 -0.92597679839E+02  0.24842261039E+03  0.31825969255E+03  0.10970017738E+03 0.  0.
        -11    1    4    4    0    0  0.17447166679E+02  0.23075466223E+02  0.28961797282E+02  0.40934905259E+02  0.51100000000E-03 0. -1.
     200002    1    4    4    0    0  0.12027349015E+03 -0.11567314606E+03  0.21946081311E+03  0.27732478729E+03  0.30000000000E+02 0. -1.
     200000    1    3    3    0    0  0.15043640326E+03  0.14740676394E+03  0.11903572043E+04  0.13081705314E+04  0.50000000000E+03 0.  1.
    -200001    1    1    2    0    0 -0.28815706009E+03 -0.54809084099E+02  0.11466719076E+04  0.13750981749E+04  0.70000000000E+03 0.  1.
<mgrwt>
<rscale>  0 0.15246679E+04</rscale>
<asrwt>0</asrwt>
<pdfrwt beam="1">  1        1 0.39907000E+00 0.15246679E+04</pdfrwt>
<pdfrwt beam="2">  1       -1 0.29719763E-01 0.15246679E+04</pdfrwt>
<totfact> 0.11717584E+01</totfact>
</mgrwt>
</event>
<event>
 8    1  0.3893101E-010  0.1667241E+04  0.7818608E-02  0.8780272E-01
          1   -1    0    0  501    0  0.00000000000E+00  0.00000000000E+00  0.97619363441E+03  0.97619363443E+03  0.50400000000E-02 0.  1.
         -1   -1    0    0    0  501 -0.00000000000E+00 -0.00000000000E+00 -0.71187004106E+03  0.71187004108E+03  0.50400000000E-02 0. -1.
     200001    2    1    2    0    0  0.25501651931E+03  0.31040018822E+01 -0.24475465964E+03  0.78573129349E+03  0.70173054816E+03 0.  0.
    5000001    2    3    3    0    0  0.12583156213E+03  0.22837202831E+02 -0.98293747369E+02  0.24858238378E+03  0.18914655930E+03 0.  0.
        -11    1    4    4    0    0  0.50855212564E+02 -0.18943174317E+02  0.50550043222E+02  0.74164704329E+02  0.51100000000E-03 0. -1.
     200002    1    4    4    0    0  0.74976349565E+02  0.41780377148E+02 -0.14884379059E+03  0.17441767945E+03  0.30000000000E+02 0. -1.
     200000    1    3    3    0    0  0.12918495718E+03 -0.19733200949E+02 -0.14646091227E+03  0.53714890971E+03  0.50000000000E+03 0.  1.
    -200001    1    1    2    0    0 -0.25501651931E+03 -0.31040018822E+01  0.50907825299E+03  0.90233238201E+03  0.70000000000E+03 0.  1.
<mgrwt>
<rscale>  0 0.16672408E+04</rscale>
<asrwt>0</asrwt>
<pdfrwt beam="1">  1        1 0.13945623E+00 0.16672408E+04</pdfrwt>
<pdfrwt beam="2">  1       -1 0.10169572E+00 0.16672408E+04</pdfrwt>
<totfact> 0.15783559E+01</totfact>
</mgrwt>
</event>
<event>
 8    1  0.3893101E-010  0.1660128E+04  0.7818608E-02  0.8784438E-01
          1   -1    0    0  501    0  0.00000000000E+00  0.00000000000E+00  0.16692729025E+04  0.16692729026E+04  0.50400000000E-02 0. -1.
         -1   -1    0    0    0  501 -0.00000000000E+00 -0.00000000000E+00 -0.41275808090E+03  0.41275808093E+03  0.50400000000E-02 0.  1.
     200001    2    1    2    0    0 -0.22374068309E+03 -0.23133998829E+03  0.10158604273E+04  0.12748800552E+04  0.69983474051E+03 0.  0.
    5000001    2    3    3    0    0 -0.26502802578E+02  0.35941812797E+02  0.20250972247E+03  0.26399840452E+03  0.16337306217E+03 0.  0.
        -11    1    4    4    0    0  0.41872233679E+02  0.49652217919E+02  0.16893367490E+03  0.18098953896E+03  0.51100000000E-03 0. -1.
     200002    1    4    4    0    0 -0.68375036256E+02 -0.13710405122E+02  0.33576047573E+02  0.83008865564E+02  0.30000000000E+02 0. -1.
     200000    1    3    3    0    0 -0.19723788051E+03 -0.26728180108E+03  0.81335070484E+03  0.10108816507E+04  0.50000000000E+03 0.  1.
    -200001    1    1    2    0    0  0.22374068309E+03  0.23133998829E+03  0.24065439434E+03  0.80715092824E+03  0.70000000000E+03 0. -1.
<mgrwt>
<rscale>  0 0.16601276E+04</rscale>
<asrwt>0</asrwt>
<pdfrwt beam="1">  1        1 0.23846756E+00 0.16601276E+04</pdfrwt>
<pdfrwt beam="2">  1       -1 0.58965440E-01 0.16601276E+04</pdfrwt>
<totfact> 0.16853762E+01</totfact>
</mgrwt>
</event>
<event>
 8    1  0.3893101E-010  0.2033975E+04  0.7818608E-02  0.8590899E-01
          1   -1    0    0  501    0  0.00000000000E+00  0.00000000000E+00  0.10168849061E+04  0.10168849061E+04  0.50400000000E-02 0. -1.
         -1   -1    0    0    0  501 -0.00000000000E+00 -0.00000000000E+00 -0.10170898009E+04  0.10170898009E+04  0.50400000000E-02 0.  1.
     200001    2    1    2    0    0  0.23341521067E+03 -0.55353835710E+03  0.42809339451E+03  0.10169561240E+04  0.70003459230E+03 0.  0.
    5000001    2    3    3    0    0  0.32716507603E+02 -0.14045374550E+03  0.44615736364E+02  0.23722926156E+03  0.18300145932E+03 0.  0.
        -11    1    4    4    0    0 -0.59151788468E+02 -0.54981119160E+02  0.68648870944E+02  0.10599304234E+03  0.51100000000E-03 0. -1.
     200002    1    4    4    0    0  0.91868296070E+02 -0.85472626343E+02 -0.24033134580E+02  0.13123621922E+03  0.30000000000E+02 0. -1.
     200000    1    3    3    0    0  0.20069870307E+03 -0.41308461159E+03  0.38347765815E+03  0.77972686246E+03  0.50000000000E+03 0.  1.
    -200001    1    1    2    0    0 -0.23341521067E+03  0.55353835710E+03 -0.42829828931E+03  0.10170185829E+04  0.70000000000E+03 0.  1.
<mgrwt>
<rscale>  0 0.20339747E+04</rscale>
<asrwt>0</asrwt>
<pdfrwt beam="1">  1        1 0.14526927E+00 0.20339747E+04</pdfrwt>
<pdfrwt beam="2">  1       -1 0.14529854E+00 0.20339747E+04</pdfrwt>
<totfact> 0.59161084E+00</totfact>
</mgrwt>
</event>
<event>
 8    1  0.3893101E-010  0.1563534E+04  0.7818608E-02  0.8843269E-01
         -1   -1    0    0    0  501 -0.00000000000E+00  0.00000000000E+00  0.28690492843E+03  0.28690492847E+03  0.50400000000E-02 0. -1.
          1   -1    0    0  501    0  0.00000000000E+00 -0.00000000000E+00 -0.21301815671E+04  0.21301815671E+04  0.50400000000E-02 0.  1.
     200001    2    1    2    0    0 -0.19769166227E+03 -0.16564953014E+03 -0.12827502063E+04  0.14839671883E+04  0.70013481846E+03 0.  0.
    5000001    2    3    3    0    0 -0.90857525266E+02 -0.12653251837E+03 -0.32779929282E+03  0.40005071523E+03  0.16829328649E+03 0.  0.
        -11    1    4    4    0    0 -0.36817956474E+02 -0.13149521383E+03 -0.30466710978E+03  0.33386913748E+03  0.51100000000E-03 0. -1.
     200002    1    4    4    0    0 -0.54039568793E+02  0.49626954521E+01 -0.23132183039E+02  0.66181577751E+02  0.30000000000E+02 0. -1.
     200000    1    3    3    0    0 -0.10683413701E+03 -0.39117011764E+02 -0.95495091351E+03  0.10839164731E+04  0.50000000000E+03 0.  1.
    -200001    1    1    2    0    0  0.19769166227E+03  0.16564953014E+03 -0.56052643229E+03  0.93311930720E+03  0.70000000000E+03 0. -1.
<mgrwt>
<rscale>  0 0.15635339E+04</rscale>
<asrwt>0</asrwt>
<pdfrwt beam="1">  1        1 0.30431165E+00 0.15635339E+04</pdfrwt>
<pdfrwt beam="2">  1       -1 0.40986419E-01 0.15635339E+04</pdfrwt>
<totfact> 0.17323503E+01</totfact>
</mgrwt>
</event>
<event>
 8    1  0.3893101E-010  0.2228179E+04  0.7818608E-02  0.8506790E-01
         -1   -1    0    0    0  501 -0.00000000000E+00  0.00000000000E+00  0.81680028102E+03  0.81680028104E+03  0.50400000000E-02 0.  1.
          1   -1    0    0  501    0  0.00000000000E+00 -0.00000000000E+00 -0.15195820138E+04  0.15195820138E+04  0.50400000000E-02 0. -1.
     200001    2    1    2    0    0  0.45617248700E+03  0.70910259014E+03 -0.14042899645E+03  0.11046516338E+04  0.69972502305E+03 0.  0.
    5000001    2    3    3    0    0  0.18719228591E+03  0.27230870585E+03  0.64954508387E+02  0.35945257991E+03  0.12567452351E+03 0.  0.
        -11    1    4    4    0    0  0.18016750260E+03  0.17716735269E+03  0.35260423191E+02  0.25513113745E+03  0.51100000000E-03 0. -1.
     200002    1    4    4    0    0  0.70247833088E+01  0.95141353159E+02  0.29694085195E+02  0.10432144246E+03  0.30000000000E+02 0. -1.
     200000    1    3    3    0    0  0.26898020110E+03  0.43679388429E+03 -0.20538350484E+03  0.74519905394E+03  0.50000000000E+03 0.  1.
    -200001    1    1    2    0    0 -0.45617248700E+03 -0.70910259014E+03 -0.56235273637E+03  0.12317306610E+04  0.70000000000E+03 0. -1.
<mgrwt>
<rscale>  0 0.22281786E+04</rscale>
<asrwt>0</asrwt>
<pdfrwt beam="1">  1        1 0.21708314E+00 0.22281786E+04</pdfrwt>
<pdfrwt beam="2">  1       -1 0.11668575E+00 0.22281786E+04</pdfrwt>
<totfact> 0.45729983E+00</totfact>
</mgrwt>
</event>
<event>
 8    1  0.3893101E-010  0.1844680E+04  0.7818608E-02  0.8682893E-01
          1   -1    0    0  501    0  0.00000000000E+00  0.00000000000E+00  0.84809059489E+03  0.84809059490E+03  0.50400000000E-02 0.  1.
         -1   -1    0    0    0  501 -0.00000000000E+00 -0.00000000000E+00 -0.10030899492E+04  0.10030899492E+04  0.50400000000E-02 0. -1.
     200001    2    1    2    0    0 -0.24060043468E+03  0.42162421755E+03 -0.43245153363E+03  0.95528140811E+03  0.69992334563E+03 0.  0.
    5000001    2    3    3    0    0 -0.79848359732E+02  0.93227906564E+02 -0.11444787827E+03  0.25899720501E+03  0.19726639919E+03 0.  0.
        -11    1    4    4    0    0 -0.97201200136E+02  0.12963967436E+03 -0.12850015912E+03  0.20680137662E+03  0.51100000000E-03 0. -1.
     200002    1    4    4    0    0  0.17352840404E+02 -0.36411767798E+02  0.14052280852E+02  0.52195828391E+02  0.30000000000E+02 0. -1.
     200000    1    3    3    0    0 -0.16075207495E+03  0.32839631099E+03 -0.31800365536E+03  0.69628420311E+03  0.50000000000E+03 0. -1.
    -200001    1    1    2    0    0  0.24060043468E+03 -0.42162421755E+03  0.27745217935E+03  0.89589913597E+03  0.70000000000E+03 0.  1.
<mgrwt>
<rscale>  0 0.18446801E+04</rscale>
<asrwt>0</asrwt>
<pdfrwt beam="1">  1        1 0.12115580E+00 0.18446801E+04</pdfrwt>
<pdfrwt beam="2">  1       -1 0.14329856E+00 0.18446801E+04</pdfrwt>
<totfact> 0.84372288E+00</totfact>
</mgrwt>
</event>
<event>
 8    1  0.3893101E-010  0.1620441E+04  0.7818608E-02  0.8808088E-01
          1   -1    0    0  501    0  0.00000000000E+00  0.00000000000E+00  0.55394009777E+03  0.55394009779E+03  0.50400000000E-02 0.  1.
         -1   -1    0    0    0  501 -0.00000000000E+00 -0.00000000000E+00 -0.11850695845E+04  0.11850695845E+04  0.50400000000E-02 0. -1.
     200001    2    1    2    0    0  0.43038203773E+02 -0.28959387287E+03 -0.96820212246E+01  0.75823761368E+03  0.69936659848E+03 0.  0.
    5000001    2    3    3    0    0  0.10110986866E+02 -0.10955772200E+03  0.36520592112E+02  0.22379220139E+03  0.19142640688E+03 0.  0.
        -11    1    4    4    0    0  0.29733457264E+02 -0.67783243857E+02 -0.71274351823E+02  0.10275543712E+03  0.51100000000E-03 0. -1.
     200002    1    4    4    0    0 -0.19622470398E+02 -0.41774478138E+02  0.10779494394E+03  0.12103676428E+03  0.30000000000E+02 0. -1.
     200000    1    3    3    0    0  0.32927216907E+02 -0.18003615087E+03 -0.46202613337E+02  0.53444541229E+03  0.50000000000E+03 0.  1.
    -200001    1    1    2    0    0 -0.43038203773E+02  0.28959387287E+03 -0.62144746546E+03  0.98077206858E+03  0.70000000000E+03 0. -1.
<mgrwt>
<rscale>  0 0.16204414E+04</rscale>
<asrwt>0</asrwt>
<pdfrwt beam="1">  1        1 0.79134300E-01 0.16204414E+04</pdfrwt>
<pdfrwt beam="2">  1       -1 0.16929565E+00 0.16204414E+04</pdfrwt>
<totfact> 0.10192793E+01</totfact>
</mgrwt>
</event>
<event>
 8    1  0.3893101E-010  0.1432856E+04  0.7818608E-02  0.8930373E-01
         -1   -1    0    0    0  501 -0.00000000000E+00  0.00000000000E+00  0.15250453970E+03  0.15250453979E+03  0.50400000000E-02 0. -1.
          1   -1    0    0  501    0  0.00000000000E+00 -0.00000000000E+00 -0.33656009706E+04  0.33656009706E+04  0.50400000000E-02 0.  1.
     200001    2    1    2    0    0 -0.14795652903E+03  0.61383877274E+01 -0.16927287550E+04  0.18377940261E+04  0.70016243124E+03 0.  0.
    5000001    2    3    3    0    0 -0.95231699943E+02  0.72981700488E+02 -0.38289937830E+03  0.43319410723E+03  0.16324765038E+03 0.  0.
        -11    1    4    4    0    0 -0.69590229637E+02 -0.16732079200E+02 -0.53046661470E+02  0.89088219360E+02  0.51100000000E-03 0. -1.
     200002    1    4    4    0    0 -0.25641470306E+02  0.89713779689E+02 -0.32985271683E+03  0.34410588787E+03  0.30000000000E+02 0. -1.
     200000    1    3    3    0    0 -0.52724829085E+02 -0.66843312761E+02 -0.13098293767E+04  0.14045999189E+04  0.50000000000E+03 0.  1.
    -200001    1    1    2    0    0  0.14795652903E+03 -0.61383877274E+01 -0.15203676759E+04  0.16803114843E+04  0.70000000000E+03 0. -1.
<mgrwt>
<rscale>  0 0.14328565E+04</rscale>
<asrwt>0</asrwt>
<pdfrwt beam="1">  1        1 0.48080009E+00 0.14328565E+04</pdfrwt>
<pdfrwt beam="2">  1       -1 0.21786365E-01 0.14328565E+04</pdfrwt>
<totfact> 0.84081471E+00</totfact>
</mgrwt>
</event>
<event>
 8    1  0.3893101E-010  0.1961282E+04  0.7818608E-02  0.8624939E-01
          1   -1    0    0  501    0  0.00000000000E+00  0.00000000000E+00  0.21082013854E+04  0.21082013854E+04  0.50400000000E-02 0.  1.
         -1   -1    0    0    0  501 -0.00000000000E+00 -0.00000000000E+00 -0.45615056404E+03  0.45615056407E+03  0.50400000000E-02 0. -1.
     200001    2    1    2    0    0  0.18997532976E+03 -0.25569207862E+03  0.30399027587E+02  0.76957519309E+03  0.69989485779E+03 0.  0.
    5000001    2    3    3    0    0  0.17986713981E+02 -0.10929827604E+03  0.70406619344E+02  0.21947353268E+03  0.17590311104E+03 0.  0.
        -11    1    4    4    0    0 -0.73491494644E+02 -0.67540434322E+02  0.53291514931E+02  0.11314899742E+03  0.51100000000E-03 0. -1.
     200002    1    4    4    0    0  0.91478208625E+02 -0.41757841722E+02  0.17115104413E+02  0.10632453526E+03  0.30000000000E+02 0. -1.
     200000    1    3    3    0    0  0.17198861578E+03 -0.14639380258E+03 -0.40007591756E+02  0.55010166041E+03  0.50000000000E+03 0. -1.
    -200001    1    1    2    0    0 -0.18997532976E+03  0.25569207862E+03  0.16216517938E+04  0.17947767564E+04  0.70000000000E+03 0.  1.
<mgrwt>
<rscale>  0 0.19612825E+04</rscale>
<asrwt>0</asrwt>
<pdfrwt beam="1">  1        1 0.30117162E+00 0.19612825E+04</pdfrwt>
<pdfrwt beam="2">  1       -1 0.65164367E-01 0.19612825E+04</pdfrwt>
<totfact> 0.71000020E+00</totfact>
</mgrwt>
</event>
<event>
 8    1  0.3893101E-010  0.1569751E+04  0.7818608E-02  0.8839350E-01
          1   -1    0    0  501    0  0.00000000000E+00  0.00000000000E+00  0.11740104038E+04  0.11740104038E+04  0.50400000000E-02 0.  1.
         -1   -1    0    0    0  501 -0.00000000000E+00 -0.00000000000E+00 -0.52472219281E+03  0.52472219283E+03  0.50400000000E-02 0. -1.
     200001    2    1    2    0    0  0.13318432085E+03 -0.31940183685E+03  0.40818220553E+03  0.88148862907E+03  0.70046691112E+03 0.  0.
    5000001    2    3    3    0    0  0.10089119620E+03 -0.14028602769E+03  0.11344435830E+03  0.27321589618E+03  0.17865637537E+03 0.  0.
        -11    1    4    4    0    0  0.71414743324E+02 -0.64284219329E+02 -0.34136503673E+02  0.10196973719E+03  0.51100000000E-03 0. -1.
     200002    1    4    4    0    0  0.29476452875E+02 -0.76001808363E+02  0.14758086198E+03  0.17124615899E+03  0.30000000000E+02 0. -1.
     200000    1    3    3    0    0  0.32293124649E+02 -0.17911580916E+03  0.29473784723E+03  0.60827273289E+03  0.50000000000E+03 0.  1.
    -200001    1    1    2    0    0 -0.13318432085E+03  0.31940183685E+03  0.24110600550E+03  0.81724396761E+03  0.70000000000E+03 0.  1.
<mgrwt>
<rscale>  0 0.15697507E+04</rscale>
<asrwt>0</asrwt>
<pdfrwt beam="1">  1        1 0.16771577E+00 0.15697507E+04</pdfrwt>
<pdfrwt beam="2">  1       -1 0.74960314E-01 0.15697507E+04</pdfrwt>
<totfact> 0.22267788E+01</totfact>
</mgrwt>
</event>
<event>
 8    1  0.3893101E-010  0.1593182E+04  0.7818608E-02  0.8824748E-01
          1   -1    0    0  501    0  0.00000000000E+00  0.00000000000E+00  0.12534034914E+04  0.12534034914E+04  0.50400000000E-02 0.  1.
         -1   -1    0    0    0  501 -0.00000000000E+00 -0.00000000000E+00 -0.50626726858E+03  0.50626726860E+03  0.50400000000E-02 0. -1.
     200001    2    1    2    0    0  0.10993462033E+02 -0.37856623047E+03  0.40989432232E+03  0.89528349350E+03  0.70006137673E+03 0.  0.
    5000001    2    3    3    0    0  0.16950347560E+02 -0.42332685302E+02  0.81268029868E+02  0.20892810343E+03  0.18699489083E+03 0.  0.
        -11    1    4    4    0    0 -0.76564813121E+02 -0.43184451553E+02  0.11940191741E+02  0.88710966871E+02  0.51100000000E-03 0. -1.
     200002    1    4    4    0    0  0.93515160681E+02  0.85176625137E+00  0.69327838127E+02  0.12021713656E+03  0.30000000000E+02 0. -1.
     200000    1    3    3    0    0 -0.59568855272E+01 -0.33623354516E+03  0.32862629246E+03  0.68635539007E+03  0.50000000000E+03 0. -1.
    -200001    1    1    2    0    0 -0.10993462033E+02  0.37856623047E+03  0.33724190050E+03  0.86438726651E+03  0.70000000000E+03 0.  1.
<mgrwt>
<rscale>  0 0.15931819E+04</rscale>
<asrwt>0</asrwt>
<pdfrwt beam="1">  1        1 0.17905764E+00 0.15931819E+04</pdfrwt>
<pdfrwt beam="2">  1       -1 0.72323898E-01 0.15931819E+04</pdfrwt>
<totfact> 0.21092280E+01</totfact>
</mgrwt>
</event>
<event>
 8    1  0.3893101E-010  0.1792419E+04  0.7818608E-02  0.8710341E-01
          1   -1    0    0  501    0  0.00000000000E+00  0.00000000000E+00  0.63558154065E+03  0.63558154067E+03  0.50400000000E-02 0.  1.
         -1   -1    0    0    0  501 -0.00000000000E+00 -0.00000000000E+00 -0.12637113783E+04  0.12637113784E+04  0.50400000000E-02 0. -1.
     200001    2    1    2    0    0  0.21821987720E+03 -0.12049014140E+03  0.22276690407E+03  0.76961904833E+03  0.69321756832E+03 0.  0.
    5000001    2    3    3    0    0  0.32024696167E+02 -0.36432717154E+02 -0.58231180001E+01  0.18311440709E+03  0.17647677846E+03 0.  0.
        -11    1    4    4    0    0 -0.94167792910E+01 -0.19734128333E+02  0.79381043243E+02  0.82337485873E+02  0.51100000000E-03 0. -1.
     200002    1    4    4    0    0  0.41441475458E+02 -0.16698588821E+02 -0.85204161243E+02  0.10077692122E+03  0.30000000000E+02 0. -1.
     200000    1    3    3    0    0  0.18619518103E+03 -0.84057424249E+02  0.22859002207E+03  0.58650464125E+03  0.50000000000E+03 0.  1.
    -200001    1    1    2    0    0 -0.21821987720E+03  0.12049014140E+03 -0.85089674177E+03  0.11296738707E+04  0.70000000000E+03 0. -1.
<mgrwt>
<rscale>  0 0.17924192E+04</rscale>
<asrwt>0</asrwt>
<pdfrwt beam="1">  1        1 0.90797364E-01 0.17924192E+04</pdfrwt>
<pdfrwt beam="2">  1       -1 0.18053020E+00 0.17924192E+04</pdfrwt>
<totfact> 0.68554482E+00</totfact>
</mgrwt>
</event>
<event>
 8    1  0.3893101E-010  0.1518559E+04  0.7818608E-02  0.8872204E-01
         -1   -1    0    0    0  501 -0.00000000000E+00  0.00000000000E+00  0.39164124861E+03  0.39164124864E+03  0.50400000000E-02 0. -1.
          1   -1    0    0  501    0  0.00000000000E+00 -0.00000000000E+00 -0.14720237239E+04  0.14720237239E+04  0.50400000000E-02 0.  1.
     200001    2    1    2    0    0  0.15756415695E+03 -0.21518589473E+03 -0.38657624611E+03  0.84263680619E+03  0.69961715262E+03 0.  0.
    5000001    2    3    3    0    0  0.44155992215E+02  0.73866994467E+02 -0.11991630431E+03  0.19647853677E+03  0.12968350262E+03 0.  0.
        -11    1    4    4    0    0  0.78975881181E+02  0.14281762756E+02 -0.57846109953E+02  0.98930940523E+02  0.51100000000E-03 0. -1.
     200002    1    4    4    0    0 -0.34819888966E+02  0.59585231711E+02 -0.62070194361E+02  0.97547596247E+02  0.30000000000E+02 0. -1.
     200000    1    3    3    0    0  0.11340816474E+03 -0.28905288920E+03 -0.26665994180E+03  0.64615826942E+03  0.50000000000E+03 0. -1.
    -200001    1    1    2    0    0 -0.15756415695E+03  0.21518589473E+03 -0.69380622916E+03  0.10210281663E+04  0.70000000000E+03 0.  1.
<mgrwt>
<rscale>  0 0.15185588E+04</rscale>
<asrwt>0</asrwt>
<pdfrwt beam="1">  1        1 0.21028910E+00 0.15185588E+04</pdfrwt>
<pdfrwt beam="2">  1       -1 0.55948751E-01 0.15185588E+04</pdfrwt>
<totfact> 0.25355916E+01</totfact>
</mgrwt>
</event>
<event>
 8    1  0.3893101E-010  0.2062308E+04  0.7818608E-02  0.8578031E-01
          1   -1    0    0  501    0  0.00000000000E+00  0.00000000000E+00  0.52194588466E+03  0.52194588469E+03  0.50400000000E-02 0.  1.
         -1   -1    0    0    0  501 -0.00000000000E+00 -0.00000000000E+00 -0.20371431269E+04  0.20371431269E+04  0.50400000000E-02 0. -1.
     200001    2    1    2    0    0 -0.41349806690E+03 -0.52949451944E+03 -0.11895724037E+04  0.15356748076E+04  0.70133409550E+03 0.  0.
    5000001    2    3    3    0    0 -0.15489777939E+03 -0.16546928134E+03 -0.36854123361E+03  0.47573109919E+03  0.19779795938E+03 0.  0.
        -11    1    4    4    0    0 -0.17916380785E+03 -0.18375869803E+03 -0.29809922882E+03  0.39335744479E+03  0.51100000000E-03 0. -1.
     200002    1    4    4    0    0  0.24266028459E+02  0.18289416696E+02 -0.70442004786E+02  0.82373654396E+02  0.30000000000E+02 0. -1.
     200000    1    3    3    0    0 -0.25860028751E+03 -0.36402523810E+03 -0.82103117014E+03  0.10599437084E+04  0.50000000000E+03 0. -1.
    -200001    1    1    2    0    0  0.41349806690E+03  0.52949451944E+03 -0.32562483847E+03  0.10234142040E+04  0.70000000000E+03 0.  1.
<mgrwt>
<rscale>  0 0.20623079E+04</rscale>
<asrwt>0</asrwt>
<pdfrwt beam="1">  1        1 0.74563699E-01 0.20623079E+04</pdfrwt>
<pdfrwt beam="2">  1       -1 0.29102044E+00 0.20623079E+04</pdfrwt>
<totfact> 0.16191216E+00</totfact>
</mgrwt>
</event>
<event>
 8    1  0.3893101E-010  0.1809945E+04  0.7818608E-02  0.8701029E-01
          1   -1    0    0  501    0  0.00000000000E+00  0.00000000000E+00  0.14296940989E+04  0.14296940989E+04  0.50400000000E-02 0.  1.
         -1   -1    0    0    0  501 -0.00000000000E+00 -0.00000000000E+00 -0.57283258144E+03  0.57283258146E+03  0.50400000000E-02 0. -1.
     200001    2    1    2    0    0 -0.98790367327E+02  0.75096503673E+02 -0.19416972038E+03  0.73364304330E+03  0.69651361302E+03 0.  0.
    5000001    2    3    3    0    0 -0.54159509713E+02  0.48457638638E+02 -0.15921773829E+03  0.22973513144E+03  0.14881716028E+03 0.  0.
        -11    1    4    4    0    0 -0.71591345951E+02  0.14554670226E+02 -0.16541580248E+03  0.18083016051E+03  0.51100000000E-03 0. -1.
     200002    1    4    4    0    0  0.17431836238E+02  0.33902968412E+02  0.61980641861E+01  0.48904970928E+02  0.30000000000E+02 0. -1.
     200000    1    3    3    0    0 -0.44630857613E+02  0.26638865035E+02 -0.34951982093E+02  0.50390791186E+03  0.50000000000E+03 0. -1.
    -200001    1    1    2    0    0  0.98790367327E+02 -0.75096503673E+02  0.10510312379E+04  0.12688836371E+04  0.70000000000E+03 0.  1.
<mgrwt>
<rscale>  0 0.18099451E+04</rscale>
<asrwt>0</asrwt>
<pdfrwt beam="1">  1        1 0.20424201E+00 0.18099451E+04</pdfrwt>
<pdfrwt beam="2">  1       -1 0.81833226E-01 0.18099451E+04</pdfrwt>
<totfact> 0.12155043E+01</totfact>
</mgrwt>
</event>
<event>
 8    1  0.3893101E-010  0.2473261E+04  0.7818608E-02  0.8412574E-01
          1   -1    0    0  501    0  0.00000000000E+00  0.00000000000E+00  0.24957056057E+04  0.24957056057E+04  0.50400000000E-02 0. -1.
         -1   -1    0    0    0  501 -0.00000000000E+00 -0.00000000000E+00 -0.61275439044E+03  0.61275439046E+03  0.50400000000E-02 0.  1.
     200001    2    1    2    0    0 -0.42046493859E+03 -0.48952763038E+03  0.19333297516E+04  0.21550628793E+04  0.70007429592E+03 0.  0.
    5000001    2    3    3    0    0 -0.13058755049E+03 -0.14234166411E+03  0.47026113576E+03  0.54412005909E+03  0.19392484424E+03 0.  0.
        -11    1    4    4    0    0  0.46011165853E+02 -0.41847607587E+02  0.66082787698E+02  0.90747917189E+02  0.51100000000E-03 0. -1.
     200002    1    4    4    0    0 -0.17659871635E+03 -0.10049405652E+03  0.40417834806E+03  0.45337214190E+03  0.30000000000E+02 0. -1.
     200000    1    3    3    0    0 -0.28987738810E+03 -0.34718596627E+03  0.14630686159E+04  0.16109428202E+04  0.50000000000E+03 0. -1.
    -200001    1    1    2    0    0  0.42046493859E+03  0.48952763038E+03 -0.50378536363E+02  0.95339711685E+03  0.70000000000E+03 0.  1.
<mgrwt>
<rscale>  0 0.24732607E+04</rscale>
<asrwt>0</asrwt>
<pdfrwt beam="1">  1        1 0.35652937E+00 0.24732607E+04</pdfrwt>
<pdfrwt beam="2">  1       -1 0.87536341E-01 0.24732607E+04</pdfrwt>
<totfact> 0.20806283E+00</totfact>
</mgrwt>
</event>
<event>
 8    1  0.3893101E-010  0.3001682E+04  0.7818608E-02  0.8243251E-01
          1   -1    0    0  501    0  0.00000000000E+00  0.00000000000E+00  0.17974067310E+04  0.17974067310E+04  0.50400000000E-02 0.  1.
         -1   -1    0    0    0  501 -0.00000000000E+00 -0.00000000000E+00 -0.12532078085E+04  0.12532078086E+04  0.50400000000E-02 0. -1.
     200001    2    1    2    0    0 -0.41883680360E+03  0.11306269363E+04 -0.29298331064E+03  0.14243871174E+04  0.69949832219E+03 0.  0.
    5000001    2    3    3    0    0 -0.14629636297E+03  0.42790430033E+03 -0.16933763527E+03  0.51148753478E+03  0.16864029016E+03 0.  0.
        -11    1    4    4    0    0  0.12183059227E+02  0.21417142556E+02  0.23032321654E+02  0.33728456360E+02  0.51100000000E-03 0. -1.
     200002    1    4    4    0    0 -0.15847942220E+03  0.40648715777E+03 -0.19236995692E+03  0.47775907842E+03  0.30000000000E+02 0. -1.
     200000    1    3    3    0    0 -0.27254044063E+03  0.70272263599E+03 -0.12364567537E+03  0.91289958262E+03  0.50000000000E+03 0. -1.
    -200001    1    1    2    0    0  0.41883680360E+03 -0.11306269363E+04  0.83718223311E+03  0.16262274222E+04  0.70000000000E+03 0.  1.
<mgrwt>
<rscale>  0 0.30016823E+04</rscale>
<asrwt>0</asrwt>
<pdfrwt beam="1">  1        1 0.25677239E+00 0.30016823E+04</pdfrwt>
<pdfrwt beam="2">  1       -1 0.17902969E+00 0.30016823E+04</pdfrwt>
<totfact> 0.90766284E-01</totfact>
</mgrwt>
</event>
<event>
 8    1  0.3893101E-010  0.1615992E+04  0.7818608E-02  0.8810783E-01
          1   -1    0    0  501    0  0.00000000000E+00  0.00000000000E+00  0.13286258300E+04  0.13286258301E+04  0.50400000000E-02 0.  1.
         -1   -1    0    0    0  501 -0.00000000000E+00 -0.00000000000E+00 -0.49137808560E+03  0.49137808562E+03  0.50400000000E-02 0. -1.
     200001    2    1    2    0    0  0.21953739810E+03 -0.30253363295E+03  0.24635264446E+03  0.83062012391E+03  0.69965484103E+03 0.  0.
    5000001    2    3    3    0    0  0.16004609708E+03 -0.10490462836E+03  0.13453072743E+03  0.27826102017E+03  0.15070150790E+03 0.  0.
        -11    1    4    4    0    0  0.14559347037E+03 -0.55845691129E+02  0.31051274792E+02  0.15899805501E+03  0.51100000000E-03 0. -1.
     200002    1    4    4    0    0  0.14452626716E+02 -0.49058937227E+02  0.10347945264E+03  0.11926296516E+03  0.30000000000E+02 0. -1.
     200000    1    3    3    0    0  0.59491301020E+02 -0.19762900459E+03  0.11182191703E+03  0.55235910374E+03  0.50000000000E+03 0. -1.
    -200001    1    1    2    0    0 -0.21953739810E+03  0.30253363295E+03  0.59089509999E+03  0.98938379177E+03  0.70000000000E+03 0.  1.
<mgrwt>
<rscale>  0 0.16159921E+04</rscale>
<asrwt>0</asrwt>
<pdfrwt beam="1">  1        1 0.18980369E+00 0.16159921E+04</pdfrwt>
<pdfrwt beam="2">  1       -1 0.70196870E-01 0.16159921E+04</pdfrwt>
<totfact> 0.19903239E+01</totfact>
</mgrwt>
</event>
<event>
 8    1  0.3893101E-010  0.1873103E+04  0.7818608E-02  0.8668362E-01
         -1   -1    0    0    0  501 -0.00000000000E+00  0.00000000000E+00  0.19799222929E+03  0.19799222936E+03  0.50400000000E-02 0. -1.
          1   -1    0    0  501    0  0.00000000000E+00 -0.00000000000E+00 -0.44301160570E+04  0.44301160570E+04  0.50400000000E-02 0.  1.
     200001    2    1    2    0    0 -0.48884683809E+03 -0.33661826849E+02 -0.30638288439E+04  0.31806907519E+04  0.69974432848E+03 0.  0.
    5000001    2    3    3    0    0 -0.10164494592E+03 -0.10381783115E+02 -0.41536557682E+03  0.45767313491E+03  0.16277794555E+03 0.  0.
        -11    1    4    4    0    0 -0.12020702736E+03  0.88487147738E+01 -0.39429068776E+03  0.41230228672E+03  0.51100000000E-03 0. -1.
     200002    1    4    4    0    0  0.18562081444E+02 -0.19230497888E+02 -0.21074889064E+02  0.45370848192E+02  0.30000000000E+02 0. -1.
     200000    1    3    3    0    0 -0.38720189217E+03 -0.23280043734E+02 -0.26484632670E+04  0.27230176170E+04  0.50000000000E+03 0.  1.
    -200001    1    1    2    0    0  0.48884683809E+03  0.33661826849E+02 -0.11682949838E+04  0.14474175344E+04  0.70000000000E+03 0. -1.
<mgrwt>
<rscale>  0 0.18731028E+04</rscale>
<asrwt>0</asrwt>
<pdfrwt beam="1">  1        1 0.63287366E+00 0.18731028E+04</pdfrwt>
<pdfrwt beam="2">  1       -1 0.28284607E-01 0.18731028E+04</pdfrwt>
<totfact> 0.81652529E-01</totfact>
</mgrwt>
</event>
<event>
 8    1  0.3893101E-010  0.1570868E+04  0.7818608E-02  0.8838648E-01
          1   -1    0    0  501    0  0.00000000000E+00  0.00000000000E+00  0.23392268136E+04  0.23392268136E+04  0.50400000000E-02 0. -1.
         -1   -1    0    0    0  501 -0.00000000000E+00 -0.00000000000E+00 -0.26372237943E+03  0.26372237948E+03  0.50400000000E-02 0.  1.
     200001    2    1    2    0    0  0.30097944776E+03  0.68432166350E+02  0.13315054693E+04  0.15358006331E+04  0.70036075023E+03 0.  0.
    5000001    2    3    3    0    0  0.25514308725E+02  0.70294384211E+02  0.10726964539E+03  0.18500906396E+03  0.13087893843E+03 0.  0.
        -11    1    4    4    0    0  0.34911312922E+00 -0.42009879435E+01 -0.26573177221E+02  0.26905462782E+02  0.51100000000E-03 0. -1.
     200002    1    4    4    0    0  0.25165195596E+02  0.74495372154E+02  0.13384282261E+03  0.15810360118E+03  0.30000000000E+02 0. -1.
     200000    1    3    3    0    0  0.27546513903E+03 -0.18622178609E+01  0.12242358239E+04  0.13507915691E+04  0.50000000000E+03 0. -1.
    -200001    1    1    2    0    0 -0.30097944776E+03 -0.68432166350E+02  0.74399896485E+03  0.10671485600E+04  0.70000000000E+03 0.  1.
<mgrwt>
<rscale>  0 0.15708679E+04</rscale>
<asrwt>0</asrwt>
<pdfrwt beam="1">  1        1 0.33417528E+00 0.15708679E+04</pdfrwt>
<pdfrwt beam="2">  1       -1 0.37674623E-01 0.15708679E+04</pdfrwt>
<totfact> 0.14909205E+01</totfact>
</mgrwt>
</event>
<event>
 8    1  0.3893101E-010  0.3131714E+04  0.7818608E-02  0.8207088E-01
         -1   -1    0    0    0  501 -0.00000000000E+00  0.00000000000E+00  0.13035975059E+04  0.13035975059E+04  0.50400000000E-02 0. -1.
          1   -1    0    0  501    0  0.00000000000E+00 -0.00000000000E+00 -0.18808777649E+04  0.18808777649E+04  0.50400000000E-02 0.  1.
     200001    2    1    2    0    0  0.10727477431E+04  0.62355214999E+03 -0.94950877792E+03  0.17120082680E+04  0.69985740432E+03 0.  0.
    5000001    2    3    3    0    0  0.10658507612E+03  0.10962029714E+03 -0.19454397112E+03  0.29159702197E+03  0.15428700051E+03 0.  0.
        -11    1    4    4    0    0  0.42120164742E+02 -0.24439612474E+02 -0.52395939380E+01  0.48978120429E+02  0.51100000000E-03 0. -1.
     200002    1    4    4    0    0  0.64464911381E+02  0.13405990961E+03 -0.18930437719E+03  0.24261890154E+03  0.30000000000E+02 0. -1.
     200000    1    3    3    0    0  0.96616266697E+03  0.51393185285E+03 -0.75496480679E+03  0.14204112461E+04  0.50000000000E+03 0.  1.
    -200001    1    1    2    0    0 -0.10727477431E+04 -0.62355214999E+03  0.37222851895E+03  0.14724670028E+04  0.70000000000E+03 0. -1.
<mgrwt>
<rscale>  0 0.31317136E+04</rscale>
<asrwt>0</asrwt>
<pdfrwt beam="1">  1        1 0.26869682E+00 0.31317136E+04</pdfrwt>
<pdfrwt beam="2">  1       -1 0.18622822E+00 0.31317136E+04</pdfrwt>
<totfact> 0.70621187E-01</totfact>
</mgrwt>
</event>
<event>
 8    1  0.3893101E-010  0.1908051E+04  0.7818608E-02  0.8650859E-01
          1   -1    0    0  501    0  0.00000000000E+00  0.00000000000E+00  0.74663272320E+03  0.74663272321E+03  0.50400000000E-02 0. -1.
         -1   -1    0    0    0  501 -0.00000000000E+00 -0.00000000000E+00 -0.12190261329E+04  0.12190261329E+04  0.50400000000E-02 0.  1.
     200001    2    1    2    0    0  0.29273438380E+03  0.34377793315E+03  0.24327950202E+03  0.86744922069E+03  0.69957597700E+03 0.  0.
    5000001    2    3    3    0    0  0.64526563114E+02  0.13872744826E+03  0.72182792503E+02  0.25638572580E+03  0.19265072700E+03 0.  0.
        -11    1    4    4    0    0 -0.47418406860E+02  0.10504290978E+03 -0.97362944135E+00  0.11525392036E+03  0.51100000000E-03 0. -1.
     200002    1    4    4    0    0  0.11194496997E+03  0.33684538479E+02  0.73156421945E+02  0.14113180544E+03  0.30000000000E+02 0. -1.
     200000    1    3    3    0    0  0.22820782068E+03  0.20505048489E+03  0.17109670952E+03  0.61106349489E+03  0.50000000000E+03 0.  1.
    -200001    1    1    2    0    0 -0.29273438380E+03 -0.34377793315E+03 -0.71567291173E+03  0.10982096354E+04  0.70000000000E+03 0.  1.
<mgrwt>
<rscale>  0 0.19080512E+04</rscale>
<asrwt>0</asrwt>
<pdfrwt beam="1">  1        1 0.10666182E+00 0.19080512E+04</pdfrwt>
<pdfrwt beam="2">  1       -1 0.17414659E+00 0.19080512E+04</pdfrwt>
<totfact> 0.59547780E+00</totfact>
</mgrwt>
</event>
<event>
 8    1  0.3893101E-010  0.1580306E+04  0.7818608E-02  0.8832739E-01
         -1   -1    0    0    0  501 -0.00000000000E+00  0.00000000000E+00  0.15869181895E+03  0.15869181903E+03  0.50400000000E-02 0. -1.
          1   -1    0    0  501    0  0.00000000000E+00 -0.00000000000E+00 -0.39343021506E+04  0.39343021506E+04  0.50400000000E-02 0.  1.
     200001    2    1    2    0    0 -0.12472497949E+03  0.32872204694E+03 -0.16204931664E+04  0.17999295352E+04  0.70009551102E+03 0.  0.
    5000001    2    3    3    0    0 -0.14875790198E+03  0.11356003004E+03 -0.30811582864E+03  0.37894165642E+03  0.11677594481E+03 0.  0.
        -11    1    4    4    0    0  0.15011435878E+02  0.11927693691E+02 -0.62014409254E+02  0.64910708202E+02  0.51100000000E-03 0. -1.
     200002    1    4    4    0    0 -0.16376933785E+03  0.10163233634E+03 -0.24610141939E+03  0.31403094822E+03  0.30000000000E+02 0. -1.
     200000    1    3    3    0    0  0.24032922490E+02  0.21516201690E+03 -0.13123773378E+04  0.14209878787E+04  0.50000000000E+03 0.  1.
    -200001    1    1    2    0    0  0.12472497949E+03 -0.32872204694E+03 -0.21551171652E+04  0.22930644344E+04  0.70000000000E+03 0. -1.
<mgrwt>
<rscale>  0 0.15803057E+04</rscale>
<asrwt>0</asrwt>
<pdfrwt beam="1">  1        1 0.56204311E+00 0.15803057E+04</pdfrwt>
<pdfrwt beam="2">  1       -1 0.22670262E-01 0.15803057E+04</pdfrwt>
<totfact> 0.30376693E+00</totfact>
</mgrwt>
</event>
<event>
 8    1  0.3893101E-010  0.2017026E+04  0.7818608E-02  0.8598701E-01
          1   -1    0    0  501    0  0.00000000000E+00  0.00000000000E+00  0.15390253039E+04  0.15390253039E+04  0.50400000000E-02 0.  1.
         -1   -1    0    0    0  501 -0.00000000000E+00 -0.00000000000E+00 -0.66087206175E+03  0.66087206176E+03  0.50400000000E-02 0. -1.
     200001    2    1    2    0    0 -0.45654293141E+02  0.62555669336E+03  0.40974662857E+02  0.94121811155E+03  0.70057627666E+03 0.  0.
    5000001    2    3    3    0    0  0.10063675813E+02  0.22691698136E+03 -0.10999513023E+03  0.28181687522E+03  0.12541622098E+03 0.  0.
        -11    1    4    4    0    0  0.58927343213E+02  0.88533171928E+02 -0.23751690500E+02  0.10897108383E+03  0.51100000000E-03 0. -1.
     200002    1    4    4    0    0 -0.48863667400E+02  0.13838380943E+03 -0.86243439726E+02  0.17284579139E+03  0.30000000000E+02 0. -1.
     200000    1    3    3    0    0 -0.55717968954E+02  0.39863971200E+03  0.15096979308E+03  0.65940123633E+03  0.50000000000E+03 0. -1.
    -200001    1    1    2    0    0  0.45654293141E+02 -0.62555669336E+03  0.83717857926E+03  0.12586792541E+04  0.70000000000E+03 0.  1.
<mgrwt>
<rscale>  0 0.20170264E+04</rscale>
<asrwt>0</asrwt>
<pdfrwt beam="1">  1        1 0.21986076E+00 0.20170264E+04</pdfrwt>
<pdfrwt beam="2">  1       -1 0.94410295E-01 0.20170264E+04</pdfrwt>
<totfact> 0.74045337E+00</totfact>
</mgrwt>
</event>
<event>
 8    1  0.3893101E-010  0.1468134E+04  0.7818608E-02  0.8905924E-01
          1   -1    0    0  501    0  0.00000000000E+00  0.00000000000E+00  0.78407372481E+03  0.78407372483E+03  0.50400000000E-02 0. -1.
         -1   -1    0    0    0  501 -0.00000000000E+00 -0.00000000000E+00 -0.68724992017E+03  0.68724992019E+03  0.50400000000E-02 0.  1.
     200001    2    1    2    0    0  0.58385093468E+02  0.78233717699E+02  0.25193323204E+03  0.74772965099E+03  0.69720868027E+03 0.  0.
    5000001    2    3    3    0    0  0.10346797918E+02 -0.54275678792E+02  0.35153735895E+00  0.17052971414E+03  0.16132995472E+03 0.  0.
        -11    1    4    4    0    0 -0.18477567689E+01 -0.94465235074E+02 -0.42351693483E+02  0.10354110673E+03  0.51100000000E-03 0. -1.
     200002    1    4    4    0    0  0.12194554687E+02  0.40189556282E+02  0.42703230842E+02  0.66988607408E+02  0.30000000000E+02 0. -1.
     200000    1    3    3    0    0  0.48038295550E+02  0.13250939649E+03  0.25158169468E+03  0.57719993685E+03  0.50000000000E+03 0. -1.
    -200001    1    1    2    0    0 -0.58385093468E+02 -0.78233717699E+02 -0.15510942740E+03  0.72359399403E+03  0.70000000000E+03 0.  1.
<mgrwt>
<rscale>  0 0.14681343E+04</rscale>
<asrwt>0</asrwt>
<pdfrwt beam="1">  1        1 0.11201053E+00 0.14681343E+04</pdfrwt>
<pdfrwt beam="2">  1       -1 0.98178561E-01 0.14681343E+04</pdfrwt>
<totfact> 0.24795703E+01</totfact>
</mgrwt>
</event>
<event>
 8    1  0.3893101E-010  0.2093125E+04  0.7818608E-02  0.8564278E-01
         -1   -1    0    0    0  501 -0.00000000000E+00  0.00000000000E+00  0.62274977071E+03  0.62274977073E+03  0.50400000000E-02 0. -1.
          1   -1    0    0  501    0  0.00000000000E+00 -0.00000000000E+00 -0.17588004890E+04  0.17588004890E+04  0.50400000000E-02 0.  1.
     200001    2    1    2    0    0  0.61785720835E+03  0.47288201841E+03 -0.56876329074E+03  0.11910965821E+04  0.69989603064E+03 0.  0.
    5000001    2    3    3    0    0  0.23991964510E+03  0.17017890469E+03 -0.21559040783E+03  0.41058581214E+03  0.18862446679E+03 0.  0.
        -11    1    4    4    0    0  0.10640627761E+03 -0.23804845374E+02 -0.43569842330E+02  0.11741932438E+03  0.51100000000E-03 0. -1.
     200002    1    4    4    0    0  0.13351336750E+03  0.19398375007E+03 -0.17202056550E+03  0.29316648776E+03  0.30000000000E+02 0. -1.
     200000    1    3    3    0    0  0.37793756325E+03  0.30270311372E+03 -0.35317288291E+03  0.78051076994E+03  0.50000000000E+03 0.  1.
    -200001    1    1    2    0    0 -0.61785720835E+03 -0.47288201841E+03 -0.56728742757E+03  0.11904536777E+04  0.70000000000E+03 0. -1.
<mgrwt>
<rscale>  0 0.20931246E+04</rscale>
<asrwt>0</asrwt>
<pdfrwt beam="1">  1        1 0.25125721E+00 0.20931246E+04</pdfrwt>
<pdfrwt beam="2">  1       -1 0.88964254E-01 0.20931246E+04</pdfrwt>
<totfact> 0.60645019E+00</totfact>
</mgrwt>
</event>
<event>
 8    1  0.3893101E-010  0.1652188E+04  0.7818608E-02  0.8789113E-01
          1   -1    0    0  501    0  0.00000000000E+00  0.00000000000E+00  0.75492898418E+03  0.75492898420E+03  0.50400000000E-02 0. -1.
         -1   -1    0    0    0  501 -0.00000000000E+00 -0.00000000000E+00 -0.90396718740E+03  0.90396718741E+03  0.50400000000E-02 0.  1.
     200001    2    1    2    0    0 -0.39187849898E+03  0.13750033747E+03 -0.21416282063E+03  0.84236918702E+03  0.70088874491E+03 0.  0.
    5000001    2    3    3    0    0 -0.28526620188E+02  0.35755874701E+00 -0.44268886239E+02  0.18685665585E+03  0.17928128636E+03 0.  0.
        -11    1    4    4    0    0  0.75052125391E+01  0.55081931222E+02 -0.86876537254E+02  0.10314009932E+03  0.51100000000E-03 0. -1.
     200002    1    4    4    0    0 -0.36031832727E+02 -0.54724372475E+02  0.42607651016E+02  0.83716556532E+02  0.30000000000E+02 0. -1.
     200000    1    3    3    0    0 -0.36335187879E+03  0.13714277872E+03 -0.16989393440E+03  0.65551253117E+03  0.50000000000E+03 0.  1.
    -200001    1    1    2    0    0  0.39187849898E+03 -0.13750033747E+03  0.65124617418E+02  0.81652698459E+03  0.70000000000E+03 0.  1.
<mgrwt>
<rscale>  0 0.16521877E+04</rscale>
<asrwt>0</asrwt>
<pdfrwt beam="1">  1        1 0.10784700E+00 0.16521877E+04</pdfrwt>
<pdfrwt beam="2">  1       -1 0.12913817E+00 0.16521877E+04</pdfrwt>
<totfact> 0.13440909E+01</totfact>
</mgrwt>
</event>
<event>
 8    1  0.3893101E-010  0.2786031E+04  0.7818608E-02  0.8307618E-01
         -1   -1    0    0    0  501 -0.00000000000E+00  0.00000000000E+00  0.14692356494E+04  0.14692356494E+04  0.50400000000E-02 0.  1.
          1   -1    0    0  501    0  0.00000000000E+00 -0.00000000000E+00 -0.13207498772E+04  0.13207498772E+04  0.50400000000E-02 0. -1.
     200001    2    1    2    0    0  0.17221026551E+03  0.19760787003E+03 -0.11002376300E+04  0.13346452293E+04  0.70855472604E+03 0.  0.
    5000001    2    3    3    0    0  0.10985301786E+02  0.87063451600E+02 -0.31288870830E+03  0.38168569088E+03  0.20020964358E+03 0.  0.
        -11    1    4    4    0    0 -0.22589962850E+02 -0.57641051347E+02 -0.56278445572E+02  0.83666365155E+02  0.51100000000E-03 0. -1.
     200002    1    4    4    0    0  0.33575264636E+02  0.14470450295E+03 -0.25661026273E+03  0.29801932572E+03  0.30000000000E+02 0. -1.
     200000    1    3    3    0    0  0.16122496372E+03  0.11054441843E+03 -0.78734892172E+03  0.95295953844E+03  0.50000000000E+03 0. -1.
    -200001    1    1    2    0    0 -0.17221026551E+03 -0.19760787003E+03  0.12487234022E+04  0.14553402973E+04  0.70000000000E+03 0.  1.
<mgrwt>
<rscale>  0 0.27860314E+04</rscale>
<asrwt>0</asrwt>
<pdfrwt beam="1">  1        1 0.18867855E+00 0.27860314E+04</pdfrwt>
<pdfrwt beam="2">  1       -1 0.20989081E+00 0.27860314E+04</pdfrwt>
<totfact> 0.11492277E+00</totfact>
</mgrwt>
</event>
<event>
 8    1  0.3893101E-010  0.1508903E+04  0.7818608E-02  0.8878554E-01
          1   -1    0    0  501    0  0.00000000000E+00  0.00000000000E+00  0.15942670954E+04  0.15942670954E+04  0.50400000000E-02 0.  1.
         -1   -1    0    0    0  501 -0.00000000000E+00 -0.00000000000E+00 -0.35702743239E+03  0.35702743243E+03  0.50400000000E-02 0. -1.
     200001    2    1    2    0    0  0.48730429404E+02 -0.22589800344E+03  0.41720684734E+03  0.84863484259E+03  0.70193659249E+03 0.  0.
    5000001    2    3    3    0    0  0.47768956093E+02 -0.82161190890E+02  0.93489123992E+02  0.23589153571E+03  0.19460797995E+03 0.  0.
        -11    1    4    4    0    0  0.79456936522E+02 -0.71745710544E+02 -0.24360314491E+02  0.10979196995E+03  0.51100000000E-03 0. -1.
     200002    1    4    4    0    0 -0.31687980428E+02 -0.10415480347E+02  0.11784943848E+03  0.12609956576E+03  0.30000000000E+02 0. -1.
     200000    1    3    3    0    0  0.96147331062E+00 -0.14373681255E+03  0.32371772334E+03  0.61274330688E+03  0.50000000000E+03 0.  1.
    -200001    1    1    2    0    0 -0.48730429404E+02  0.22589800344E+03  0.82003281571E+03  0.11026596853E+04  0.70000000000E+03 0.  1.
<mgrwt>
<rscale>  0 0.15089030E+04</rscale>
<asrwt>0</asrwt>
<pdfrwt beam="1">  1        1 0.22775244E+00 0.15089030E+04</pdfrwt>
<pdfrwt beam="2">  1       -1 0.51003920E-01 0.15089030E+04</pdfrwt>
<totfact> 0.25258837E+01</totfact>
</mgrwt>
</event>
<event>
 8    1  0.3893101E-010  0.1625403E+04  0.7818608E-02  0.8805092E-01
         -1   -1    0    0    0  501 -0.00000000000E+00  0.00000000000E+00  0.38308354349E+03  0.38308354353E+03  0.50400000000E-02 0. -1.
          1   -1    0    0  501    0  0.00000000000E+00 -0.00000000000E+00 -0.17241242935E+04  0.17241242936E+04  0.50400000000E-02 0.  1.
     200001    2    1    2    0    0 -0.17295269366E+03 -0.31570491404E+03 -0.39710281848E+03  0.87814272666E+03  0.69560173444E+03 0.  0.
    5000001    2    3    3    0    0 -0.41693721264E+02 -0.20416559442E+03 -0.16677005400E+03  0.30132115975E+03  0.13985790671E+03 0.  0.
        -11    1    4    4    0    0 -0.12818790079E+02 -0.99459758368E+02 -0.15949948717E+03  0.18840555013E+03  0.51100000000E-03 0. -1.
     200002    1    4    4    0    0 -0.28874931185E+02 -0.10470583605E+03 -0.72705668258E+01  0.11291560962E+03  0.30000000000E+02 0. -1.
     200000    1    3    3    0    0 -0.13125897240E+03 -0.11153931962E+03 -0.23033276449E+03  0.57682156691E+03  0.50000000000E+03 0. -1.
    -200001    1    1    2    0    0  0.17295269366E+03  0.31570491404E+03 -0.94393793157E+03  0.12290651104E+04  0.70000000000E+03 0.  1.
<mgrwt>
<rscale>  0 0.16254029E+04</rscale>
<asrwt>0</asrwt>
<pdfrwt beam="1">  1        1 0.24630347E+00 0.16254029E+04</pdfrwt>
<pdfrwt beam="2">  1       -1 0.54726221E-01 0.16254029E+04</pdfrwt>
<totfact> 0.18038681E+01</totfact>
</mgrwt>
</event>
<event>
 8    1  0.3893101E-010  0.1931215E+04  0.7818608E-02  0.8639473E-01
          1   -1    0    0  501    0  0.00000000000E+00  0.00000000000E+00  0.71428377314E+03  0.71428377316E+03  0.50400000000E-02 0.  1.
         -1   -1    0    0    0  501 -0.00000000000E+00 -0.00000000000E+00 -0.13053609682E+04  0.13053609682E+04  0.50400000000E-02 0. -1.
     200001    2    1    2    0    0  0.15186323841E+03 -0.43981662452E+03  0.19949820804E+03  0.86573375072E+03  0.70227792629E+03 0.  0.
    5000001    2    3    3    0    0  0.47572577398E+02 -0.19362598902E+03  0.77870196702E+02  0.28583742885E+03  0.18943361489E+03 0.  0.
        -11    1    4    4    0    0  0.30016097612E+02 -0.55913816657E+02  0.12165328843E+03  0.13721094561E+03  0.51100000000E-03 0. -1.
     200002    1    4    4    0    0  0.17556479785E+02 -0.13771217237E+03 -0.43783091725E+02  0.14862648324E+03  0.30000000000E+02 0. -1.
     200000    1    3    3    0    0  0.10429066101E+03 -0.24619063550E+03  0.12162801134E+03  0.57989632187E+03  0.50000000000E+03 0.  1.
    -200001    1    1    2    0    0 -0.15186323841E+03  0.43981662452E+03 -0.79057540313E+03  0.11539109907E+04  0.70000000000E+03 0. -1.
<mgrwt>
<rscale>  0 0.19312153E+04</rscale>
<asrwt>0</asrwt>
<pdfrwt beam="1">  1        1 0.10204054E+00 0.19312153E+04</pdfrwt>
<pdfrwt beam="2">  1       -1 0.18648014E+00 0.19312153E+04</pdfrwt>
<totfact> 0.51801901E+00</totfact>
</mgrwt>
</event>
<event>
 8    1  0.3893101E-010  0.2303995E+04  0.7818608E-02  0.8476348E-01
          1   -1    0    0  501    0  0.00000000000E+00  0.00000000000E+00  0.26195134211E+04  0.26195134211E+04  0.50400000000E-02 0.  1.
         -1   -1    0    0    0  501 -0.00000000000E+00 -0.00000000000E+00 -0.50662003855E+03  0.50662003858E+03  0.50400000000E-02 0. -1.
     200001    2    1    2    0    0  0.37447431875E+03 -0.10998759095E+03 -0.66189508510E+02  0.80433878063E+03  0.70017964654E+03 0.  0.
    5000001    2    3    3    0    0 -0.81740260046E+02 -0.60986403857E+02 -0.29602009983E+02  0.12472749226E+03  0.65420614199E+02 0.  0.
        -11    1    4    4    0    0 -0.29256437228E+02  0.68210033807E+01 -0.11056306446E+02  0.32011046826E+02  0.51100000000E-03 0. -1.
     200002    1    4    4    0    0 -0.52483822818E+02 -0.67807407237E+02 -0.18545703536E+02  0.92716445432E+02  0.30000000000E+02 0. -1.
     200000    1    3    3    0    0  0.45621457879E+03 -0.49001187095E+02 -0.36587498527E+02  0.67961128838E+03  0.50000000000E+03 0. -1.
    -200001    1    1    2    0    0 -0.37447431875E+03  0.10998759095E+03  0.21790828911E+04  0.23217946791E+04  0.70000000000E+03 0.  1.
<mgrwt>
<rscale>  0 0.23039948E+04</rscale>
<asrwt>0</asrwt>
<pdfrwt beam="1">  1        1 0.37421621E+00 0.23039948E+04</pdfrwt>
<pdfrwt beam="2">  1       -1 0.72374290E-01 0.23039948E+04</pdfrwt>
<totfact> 0.26373403E+00</totfact>
</mgrwt>
</event>
<event>
 8    1  0.3893101E-010  0.1836292E+04  0.7818608E-02  0.8687234E-01
          1   -1    0    0  501    0  0.00000000000E+00  0.00000000000E+00  0.13484080815E+04  0.13484080815E+04  0.50400000000E-02 0.  1.
         -1   -1    0    0    0  501 -0.00000000000E+00 -0.00000000000E+00 -0.62517565120E+03  0.62517565122E+03  0.50400000000E-02 0. -1.
     200001    2    1    2    0    0 -0.37770331649E+03 -0.43975325276E+03  0.22618418728E+03  0.93767848876E+03  0.70145487604E+03 0.  0.
    5000001    2    3    3    0    0 -0.90133448022E+02 -0.48645915125E+02  0.87196447059E+02  0.22705976488E+03  0.18292745266E+03 0.  0.
        -11    1    4    4    0    0  0.20723734753E+02  0.25966295964E+02  0.83710217830E+02  0.90061769235E+02  0.51100000000E-03 0. -1.
     200002    1    4    4    0    0 -0.11085718278E+03 -0.74612211090E+02  0.34862292290E+01  0.13699799565E+03  0.30000000000E+02 0. -1.
     200000    1    3    3    0    0 -0.28756986847E+03 -0.39110733763E+03  0.13898774022E+03  0.71061872388E+03  0.50000000000E+03 0. -1.
    -200001    1    1    2    0    0  0.37770331649E+03  0.43975325276E+03  0.49704824304E+03  0.10359052440E+04  0.70000000000E+03 0.  1.
<mgrwt>
<rscale>  0 0.18362918E+04</rscale>
<asrwt>0</asrwt>
<pdfrwt beam="1">  1        1 0.19262972E+00 0.18362918E+04</pdfrwt>
<pdfrwt beam="2">  1       -1 0.89310808E-01 0.18362918E+04</pdfrwt>
<totfact> 0.11360731E+01</totfact>
</mgrwt>
</event>
<event>
 8    1  0.3893101E-010  0.1786464E+04  0.7818608E-02  0.8713531E-01
          1   -1    0    0  501    0  0.00000000000E+00  0.00000000000E+00  0.31822313869E+04  0.31822313869E+04  0.50400000000E-02 0.  1.
         -1   -1    0    0    0  501 -0.00000000000E+00 -0.00000000000E+00 -0.25072444221E+03  0.25072444226E+03  0.50400000000E-02 0. -1.
     200001    2    1    2    0    0 -0.46224058845E+03  0.30055483496E+01  0.20547394711E+04  0.22195323261E+04  0.70049558015E+03 0.  0.
    5000001    2    3    3    0    0 -0.17752009469E+03  0.10125218626E+03  0.72280955780E+03  0.76531244754E+03  0.14657454165E+03 0.  0.
        -11    1    4    4    0    0 -0.25255349437E+02  0.36249408649E+02  0.32639323120E+02  0.54928842301E+02  0.51100000000E-03 0. -1.
     200002    1    4    4    0    0 -0.15226474525E+03  0.65002777615E+02  0.69017023468E+03  0.71038360524E+03  0.30000000000E+02 0. -1.
     200000    1    3    3    0    0 -0.28472049376E+03 -0.98246637914E+02  0.13319299133E+04  0.14542198786E+04  0.50000000000E+03 0.  1.
    -200001    1    1    2    0    0  0.46224058845E+03 -0.30055483496E+01  0.87676747366E+03  0.12134235031E+04  0.70000000000E+03 0. -1.
<mgrwt>
<rscale>  0 0.17864638E+04</rscale>
<asrwt>0</asrwt>
<pdfrwt beam="1">  1        1 0.45460447E+00 0.17864638E+04</pdfrwt>
<pdfrwt beam="2">  1       -1 0.35817779E-01 0.17864638E+04</pdfrwt>
<totfact> 0.45567643E+00</totfact>
</mgrwt>
</event>
<event>
 8    1  0.3893101E-010  0.1767120E+04  0.7818608E-02  0.8723983E-01
          1   -1    0    0  501    0  0.00000000000E+00  0.00000000000E+00  0.10819346830E+04  0.10819346830E+04  0.50400000000E-02 0. -1.
         -1   -1    0    0    0  501 -0.00000000000E+00 -0.00000000000E+00 -0.72155766593E+03  0.72155766594E+03  0.50400000000E-02 0.  1.
     200001    2    1    2    0    0  0.11715439293E+03 -0.15434134922E+03 -0.33276477582E+03  0.79950432666E+03  0.70066280653E+03 0.  0.
    5000001    2    3    3    0    0 -0.15331358008E+02 -0.45380953855E+02 -0.88913974207E+02  0.21736340265E+03  0.19247512174E+03 0.  0.
        -11    1    4    4    0    0 -0.86085255122E+02 -0.58279278169E+02 -0.92783825279E+02  0.13934124891E+03  0.51100000000E-03 0. -1.
     200002    1    4    4    0    0  0.70753897113E+02  0.12898324314E+02  0.38698510717E+01  0.78022153739E+02  0.30000000000E+02 0.  1.
     200000    1    3    3    0    0  0.13248575094E+03 -0.10896039537E+03 -0.24385080161E+03  0.58214092401E+03  0.50000000000E+03 0.  1.
    -200001    1    1    2    0    0 -0.11715439293E+03  0.15434134922E+03  0.69314179288E+03  0.10039880223E+04  0.70000000000E+03 0. -1.
<mgrwt>
<rscale>  0 0.17671200E+04</rscale>
<asrwt>0</asrwt>
<pdfrwt beam="1">  1        1 0.15456210E+00 0.17671200E+04</pdfrwt>
<pdfrwt beam="2">  1       -1 0.10307967E+00 0.17671200E+04</pdfrwt>
<totfact> 0.12666447E+01</totfact>
</mgrwt>
</event>
<event>
 8    1  0.3893101E-010  0.2022960E+04  0.7818608E-02  0.8595961E-01
          1   -1    0    0  501    0  0.00000000000E+00  0.00000000000E+00  0.33686127376E+04  0.33686127376E+04  0.50400000000E-02 0. -1.
         -1   -1    0    0    0  501 -0.00000000000E+00 -0.00000000000E+00 -0.30371311128E+03  0.30371311133E+03  0.50400000000E-02 0.  1.
     200001    2    1    2    0    0  0.68419615499E+03 -0.84687174630E+02  0.19692488013E+04  0.22006781240E+04  0.69981931078E+03 0.  0.
    5000001    2    3    3    0    0  0.26843414602E+03  0.64034316948E+02  0.64809863211E+03  0.72067342811E+03  0.15225330386E+03 0.  0.
        -11    1    4    4    0    0  0.10424960495E+03 -0.82887643657E+01  0.39744105978E+03  0.41096968227E+03  0.51100000000E-03 0. -1.
     200002    1    4    4    0    0  0.16418454107E+03  0.72323081314E+02  0.25065757234E+03  0.30970374584E+03  0.30000000000E+02 0. -1.
     200000    1    3    3    0    0  0.41576200897E+03 -0.14872149158E+03  0.13211501692E+04  0.14800046959E+04  0.50000000000E+03 0. -1.
    -200001    1    1    2    0    0 -0.68419615499E+03  0.84687174630E+02  0.10956508249E+04  0.14716477249E+04  0.70000000000E+03 0. -1.
<mgrwt>
<rscale>  0 0.20229601E+04</rscale>
<asrwt>0</asrwt>
<pdfrwt beam="1">  1        1 0.48123038E+00 0.20229601E+04</pdfrwt>
<pdfrwt beam="2">  1       -1 0.43387588E-01 0.20229601E+04</pdfrwt>
<totfact> 0.23471700E+00</totfact>
</mgrwt>
</event>
<event>
 8    1  0.3893101E-010  0.1551411E+04  0.7818608E-02  0.8850967E-01
          1   -1    0    0  501    0  0.00000000000E+00  0.00000000000E+00  0.36279691916E+03  0.36279691919E+03  0.50400000000E-02 0.  1.
         -1   -1    0    0    0  501 -0.00000000000E+00 -0.00000000000E+00 -0.16585561206E+04  0.16585561206E+04  0.50400000000E-02 0. -1.
     200001    2    1    2    0    0  0.20600031821E+02 -0.29620157263E+03 -0.44627214333E+03  0.88127058889E+03  0.69951361102E+03 0.  0.
    5000001    2    3    3    0    0  0.14152899954E+02 -0.11893848956E+03 -0.95428382293E+02  0.24522411985E+03  0.19152447345E+03 0.  0.
        -11    1    4    4    0    0 -0.79752289330E+02 -0.62173743952E+02 -0.74150966560E+01  0.10139519589E+03  0.51100000000E-03 0. -1.
     200002    1    4    4    0    0  0.93905189284E+02 -0.56764745612E+02 -0.88013285637E+02  0.14382892396E+03  0.30000000000E+02 0. -1.
     200000    1    3    3    0    0  0.64471318672E+01 -0.17726308307E+03 -0.35084376104E+03  0.63604646905E+03  0.50000000000E+03 0. -1.
    -200001    1    1    2    0    0 -0.20600031821E+02  0.29620157263E+03 -0.84948705809E+03  0.11400824509E+04  0.70000000000E+03 0. -1.
<mgrwt>
<rscale>  0 0.15514110E+04</rscale>
<asrwt>0</asrwt>
<pdfrwt beam="1">  1        1 0.51828132E-01 0.15514110E+04</pdfrwt>
<pdfrwt beam="2">  1       -1 0.23693658E+00 0.15514110E+04</pdfrwt>
<totfact> 0.61753510E+00</totfact>
</mgrwt>
</event>
<event>
 8    1  0.3893101E-010  0.1892420E+04  0.7818608E-02  0.8658639E-01
         -1   -1    0    0    0  501 -0.00000000000E+00  0.00000000000E+00  0.67393050325E+03  0.67393050327E+03  0.50400000000E-02 0.  1.
          1   -1    0    0  501    0  0.00000000000E+00 -0.00000000000E+00 -0.13284951073E+04  0.13284951073E+04  0.50400000000E-02 0. -1.
     200001    2    1    2    0    0 -0.38474087276E+03 -0.30827405674E+03  0.10182971984E+03  0.85997613404E+03  0.69723111379E+03 0.  0.
    5000001    2    3    3    0    0 -0.12356356311E+03 -0.84148251761E+02  0.64419276869E+02  0.25182688856E+03  0.19214071970E+03 0.  0.
        -11    1    4    4    0    0 -0.55407579091E+01 -0.58107634605E+02  0.10560547204E+03  0.12066363546E+03  0.51100000000E-03 0. -1.
     200002    1    4    4    0    0 -0.11802280520E+03 -0.26040617155E+02 -0.41186195173E+02  0.13116325309E+03  0.30000000000E+02 0. -1.
     200000    1    3    3    0    0 -0.26117730965E+03 -0.22412580498E+03  0.37410442975E+02  0.60814924548E+03  0.50000000000E+03 0.  1.
    -200001    1    1    2    0    0  0.38474087276E+03  0.30827405674E+03 -0.75639432388E+03  0.11424494765E+04  0.70000000000E+03 0. -1.
<mgrwt>
<rscale>  0 0.18924200E+04</rscale>
<asrwt>0</asrwt>
<pdfrwt beam="1">  1        1 0.18978501E+00 0.18924200E+04</pdfrwt>
<pdfrwt beam="2">  1       -1 0.96275787E-01 0.18924200E+04</pdfrwt>
<totfact> 0.98644510E+00</totfact>
</mgrwt>
</event>
<event>
 8    1  0.3893101E-010  0.1587450E+04  0.7818608E-02  0.8828295E-01
          1   -1    0    0  501    0  0.00000000000E+00  0.00000000000E+00  0.22970023773E+04  0.22970023773E+04  0.50400000000E-02 0.  1.
         -1   -1    0    0    0  501 -0.00000000000E+00 -0.00000000000E+00 -0.27427023746E+03  0.27427023751E+03  0.50400000000E-02 0. -1.
     200001    2    1    2    0    0 -0.21781459677E+02  0.36820267675E+03  0.11151668299E+04  0.13672284150E+04  0.69976341523E+03 0.  0.
    5000001    2    3    3    0    0 -0.54289128041E+01  0.17800136223E+03  0.31712728001E+03  0.40633764654E+03  0.18118116134E+03 0.  0.
        -11    1    4    4    0    0 -0.86839440386E+02  0.11523749160E+03  0.15248076947E+03  0.20993130527E+03  0.51100000000E-03 0. -1.
     200002    1    4    4    0    0  0.81410527582E+02  0.62763870633E+02  0.16464651054E+03  0.19640634127E+03  0.30000000000E+02 0. -1.
     200000    1    3    3    0    0 -0.16352546873E+02  0.19020131452E+03  0.79803954988E+03  0.96089076851E+03  0.50000000000E+03 0.  1.
    -200001    1    1    2    0    0  0.21781459677E+02 -0.36820267675E+03  0.90756530994E+03  0.12040441998E+04  0.70000000000E+03 0. -1.
<mgrwt>
<rscale>  0 0.15874500E+04</rscale>
<asrwt>0</asrwt>
<pdfrwt beam="1">  1        1 0.32814321E+00 0.15874500E+04</pdfrwt>
<pdfrwt beam="2">  1       -1 0.39181461E-01 0.15874500E+04</pdfrwt>
<totfact> 0.14741531E+01</totfact>
</mgrwt>
</event>
<event>
 8    1  0.3893101E-010  0.2256078E+04  0.7818608E-02  0.8495443E-01
         -1   -1    0    0    0  501 -0.00000000000E+00  0.00000000000E+00  0.97381851806E+03  0.97381851808E+03  0.50400000000E-02 0. -1.
          1   -1    0    0  501    0  0.00000000000E+00 -0.00000000000E+00 -0.13066827033E+04  0.13066827033E+04  0.50400000000E-02 0.  1.
     200001    2    1    2    0    0  0.22214999562E+03 -0.36320575486E+03  0.61733140764E+03  0.10258535794E+04  0.70000604176E+03 0.  0.
    5000001    2    3    3    0    0  0.95854072010E+02 -0.13257121708E+03  0.23084770999E+03  0.34137377769E+03  0.19100329884E+03 0.  0.
        -11    1    4    4    0    0  0.62434693860E+01 -0.15044229081E+03  0.17212420158E+03  0.22868888155E+03  0.51100000000E-03 0. -1.
     200002    1    4    4    0    0  0.89610602624E+02  0.17871073728E+02  0.58723508415E+02  0.11268489615E+03  0.30000000000E+02 0. -1.
     200000    1    3    3    0    0  0.12629592361E+03 -0.23063453778E+03  0.38648369764E+03  0.68447980166E+03  0.50000000000E+03 0. -1.
    -200001    1    1    2    0    0 -0.22214999562E+03  0.36320575486E+03 -0.95019559282E+03  0.12546476420E+04  0.70000000000E+03 0.  1.
<mgrwt>
<rscale>  0 0.22560778E+04</rscale>
<asrwt>0</asrwt>
<pdfrwt beam="1">  1        1 0.18666896E+00 0.22560778E+04</pdfrwt>
<pdfrwt beam="2">  1       -1 0.13911693E+00 0.22560778E+04</pdfrwt>
<totfact> 0.40624006E+00</totfact>
</mgrwt>
</event>
<event>
 8    1  0.3893101E-010  0.1672977E+04  0.7818608E-02  0.8776928E-01
          1   -1    0    0  501    0  0.00000000000E+00  0.00000000000E+00  0.24771819629E+03  0.24771819635E+03  0.50400000000E-02 0.  1.
         -1   -1    0    0    0  501 -0.00000000000E+00 -0.00000000000E+00 -0.28246338852E+04  0.28246338852E+04  0.50400000000E-02 0. -1.
     200001    2    1    2    0    0  0.43000407376E+02 -0.71569069561E+02 -0.21151661361E+04  0.22296280364E+04  0.70024440780E+03 0.  0.
    5000001    2    3    3    0    0  0.65460822045E+02 -0.68654836097E+02 -0.65096633488E+03  0.68224507770E+03  0.18083852233E+03 0.  0.
        -11    1    4    4    0    0 -0.29748768519E+02 -0.21878672248E+02 -0.20546313627E+02  0.42258922509E+02  0.51100000000E-03 0. -1.
     200002    1    4    4    0    0  0.95209590563E+02 -0.46776163849E+02 -0.63042002126E+03  0.63998615520E+03  0.30000000000E+02 0. -1.
     200000    1    3    3    0    0 -0.22460414669E+02 -0.29142334648E+01 -0.14641998012E+04  0.15473829587E+04  0.50000000000E+03 0. -1.
    -200001    1    1    2    0    0 -0.43000407376E+02  0.71569069561E+02 -0.46174955280E+03  0.84272404514E+03  0.70000000000E+03 0.  1.
<mgrwt>
<rscale>  0 0.16729772E+04</rscale>
<asrwt>0</asrwt>
<pdfrwt beam="1">  1        1 0.35388315E-01 0.16729772E+04</pdfrwt>
<pdfrwt beam="2">  1       -1 0.40351911E+00 0.16729772E+04</pdfrwt>
<totfact> 0.80528128E-01</totfact>
</mgrwt>
</event>
<event>
 8    1  0.3893101E-010  0.1596282E+04  0.7818608E-02  0.8822835E-01
         -1   -1    0    0    0  501 -0.00000000000E+00  0.00000000000E+00  0.77754729224E+03  0.77754729226E+03  0.50400000000E-02 0. -1.
          1   -1    0    0  501    0  0.00000000000E+00 -0.00000000000E+00 -0.81928054940E+03  0.81928054942E+03  0.50400000000E-02 0.  1.
     200001    2    1    2    0    0  0.26503160836E+03 -0.20123624311E+03 -0.20777552251E+03  0.80416914283E+03  0.70198259491E+03 0.  0.
    5000001    2    3    3    0    0  0.12569148795E+03 -0.70953869503E+02 -0.15703549303E+03  0.26661568817E+03  0.15997180178E+03 0.  0.
        -11    1    4    4    0    0  0.51864261367E+02 -0.66376953097E+02  0.66563550714E+01  0.84499163148E+02  0.51100000000E-03 0. -1.
     200002    1    4    4    0    0  0.73827226579E+02 -0.45769164055E+01 -0.16369184811E+03  0.18211652502E+03  0.30000000000E+02 0. -1.
     200000    1    3    3    0    0  0.13934012042E+03 -0.13028237361E+03 -0.50740029474E+02  0.53755345466E+03  0.50000000000E+03 0. -1.
    -200001    1    1    2    0    0 -0.26503160836E+03  0.20123624311E+03  0.16604226534E+03  0.79265869884E+03  0.70000000000E+03 0. -1.
<mgrwt>
<rscale>  0 0.15962824E+04</rscale>
<asrwt>0</asrwt>
<pdfrwt beam="1">  1        1 0.11704008E+00 0.15962824E+04</pdfrwt>
<pdfrwt beam="2">  1       -1 0.11107819E+00 0.15962824E+04</pdfrwt>
<totfact> 0.17200596E+01</totfact>
</mgrwt>
</event>
<event>
 8    1  0.3893101E-010  0.1691500E+04  0.7818608E-02  0.8766227E-01
         -1   -1    0    0    0  501 -0.00000000000E+00  0.00000000000E+00  0.36943991800E+03  0.36943991803E+03  0.50400000000E-02 0.  1.
          1   -1    0    0  501    0  0.00000000000E+00 -0.00000000000E+00 -0.19361549806E+04  0.19361549806E+04  0.50400000000E-02 0. -1.
     200001    2    1    2    0    0  0.36859312996E+03  0.29464301736E+03 -0.85335594908E+03  0.12003543692E+04  0.69997059411E+03 0.  0.
    5000001    2    3    3    0    0  0.15771636088E+03  0.18632455375E+02 -0.21523518292E+03  0.31839691313E+03  0.17271013705E+03 0.  0.
        -11    1    4    4    0    0  0.24014906814E+02 -0.68159934017E+02 -0.71840962195E+02  0.10190003044E+03  0.51100000000E-03 0. -1.
     200002    1    4    4    0    0  0.13370145406E+03  0.86792389391E+02 -0.14339422073E+03  0.21649688269E+03  0.30000000000E+02 0. -1.
     200000    1    3    3    0    0  0.21087676909E+03  0.27601056199E+03 -0.63812076615E+03  0.88195745604E+03  0.50000000000E+03 0.  1.
    -200001    1    1    2    0    0 -0.36859312996E+03 -0.29464301736E+03 -0.71335911353E+03  0.11052405295E+04  0.70000000000E+03 0. -1.
<mgrwt>
<rscale>  0 0.16914999E+04</rscale>
<asrwt>0</asrwt>
<pdfrwt beam="1">  1        1 0.27659356E+00 0.16914999E+04</pdfrwt>
<pdfrwt beam="2">  1       -1 0.52777132E-01 0.16914999E+04</pdfrwt>
<totfact> 0.14121600E+01</totfact>
</mgrwt>
</event>
<event>
 8    1  0.4932987E-010  0.1971355E+04  0.7818608E-02  0.8620131E-01
         -1   -1    0    0    0  501 -0.00000000000E+00  0.00000000000E+00  0.58593019349E+03  0.58593019351E+03  0.50400000000E-02 0. -1.
          1   -1    0    0  501    0  0.00000000000E+00 -0.00000000000E+00 -0.16581507154E+04  0.16581507155E+04  0.50400000000E-02 0.  1.
     200001    2    1    2    0    0 -0.32303678724E+03 -0.54945581158E+03 -0.24045208963E+03  0.98388521789E+03  0.70990031679E+03 0.  0.
    5000001    2    3    3    0    0  0.30409495970E+02 -0.62379187885E+02 -0.53361701608E+02  0.17941599800E+03  0.15661011657E+03 0.  0.
        -11    1    4    4    0    0 -0.45123391942E+02 -0.74302286870E+02 -0.13014693800E+02  0.87899559666E+02  0.51100000000E-03 0. -1.
     200002    1    4    4    0    0  0.75532887911E+02  0.11923098985E+02 -0.40347007808E+02  0.91516438331E+02  0.30000000000E+02 0. -1.
     200000    1    3    3    0    0 -0.35344628321E+03 -0.48707662369E+03 -0.18709038802E+03  0.80446921989E+03  0.50000000000E+03 0. -1.
    -200001    1    1    2    0    0  0.32303678724E+03  0.54945581158E+03 -0.83176843233E+03  0.12601956911E+04  0.70000000000E+03 0.  1.
<mgrwt>
<rscale>  0 0.19713554E+04</rscale>
<asrwt>0</asrwt>
<pdfrwt beam="1">  1        1 0.23687867E+00 0.19713554E+04</pdfrwt>
<pdfrwt beam="2">  1       -1 0.83704314E-01 0.19713554E+04</pdfrwt>
<totfact> 0.81141319E+00</totfact>
</mgrwt>
</event>
<event>
 8    1  0.3893101E-010  0.1441148E+04  0.7818608E-02  0.8924560E-01
          1   -1    0    0  501    0  0.00000000000E+00  0.00000000000E+00  0.69067309387E+03  0.69067309389E+03  0.50400000000E-02 0. -1.
         -1   -1    0    0    0  501 -0.00000000000E+00 -0.00000000000E+00 -0.75176953677E+03  0.75176953678E+03  0.50400000000E-02 0.  1.
     200001    2    1    2    0    0 -0.11384524830E+03  0.10044070965E+03  0.52081027153E+02  0.71728180959E+03  0.69909347319E+03 0.  0.
    5000001    2    3    3    0    0 -0.10370679776E+03  0.62479075565E+02  0.34766204228E+02  0.21544151932E+03  0.17477878735E+03 0.  0.
        -11    1    4    4    0    0 -0.16365396716E+02  0.82740475569E+02 -0.41470671999E+02  0.93987388214E+02  0.51100000000E-03 0. -1.
     200002    1    4    4    0    0 -0.87341401040E+02 -0.20261400004E+02  0.76236876227E+02  0.12145413111E+03  0.30000000000E+02 0. -1.
     200000    1    3    3    0    0 -0.10138450545E+02  0.37961634081E+02  0.17314822925E+02  0.50184029027E+03  0.50000000000E+03 0.  1.
    -200001    1    1    2    0    0  0.11384524830E+03 -0.10044070965E+03 -0.11317747005E+03  0.72516082109E+03  0.70000000000E+03 0.  1.
<mgrwt>
<rscale>  0 0.14411481E+04</rscale>
<asrwt>0</asrwt>
<pdfrwt beam="1">  1        1 0.98667585E-01 0.14411481E+04</pdfrwt>
<pdfrwt beam="2">  1       -1 0.10739565E+00 0.14411481E+04</pdfrwt>
<totfact> 0.24451512E+01</totfact>
</mgrwt>
</event>
<event>
 8    1  0.3893101E-010  0.1670362E+04  0.7818608E-02  0.8778451E-01
         -1   -1    0    0    0  501 -0.00000000000E+00  0.00000000000E+00  0.85584868518E+03  0.85584868520E+03  0.50400000000E-02 0. -1.
          1   -1    0    0  501    0  0.00000000000E+00 -0.00000000000E+00 -0.81501258322E+03  0.81501258324E+03  0.50400000000E-02 0.  1.
     200001    2    1    2    0    0  0.37868571261E+02 -0.36674435758E+03  0.28643269215E+03  0.84245729837E+03  0.70125256501E+03 0.  0.
    5000001    2    3    3    0    0 -0.23886081248E+02 -0.13212369580E+03  0.14828152966E+03  0.26979139600E+03  0.18103250937E+03 0.  0.
        -11    1    4    4    0    0 -0.76574474609E+02 -0.22608619068E+02  0.11546756214E+03  0.14038360917E+03  0.51100000000E-03 0. -1.
     200002    1    4    4    0    0  0.52688393361E+02 -0.10951507674E+03  0.32813967523E+02  0.12940778683E+03  0.30000000000E+02 0. -1.
     200000    1    3    3    0    0  0.61754652509E+02 -0.23462066178E+03  0.13815116249E+03  0.57266590237E+03  0.50000000000E+03 0. -1.
    -200001    1    1    2    0    0 -0.37868571261E+02  0.36674435758E+03 -0.24559659019E+03  0.82840397007E+03  0.70000000000E+03 0.  1.
<mgrwt>
<rscale>  0 0.16703622E+04</rscale>
<asrwt>0</asrwt>
<pdfrwt beam="1">  1        1 0.11643037E+00 0.16703622E+04</pdfrwt>
<pdfrwt beam="2">  1       -1 0.12226410E+00 0.16703622E+04</pdfrwt>
<totfact> 0.13668602E+01</totfact>
</mgrwt>
</event>
<event>
 8    1  0.3893101E-010  0.2030539E+04  0.7818608E-02  0.8592475E-01
         -1   -1    0    0    0  501 -0.00000000000E+00  0.00000000000E+00  0.35511463505E+03  0.35511463508E+03  0.50400000000E-02 0. -1.
          1   -1    0    0  501    0  0.00000000000E+00 -0.00000000000E+00 -0.29026451037E+04  0.29026451037E+04  0.50400000000E-02 0.  1.
     200001    2    1    2    0    0  0.49648487567E+03  0.21516916415E+03 -0.20729523627E+04  0.22537580557E+04  0.69964196166E+03 0.  0.
    5000001    2    3    3    0    0  0.17409108398E+03  0.13335351389E+03 -0.83624715001E+03  0.87895940109E+03  0.15864888175E+03 0.  0.
        -11    1    4    4    0    0  0.12978310814E+03  0.33941774651E+01 -0.42208164404E+03  0.44159720316E+03  0.51100000000E-03 0. -1.
     200002    1    4    4    0    0  0.44307975835E+02  0.12995933643E+03 -0.41416550596E+03  0.43736219793E+03  0.30000000000E+02 0. -1.
     200000    1    3    3    0    0  0.32239379169E+03  0.81815650256E+02 -0.12367052127E+04  0.13747986546E+04  0.50000000000E+03 0.  1.
    -200001    1    1    2    0    0 -0.49648487567E+03 -0.21516916415E+03 -0.47457810588E+03  0.10040016830E+04  0.70000000000E+03 0. -1.
<mgrwt>
<rscale>  0 0.20305386E+04</rscale>
<asrwt>0</asrwt>
<pdfrwt beam="1">  1        1 0.41466357E+00 0.20305386E+04</pdfrwt>
<pdfrwt beam="2">  1       -1 0.50730664E-01 0.20305386E+04</pdfrwt>
<totfact> 0.35866062E+00</totfact>
</mgrwt>
</event>
<event>
 8    1  0.3893101E-010  0.1799623E+04  0.7818608E-02  0.8706500E-01
         -1   -1    0    0    0  501 -0.00000000000E+00  0.00000000000E+00  0.92232471332E+03  0.92232471333E+03  0.50400000000E-02 0. -1.
          1   -1    0    0  501    0  0.00000000000E+00 -0.00000000000E+00 -0.87784790811E+03  0.87784790812E+03  0.50400000000E-02 0.  1.
     200001    2    1    2    0    0  0.22460767678E+03  0.27138489810E+03 -0.41966332619E+03  0.88939030226E+03  0.70057078944E+03 0.  0.
    5000001    2    3    3    0    0 -0.68351362760E+02 -0.31034131552E+02 -0.12531914591E+03  0.17250763068E+03  0.91754935554E+02 0.  0.
        -11    1    4    4    0    0 -0.15577097977E+02 -0.33248374543E+02 -0.41320324329E+01  0.36948262252E+02  0.51100000000E-03 0. -1.
     200002    1    4    4    0    0 -0.52774264783E+02  0.22142429914E+01 -0.12118711348E+03  0.13555936843E+03  0.30000000000E+02 0. -1.
     200000    1    3    3    0    0  0.29295903954E+03  0.30241902965E+03 -0.29434418028E+03  0.71688267158E+03  0.50000000000E+03 0.  1.
    -200001    1    1    2    0    0 -0.22460767678E+03 -0.27138489810E+03  0.46414013140E+03  0.91078231920E+03  0.70000000000E+03 0.  1.
<mgrwt>
<rscale>  0 0.17996231E+04</rscale>
<asrwt>0</asrwt>
<pdfrwt beam="1">  1        1 0.12540684E+00 0.17996231E+04</pdfrwt>
<pdfrwt beam="2">  1       -1 0.13176067E+00 0.17996231E+04</pdfrwt>
<totfact> 0.99603068E+00</totfact>
</mgrwt>
</event>
<event>
 8    1  0.3893101E-010  0.1529574E+04  0.7818608E-02  0.8865021E-01
         -1   -1    0    0    0  501 -0.00000000000E+00  0.00000000000E+00  0.51743380029E+03  0.51743380032E+03  0.50400000000E-02 0. -1.
          1   -1    0    0  501    0  0.00000000000E+00 -0.00000000000E+00 -0.11303843939E+04  0.11303843939E+04  0.50400000000E-02 0.  1.
     200001    2    1    2    0    0 -0.22573086235E+03 -0.31269471039E+02 -0.81738132532E+02  0.74000825772E+03  0.69928456093E+03 0.  0.
    5000001    2    3    3    0    0 -0.58468752829E+02  0.15379247809E+02 -0.44322945237E+02  0.20939294274E+03  0.19551410352E+03 0.  0.
        -11    1    4    4    0    0 -0.25921543708E+02  0.73461581158E+02  0.48136052806E+02  0.91572975896E+02  0.51100000000E-03 0. -1.
     200002    1    4    4    0    0 -0.32547209121E+02 -0.58082333350E+02 -0.92458998043E+02  0.11781996685E+03  0.30000000000E+02 0. -1.
     200000    1    3    3    0    0 -0.16726210952E+03 -0.46648718848E+02 -0.37415187296E+02  0.53061531498E+03  0.50000000000E+03 0.  1.
    -200001    1    1    2    0    0  0.22573086235E+03  0.31269471039E+02 -0.53121246110E+03  0.90780993653E+03  0.70000000000E+03 0.  1.
<mgrwt>
<rscale>  0 0.15295739E+04</rscale>
<asrwt>0</asrwt>
<pdfrwt beam="1">  1        1 0.16148348E+00 0.15295739E+04</pdfrwt>
<pdfrwt beam="2">  1       -1 0.73919115E-01 0.15295739E+04</pdfrwt>
<totfact> 0.24694821E+01</totfact>
</mgrwt>
</event>
<event>
 8    1  0.3893101E-010  0.1750220E+04  0.7818608E-02  0.8733229E-01
          1   -1    0    0  501    0  0.00000000000E+00  0.00000000000E+00  0.16561283760E+04  0.16561283760E+04  0.50400000000E-02 0.  1.
         -1   -1    0    0    0  501 -0.00000000000E+00 -0.00000000000E+00 -0.46241433429E+03  0.46241433432E+03  0.50400000000E-02 0. -1.
     200001    2    1    2    0    0 -0.29869821121E+03 -0.12682090860E+03  0.10864783043E+04  0.13395666724E+04  0.71323179955E+03 0.  0.
    5000001    2    3    3    0    0 -0.66921319730E+02 -0.29766967803E+02  0.24980341344E+03  0.33300576127E+03  0.20766934359E+03 0.  0.
        -11    1    4    4    0    0 -0.13432999021E+03  0.12050621254E+02  0.14200541401E+03  0.19584509529E+03  0.51100000000E-03 0. -1.
     200002    1    4    4    0    0  0.67408670477E+02 -0.41817589057E+02  0.10779799943E+03  0.13716066598E+03  0.30000000000E+02 0. -1.
     200000    1    3    3    0    0 -0.23177689148E+03 -0.97053940793E+02  0.83667489084E+03  0.10065609111E+04  0.50000000000E+03 0.  1.
    -200001    1    1    2    0    0  0.29869821121E+03  0.12682090860E+03  0.10723573740E+03  0.77897603789E+03  0.70000000000E+03 0. -1.
<mgrwt>
<rscale>  0 0.17502200E+04</rscale>
<asrwt>0</asrwt>
<pdfrwt beam="1">  1        1 0.23658977E+00 0.17502200E+04</pdfrwt>
<pdfrwt beam="2">  1       -1 0.66059191E-01 0.17502200E+04</pdfrwt>
<totfact> 0.13593515E+01</totfact>
</mgrwt>
</event>
<event>
 8    1  0.3893101E-010  0.2791702E+04  0.7818608E-02  0.8305849E-01
          1   -1    0    0  501    0  0.00000000000E+00  0.00000000000E+00  0.85017720673E+03  0.85017720674E+03  0.50400000000E-02 0.  1.
         -1   -1    0    0    0  501 -0.00000000000E+00 -0.00000000000E+00 -0.22917582277E+04  0.22917582277E+04  0.50400000000E-02 0. -1.
     200001    2    1    2    0    0  0.80678108020E+03 -0.77012655991E+03 -0.19967260154E+03  0.13318726864E+04  0.70001791068E+03 0.  0.
    5000001    2    3    3    0    0  0.35740591109E+03 -0.17202538459E+03 -0.76539434496E+02  0.42367401023E+03  0.12770929366E+03 0.  0.
        -11    1    4    4    0    0  0.31203968216E+03 -0.17085946178E+03 -0.91343824758E+02  0.36729472260E+03  0.51100000000E-03 0. -1.
     200002    1    4    4    0    0  0.45366228925E+02 -0.11659228052E+01  0.14804390262E+02  0.56379287632E+02  0.30000000000E+02 0. -1.
     200000    1    3    3    0    0  0.44937516912E+03 -0.59810117532E+03 -0.12313316704E+03  0.90819867615E+03  0.50000000000E+03 0.  1.
    -200001    1    1    2    0    0 -0.80678108020E+03  0.77012655991E+03 -0.12419084194E+04  0.18100627480E+04  0.70000000000E+03 0. -1.
<mgrwt>
<rscale>  0 0.27917024E+04</rscale>
<asrwt>0</asrwt>
<pdfrwt beam="1">  1        1 0.12145389E+00 0.27917024E+04</pdfrwt>
<pdfrwt beam="2">  1       -1 0.32739403E+00 0.27917024E+04</pdfrwt>
<totfact> 0.43122141E-01</totfact>
</mgrwt>
</event>
<event>
 8    1  0.3893101E-010  0.1517042E+04  0.7818608E-02  0.8873199E-01
         -1   -1    0    0    0  501 -0.00000000000E+00  0.00000000000E+00  0.36468536988E+03  0.36468536991E+03  0.50400000000E-02 0. -1.
          1   -1    0    0  501    0  0.00000000000E+00 -0.00000000000E+00 -0.15776724859E+04  0.15776724860E+04  0.50400000000E-02 0.  1.
     200001    2    1    2    0    0 -0.26561119735E+03 -0.56233698544E+01 -0.44986596588E+03  0.87327655854E+03  0.69975112003E+03 0.  0.
    5000001    2    3    3    0    0 -0.15962821783E+03  0.88527323085E+02 -0.14069705650E+03  0.26855996421E+03  0.13787870686E+03 0.  0.
        -11    1    4    4    0    0  0.40145339176E+01  0.33889059230E+02 -0.73429516667E+02  0.80972086155E+02  0.51100000000E-03 0. -1.
     200002    1    4    4    0    0 -0.16364275175E+03  0.54638263855E+02 -0.67267539833E+02  0.18758787805E+03  0.30000000000E+02 0. -1.
     200000    1    3    3    0    0 -0.10598297951E+03 -0.94150692940E+02 -0.30916890938E+03  0.60471659433E+03  0.50000000000E+03 0. -1.
    -200001    1    1    2    0    0  0.26561119735E+03  0.56233698544E+01 -0.76312115019E+03  0.10690812973E+04  0.70000000000E+03 0.  1.
<mgrwt>
<rscale>  0 0.15170420E+04</rscale>
<asrwt>0</asrwt>
<pdfrwt beam="1">  1        1 0.22538178E+00 0.15170420E+04</pdfrwt>
<pdfrwt beam="2">  1       -1 0.52097911E-01 0.15170420E+04</pdfrwt>
<totfact> 0.24842871E+01</totfact>
</mgrwt>
</event>
<event>
 8    1  0.3893101E-010  0.2199767E+04  0.7818608E-02  0.8518525E-01
         -1   -1    0    0    0  501 -0.00000000000E+00  0.00000000000E+00  0.54552881367E+03  0.54552881370E+03  0.50400000000E-02 0.  1.
          1   -1    0    0  501    0  0.00000000000E+00 -0.00000000000E+00 -0.22175609837E+04  0.22175609837E+04  0.50400000000E-02 0. -1.
     200001    2    1    2    0    0  0.58276778287E+03 -0.14560607748E+03 -0.15894358499E+04  0.18370004007E+04  0.69817242328E+03 0.  0.
    5000001    2    3    3    0    0  0.10139742217E+03 -0.35329169322E+02 -0.28748874787E+03  0.35749214552E+03  0.18336102783E+03 0.  0.
        -11    1    4    4    0    0  0.25758445193E+02 -0.17063510948E+02  0.21373042519E+02  0.37569506936E+02  0.51100000000E-03 0. -1.
     200002    1    4    4    0    0  0.75638976977E+02 -0.18265658374E+02 -0.30886179039E+03  0.31992263858E+03  0.30000000000E+02 0. -1.
     200000    1    3    3    0    0  0.48137036070E+03 -0.11027690816E+03 -0.13019471020E+04  0.14795082552E+04  0.50000000000E+03 0. -1.
    -200001    1    1    2    0    0 -0.58276778287E+03  0.14560607748E+03 -0.82596320089E+02  0.92608939668E+03  0.70000000000E+03 0.  1.
<mgrwt>
<rscale>  0 0.21997667E+04</rscale>
<asrwt>0</asrwt>
<pdfrwt beam="1">  1        1 0.31679442E+00 0.21997667E+04</pdfrwt>
<pdfrwt beam="2">  1       -1 0.77932689E-01 0.21997667E+04</pdfrwt>
<totfact> 0.41023250E+00</totfact>
</mgrwt>
</event>
<event>
 8    1  0.3893101E-010  0.1864654E+04  0.7818608E-02  0.8672653E-01
          1   -1    0    0  501    0  0.00000000000E+00  0.00000000000E+00  0.12162495831E+04  0.12162495831E+04  0.50400000000E-02 0.  1.
         -1   -1    0    0    0  501 -0.00000000000E+00 -0.00000000000E+00 -0.71468332246E+03  0.71468332248E+03  0.50400000000E-02 0. -1.
     200001    2    1    2    0    0  0.30534212105E+03  0.32256931939E+03 -0.19070095297E+03  0.85087796636E+03  0.70024401710E+03 0.  0.
    5000001    2    3    3    0    0  0.54649842468E+02  0.17035165749E+03 -0.70426555232E+02  0.25886211701E+03  0.17333033044E+03 0.  0.
        -11    1    4    4    0    0  0.10168365423E+03  0.16376924135E+03 -0.50696256739E+02  0.19932395841E+03  0.51100000000E-03 0. -1.
     200002    1    4    4    0    0 -0.47033811759E+02  0.65824161420E+01 -0.19730298493E+02  0.59538158600E+02  0.30000000000E+02 0. -1.
     200000    1    3    3    0    0  0.25069227858E+03  0.15221766190E+03 -0.12027439774E+03  0.59201584935E+03  0.50000000000E+03 0.  1.
    -200001    1    1    2    0    0 -0.30534212105E+03 -0.32256931939E+03  0.69226721359E+03  0.10800549392E+04  0.70000000000E+03 0. -1.
<mgrwt>
<rscale>  0 0.18646536E+04</rscale>
<asrwt>0</asrwt>
<pdfrwt beam="1">  1        1 0.17374994E+00 0.18646536E+04</pdfrwt>
<pdfrwt beam="2">  1       -1 0.10209762E+00 0.18646536E+04</pdfrwt>
<totfact> 0.10317879E+01</totfact>
</mgrwt>
</event>
<event>
 8    1  0.3893101E-010  0.1730839E+04  0.7818608E-02  0.8743969E-01
         -1   -1    0    0    0  501 -0.00000000000E+00  0.00000000000E+00  0.34602962887E+03  0.34602962891E+03  0.50400000000E-02 0. -1.
          1   -1    0    0  501    0  0.00000000000E+00 -0.00000000000E+00 -0.21644118250E+04  0.21644118250E+04  0.50400000000E-02 0.  1.
     200001    2    1    2    0    0 -0.18204703709E+03  0.41703452570E+03 -0.12393076340E+04  0.14943773477E+04  0.70015807241E+03 0.  0.
    5000001    2    3    3    0    0  0.45433353195E+02  0.16062948731E+03 -0.17140928353E+03  0.26641246280E+03  0.11716840904E+03 0.  0.
        -11    1    4    4    0    0  0.93151536519E+01  0.13685556651E+03 -0.74407145570E+02  0.15605332898E+03  0.51100000000E-03 0. -1.
     200002    1    4    4    0    0  0.36118199543E+02  0.23773920799E+02 -0.97002137963E+02  0.11035913382E+03  0.30000000000E+02 0. -1.
     200000    1    3    3    0    0 -0.22748039029E+03  0.25640503839E+03 -0.10678983505E+04  0.12279648849E+04  0.50000000000E+03 0.  1.
    -200001    1    1    2    0    0  0.18204703709E+03 -0.41703452570E+03 -0.57907456208E+03  0.10160641061E+04  0.70000000000E+03 0. -1.
<mgrwt>
<rscale>  0 0.17308387E+04</rscale>
<asrwt>0</asrwt>
<pdfrwt beam="1">  1        1 0.30920168E+00 0.17308387E+04</pdfrwt>
<pdfrwt beam="2">  1       -1 0.49432805E-01 0.17308387E+04</pdfrwt>
<totfact> 0.11456383E+01</totfact>
</mgrwt>
</event>
<event>
 8    1  0.3893101E-010  0.2466388E+04  0.7818608E-02  0.8415059E-01
         -1   -1    0    0    0  501 -0.00000000000E+00  0.00000000000E+00  0.64842941209E+03  0.64842941211E+03  0.50400000000E-02 0. -1.
          1   -1    0    0  501    0  0.00000000000E+00 -0.00000000000E+00 -0.23453096802E+04  0.23453096802E+04  0.50400000000E-02 0.  1.
     200001    2    1    2    0    0 -0.64362612014E+03 -0.55786163098E+03 -0.17776055086E+03  0.11167231368E+04  0.70000540642E+03 0.  0.
    5000001    2    3    3    0    0 -0.17071085078E+03 -0.12597983152E+03 -0.55986285511E+02  0.29513947559E+03  0.19738220123E+03 0.  0.
        -11    1    4    4    0    0 -0.17698758068E+02 -0.13157640713E+03 -0.13583363971E+02  0.13345450433E+03  0.51100000000E-03 0. -1.
     200002    1    4    4    0    0 -0.15301209271E+03  0.55965756090E+01 -0.42402921540E+02  0.16168497126E+03  0.30000000000E+02 0. -1.
     200000    1    3    3    0    0 -0.47291526935E+03 -0.43188179946E+03 -0.12177426535E+03  0.82158366122E+03  0.50000000000E+03 0. -1.
    -200001    1    1    2    0    0  0.64362612014E+03  0.55786163098E+03 -0.15191197173E+04  0.18770159555E+04  0.70000000000E+03 0.  1.
<mgrwt>
<rscale>  0 0.24663883E+04</rscale>
<asrwt>0</asrwt>
<pdfrwt beam="1">  1        1 0.33504424E+00 0.24663883E+04</pdfrwt>
<pdfrwt beam="2">  1       -1 0.92632774E-01 0.24663883E+04</pdfrwt>
<totfact> 0.22891179E+00</totfact>
</mgrwt>
</event>
<event>
 8    1  0.3893101E-010  0.1559408E+04  0.7818608E-02  0.8845881E-01
         -1   -1    0    0    0  501 -0.00000000000E+00  0.00000000000E+00  0.19054155544E+03  0.19054155551E+03  0.50400000000E-02 0. -1.
          1   -1    0    0  501    0  0.00000000000E+00 -0.00000000000E+00 -0.31905820474E+04  0.31905820474E+04  0.50400000000E-02 0.  1.
     200001    2    1    2    0    0  0.34286598237E+03  0.14588349835E+02 -0.14818304205E+04  0.16744508977E+04  0.70013892314E+03 0.  0.
    5000001    2    3    3    0    0  0.14026803076E+03  0.92598187116E+02 -0.51161982471E+03  0.56159867705E+03  0.15933827009E+03 0.  0.
        -11    1    4    4    0    0  0.11603688912E+03  0.12397867216E+03 -0.30503657796E+03  0.34911686393E+03  0.51100000000E-03 0. -1.
     200002    1    4    4    0    0  0.24231141635E+02 -0.31380485044E+02 -0.20658324675E+03  0.21248181312E+03  0.30000000000E+02 0. -1.
     200000    1    3    3    0    0  0.20259795161E+03 -0.78009837281E+02 -0.97021059580E+03  0.11128522206E+04  0.50000000000E+03 0. -1.
    -200001    1    1    2    0    0 -0.34286598237E+03 -0.14588349835E+02 -0.15182100715E+04  0.17066727053E+04  0.70000000000E+03 0.  1.
<mgrwt>
<rscale>  0 0.15594082E+04</rscale>
<asrwt>0</asrwt>
<pdfrwt beam="1">  1        1 0.45579740E+00 0.15594082E+04</pdfrwt>
<pdfrwt beam="2">  1       -1 0.27220224E-01 0.15594082E+04</pdfrwt>
<totfact> 0.74567815E+00</totfact>
</mgrwt>
</event>
<event>
 8    1  0.3893101E-010  0.1500960E+04  0.7818608E-02  0.8883815E-01
         -1   -1    0    0    0  501 -0.00000000000E+00  0.00000000000E+00  0.39215250868E+03  0.39215250872E+03  0.50400000000E-02 0. -1.
          1   -1    0    0  501    0  0.00000000000E+00 -0.00000000000E+00 -0.14362282068E+04  0.14362282068E+04  0.50400000000E-02 0.  1.
     200001    2    1    2    0    0 -0.13663173775E+03 -0.16932168748E+03 -0.32608420826E+03  0.80229599918E+03  0.70000706697E+03 0.  0.
    5000001    2    3    3    0    0 -0.36337472368E+02 -0.24017043892E+02 -0.80632288947E+02  0.21798527378E+03  0.19778468917E+03 0.  0.
        -11    1    4    4    0    0  0.15537568534E+02  0.44616616986E+02  0.43353375362E+02  0.64121554120E+02  0.51100000000E-03 0. -1.
     200002    1    4    4    0    0 -0.51875040902E+02 -0.68633660878E+02 -0.12398566431E+03  0.15386371966E+03  0.30000000000E+02 0. -1.
     200000    1    3    3    0    0 -0.10029426538E+03 -0.14530464359E+03 -0.24545191931E+03  0.58431072539E+03  0.50000000000E+03 0. -1.
    -200001    1    1    2    0    0  0.13663173775E+03  0.16932168748E+03 -0.71799148987E+03  0.10260847164E+04  0.70000000000E+03 0. -1.
<mgrwt>
<rscale>  0 0.15009604E+04</rscale>
<asrwt>0</asrwt>
<pdfrwt beam="1">  1        1 0.20517545E+00 0.15009604E+04</pdfrwt>
<pdfrwt beam="2">  1       -1 0.56021788E-01 0.15009604E+04</pdfrwt>
<totfact> 0.26738574E+01</totfact>
</mgrwt>
</event>
<event>
 8    1  0.3893101E-010  0.1527802E+04  0.7818608E-02  0.8866173E-01
         -1   -1    0    0    0  501 -0.00000000000E+00  0.00000000000E+00  0.80816077561E+03  0.80816077562E+03  0.50400000000E-02 0. -1.
          1   -1    0    0  501    0  0.00000000000E+00 -0.00000000000E+00 -0.72206495188E+03  0.72206495190E+03  0.50400000000E-02 0.  1.
     200001    2    1    2    0    0 -0.36471316784E+02  0.26385951289E+03  0.20490701454E+03  0.77189328159E+03  0.69489593039E+03 0.  0.
    5000001    2    3    3    0    0 -0.70792083050E+01 -0.80985217156E+01  0.14664654712E+03  0.19898896961E+03  0.13407348358E+03 0.  0.
        -11    1    4    4    0    0 -0.38686766752E+02 -0.51577654450E+02  0.10955599082E+03  0.12711976827E+03  0.51100000000E-03 0. -1.
     200002    1    4    4    0    0  0.31607558447E+02  0.43479132734E+02  0.37090556298E+02  0.71869201337E+02  0.30000000000E+02 0. -1.
     200000    1    3    3    0    0 -0.29392108479E+02  0.27195803460E+03  0.58260467427E+02  0.57290431198E+03  0.50000000000E+03 0. -1.
    -200001    1    1    2    0    0  0.36471316784E+02 -0.26385951289E+03 -0.11881119082E+03  0.75833244593E+03  0.70000000000E+03 0.  1.
<mgrwt>
<rscale>  0 0.15278018E+04</rscale>
<asrwt>0</asrwt>
<pdfrwt beam="1">  1        1 0.10315214E+00 0.15278018E+04</pdfrwt>
<pdfrwt beam="2">  1       -1 0.11545154E+00 0.15278018E+04</pdfrwt>
<totfact> 0.19141263E+01</totfact>
</mgrwt>
</event>
<event>
 8    1  0.3893101E-010  0.1620461E+04  0.7818608E-02  0.8808076E-01
         -1   -1    0    0    0  501 -0.00000000000E+00  0.00000000000E+00  0.13540310809E+03  0.13540310818E+03  0.50400000000E-02 0. -1.
          1   -1    0    0  501    0  0.00000000000E+00 -0.00000000000E+00 -0.48482908710E+04  0.48482908710E+04  0.50400000000E-02 0.  1.
     200001    2    1    2    0    0 -0.18818388397E+03 -0.76810458112E+02 -0.34441150994E+04  0.35204451650E+04  0.70020876951E+03 0.  0.
    5000001    2    3    3    0    0 -0.85559352704E+01 -0.10945080985E+03 -0.97925118748E+03  0.99876205703E+03  0.16291124756E+03 0.  0.
        -11    1    4    4    0    0 -0.44321188877E+01 -0.72862832288E+02 -0.91969351719E+03  0.92258593181E+03  0.51100000000E-03 0. -1.
     200002    1    4    4    0    0 -0.41238163827E+01 -0.36587977566E+02 -0.59557670289E+02  0.76176125224E+02  0.30000000000E+02 0. -1.
     200000    1    3    3    0    0 -0.17962794870E+03  0.32640351742E+02 -0.24648639119E+04  0.25216831079E+04  0.50000000000E+03 0. -1.
    -200001    1    1    2    0    0  0.18818388397E+03  0.76810458112E+02 -0.12687726635E+04  0.14632488142E+04  0.70000000000E+03 0. -1.
<mgrwt>
<rscale>  0 0.16204612E+04</rscale>
<asrwt>0</asrwt>
<pdfrwt beam="1">  1        1 0.69261287E+00 0.16204612E+04</pdfrwt>
<pdfrwt beam="2">  1       -1 0.19343304E-01 0.16204612E+04</pdfrwt>
<totfact> 0.68235541E-01</totfact>
</mgrwt>
</event>
<event>
 8    1  0.3893101E-010  0.3102859E+04  0.7818608E-02  0.8214954E-01
         -1   -1    0    0    0  501 -0.00000000000E+00  0.00000000000E+00  0.16610150708E+04  0.16610150708E+04  0.50400000000E-02 0. -1.
          1   -1    0    0  501    0  0.00000000000E+00 -0.00000000000E+00 -0.14490734651E+04  0.14490734651E+04  0.50400000000E-02 0.  1.
     200001    2    1    2    0    0 -0.84190405953E+03  0.51999328849E+03  0.10764689017E+04  0.16212625182E+04  0.70036518403E+03 0.  0.
    5000001    2    3    3    0    0 -0.12641096923E+03  0.56294900844E+02  0.58860835208E+02  0.20264603231E+03  0.13583801930E+03 0.  0.
        -11    1    4    4    0    0 -0.45634471869E+02  0.14200518598E+02  0.89928361048E+02  0.10183943181E+03  0.51100000000E-03 0. -1.
     200002    1    4    4    0    0 -0.80776497358E+02  0.42094382246E+02 -0.31067525840E+02  0.10080660050E+03  0.30000000000E+02 0. -1.
     200000    1    3    3    0    0 -0.71549309030E+03  0.46369838764E+03  0.10176080665E+04  0.14186164859E+04  0.50000000000E+03 0. -1.
    -200001    1    1    2    0    0  0.84190405953E+03 -0.51999328849E+03 -0.86452729604E+03  0.14888260177E+04  0.70000000000E+03 0. -1.
<mgrwt>
<rscale>  0 0.31028586E+04</rscale>
<asrwt>0</asrwt>
<pdfrwt beam="1">  1        1 0.20701050E+00 0.31028586E+04</pdfrwt>
<pdfrwt beam="2">  1       -1 0.23728787E+00 0.31028586E+04</pdfrwt>
<totfact> 0.60309202E-01</totfact>
</mgrwt>
</event>
<event>
 8    1  0.3893101E-010  0.1523479E+04  0.7818608E-02  0.8868988E-01
          1   -1    0    0  501    0  0.00000000000E+00  0.00000000000E+00  0.10181849830E+04  0.10181849830E+04  0.50400000000E-02 0.  1.
         -1   -1    0    0    0  501 -0.00000000000E+00 -0.00000000000E+00 -0.56988348403E+03  0.56988348406E+03  0.50400000000E-02 0. -1.
     200001    2    1    2    0    0 -0.18517122166E+03  0.10618477095E+03  0.44439995234E+03  0.85623596647E+03  0.70006080145E+03 0.  0.
    5000001    2    3    3    0    0 -0.10065430013E+03 -0.46048380572E+02  0.13575995640E+03  0.24339284662E+03  0.16898985336E+03 0.  0.
        -11    1    4    4    0    0 -0.10422632043E+03  0.24323451603E+02  0.12734710777E+03  0.16634915697E+03  0.51100000000E-03 0. -1.
     200002    1    4    4    0    0  0.35720203012E+01 -0.70371832174E+02  0.84128486272E+01  0.77043689648E+02  0.30000000000E+02 0. -1.
     200000    1    3    3    0    0 -0.84516921529E+02  0.15223315152E+03  0.30863999594E+03  0.61284311985E+03  0.50000000000E+03 0.  1.
    -200001    1    1    2    0    0  0.18517122166E+03 -0.10618477095E+03  0.39015466562E+01  0.73183250063E+03  0.70000000000E+03 0. -1.
<mgrwt>
<rscale>  0 0.15234787E+04</rscale>
<asrwt>0</asrwt>
<pdfrwt beam="1">  1        1 0.14545500E+00 0.15234787E+04</pdfrwt>
<pdfrwt beam="2">  1       -1 0.81411927E-01 0.15234787E+04</pdfrwt>
<totfact> 0.24317758E+01</totfact>
</mgrwt>
</event>
<event>
 8    1  0.3893101E-010  0.1610817E+04  0.7818608E-02  0.8813930E-01
          1   -1    0    0  501    0  0.00000000000E+00  0.00000000000E+00  0.11521489548E+04  0.11521489548E+04  0.50400000000E-02 0. -1.
         -1   -1    0    0    0  501 -0.00000000000E+00 -0.00000000000E+00 -0.56302001637E+03  0.56302001640E+03  0.50400000000E-02 0.  1.
     200001    2    1    2    0    0  0.19002427208E+03 -0.15872040990E+02 -0.78008451077E+02  0.72955573970E+03  0.69986078132E+03 0.  0.
    5000001    2    3    3    0    0  0.77892957651E+02  0.70132945249E+01  0.43233412120E+02  0.20249145553E+03  0.18170625329E+03 0.  0.
        -11    1    4    4    0    0  0.96814369946E+01 -0.65496706993E+02  0.68735031257E+02  0.95436121943E+02  0.51100000000E-03 0. -1.
     200002    1    4    4    0    0  0.68211520656E+02  0.72510001518E+02 -0.25501619137E+02  0.10705533358E+03  0.30000000000E+02 0. -1.
     200000    1    3    3    0    0  0.11213131443E+03 -0.22885335515E+02 -0.12124186320E+03  0.52706428417E+03  0.50000000000E+03 0.  1.
    -200001    1    1    2    0    0 -0.19002427208E+03  0.15872040990E+02  0.66713738952E+03  0.98561323153E+03  0.70000000000E+03 0.  1.
<mgrwt>
<rscale>  0 0.16108171E+04</rscale>
<asrwt>0</asrwt>
<pdfrwt beam="1">  1        1 0.16459271E+00 0.16108171E+04</pdfrwt>
<pdfrwt beam="2">  1       -1 0.80431432E-01 0.16108171E+04</pdfrwt>
<totfact> 0.19816439E+01</totfact>
</mgrwt>
</event>
<event>
 8    1  0.3893101E-010  0.1908981E+04  0.7818608E-02  0.8650399E-01
         -1   -1    0    0    0  501 -0.00000000000E+00  0.00000000000E+00  0.43229764214E+03  0.43229764217E+03  0.50400000000E-02 0. -1.
          1   -1    0    0  501    0  0.00000000000E+00 -0.00000000000E+00 -0.21074638878E+04  0.21074638878E+04  0.50400000000E-02 0.  1.
     200001    2    1    2    0    0  0.51369072420E+02  0.32242775343E+03 -0.15829335157E+04  0.17618763750E+04  0.70137822045E+03 0.  0.
    5000001    2    3    3    0    0 -0.41751473232E+02  0.85246996273E+02 -0.43016336874E+03  0.47976672325E+03  0.19006669628E+03 0.  0.
        -11    1    4    4    0    0 -0.43170414161E+02 -0.93629643325E+01 -0.65234921785E+01  0.44653171336E+02  0.51100000000E-03 0. -1.
     200002    1    4    4    0    0  0.14189409295E+01  0.94609960606E+02 -0.42363987657E+03  0.43511355191E+03  0.30000000000E+02 0. -1.
     200000    1    3    3    0    0  0.93120545652E+02  0.23718075715E+03 -0.11527701469E+04  0.12821096518E+04  0.50000000000E+03 0.  1.
    -200001    1    1    2    0    0 -0.51369072420E+02 -0.32242775343E+03 -0.92232729995E+02  0.77788515493E+03  0.70000000000E+03 0. -1.
<mgrwt>
<rscale>  0 0.19089805E+04</rscale>
<asrwt>0</asrwt>
<pdfrwt beam="1">  1        1 0.30106626E+00 0.19089805E+04</pdfrwt>
<pdfrwt beam="2">  1       -1 0.61756807E-01 0.19089805E+04</pdfrwt>
<totfact> 0.79510001E+00</totfact>
</mgrwt>
</event>
<event>
 8    1  0.3893101E-010  0.1571860E+04  0.7818608E-02  0.8838024E-01
          1   -1    0    0  501    0  0.00000000000E+00  0.00000000000E+00  0.19351968789E+04  0.19351968789E+04  0.50400000000E-02 0. -1.
         -1   -1    0    0    0  501 -0.00000000000E+00 -0.00000000000E+00 -0.31918518918E+03  0.31918518922E+03  0.50400000000E-02 0.  1.
     200001    2    1    2    0    0 -0.24837157968E+03 -0.23201982179E+03  0.65241784702E+03  0.10158205101E+04  0.70051454115E+03 0.  0.
    5000001    2    3    3    0    0 -0.59035569963E+02 -0.47883148655E+02  0.10206854173E+03  0.22674586422E+03  0.18766380920E+03 0.  0.
        -11    1    4    4    0    0 -0.66881395549E+02 -0.19780733701E+02  0.14860644284E+03  0.16415929261E+03  0.51100000000E-03 0. -1.
     200002    1    4    4    0    0  0.78458255854E+01 -0.28102414954E+02 -0.46537901112E+02  0.62586571605E+02  0.30000000000E+02 0. -1.
     200000    1    3    3    0    0 -0.18933600972E+03 -0.18413667313E+03  0.55034930529E+03  0.78907464590E+03  0.50000000000E+03 0.  1.
    -200001    1    1    2    0    0  0.24837157968E+03  0.23201982179E+03  0.96359384267E+03  0.12385615580E+04  0.70000000000E+03 0. -1.
<mgrwt>
<rscale>  0 0.15718603E+04</rscale>
<asrwt>0</asrwt>
<pdfrwt beam="1">  1        1 0.27645669E+00 0.15718603E+04</pdfrwt>
<pdfrwt beam="2">  1       -1 0.45597885E-01 0.15718603E+04</pdfrwt>
<totfact> 0.18846411E+01</totfact>
</mgrwt>
</event>
<event>
 8    1  0.3893101E-010  0.1910944E+04  0.7818608E-02  0.8649428E-01
         -1   -1    0    0    0  501 -0.00000000000E+00  0.00000000000E+00  0.77111542545E+03  0.77111542546E+03  0.50400000000E-02 0. -1.
          1   -1    0    0  501    0  0.00000000000E+00 -0.00000000000E+00 -0.11839043894E+04  0.11839043894E+04  0.50400000000E-02 0.  1.
     200001    2    1    2    0    0  0.54625117948E+03  0.63993304181E+02 -0.56935710675E+03  0.10511398021E+04  0.69155034128E+03 0.  0.
    5000001    2    3    3    0    0  0.88986190582E+02  0.65789130792E+02  0.17703532706E+02  0.15462728717E+03  0.10653370838E+03 0.  0.
        -11    1    4    4    0    0  0.39537530159E+02  0.80938442017E+02 -0.60750369716E+01  0.90283740295E+02  0.51100000000E-03 0. -1.
     200002    1    4    4    0    0  0.49448660423E+02 -0.15149311226E+02  0.23778569677E+02  0.64343546873E+02  0.30000000000E+02 0. -1.
     200000    1    3    3    0    0  0.45726498890E+03 -0.17958266112E+01 -0.58706063945E+03  0.89651251495E+03  0.50000000000E+03 0. -1.
    -200001    1    1    2    0    0 -0.54625117948E+03 -0.63993304181E+02  0.15656814282E+03  0.90388001273E+03  0.70000000000E+03 0. -1.
<mgrwt>
<rscale>  0 0.19109442E+04</rscale>
<asrwt>0</asrwt>
<pdfrwt beam="1">  1        1 0.16912920E+00 0.19109442E+04</pdfrwt>
<pdfrwt beam="2">  1       -1 0.11015935E+00 0.19109442E+04</pdfrwt>
<totfact> 0.90631441E+00</totfact>
</mgrwt>
</event>
<event>
 8    1  0.3893101E-010  0.2204401E+04  0.7818608E-02  0.8516599E-01
          1   -1    0    0  501    0  0.00000000000E+00  0.00000000000E+00  0.23402861103E+04  0.23402861103E+04  0.50400000000E-02 0.  1.
         -1   -1    0    0    0  501 -0.00000000000E+00 -0.00000000000E+00 -0.51910151696E+03  0.51910151698E+03  0.50400000000E-02 0. -1.
     200001    2    1    2    0    0 -0.60490854144E+03 -0.49681037458E+03  0.47665289435E+03  0.11533687583E+04  0.70023326049E+03 0.  0.
    5000001    2    3    3    0    0 -0.16186923396E+03 -0.27522025018E+03  0.19824566198E+03  0.39646942664E+03  0.12624907428E+03 0.  0.
        -11    1    4    4    0    0  0.63246570723E+01 -0.37091910549E+02  0.63702081315E+02  0.73984905754E+02  0.51100000000E-03 0. -1.
     200002    1    4    4    0    0 -0.16819389103E+03 -0.23812833963E+03  0.13454358067E+03  0.32248452089E+03  0.30000000000E+02 0. -1.
     200000    1    3    3    0    0 -0.44303930748E+03 -0.22159012440E+03  0.27840723236E+03  0.75689933164E+03  0.50000000000E+03 0. -1.
    -200001    1    1    2    0    0  0.60490854144E+03  0.49681037458E+03  0.13445316990E+04  0.17060188690E+04  0.70000000000E+03 0.  1.
<mgrwt>
<rscale>  0 0.22044011E+04</rscale>
<asrwt>0</asrwt>
<pdfrwt beam="1">  1        1 0.33432659E+00 0.22044011E+04</pdfrwt>
<pdfrwt beam="2">  1       -1 0.74157360E-01 0.22044011E+04</pdfrwt>
<totfact> 0.38074187E+00</totfact>
</mgrwt>
</event>
<event>
 8    1  0.3893101E-010  0.1662971E+04  0.7818608E-02  0.8782770E-01
          1   -1    0    0  501    0  0.00000000000E+00  0.00000000000E+00  0.20259535771E+04  0.20259535771E+04  0.50400000000E-02 0.  1.
         -1   -1    0    0    0  501 -0.00000000000E+00 -0.00000000000E+00 -0.34125576347E+03  0.34125576350E+03  0.50400000000E-02 0. -1.
     200001    2    1    2    0    0  0.24745433143E+03  0.18106832344E+03  0.37688703019E+03  0.85248546175E+03  0.70047715528E+03 0.  0.
    5000001    2    3    3    0    0  0.73839560800E+02  0.10289384687E+03  0.11435356580E+03  0.25651804881E+03  0.19153419248E+03 0.  0.
        -11    1    4    4    0    0  0.16418611221E+02  0.25814247650E+01 -0.50382875327E+02  0.53053451111E+02  0.51100000000E-03 0. -1.
     200002    1    4    4    0    0  0.57420949578E+02  0.10031242211E+03  0.16473644113E+03  0.20346459770E+03  0.30000000000E+02 0. -1.
     200000    1    3    3    0    0  0.17361477063E+03  0.78174476562E+02  0.26253346439E+03  0.59596741295E+03  0.50000000000E+03 0. -1.
    -200001    1    1    2    0    0 -0.24745433143E+03 -0.18106832344E+03  0.13078107834E+04  0.15147238789E+04  0.70000000000E+03 0.  1.
<mgrwt>
<rscale>  0 0.16629712E+04</rscale>
<asrwt>0</asrwt>
<pdfrwt beam="1">  1        1 0.28942194E+00 0.16629712E+04</pdfrwt>
<pdfrwt beam="2">  1       -1 0.48750823E-01 0.16629712E+04</pdfrwt>
<totfact> 0.14458368E+01</totfact>
</mgrwt>
</event>
<event>
 8    1  0.3893101E-010  0.1419145E+04  0.7818608E-02  0.8940076E-01
          1   -1    0    0  501    0  0.00000000000E+00  0.00000000000E+00  0.66907165234E+03  0.66907165236E+03  0.50400000000E-02 0.  1.
         -1   -1    0    0    0  501 -0.00000000000E+00 -0.00000000000E+00 -0.75252451470E+03  0.75252451472E+03  0.50400000000E-02 0. -1.
     200001    2    1    2    0    0  0.26668525542E+02  0.12225299046E+02 -0.15338979271E+03  0.71749969470E+03  0.70029759045E+03 0.  0.
    5000001    2    3    3    0    0 -0.45110780543E+02 -0.72069519740E+02 -0.18746958512E+02  0.18798427655E+03  0.16660624712E+03 0.  0.
        -11    1    4    4    0    0 -0.14892346642E+02 -0.11529982213E+03  0.17098067437E+02  0.11750819070E+03  0.51100000000E-03 0. -1.
     200002    1    4    4    0    0 -0.30218433901E+02  0.43230302387E+02 -0.35845025949E+02  0.70476085853E+02  0.30000000000E+02 0. -1.
     200000    1    3    3    0    0  0.71779306084E+02  0.84294818786E+02 -0.13464283420E+03  0.52951541815E+03  0.50000000000E+03 0. -1.
    -200001    1    1    2    0    0 -0.26668525542E+02 -0.12225299046E+02  0.69936930351E+02  0.70409647238E+03  0.70000000000E+03 0.  1.
<mgrwt>
<rscale>  0 0.14191446E+04</rscale>
<asrwt>0</asrwt>
<pdfrwt beam="1">  1        1 0.95581665E-01 0.14191446E+04</pdfrwt>
<pdfrwt beam="2">  1       -1 0.10750350E+00 0.14191446E+04</pdfrwt>
<totfact> 0.25602955E+01</totfact>
</mgrwt>
</event>
<event>
 8    1  0.3893101E-010  0.1472441E+04  0.7818608E-02  0.8902989E-01
          1   -1    0    0  501    0  0.00000000000E+00  0.00000000000E+00  0.14025323172E+04  0.14025323172E+04  0.50400000000E-02 0.  1.
         -1   -1    0    0    0  501 -0.00000000000E+00 -0.00000000000E+00 -0.38645873261E+03  0.38645873264E+03  0.50400000000E-02 0. -1.
     200001    2    1    2    0    0 -0.36435028264E+02 -0.22567200265E+03  0.51020247567E+03  0.89559251452E+03  0.69965993297E+03 0.  0.
    5000001    2    3    3    0    0 -0.10113845601E+02 -0.29010236636E+02  0.78777985355E+02  0.20603051896E+03  0.18787953604E+03 0.  0.
        -11    1    4    4    0    0 -0.62565349228E+02 -0.60795261900E+02 -0.16530833135E+02  0.88790513220E+02  0.51100000000E-03 0. -1.
     200002    1    4    4    0    0  0.52451503628E+02  0.31785025264E+02  0.95308818491E+02  0.11724000574E+03  0.30000000000E+02 0. -1.
     200000    1    3    3    0    0 -0.26321182664E+02 -0.19666176602E+03  0.43142449032E+03  0.68956199556E+03  0.50000000000E+03 0. -1.
    -200001    1    1    2    0    0  0.36435028264E+02  0.22567200265E+03  0.50587110889E+03  0.89339853530E+03  0.70000000000E+03 0.  1.
<mgrwt>
<rscale>  0 0.14724413E+04</rscale>
<asrwt>0</asrwt>
<pdfrwt beam="1">  1        1 0.20036176E+00 0.14724413E+04</pdfrwt>
<pdfrwt beam="2">  1       -1 0.55208391E-01 0.14724413E+04</pdfrwt>
<totfact> 0.29025051E+01</totfact>
</mgrwt>
</event>
<event>
 8    1  0.3893101E-010  0.1668290E+04  0.7818608E-02  0.8779659E-01
         -1   -1    0    0    0  501 -0.00000000000E+00  0.00000000000E+00  0.50729056256E+04  0.50729056256E+04  0.50400000000E-02 0. -1.
          1   -1    0    0  501    0  0.00000000000E+00 -0.00000000000E+00 -0.13715957980E+03  0.13715957989E+03  0.50400000000E-02 0.  1.
     200001    2    1    2    0    0 -0.14030563576E+02 -0.33081778609E+03  0.34346494190E+04  0.35210038249E+04  0.70072393954E+03 0.  0.
    5000001    2    3    3    0    0 -0.23625049073E+02 -0.14463053977E+03  0.11781865524E+04  0.12023010813E+04  0.18954736066E+03 0.  0.
        -11    1    4    4    0    0  0.10699508255E+02 -0.18001623618E+03  0.94728012669E+03  0.96429246766E+03  0.51100000000E-03 0. -1.
     200002    1    4    4    0    0 -0.34324557328E+02  0.35385696414E+02  0.23090642572E+03  0.23800861368E+03  0.30000000000E+02 0. -1.
     200000    1    3    3    0    0  0.95944854970E+01 -0.18618724632E+03  0.22564628666E+04  0.23187027436E+04  0.50000000000E+03 0. -1.
    -200001    1    1    2    0    0  0.14030563576E+02  0.33081778609E+03  0.15010966268E+04  0.16890613806E+04  0.70000000000E+03 0.  1.
<mgrwt>
<rscale>  0 0.16682897E+04</rscale>
<asrwt>0</asrwt>
<pdfrwt beam="1">  1        1 0.19594227E-01 0.16682897E+04</pdfrwt>
<pdfrwt beam="2">  1       -1 0.72470075E+00 0.16682897E+04</pdfrwt>
<totfact> 0.41836300E-02</totfact>
</mgrwt>
</event>
<event>
 8    1  0.3893101E-010  0.1778186E+04  0.7818608E-02  0.8717987E-01
         -1   -1    0    0    0  501 -0.00000000000E+00  0.00000000000E+00  0.34752969191E+03  0.34752969195E+03  0.50400000000E-02 0. -1.
          1   -1    0    0  501    0  0.00000000000E+00 -0.00000000000E+00 -0.22745858942E+04  0.22745858942E+04  0.50400000000E-02 0.  1.
     200001    2    1    2    0    0 -0.23714420572E+03 -0.43563184605E+03 -0.61652461562E+03  0.10557486051E+04  0.69892062208E+03 0.  0.
    5000001    2    3    3    0    0 -0.61799792242E+02 -0.18434377468E+03 -0.18357126605E+03  0.32681790811E+03  0.18790873784E+03 0.  0.
        -11    1    4    4    0    0 -0.32873313168E+02 -0.12927272025E+03 -0.29236469571E+01  0.13341903399E+03  0.51100000000E-03 0. -1.
     200002    1    4    4    0    0 -0.28926479074E+02 -0.55071054436E+02 -0.18064761909E+03  0.19339887412E+03  0.30000000000E+02 0. -1.
     200000    1    3    3    0    0 -0.17534441348E+03 -0.25128807136E+03 -0.43295334957E+03  0.72893069702E+03  0.50000000000E+03 0. -1.
    -200001    1    1    2    0    0  0.23714420572E+03  0.43563184605E+03 -0.13105315867E+04  0.15663669810E+04  0.70000000000E+03 0.  1.
<mgrwt>
<rscale>  0 0.17781857E+04</rscale>
<asrwt>0</asrwt>
<pdfrwt beam="1">  1        1 0.32494083E+00 0.17781857E+04</pdfrwt>
<pdfrwt beam="2">  1       -1 0.49647100E-01 0.17781857E+04</pdfrwt>
<totfact> 0.96450243E+00</totfact>
</mgrwt>
</event>
<event>
 8    1  0.3893101E-010  0.2229636E+04  0.7818608E-02  0.8506193E-01
         -1   -1    0    0    0  501 -0.00000000000E+00  0.00000000000E+00  0.18357386644E+04  0.18357386644E+04  0.50400000000E-02 0. -1.
          1   -1    0    0  501    0  0.00000000000E+00 -0.00000000000E+00 -0.67701332301E+03  0.67701332303E+03  0.50400000000E-02 0.  1.
     200001    2    1    2    0    0 -0.30121252355E+03  0.59859815645E+03  0.12002431835E+04  0.15428177276E+04  0.70046706106E+03 0.  0.
    5000001    2    3    3    0    0 -0.91359050314E+02  0.93876501088E+02  0.33280660960E+03  0.40210363569E+03  0.18376022667E+03 0.  0.
        -11    1    4    4    0    0  0.25669715008E+02  0.35404372659E+01  0.19832439746E+03  0.20001008873E+03  0.51100000000E-03 0. -1.
     200002    1    4    4    0    0 -0.11702876532E+03  0.90336063822E+02  0.13448221214E+03  0.20209354696E+03  0.30000000000E+02 0. -1.
     200000    1    3    3    0    0 -0.20985347323E+03  0.50472165536E+03  0.86743657394E+03  0.11407140919E+04  0.50000000000E+03 0. -1.
    -200001    1    1    2    0    0  0.30121252355E+03 -0.59859815645E+03 -0.41517842147E+02  0.96993425987E+03  0.70000000000E+03 0.  1.
<mgrwt>
<rscale>  0 0.22296363E+04</rscale>
<asrwt>0</asrwt>
<pdfrwt beam="1">  1        1 0.96716192E-01 0.22296363E+04</pdfrwt>
<pdfrwt beam="2">  1       -1 0.26224837E+00 0.22296363E+04</pdfrwt>
<totfact> 0.16962411E+00</totfact>
</mgrwt>
</event>
<event>
 8    1  0.3893101E-010  0.1742308E+04  0.7818608E-02  0.8737596E-01
         -1   -1    0    0    0  501 -0.00000000000E+00  0.00000000000E+00  0.48859011272E+03  0.48859011275E+03  0.50400000000E-02 0. -1.
          1   -1    0    0  501    0  0.00000000000E+00 -0.00000000000E+00 -0.15532628611E+04  0.15532628612E+04  0.50400000000E-02 0.  1.
     200001    2    1    2    0    0 -0.27759191615E+03 -0.53574454932E+02 -0.10402800404E+04  0.12865235767E+04  0.70216298438E+03 0.  0.
    5000001    2    3    3    0    0 -0.96216325395E+02 -0.74481963675E+02 -0.28920692170E+03  0.36595578528E+03  0.18835564507E+03 0.  0.
        -11    1    4    4    0    0  0.14802204806E+02 -0.10217683169E+03 -0.10673706880E+03  0.14849919885E+03  0.51100000000E-03 0. -1.
     200002    1    4    4    0    0 -0.11101853020E+03  0.27694868018E+02 -0.18246985290E+03  0.21745658643E+03  0.30000000000E+02 0. -1.
     200000    1    3    3    0    0 -0.18137559075E+03  0.20907508744E+02 -0.75107311873E+03  0.92056779138E+03  0.50000000000E+03 0.  1.
    -200001    1    1    2    0    0  0.27759191615E+03  0.53574454932E+02 -0.24392707986E+02  0.75532939724E+03  0.70000000000E+03 0. -1.
<mgrwt>
<rscale>  0 0.17423075E+04</rscale>
<asrwt>0</asrwt>
<pdfrwt beam="1">  1        1 0.22189469E+00 0.17423075E+04</pdfrwt>
<pdfrwt beam="2">  1       -1 0.69798588E-01 0.17423075E+04</pdfrwt>
<totfact> 0.14164749E+01</totfact>
</mgrwt>
</event>
<event>
 8    1  0.3893101E-010  0.1687991E+04  0.7818608E-02  0.8768244E-01
         -1   -1    0    0    0  501 -0.00000000000E+00  0.00000000000E+00  0.57257308776E+03  0.57257308779E+03  0.50400000000E-02 0. -1.
          1   -1    0    0  501    0  0.00000000000E+00 -0.00000000000E+00 -0.12440822942E+04  0.12440822942E+04  0.50400000000E-02 0.  1.
     200001    2    1    2    0    0  0.37134404481E+02 -0.41346000443E+03 -0.57625163712E+03  0.99726405680E+03  0.70010107158E+03 0.  0.
    5000001    2    3    3    0    0  0.92086040912E+02 -0.45896427906E+02 -0.39638476712E+02  0.17502543629E+03  0.13592782454E+03 0.  0.
        -11    1    4    4    0    0  0.95922796818E+02 -0.71490462547E+02 -0.93269927767E+00  0.11963669635E+03  0.51100000000E-03 0. -1.
     200002    1    4    4    0    0 -0.38367559063E+01  0.25594034641E+02 -0.38705777435E+02  0.55388739938E+02  0.30000000000E+02 0. -1.
     200000    1    3    3    0    0 -0.54951636431E+02 -0.36756357653E+03 -0.53661316041E+03  0.82223862051E+03  0.50000000000E+03 0. -1.
    -200001    1    1    2    0    0 -0.37134404481E+02  0.41346000443E+03 -0.95257569285E+02  0.81939132517E+03  0.70000000000E+03 0. -1.
<mgrwt>
<rscale>  0 0.16879906E+04</rscale>
<asrwt>0</asrwt>
<pdfrwt beam="1">  1        1 0.17772604E+00 0.16879906E+04</pdfrwt>
<pdfrwt beam="2">  1       -1 0.81796156E-01 0.16879906E+04</pdfrwt>
<totfact> 0.16389372E+01</totfact>
</mgrwt>
</event>
<event>
 8    1  0.3893101E-010  0.3031559E+04  0.7818608E-02  0.8234776E-01
          1   -1    0    0  501    0  0.00000000000E+00  0.00000000000E+00  0.24270436584E+04  0.24270436584E+04  0.50400000000E-02 0.  1.
         -1   -1    0    0    0  501 -0.00000000000E+00 -0.00000000000E+00 -0.94666115206E+03  0.94666115207E+03  0.50400000000E-02 0. -1.
     200001    2    1    2    0    0 -0.70675124554E+03  0.19431470045E+03 -0.51421284232E+03  0.11363702064E+04  0.69976201154E+03 0.  0.
    5000001    2    3    3    0    0 -0.11791128543E+03  0.13969240650E+03 -0.10893964270E+03  0.26232074554E+03  0.15338607539E+03 0.  0.
        -11    1    4    4    0    0  0.33340276625E+02  0.18022335696E+02 -0.37490678464E+02  0.53309751466E+02  0.51100000000E-03 0. -1.
     200002    1    4    4    0    0 -0.15125156205E+03  0.12167007080E+03 -0.71448964241E+02  0.20901099407E+03  0.30000000000E+02 0. -1.
     200000    1    3    3    0    0 -0.58883996012E+03  0.54622293956E+02 -0.40527319962E+03  0.87404946082E+03  0.50000000000E+03 0. -1.
    -200001    1    1    2    0    0  0.70675124554E+03 -0.19431470045E+03  0.19945953487E+04  0.22373346041E+04  0.70000000000E+03 0.  1.
<mgrwt>
<rscale>  0 0.30315593E+04</rscale>
<asrwt>0</asrwt>
<pdfrwt beam="1">  1        1 0.34672053E+00 0.30315593E+04</pdfrwt>
<pdfrwt beam="2">  1       -1 0.13523731E+00 0.30315593E+04</pdfrwt>
<totfact> 0.78492628E-01</totfact>
</mgrwt>
</event>
<event>
 8    1  0.3893101E-010  0.1475234E+04  0.7818608E-02  0.8901091E-01
          1   -1    0    0  501    0  0.00000000000E+00  0.00000000000E+00  0.65710806429E+03  0.65710806431E+03  0.50400000000E-02 0.  1.
         -1   -1    0    0    0  501 -0.00000000000E+00 -0.00000000000E+00 -0.82798981324E+03  0.82798981326E+03  0.50400000000E-02 0. -1.
     200001    2    1    2    0    0  0.99578473229E+02 -0.18073281172E+03 -0.19203373649E+03  0.75501046626E+03  0.70041675212E+03 0.  0.
    5000001    2    3    3    0    0 -0.41784645067E+02 -0.30215796996E+02 -0.12962929507E+03  0.21046183001E+03  0.15758006472E+03 0.  0.
        -11    1    4    4    0    0  0.26263599994E+02 -0.32516147876E+02 -0.12947894801E+03  0.13605834975E+03  0.51100000000E-03 0. -1.
     200002    1    4    4    0    0 -0.68048245061E+02  0.23003508795E+01 -0.15034705798E+00  0.74403480257E+02  0.30000000000E+02 0. -1.
     200000    1    3    3    0    0  0.14136311830E+03 -0.15051701473E+03 -0.62404441422E+02  0.54454863625E+03  0.50000000000E+03 0. -1.
    -200001    1    1    2    0    0 -0.99578473229E+02  0.18073281172E+03  0.21151987542E+02  0.73008741130E+03  0.70000000000E+03 0. -1.
<mgrwt>
<rscale>  0 0.14752339E+04</rscale>
<asrwt>0</asrwt>
<pdfrwt beam="1">  1        1 0.93872580E-01 0.14752339E+04</pdfrwt>
<pdfrwt beam="2">  1       -1 0.11828426E+00 0.14752339E+04</pdfrwt>
<totfact> 0.20833039E+01</totfact>
</mgrwt>
</event>
<event>
 8    1  0.3893101E-010  0.2225452E+04  0.7818608E-02  0.8507908E-01
          1   -1    0    0  501    0  0.00000000000E+00  0.00000000000E+00  0.13231912533E+04  0.13231912533E+04  0.50400000000E-02 0.  1.
         -1   -1    0    0    0  501 -0.00000000000E+00 -0.00000000000E+00 -0.93573719813E+03  0.93573719814E+03  0.50400000000E-02 0. -1.
     200001    2    1    2    0    0  0.25695322393E+03  0.58944097127E+03  0.78061622164E+03  0.12303167138E+04  0.70060824486E+03 0.  0.
    5000001    2    3    3    0    0  0.69714789946E+02  0.15153370619E+03  0.15666118214E+03  0.29964980487E+03  0.19345455157E+03 0.  0.
        -11    1    4    4    0    0  0.11269205934E+03  0.11709102842E+03  0.40253035670E+02  0.16742197005E+03  0.51100000000E-03 0. -1.
     200002    1    4    4    0    0 -0.42977269394E+02  0.34442677764E+02  0.11640814647E+03  0.13222783482E+03  0.30000000000E+02 0. -1.
     200000    1    3    3    0    0  0.18723843398E+03  0.43790726509E+03  0.62395503949E+03  0.93066690888E+03  0.50000000000E+03 0.  1.
    -200001    1    1    2    0    0 -0.25695322393E+03 -0.58944097127E+03 -0.39316216643E+03  0.10286117377E+04  0.70000000000E+03 0. -1.
<mgrwt>
<rscale>  0 0.22254521E+04</rscale>
<asrwt>0</asrwt>
<pdfrwt beam="1">  1        1 0.18902732E+00 0.22254521E+04</pdfrwt>
<pdfrwt beam="2">  1       -1 0.13367674E+00 0.22254521E+04</pdfrwt>
<totfact> 0.44001150E+00</totfact>
</mgrwt>
</event>
<event>
 8    1  0.3893101E-010  0.1641902E+04  0.7818608E-02  0.8795212E-01
         -1   -1    0    0    0  501 -0.00000000000E+00  0.00000000000E+00  0.87094579252E+03  0.87094579254E+03  0.50400000000E-02 0. -1.
          1   -1    0    0  501    0  0.00000000000E+00 -0.00000000000E+00 -0.77382565571E+03  0.77382565573E+03  0.50400000000E-02 0.  1.
     200001    2    1    2    0    0  0.95272859592E+02  0.40610866551E+03 -0.50709644748E+02  0.81660793162E+03  0.70019702937E+03 0.  0.
    5000001    2    3    3    0    0  0.37953744666E+02 -0.32438426951E+01  0.10084774535E+03  0.15040631094E+03  0.10488460983E+03 0.  0.
        -11    1    4    4    0    0  0.46977724218E+02  0.34938614650E+02  0.73444119656E+02  0.93923650262E+02  0.51100000000E-03 0. -1.
     200002    1    4    4    0    0 -0.90239795514E+01 -0.38182457345E+02  0.27403625696E+02  0.56482660677E+02  0.30000000000E+02 0. -1.
     200000    1    3    3    0    0  0.57319114926E+02  0.40935250821E+03 -0.15155739010E+03  0.66620162069E+03  0.50000000000E+03 0.  1.
    -200001    1    1    2    0    0 -0.95272859592E+02 -0.40610866551E+03  0.14782978156E+03  0.82816351664E+03  0.70000000000E+03 0.  1.
<mgrwt>
<rscale>  0 0.16419016E+04</rscale>
<asrwt>0</asrwt>
<pdfrwt beam="1">  1        1 0.11054652E+00 0.16419016E+04</pdfrwt>
<pdfrwt beam="2">  1       -1 0.12442083E+00 0.16419016E+04</pdfrwt>
<totfact> 0.14218410E+01</totfact>
</mgrwt>
</event>
<event>
 8    1  0.3893101E-010  0.3404840E+04  0.7818608E-02  0.8136719E-01
         -1   -1    0    0    0  501 -0.00000000000E+00  0.00000000000E+00  0.37412591236E+04  0.37412591236E+04  0.50400000000E-02 0. -1.
          1   -1    0    0  501    0  0.00000000000E+00 -0.00000000000E+00 -0.77466817496E+03  0.77466817498E+03  0.50400000000E-02 0.  1.
     200001    2    1    2    0    0 -0.14928114425E+04 -0.42411605256E+03  0.15056588110E+04  0.22725630527E+04  0.69940971155E+03 0.  0.
    5000001    2    3    3    0    0 -0.33604918854E+03 -0.13838841555E+03  0.45192022607E+03  0.60519860544E+03  0.17306949648E+03 0.  0.
        -11    1    4    4    0    0 -0.19131146453E+03 -0.10798831230E+03  0.37789832225E+03  0.43711405149E+03  0.51100000000E-03 0. -1.
     200002    1    4    4    0    0 -0.14473772401E+03 -0.30400103256E+02  0.74021903825E+02  0.16808455395E+03  0.30000000000E+02 0. -1.
     200000    1    3    3    0    0 -0.11567622539E+04 -0.28572763701E+03  0.10537385849E+04  0.16673644473E+04  0.50000000000E+03 0. -1.
    -200001    1    1    2    0    0  0.14928114425E+04  0.42411605256E+03  0.14609321377E+04  0.22433642459E+04  0.70000000000E+03 0.  1.
<mgrwt>
<rscale>  0 0.34048403E+04</rscale>
<asrwt>0</asrwt>
<pdfrwt beam="1">  1        1 0.11066689E+00 0.34048403E+04</pdfrwt>
<pdfrwt beam="2">  1       -1 0.53446557E+00 0.34048403E+04</pdfrwt>
<totfact> 0.19773470E-02</totfact>
</mgrwt>
</event>
<event>
 8    1  0.3893101E-010  0.1480704E+04  0.7818608E-02  0.8897387E-01
          1   -1    0    0  501    0  0.00000000000E+00  0.00000000000E+00  0.17297465763E+04  0.17297465763E+04  0.50400000000E-02 0.  1.
         -1   -1    0    0    0  501 -0.00000000000E+00 -0.00000000000E+00 -0.31687942550E+03  0.31687942554E+03  0.50400000000E-02 0. -1.
     200001    2    1    2    0    0 -0.15307015860E+03  0.18460044687E+03  0.67190234252E+03  0.99946954478E+03  0.69998486742E+03 0.  0.
    5000001    2    3    3    0    0  0.10104174083E+02  0.40932052705E+02  0.12145449849E+03  0.22470551662E+03  0.18429282874E+03 0.  0.
        -11    1    4    4    0    0  0.75463870085E+02  0.77656063075E+02  0.71218263604E+02  0.12960440151E+03  0.51100000000E-03 0. -1.
     200002    1    4    4    0    0 -0.65359696002E+02 -0.36724010370E+02  0.50236234882E+02  0.95101115105E+02  0.30000000000E+02 0. -1.
     200000    1    3    3    0    0 -0.16317433268E+03  0.14366839417E+03  0.55044784403E+03  0.77476402816E+03  0.50000000000E+03 0.  1.
    -200001    1    1    2    0    0  0.15307015860E+03 -0.18460044687E+03  0.74096480824E+03  0.10471564570E+04  0.70000000000E+03 0. -1.
<mgrwt>
<rscale>  0 0.14807040E+04</rscale>
<asrwt>0</asrwt>
<pdfrwt beam="1">  1        1 0.24710665E+00 0.14807040E+04</pdfrwt>
<pdfrwt beam="2">  1       -1 0.45268489E-01 0.14807040E+04</pdfrwt>
<totfact> 0.25968119E+01</totfact>
</mgrwt>
</event>
<event>
 8    1  0.3893101E-010  0.1689621E+04  0.7818608E-02  0.8767306E-01
         -1   -1    0    0    0  501 -0.00000000000E+00  0.00000000000E+00  0.29704735312E+03  0.29704735317E+03  0.50400000000E-02 0. -1.
          1   -1    0    0  501    0  0.00000000000E+00 -0.00000000000E+00 -0.24026627114E+04  0.24026627114E+04  0.50400000000E-02 0.  1.
     200001    2    1    2    0    0  0.44730921638E+03 -0.10913963320E+03 -0.87942968419E+03  0.12146079462E+04  0.69991349393E+03 0.  0.
    5000001    2    3    3    0    0  0.12258664115E+03 -0.42683557443E+01 -0.28432905624E+03  0.36573369576E+03  0.19460837738E+03 0.  0.
        -11    1    4    4    0    0 -0.27421969345E+02 -0.59702566778E+02 -0.10232148592E+03  0.12159789210E+03  0.51100000000E-03 0. -1.
     200002    1    4    4    0    0  0.15000861050E+03  0.55434211034E+02 -0.18200757032E+03  0.24413580366E+03  0.30000000000E+02 0. -1.
     200000    1    3    3    0    0  0.32472257523E+03 -0.10487127745E+03 -0.59510062795E+03  0.84887425045E+03  0.50000000000E+03 0. -1.
    -200001    1    1    2    0    0 -0.44730921638E+03  0.10913963320E+03 -0.12261856741E+04  0.14851021183E+04  0.70000000000E+03 0. -1.
<mgrwt>
<rscale>  0 0.16896208E+04</rscale>
<asrwt>0</asrwt>
<pdfrwt beam="1">  1        1 0.34323752E+00 0.16896208E+04</pdfrwt>
<pdfrwt beam="2">  1       -1 0.42435338E-01 0.16896208E+04</pdfrwt>
<totfact> 0.10824736E+01</totfact>
</mgrwt>
</event>
<event>
 8    1  0.3893101E-010  0.1633929E+04  0.7818608E-02  0.8799971E-01
         -1   -1    0    0    0  501 -0.00000000000E+00  0.00000000000E+00  0.73573186820E+03  0.73573186822E+03  0.50400000000E-02 0.  1.
          1   -1    0    0  501    0  0.00000000000E+00 -0.00000000000E+00 -0.90716587568E+03  0.90716587569E+03  0.50400000000E-02 0. -1.
     200001    2    1    2    0    0 -0.21646420151E+03 -0.34285923248E+03 -0.20043389703E+03  0.83342248337E+03  0.70000720345E+03 0.  0.
    5000001    2    3    3    0    0 -0.19643806504E+03 -0.14364736218E+03 -0.10603526192E+03  0.28661582858E+03  0.10808643932E+03 0.  0.
        -11    1    4    4    0    0 -0.14426664379E+03 -0.14597330352E+03 -0.91221575731E+02  0.22459395747E+03  0.51100000000E-03 0. -1.
     200002    1    4    4    0    0 -0.52171421244E+02  0.23259413418E+01 -0.14813686191E+02  0.62021871113E+02  0.30000000000E+02 0. -1.
     200000    1    3    3    0    0 -0.20026136471E+02 -0.19921187030E+03 -0.94398635105E+02  0.54680665479E+03  0.50000000000E+03 0.  1.
    -200001    1    1    2    0    0  0.21646420151E+03  0.34285923248E+03  0.28999889546E+02  0.80947526054E+03  0.70000000000E+03 0.  1.
<mgrwt>
<rscale>  0 0.16339288E+04</rscale>
<asrwt>0</asrwt>
<pdfrwt beam="1">  1        1 0.12959513E+00 0.16339288E+04</pdfrwt>
<pdfrwt beam="2">  1       -1 0.10510455E+00 0.16339288E+04</pdfrwt>
<totfact> 0.16578401E+01</totfact>
</mgrwt>
</event>
<event>
 8    1  0.3893101E-010  0.1774134E+04  0.7818608E-02  0.8720177E-01
         -1   -1    0    0    0  501 -0.00000000000E+00  0.00000000000E+00  0.51412500753E+03  0.51412500755E+03  0.50400000000E-02 0.  1.
          1   -1    0    0  501    0  0.00000000000E+00 -0.00000000000E+00 -0.15305377147E+04  0.15305377147E+04  0.50400000000E-02 0. -1.
     200001    2    1    2    0    0  0.68417421138E+02 -0.53512370986E+03 -0.59765941212E+03  0.10667094256E+04  0.69973844925E+03 0.  0.
    5000001    2    3    3    0    0  0.35707632524E+02 -0.12312825536E+03 -0.19711936690E+03  0.30431680192E+03  0.19317626363E+03 0.  0.
        -11    1    4    4    0    0  0.37373994676E+02 -0.11466194880E+03 -0.22955108459E+03  0.25930267723E+03  0.51100000000E-03 0. -1.
     200002    1    4    4    0    0 -0.16663621516E+01 -0.84663065654E+01  0.32431717685E+02  0.45014124691E+02  0.30000000000E+02 0. -1.
     200000    1    3    3    0    0  0.32709788614E+02 -0.41199545449E+03 -0.40054004521E+03  0.76239262366E+03  0.50000000000E+03 0. -1.
    -200001    1    1    2    0    0 -0.68417421138E+02  0.53512370986E+03 -0.41875329506E+03  0.97795329668E+03  0.70000000000E+03 0.  1.
<mgrwt>
<rscale>  0 0.17741338E+04</rscale>
<asrwt>0</asrwt>
<pdfrwt beam="1">  1        1 0.21864824E+00 0.17741338E+04</pdfrwt>
<pdfrwt beam="2">  1       -1 0.73446430E-01 0.17741338E+04</pdfrwt>
<totfact> 0.13155459E+01</totfact>
</mgrwt>
</event>
<event>
 8    1  0.3893101E-010  0.1614152E+04  0.7818608E-02  0.8811901E-01
         -1   -1    0    0    0  501 -0.00000000000E+00  0.00000000000E+00  0.16602329831E+04  0.16602329831E+04  0.50400000000E-02 0. -1.
          1   -1    0    0  501    0  0.00000000000E+00 -0.00000000000E+00 -0.39233765880E+03  0.39233765883E+03  0.50400000000E-02 0.  1.
     200001    2    1    2    0    0  0.16079460427E+03 -0.37912742182E+02  0.16824178678E+03  0.73859568655E+03  0.69994714700E+03 0.  0.
    5000001    2    3    3    0    0  0.10556155325E+03  0.24869105903E+02 -0.46313446382E+02  0.18811753217E+03  0.14656587817E+03 0.  0.
        -11    1    4    4    0    0  0.12921070406E+03 -0.83542665187E+01 -0.46243736648E+02  0.13749066511E+03  0.51100000000E-03 0. -1.
     200002    1    4    4    0    0 -0.23649150812E+02  0.33223372422E+02 -0.69709734082E-01  0.50626867063E+02  0.30000000000E+02 0. -1.
     200000    1    3    3    0    0  0.55233051022E+02 -0.62781848085E+02  0.21455523316E+03  0.55047815438E+03  0.50000000000E+03 0.  1.
    -200001    1    1    2    0    0 -0.16079460427E+03  0.37912742182E+02  0.10996535375E+04  0.13139749553E+04  0.70000000000E+03 0.  1.
<mgrwt>
<rscale>  0 0.16141523E+04</rscale>
<asrwt>0</asrwt>
<pdfrwt beam="1">  1        1 0.56048237E-01 0.16141523E+04</pdfrwt>
<pdfrwt beam="2">  1       -1 0.23717614E+00 0.16141523E+04</pdfrwt>
<totfact> 0.55222613E+00</totfact>
</mgrwt>
</event>
<event>
 8    1  0.3893101E-010  0.1530488E+04  0.7818608E-02  0.8864428E-01
         -1   -1    0    0    0  501 -0.00000000000E+00  0.00000000000E+00  0.33038996664E+03  0.33038996668E+03  0.50400000000E-02 0.  1.
          1   -1    0    0  501    0  0.00000000000E+00 -0.00000000000E+00 -0.17724457424E+04  0.17724457424E+04  0.50400000000E-02 0. -1.
     200001    2    1    2    0    0 -0.14028239740E+03  0.19593927785E+03 -0.45929888885E+03  0.87243640382E+03  0.70151155214E+03 0.  0.
    5000001    2    3    3    0    0 -0.18760372522E+02  0.47035009563E+02 -0.21392745777E+03  0.28324439536E+03  0.17860063441E+03 0.  0.
        -11    1    4    4    0    0 -0.31431304788E+02 -0.27446498019E+02  0.11768110521E+02  0.43355802376E+02  0.51100000000E-03 0. -1.
     200002    1    4    4    0    0  0.12670932266E+02  0.74481507582E+02 -0.22569556829E+03  0.23988859298E+03  0.30000000000E+02 0. -1.
     200000    1    3    3    0    0 -0.12152202488E+03  0.14890426829E+03 -0.24537143108E+03  0.58919200846E+03  0.50000000000E+03 0.  1.
    -200001    1    1    2    0    0  0.14028239740E+03 -0.19593927785E+03 -0.98275688693E+03  0.12303993053E+04  0.70000000000E+03 0. -1.
<mgrwt>
<rscale>  0 0.15304879E+04</rscale>
<asrwt>0</asrwt>
<pdfrwt beam="1">  1        1 0.25320653E+00 0.15304879E+04</pdfrwt>
<pdfrwt beam="2">  1       -1 0.47198568E-01 0.15304879E+04</pdfrwt>
<totfact> 0.22465754E+01</totfact>
</mgrwt>
</event>
<event>
 8    1  0.3893101E-010  0.2282004E+04  0.7818608E-02  0.8485051E-01
          1   -1    0    0  501    0  0.00000000000E+00  0.00000000000E+00  0.55201006477E+03  0.55201006480E+03  0.50400000000E-02 0.  1.
         -1   -1    0    0    0  501 -0.00000000000E+00 -0.00000000000E+00 -0.23584455195E+04  0.23584455195E+04  0.50400000000E-02 0. -1.
     200001    2    1    2    0    0 -0.50582584163E+03  0.74262379604E+03 -0.99882092229E+03  0.15141779910E+04  0.69838518681E+03 0.  0.
    5000001    2    3    3    0    0 -0.14590886415E+03  0.22461357115E+03 -0.34463489045E+03  0.47695372017E+03  0.19227841919E+03 0.  0.
        -11    1    4    4    0    0 -0.35780300968E+02 -0.20694193784E+01 -0.15775520751E+03  0.16177520802E+03  0.51100000000E-03 0. -1.
     200002    1    4    4    0    0 -0.11012856318E+03  0.22668299053E+03 -0.18687968294E+03  0.31517851215E+03  0.30000000000E+02 0. -1.
     200000    1    3    3    0    0 -0.35991697749E+03  0.51801022489E+03 -0.65418603184E+03  0.10372242708E+04  0.50000000000E+03 0. -1.
    -200001    1    1    2    0    0  0.50582584163E+03 -0.74262379604E+03 -0.80761453243E+03  0.13962775933E+04  0.70000000000E+03 0.  1.
<mgrwt>
<rscale>  0 0.22820041E+04</rscale>
<asrwt>0</asrwt>
<pdfrwt beam="1">  1        1 0.78858582E-01 0.22820041E+04</pdfrwt>
<pdfrwt beam="2">  1       -1 0.33692078E+00 0.22820041E+04</pdfrwt>
<totfact> 0.73875064E-01</totfact>
</mgrwt>
</event>
<event>
 8    1  0.3893101E-010  0.1675159E+04  0.7818608E-02  0.8775660E-01
         -1   -1    0    0    0  501 -0.00000000000E+00  0.00000000000E+00  0.99972268740E+03  0.99972268741E+03  0.50400000000E-02 0. -1.
          1   -1    0    0  501    0  0.00000000000E+00 -0.00000000000E+00 -0.70173410843E+03  0.70173410845E+03  0.50400000000E-02 0.  1.
     200001    2    1    2    0    0  0.11770676530E+03 -0.39688106004E+03 -0.54612253473E+02  0.81506139568E+03  0.69998080122E+03 0.  0.
    5000001    2    3    3    0    0  0.92624715195E+02 -0.11440619467E+03 -0.78371972942E+01  0.23833870262E+03  0.18728534449E+03 0.  0.
        -11    1    4    4    0    0  0.41057284960E+01 -0.11444797740E+03 -0.62089002596E+02  0.13026987672E+03  0.51100000000E-03 0. -1.
     200002    1    4    4    0    0  0.88518986699E+02  0.41782733595E-01  0.54251805302E+02  0.10806882590E+03  0.30000000000E+02 0. -1.
     200000    1    3    3    0    0  0.25082050104E+02 -0.28247486537E+03 -0.46775056179E+02  0.57672269306E+03  0.50000000000E+03 0. -1.
    -200001    1    1    2    0    0 -0.11770676530E+03  0.39688106004E+03  0.35260083244E+03  0.88639540018E+03  0.70000000000E+03 0. -1.
<mgrwt>
<rscale>  0 0.16751591E+04</rscale>
<asrwt>0</asrwt>
<pdfrwt beam="1">  1        1 0.10024773E+00 0.16751591E+04</pdfrwt>
<pdfrwt beam="2">  1       -1 0.14281753E+00 0.16751591E+04</pdfrwt>
<totfact> 0.11548439E+01</totfact>
</mgrwt>
</event>
<event>
 8    1  0.3893101E-010  0.2305644E+04  0.7818608E-02  0.8475699E-01
          1   -1    0    0  501    0  0.00000000000E+00  0.00000000000E+00  0.39916395822E+04  0.39916395822E+04  0.50400000000E-02 0.  1.
         -1   -1    0    0    0  501 -0.00000000000E+00 -0.00000000000E+00 -0.33294565040E+03  0.33294565044E+03  0.50400000000E-02 0. -1.
     200001    2    1    2    0    0 -0.61465717364E+03 -0.15361536804E+03  0.60595796713E+03  0.11291825988E+04  0.71166506244E+03 0.  0.
    5000001    2    3    3    0    0 -0.14449157030E+03 -0.60728266591E+02  0.15798255483E+03  0.30433977850E+03  0.20760172661E+03 0.  0.
        -11    1    4    4    0    0 -0.11268314444E+03  0.76870764281E+01 -0.14335406032E+02  0.11385115744E+03  0.51100000000E-03 0. -1.
     200002    1    4    4    0    0 -0.31808425863E+02 -0.68415343019E+02  0.17231796086E+03  0.19048862106E+03  0.30000000000E+02 0. -1.
     200000    1    3    3    0    0 -0.47016560334E+03 -0.92887101447E+02  0.44797541230E+03  0.82484282030E+03  0.50000000000E+03 0.  1.
    -200001    1    1    2    0    0  0.61465717364E+03  0.15361536804E+03  0.30527359646E+04  0.31954026338E+04  0.70000000000E+03 0.  1.
<mgrwt>
<rscale>  0 0.23056444E+04</rscale>
<asrwt>0</asrwt>
<pdfrwt beam="1">  1        1 0.57023414E+00 0.23056444E+04</pdfrwt>
<pdfrwt beam="2">  1       -1 0.47563672E-01 0.23056444E+04</pdfrwt>
<totfact> 0.68393714E-01</totfact>
</mgrwt>
</event>
<event>
 8    1  0.3893101E-010  0.2267095E+04  0.7818608E-02  0.8491009E-01
          1   -1    0    0  501    0  0.00000000000E+00  0.00000000000E+00  0.13728918249E+04  0.13728918249E+04  0.50400000000E-02 0.  1.
         -1   -1    0    0    0  501 -0.00000000000E+00 -0.00000000000E+00 -0.93592928137E+03  0.93592928139E+03  0.50400000000E-02 0. -1.
     200001    2    1    2    0    0 -0.37951673541E+03  0.12302237501E+03  0.10321284894E+04  0.13071275601E+04  0.69579147912E+03 0.  0.
    5000001    2    3    3    0    0 -0.12277896961E+03  0.73697723148E+02  0.19016277541E+03  0.29359242736E+03  0.17183888522E+03 0.  0.
        -11    1    4    4    0    0 -0.75945345094E+02 -0.35677568000E+02  0.13524387683E+03  0.15915869603E+03  0.51100000000E-03 0. -1.
     200002    1    4    4    0    0 -0.46833624515E+02  0.10937529115E+03  0.54918898576E+02  0.13443373133E+03  0.30000000000E+02 0. -1.
     200000    1    3    3    0    0 -0.25673776580E+03  0.49324651867E+02  0.84196571403E+03  0.10135351327E+04  0.50000000000E+03 0.  1.
    -200001    1    1    2    0    0  0.37951673541E+03 -0.12302237501E+03 -0.59516594596E+03  0.10016935462E+04  0.70000000000E+03 0. -1.
<mgrwt>
<rscale>  0 0.22670948E+04</rscale>
<asrwt>0</asrwt>
<pdfrwt beam="1">  1        1 0.19612740E+00 0.22670948E+04</pdfrwt>
<pdfrwt beam="2">  1       -1 0.13370418E+00 0.22670948E+04</pdfrwt>
<totfact> 0.40584111E+00</totfact>
</mgrwt>
</event>
<event>
 8    1  0.3893101E-010  0.1562383E+04  0.7818608E-02  0.8843996E-01
         -1   -1    0    0    0  501 -0.00000000000E+00  0.00000000000E+00  0.23812783451E+03  0.23812783456E+03  0.50400000000E-02 0. -1.
          1   -1    0    0  501    0  0.00000000000E+00 -0.00000000000E+00 -0.25627431948E+04  0.25627431948E+04  0.50400000000E-02 0.  1.
     200001    2    1    2    0    0 -0.23740887262E+03 -0.11891470228E+03 -0.15629594836E+04  0.17328713319E+04  0.69964064088E+03 0.  0.
    5000001    2    3    3    0    0 -0.21384130167E+02 -0.10003631799E+03 -0.34651232207E+03  0.39991717683E+03  0.17145965426E+03 0.  0.
        -11    1    4    4    0    0 -0.38266648598E+02 -0.76123075598E+02 -0.34769888760E+03  0.35798544031E+03  0.51100000000E-03 0. -1.
     200002    1    4    4    0    0  0.16882518431E+02 -0.23913242394E+02  0.11865655304E+01  0.41931736526E+02  0.30000000000E+02 0. -1.
     200000    1    3    3    0    0 -0.21602474245E+03 -0.18878384290E+02 -0.12164471616E+04  0.13329541551E+04  0.50000000000E+03 0.  1.
    -200001    1    1    2    0    0  0.23740887262E+03  0.11891470228E+03 -0.76165587662E+03  0.10679996974E+04  0.70000000000E+03 0.  1.
<mgrwt>
<rscale>  0 0.15623834E+04</rscale>
<asrwt>0</asrwt>
<pdfrwt beam="1">  1        1 0.36610615E+00 0.15623834E+04</pdfrwt>
<pdfrwt beam="2">  1       -1 0.34018264E-01 0.15623834E+04</pdfrwt>
<totfact> 0.12934949E+01</totfact>
</mgrwt>
</event>
<event>
 8    1  0.3893101E-010  0.3567631E+04  0.7818608E-02  0.8097947E-01
         -1   -1    0    0    0  501 -0.00000000000E+00  0.00000000000E+00  0.26131163806E+04  0.26131163806E+04  0.50400000000E-02 0. -1.
          1   -1    0    0  501    0  0.00000000000E+00 -0.00000000000E+00 -0.12177021887E+04  0.12177021888E+04  0.50400000000E-02 0.  1.
     200001    2    1    2    0    0  0.10937906916E+04  0.76086928266E+02  0.20083919161E+04  0.23927959728E+04  0.69976223154E+03 0.  0.
    5000001    2    3    3    0    0  0.22316902390E+03 -0.15671523592E+02  0.53154196591E+03  0.60464400011E+03  0.18167965065E+03 0.  0.
        -11    1    4    4    0    0  0.40883395012E+02 -0.71982363365E+02  0.24902170284E+03  0.26242088543E+03  0.51100000000E-03 0. -1.
     200002    1    4    4    0    0  0.18228562889E+03  0.56310839772E+02  0.28252026307E+03  0.34222311468E+03  0.30000000000E+02 0. -1.
     200000    1    3    3    0    0  0.87062166771E+03  0.91758451858E+02  0.14768499502E+04  0.17881519727E+04  0.50000000000E+03 0. -1.
    -200001    1    1    2    0    0 -0.10937906916E+04 -0.76086928266E+02 -0.61297772433E+03  0.14380225966E+04  0.70000000000E+03 0.  1.
<mgrwt>
<rscale>  0 0.35676309E+04</rscale>
<asrwt>0</asrwt>
<pdfrwt beam="1">  1        1 0.17395745E+00 0.35676309E+04</pdfrwt>
<pdfrwt beam="2">  1       -1 0.37330234E+00 0.35676309E+04</pdfrwt>
<totfact> 0.10677488E-01</totfact>
</mgrwt>
</event>
<event>
 8    1  0.3893101E-010  0.1607704E+04  0.7818608E-02  0.8815829E-01
         -1   -1    0    0    0  501 -0.00000000000E+00  0.00000000000E+00  0.12509378244E+04  0.12509378244E+04  0.50400000000E-02 0. -1.
          1   -1    0    0  501    0  0.00000000000E+00 -0.00000000000E+00 -0.51655486329E+03  0.51655486331E+03  0.50400000000E-02 0.  1.
     200001    2    1    2    0    0  0.27473885222E+03  0.18288078731E+03  0.12543086763E+03  0.78273410235E+03  0.69857923898E+03 0.  0.
    5000001    2    3    3    0    0  0.14480309759E+03 -0.12742653968E+02 -0.81144434474E+01  0.21441537028E+03  0.15740963921E+03 0.  0.
        -11    1    4    4    0    0 -0.37422990116E+01  0.26374763009E+02 -0.46205989675E+02  0.53335039212E+02  0.51100000000E-03 0. -1.
     200002    1    4    4    0    0  0.14854539660E+03 -0.39117416977E+02  0.38091546228E+02  0.16108033107E+03  0.30000000000E+02 0. -1.
     200000    1    3    3    0    0  0.12993575463E+03  0.19562344128E+03  0.13354531107E+03  0.56831873207E+03  0.50000000000E+03 0.  1.
    -200001    1    1    2    0    0 -0.27473885222E+03 -0.18288078731E+03  0.60895209346E+03  0.98475858535E+03  0.70000000000E+03 0.  1.
<mgrwt>
<rscale>  0 0.16077040E+04</rscale>
<asrwt>0</asrwt>
<pdfrwt beam="1">  1        1 0.73793551E-01 0.16077040E+04</pdfrwt>
<pdfrwt beam="2">  1       -1 0.17870540E+00 0.16077040E+04</pdfrwt>
<totfact> 0.95936344E+00</totfact>
</mgrwt>
</event>
<event>
 8    1  0.3893101E-010  0.1689898E+04  0.7818608E-02  0.8767147E-01
          1   -1    0    0  501    0  0.00000000000E+00  0.00000000000E+00  0.32094644995E+04  0.32094644995E+04  0.50400000000E-02 0.  1.
         -1   -1    0    0    0  501 -0.00000000000E+00 -0.00000000000E+00 -0.22244785885E+03  0.22244785890E+03  0.50400000000E-02 0. -1.
     200001    2    1    2    0    0  0.23093789217E+03  0.37933097370E+03  0.18250310697E+04  0.20045249671E+04  0.70011259154E+03 0.  0.
    5000001    2    3    3    0    0 -0.10610813868E+02  0.97187499613E+02  0.47790106450E+03  0.52037202075E+03  0.18121703306E+03 0.  0.
        -11    1    4    4    0    0  0.42709669324E+02  0.10243292731E+03  0.14900679601E+03  0.18579463316E+03  0.51100000000E-03 0. -1.
     200002    1    4    4    0    0 -0.53320483192E+02 -0.52454277008E+01  0.32889426849E+03  0.33457738759E+03  0.30000000000E+02 0. -1.
     200000    1    3    3    0    0  0.24154870604E+03  0.28214347409E+03  0.13471300052E+04  0.14841529464E+04  0.50000000000E+03 0.  1.
    -200001    1    1    2    0    0 -0.23093789217E+03 -0.37933097370E+03  0.11619855709E+04  0.14273873912E+04  0.70000000000E+03 0.  1.
<mgrwt>
<rscale>  0 0.16898976E+04</rscale>
<asrwt>0</asrwt>
<pdfrwt beam="1">  1        1 0.45849488E+00 0.16898976E+04</pdfrwt>
<pdfrwt beam="2">  1       -1 0.31778269E-01 0.16898976E+04</pdfrwt>
<totfact> 0.54559906E+00</totfact>
</mgrwt>
</event>
<event>
 8    1  0.3893101E-010  0.1416426E+04  0.7818608E-02  0.8942014E-01
          1   -1    0    0  501    0  0.00000000000E+00  0.00000000000E+00  0.16811229441E+04  0.16811229441E+04  0.50400000000E-02 0.  1.
         -1   -1    0    0    0  501 -0.00000000000E+00 -0.00000000000E+00 -0.29835150045E+03  0.29835150050E+03  0.50400000000E-02 0. -1.
     200001    2    1    2    0    0  0.10809866547E+02  0.10624208543E+03  0.68970630048E+03  0.98864472834E+03  0.70022809428E+03 0.  0.
    5000001    2    3    3    0    0  0.15310029793E+02 -0.34945453805E+02  0.10980304416E+03  0.21002931660E+03  0.17492862422E+03 0.  0.
        -11    1    4    4    0    0  0.43422871989E+02  0.26174979300E+02  0.12493355085E+03  0.13482977224E+03  0.51100000000E-03 0. -1.
     200002    1    4    4    0    0 -0.28112842195E+02 -0.61120433105E+02 -0.15130506695E+02  0.75199544361E+02  0.30000000000E+02 0. -1.
     200000    1    3    3    0    0 -0.45001632461E+01  0.14118753924E+03  0.57990325632E+03  0.77861541174E+03  0.50000000000E+03 0.  1.
    -200001    1    1    2    0    0 -0.10809866547E+02 -0.10624208543E+03  0.69306514312E+03  0.99082971622E+03  0.70000000000E+03 0.  1.
<mgrwt>
<rscale>  0 0.14164259E+04</rscale>
<asrwt>0</asrwt>
<pdfrwt beam="1">  1        1 0.24016042E+00 0.14164259E+04</pdfrwt>
<pdfrwt beam="2">  1       -1 0.42621643E-01 0.14164259E+04</pdfrwt>
<totfact> 0.31356122E+01</totfact>
</mgrwt>
</event>
<event>
 8    1  0.3893101E-010  0.2625508E+04  0.7818608E-02  0.8359588E-01
          1   -1    0    0  501    0  0.00000000000E+00  0.00000000000E+00  0.22878951809E+04  0.22878951809E+04  0.50400000000E-02 0. -1.
         -1   -1    0    0    0  501 -0.00000000000E+00 -0.00000000000E+00 -0.75323492753E+03  0.75323492754E+03  0.50400000000E-02 0.  1.
     200001    2    1    2    0    0 -0.86652775614E+03  0.50639277954E+03  0.22724718795E+03  0.12504227278E+04  0.71036027093E+03 0.  0.
    5000001    2    3    3    0    0 -0.26275340641E+03  0.94550407499E+02  0.16914381327E+03  0.36299182520E+03  0.15866412151E+03 0.  0.
        -11    1    4    4    0    0 -0.63025018474E+01  0.24101443067E+01 -0.25755680343E+02  0.26624901790E+02  0.51100000000E-03 0. -1.
     200002    1    4    4    0    0 -0.25645090457E+03  0.92140263193E+02  0.19489949361E+03  0.33636692341E+03  0.30000000000E+02 0. -1.
     200000    1    3    3    0    0 -0.60377434973E+03  0.41184237204E+03  0.58103374682E+02  0.88743090263E+03  0.50000000000E+03 0.  1.
    -200001    1    1    2    0    0  0.86652775614E+03 -0.50639277954E+03  0.13074130654E+04  0.17907073806E+04  0.70000000000E+03 0. -1.
<mgrwt>
<rscale>  0 0.26255076E+04</rscale>
<asrwt>0</asrwt>
<pdfrwt beam="1">  1        1 0.32684218E+00 0.26255076E+04</pdfrwt>
<pdfrwt beam="2">  1       -1 0.10760499E+00 0.26255076E+04</pdfrwt>
<totfact> 0.17427279E+00</totfact>
</mgrwt>
</event>
<event>
 8    1  0.3893101E-010  0.2044344E+04  0.7818608E-02  0.8586164E-01
          1   -1    0    0  501    0  0.00000000000E+00  0.00000000000E+00  0.15184972130E+04  0.15184972130E+04  0.50400000000E-02 0.  1.
         -1   -1    0    0    0  501 -0.00000000000E+00 -0.00000000000E+00 -0.68807238293E+03  0.68807238295E+03  0.50400000000E-02 0. -1.
     200001    2    1    2    0    0 -0.35446444031E+03  0.58553359178E+03  0.73252842041E+03  0.12226598777E+04  0.69986045992E+03 0.  0.
    5000001    2    3    3    0    0 -0.91490032829E+01  0.26377811668E+03  0.26832728833E+03  0.39305031425E+03  0.11325377153E+03 0.  0.
        -11    1    4    4    0    0 -0.25616198946E+02  0.20413908524E+03  0.14450531229E+03  0.25141746369E+03  0.51100000000E-03 0. -1.
     200002    1    4    4    0    0  0.16467195663E+02  0.59639031442E+02  0.12382197605E+03  0.14163285056E+03  0.30000000000E+02 0. -1.
     200000    1    3    3    0    0 -0.34531543703E+03  0.32175547510E+03  0.46420113208E+03  0.82960956349E+03  0.50000000000E+03 0.  1.
    -200001    1    1    2    0    0  0.35446444031E+03 -0.58553359178E+03  0.97896409639E+02  0.98390971820E+03  0.70000000000E+03 0.  1.
<mgrwt>
<rscale>  0 0.20443444E+04</rscale>
<asrwt>0</asrwt>
<pdfrwt beam="1">  1        1 0.21692817E+00 0.20443444E+04</pdfrwt>
<pdfrwt beam="2">  1       -1 0.98296056E-01 0.20443444E+04</pdfrwt>
<totfact> 0.69553875E+00</totfact>
</mgrwt>
</event>
<event>
 8    1  0.3893101E-010  0.1768557E+04  0.7818608E-02  0.8723202E-01
          1   -1    0    0  501    0  0.00000000000E+00  0.00000000000E+00  0.66414381758E+03  0.66414381760E+03  0.50400000000E-02 0.  1.
         -1   -1    0    0    0  501 -0.00000000000E+00 -0.00000000000E+00 -0.11773776782E+04  0.11773776782E+04  0.50400000000E-02 0. -1.
     200001    2    1    2    0    0  0.47129827090E+03 -0.12340210271E+03 -0.13661230804E+02  0.85312736818E+03  0.70020678232E+03 0.  0.
    5000001    2    3    3    0    0  0.86022210855E+02 -0.39410196756E+02 -0.87745885590E+02  0.21204951114E+03  0.16826369296E+03 0.  0.
        -11    1    4    4    0    0  0.10118121771E+03 -0.56381856558E+02 -0.11679524839E+03  0.16449219620E+03  0.51100000000E-03 0. -1.
     200002    1    4    4    0    0 -0.15159006852E+02  0.16971659802E+02  0.29049362798E+02  0.47557314938E+02  0.30000000000E+02 0. -1.
     200000    1    3    3    0    0  0.38527606004E+03 -0.83991905955E+02  0.74084654786E+02  0.64107785704E+03  0.50000000000E+03 0. -1.
    -200001    1    1    2    0    0 -0.47129827090E+03  0.12340210271E+03 -0.49957262985E+03  0.98839412767E+03  0.70000000000E+03 0.  1.
<mgrwt>
<rscale>  0 0.17685566E+04</rscale>
<asrwt>0</asrwt>
<pdfrwt beam="1">  1        1 0.94877689E-01 0.17685566E+04</pdfrwt>
<pdfrwt beam="2">  1       -1 0.16819681E+00 0.17685566E+04</pdfrwt>
<totfact> 0.79269513E+00</totfact>
</mgrwt>
</event>
<event>
 8    1  0.3893101E-010  0.1622818E+04  0.7818608E-02  0.8806651E-01
         -1   -1    0    0    0  501 -0.00000000000E+00  0.00000000000E+00  0.20190045612E+04  0.20190045613E+04  0.50400000000E-02 0. -1.
          1   -1    0    0  501    0  0.00000000000E+00 -0.00000000000E+00 -0.32609378785E+03  0.32609378789E+03  0.50400000000E-02 0.  1.
     200001    2    1    2    0    0 -0.27863868251E+03  0.23429190237E+02  0.42722667392E+03  0.87195725542E+03  0.70682273734E+03 0.  0.
    5000001    2    3    3    0    0 -0.17523203910E+03  0.59051269076E+01  0.63049556077E+02  0.24456184592E+03  0.15841121143E+03 0.  0.
        -11    1    4    4    0    0 -0.37332908741E+02 -0.23971271508E+02  0.87638527065E+02  0.98228709445E+02  0.51100000000E-03 0. -1.
     200002    1    4    4    0    0 -0.13789913036E+03  0.29876398416E+02 -0.24588970989E+02  0.14633313647E+03  0.30000000000E+02 0. -1.
     200000    1    3    3    0    0 -0.10340664341E+03  0.17524063329E+02  0.36417711784E+03  0.62739540950E+03  0.50000000000E+03 0.  1.
    -200001    1    1    2    0    0  0.27863868251E+03 -0.23429190237E+02  0.12656840995E+04  0.14731410937E+04  0.70000000000E+03 0. -1.
<mgrwt>
<rscale>  0 0.16228183E+04</rscale>
<asrwt>0</asrwt>
<pdfrwt beam="1">  1        1 0.46584826E-01 0.16228183E+04</pdfrwt>
<pdfrwt beam="2">  1       -1 0.28842923E+00 0.16228183E+04</pdfrwt>
<totfact> 0.32673601E+00</totfact>
</mgrwt>
</event>
<event>
 8    1  0.3893101E-010  0.1525358E+04  0.7818608E-02  0.8867763E-01
         -1   -1    0    0    0  501 -0.00000000000E+00  0.00000000000E+00  0.34426728080E+03  0.34426728083E+03  0.50400000000E-02 0. -1.
          1   -1    0    0  501    0  0.00000000000E+00 -0.00000000000E+00 -0.16896161480E+04  0.16896161480E+04  0.50400000000E-02 0.  1.
     200001    2    1    2    0    0  0.23791802272E+03 -0.12879903575E+03 -0.85345449720E+03  0.11365795514E+04  0.70016735198E+03 0.  0.
    5000001    2    3    3    0    0  0.16045164813E+03 -0.74558687422E+02 -0.26209123999E+03  0.35641703210E+03  0.16443099901E+03 0.  0.
        -11    1    4    4    0    0  0.87058428582E+02 -0.75671468271E+02 -0.42469596104E+02  0.12291870358E+03  0.51100000000E-03 0. -1.
     200002    1    4    4    0    0  0.73393219547E+02  0.11127808491E+01 -0.21962164389E+03  0.23349832852E+03  0.30000000000E+02 0. -1.
     200000    1    3    3    0    0  0.77466374593E+02 -0.54240348326E+02 -0.59136325721E+03  0.78016251932E+03  0.50000000000E+03 0.  1.
    -200001    1    1    2    0    0 -0.23791802272E+03  0.12879903575E+03 -0.49189436996E+03  0.89730387737E+03  0.70000000000E+03 0. -1.
<mgrwt>
<rscale>  0 0.15253584E+04</rscale>
<asrwt>0</asrwt>
<pdfrwt beam="1">  1        1 0.24137373E+00 0.15253584E+04</pdfrwt>
<pdfrwt beam="2">  1       -1 0.49181041E-01 0.15253584E+04</pdfrwt>
<totfact> 0.23480346E+01</totfact>
</mgrwt>
</event>
<event>
 8    1  0.3893101E-010  0.1467105E+04  0.7818608E-02  0.8906627E-01
         -1   -1    0    0    0  501 -0.00000000000E+00  0.00000000000E+00  0.57268981526E+03  0.57268981528E+03  0.50400000000E-02 0. -1.
          1   -1    0    0  501    0  0.00000000000E+00 -0.00000000000E+00 -0.93959942399E+03  0.93959942400E+03  0.50400000000E-02 0.  1.
     200001    2    1    2    0    0  0.16925744960E+02 -0.57610626362E+02 -0.40125240292E+03  0.80887976208E+03  0.69976961462E+03 0.  0.
    5000001    2    3    3    0    0  0.31438308141E+02 -0.67659593369E+02 -0.16141273148E+03  0.25405126225E+03  0.18144361706E+03 0.  0.
        -11    1    4    4    0    0 -0.64646498879E+02 -0.35480832746E+02 -0.11938305414E+03  0.14032238926E+03  0.51100000000E-03 0. -1.
     200002    1    4    4    0    0  0.96084807020E+02 -0.32178760623E+02 -0.42029677338E+02  0.11372887299E+03  0.30000000000E+02 0. -1.
     200000    1    3    3    0    0 -0.14512563181E+02  0.10048967007E+02 -0.23983967144E+03  0.55482849983E+03  0.50000000000E+03 0.  1.
    -200001    1    1    2    0    0 -0.16925744960E+02  0.57610626362E+02  0.34342794191E+02  0.70340947721E+03  0.70000000000E+03 0. -1.
<mgrwt>
<rscale>  0 0.14671047E+04</rscale>
<asrwt>0</asrwt>
<pdfrwt beam="1">  1        1 0.13422849E+00 0.14671047E+04</pdfrwt>
<pdfrwt beam="2">  1       -1 0.81812831E-01 0.14671047E+04</pdfrwt>
<totfact> 0.27728526E+01</totfact>
</mgrwt>
</event>
<event>
 8    1  0.3893101E-010  0.1719376E+04  0.7818608E-02  0.8750390E-01
          1   -1    0    0  501    0  0.00000000000E+00  0.00000000000E+00  0.12400890127E+04  0.12400890127E+04  0.50400000000E-02 0.  1.
         -1   -1    0    0    0  501 -0.00000000000E+00 -0.00000000000E+00 -0.59597597248E+03  0.59597597250E+03  0.50400000000E-02 0. -1.
     200001    2    1    2    0    0 -0.23573478181E+03 -0.29985602699E+03 -0.17657261127E+02  0.80000299092E+03  0.70299963181E+03 0.  0.
    5000001    2    3    3    0    0 -0.63420400930E+02 -0.10449469847E+03 -0.34187677175E+02  0.23597147656E+03  0.19892825645E+03 0.  0.
        -11    1    4    4    0    0 -0.52420678603E+01 -0.11758530227E+03  0.50550554589E+02  0.12809816999E+03  0.51100000000E-03 0. -1.
     200002    1    4    4    0    0 -0.58178333070E+02  0.13090603800E+02 -0.84738231764E+02  0.10787330656E+03  0.30000000000E+02 0. -1.
     200000    1    3    3    0    0 -0.17231438088E+03 -0.19536132852E+03  0.16530416048E+02  0.56403151436E+03  0.50000000000E+03 0. -1.
    -200001    1    1    2    0    0  0.23573478181E+03  0.29985602699E+03  0.66177030136E+03  0.10360619943E+04  0.70000000000E+03 0.  1.
<mgrwt>
<rscale>  0 0.17193758E+04</rscale>
<asrwt>0</asrwt>
<pdfrwt beam="1">  1        1 0.17715557E+00 0.17193758E+04</pdfrwt>
<pdfrwt beam="2">  1       -1 0.85139425E-01 0.17193758E+04</pdfrwt>
<totfact> 0.15089109E+01</totfact>
</mgrwt>
</event>
<event>
 8    1  0.3893101E-010  0.1441468E+04  0.7818608E-02  0.8924337E-01
         -1   -1    0    0    0  501 -0.00000000000E+00  0.00000000000E+00  0.51927570359E+03  0.51927570362E+03  0.50400000000E-02 0.  1.
          1   -1    0    0  501    0  0.00000000000E+00 -0.00000000000E+00 -0.10003507357E+04  0.10003507357E+04  0.50400000000E-02 0. -1.
     200001    2    1    2    0    0 -0.14727387720E+03  0.87347773837E+02 -0.26729703637E+03  0.76794814378E+03  0.69926920237E+03 0.  0.
    5000001    2    3    3    0    0 -0.63159539659E+01  0.75395843124E+02 -0.76516647595E+02  0.21440578631E+03  0.18544707981E+03 0.  0.
        -11    1    4    4    0    0 -0.56528742146E+02  0.33206915374E+02 -0.11521320999E+03  0.13256048307E+03  0.51100000000E-03 0. -1.
     200002    1    4    4    0    0  0.50212788180E+02  0.42188927750E+02  0.38696562392E+02  0.81845303240E+02  0.30000000000E+02 0. -1.
     200000    1    3    3    0    0 -0.14095792323E+03  0.11951930713E+02 -0.19078038877E+03  0.55354235747E+03  0.50000000000E+03 0. -1.
    -200001    1    1    2    0    0  0.14727387720E+03 -0.87347773837E+02 -0.21377799571E+03  0.75167829551E+03  0.70000000000E+03 0. -1.
<mgrwt>
<rscale>  0 0.14414685E+04</rscale>
<asrwt>0</asrwt>
<pdfrwt beam="1">  1        1 0.14290725E+00 0.14414685E+04</pdfrwt>
<pdfrwt beam="2">  1       -1 0.74182244E-01 0.14414685E+04</pdfrwt>
<totfact> 0.30719105E+01</totfact>
</mgrwt>
</event>
<event>
 8    1  0.3893101E-010  0.1758673E+04  0.7818608E-02  0.8728590E-01
          1   -1    0    0  501    0  0.00000000000E+00  0.00000000000E+00  0.36371723546E+03  0.36371723550E+03  0.50400000000E-02 0. -1.
         -1   -1    0    0    0  501 -0.00000000000E+00 -0.00000000000E+00 -0.21259181552E+04  0.21259181552E+04  0.50400000000E-02 0.  1.
     200001    2    1    2    0    0  0.23593136004E+03 -0.10729824830E+03 -0.15386010163E+04  0.17104220453E+04  0.70076669803E+03 0.  0.
    5000001    2    3    3    0    0  0.70903562281E+02 -0.10920060594E+02 -0.61011726620E+03  0.63869213379E+03  0.17475125287E+03 0.  0.
        -11    1    4    4    0    0  0.86859640488E+02 -0.30906617987E+02 -0.58439126010E+03  0.59161893230E+03  0.51100000000E-03 0. -1.
     200002    1    4    4    0    0 -0.15956078207E+02  0.19986557393E+02 -0.25726006104E+02  0.47073201487E+02  0.30000000000E+02 0. -1.
     200000    1    3    3    0    0  0.16502779776E+03 -0.96378187703E+02 -0.92848375012E+03  0.10717299116E+04  0.50000000000E+03 0.  1.
    -200001    1    1    2    0    0 -0.23593136004E+03  0.10729824830E+03 -0.22359990339E+03  0.77921334532E+03  0.70000000000E+03 0. -1.
<mgrwt>
<rscale>  0 0.17586734E+04</rscale>
<asrwt>0</asrwt>
<pdfrwt beam="1">  1        1 0.51959606E-01 0.17586734E+04</pdfrwt>
<pdfrwt beam="2">  1       -1 0.30370259E+00 0.17586734E+04</pdfrwt>
<totfact> 0.22298417E+00</totfact>
</mgrwt>
</event>
<event>
 8    1  0.3893101E-010  0.2125752E+04  0.7818608E-02  0.8549984E-01
         -1   -1    0    0    0  501 -0.00000000000E+00  0.00000000000E+00  0.91117274793E+03  0.91117274795E+03  0.50400000000E-02 0.  1.
          1   -1    0    0  501    0  0.00000000000E+00 -0.00000000000E+00 -0.12398361405E+04  0.12398361405E+04  0.50400000000E-02 0. -1.
     200001    2    1    2    0    0 -0.24420065010E+03 -0.27262181103E+02  0.60615655601E+03  0.95758292918E+03  0.69940125238E+03 0.  0.
    5000001    2    3    3    0    0 -0.23620746640E+02  0.49399687161E+02  0.23325501885E+03  0.29155883632E+03  0.16613362830E+03 0.  0.
        -11    1    4    4    0    0 -0.59290081130E+01 -0.22236016453E+02  0.20613426448E+03  0.20741487063E+03  0.51100000000E-03 0. -1.
     200002    1    4    4    0    0 -0.17691738527E+02  0.71635703613E+02  0.27120754371E+02  0.84143965689E+02  0.30000000000E+02 0. -1.
     200000    1    3    3    0    0 -0.22057990346E+03 -0.76661868264E+02  0.37290153716E+03  0.66602409286E+03  0.50000000000E+03 0.  1.
    -200001    1    1    2    0    0  0.24420065010E+03  0.27262181103E+02 -0.93481994855E+03  0.11934259593E+04  0.70000000000E+03 0. -1.
<mgrwt>
<rscale>  0 0.21257515E+04</rscale>
<asrwt>0</asrwt>
<pdfrwt beam="1">  1        1 0.17711945E+00 0.21257515E+04</pdfrwt>
<pdfrwt beam="2">  1       -1 0.13016754E+00 0.21257515E+04</pdfrwt>
<totfact> 0.54115313E+00</totfact>
</mgrwt>
</event>
<event>
 8    1  0.3893101E-010  0.2977600E+04  0.7818608E-02  0.8250156E-01
          1   -1    0    0  501    0  0.00000000000E+00  0.00000000000E+00  0.25127385855E+04  0.25127385855E+04  0.50400000000E-02 0.  1.
         -1   -1    0    0    0  501 -0.00000000000E+00 -0.00000000000E+00 -0.88211566492E+03  0.88211566493E+03  0.50400000000E-02 0. -1.
     200001    2    1    2    0    0 -0.10650224581E+04  0.76483075696E+03  0.90839575602E+03  0.17423255819E+04  0.70091130727E+03 0.  0.
    5000001    2    3    3    0    0 -0.25195318716E+03  0.20572888093E+03  0.23826691363E+03  0.44897751870E+03  0.19749660553E+03 0.  0.
        -11    1    4    4    0    0 -0.60321114592E+02 -0.32455093427E+02  0.73249247343E+02  0.10028669997E+03  0.51100000000E-03 0. -1.
     200002    1    4    4    0    0 -0.19163207257E+03  0.23818397435E+03  0.16501766629E+03  0.34869081873E+03  0.30000000000E+02 0. -1.
     200000    1    3    3    0    0 -0.81306927097E+03  0.55910187604E+03  0.67012884239E+03  0.12933480632E+04  0.50000000000E+03 0.  1.
    -200001    1    1    2    0    0  0.10650224581E+04 -0.76483075696E+03  0.72222716457E+03  0.16525286685E+04  0.70000000000E+03 0. -1.
<mgrwt>
<rscale>  0 0.29776004E+04</rscale>
<asrwt>0</asrwt>
<pdfrwt beam="1">  1        1 0.35896266E+00 0.29776004E+04</pdfrwt>
<pdfrwt beam="2">  1       -1 0.12601652E+00 0.29776004E+04</pdfrwt>
<totfact> 0.83149655E-01</totfact>
</mgrwt>
</event>
<event>
 8    1  0.3893101E-010  0.1942740E+04  0.7818608E-02  0.8633870E-01
         -1   -1    0    0    0  501 -0.00000000000E+00  0.00000000000E+00  0.27802840065E+04  0.27802840065E+04  0.50400000000E-02 0. -1.
          1   -1    0    0  501    0  0.00000000000E+00 -0.00000000000E+00 -0.33937524885E+03  0.33937524889E+03  0.50400000000E-02 0.  1.
     200001    2    1    2    0    0  0.53169782371E+03 -0.13834115769E+03  0.18460119533E+04  0.20492653749E+04  0.69991970494E+03 0.  0.
    5000001    2    3    3    0    0  0.24780549283E+03 -0.12705518831E+03  0.68205046308E+03  0.75098629113E+03  0.14572917388E+03 0.  0.
        -11    1    4    4    0    0  0.16893754375E+03 -0.22900539196E+02  0.28703324905E+03  0.33384489579E+03  0.51100000000E-03 0. -1.
     200002    1    4    4    0    0  0.78867949083E+02 -0.10415464911E+03  0.39501721404E+03  0.41714139535E+03  0.30000000000E+02 0. -1.
     200000    1    3    3    0    0  0.28389233088E+03 -0.11285969383E+02  0.11639614902E+04  0.12982790837E+04  0.50000000000E+03 0. -1.
    -200001    1    1    2    0    0 -0.53169782371E+03  0.13834115769E+03  0.59489680442E+03  0.10703938806E+04  0.70000000000E+03 0.  1.
<mgrwt>
<rscale>  0 0.19427399E+04</rscale>
<asrwt>0</asrwt>
<pdfrwt beam="1">  1        1 0.48482181E-01 0.19427399E+04</pdfrwt>
<pdfrwt beam="2">  1       -1 0.39718340E+00 0.19427399E+04</pdfrwt>
<totfact> 0.57594888E-01</totfact>
</mgrwt>
</event>
<event>
 8    1  0.3893101E-010  0.1454020E+04  0.7818608E-02  0.8915618E-01
         -1   -1    0    0    0  501 -0.00000000000E+00  0.00000000000E+00  0.60157886353E+03  0.60157886355E+03  0.50400000000E-02 0. -1.
          1   -1    0    0  501    0  0.00000000000E+00 -0.00000000000E+00 -0.87859410338E+03  0.87859410340E+03  0.50400000000E-02 0.  1.
     200001    2    1    2    0    0 -0.91298599582E+02 -0.12158999683E+03 -0.26843541090E+03  0.76379794290E+03  0.69872037764E+03 0.  0.
    5000001    2    3    3    0    0 -0.10154425106E+03  0.46601384164E+02 -0.54543696827E+02  0.19446238335E+03  0.14952484658E+03 0.  0.
        -11    1    4    4    0    0 -0.34403357423E+02  0.76577273634E+02 -0.74873019140E+02  0.11248839422E+03  0.51100000000E-03 0. -1.
     200002    1    4    4    0    0 -0.67140893637E+02 -0.29975889471E+02  0.20329322313E+02  0.81973989128E+02  0.30000000000E+02 0.  1.
     200000    1    3    3    0    0  0.10245651477E+02 -0.16819138099E+03 -0.21389171408E+03  0.56933555955E+03  0.50000000000E+03 0. -1.
    -200001    1    1    2    0    0  0.91298599582E+02  0.12158999683E+03 -0.85798289558E+01  0.71637502405E+03  0.70000000000E+03 0. -1.
<mgrwt>
<rscale>  0 0.14540201E+04</rscale>
<asrwt>0</asrwt>
<pdfrwt beam="1">  1        1 0.12551344E+00 0.14540201E+04</pdfrwt>
<pdfrwt beam="2">  1       -1 0.85939838E-01 0.14540201E+04</pdfrwt>
<totfact> 0.27875817E+01</totfact>
</mgrwt>
</event>
<event>
 8    1  0.3893101E-010  0.1571207E+04  0.7818608E-02  0.8838435E-01
         -1   -1    0    0    0  501 -0.00000000000E+00  0.00000000000E+00  0.53358794084E+03  0.53358794087E+03  0.50400000000E-02 0. -1.
          1   -1    0    0  501    0  0.00000000000E+00 -0.00000000000E+00 -0.11566466046E+04  0.11566466046E+04  0.50400000000E-02 0.  1.
     200001    2    1    2    0    0 -0.33291684367E+03 -0.66893508997E+02 -0.19591828744E+03  0.80267763606E+03  0.70042775911E+03 0.  0.
    5000001    2    3    3    0    0 -0.10456595265E+03 -0.57084622992E+02  0.47443396555E+01  0.21743765658E+03  0.18183490618E+03 0.  0.
        -11    1    4    4    0    0  0.24298111850E+02 -0.51316043861E+00  0.58876789322E+02  0.63695666212E+02  0.51100000000E-03 0. -1.
     200002    1    4    4    0    0 -0.12886406450E+03 -0.56571462554E+02 -0.54132449666E+02  0.15374199037E+03  0.30000000000E+02 0. -1.
     200000    1    3    3    0    0 -0.22835089102E+03 -0.98088860050E+01 -0.20066262709E+03  0.58523997948E+03  0.50000000000E+03 0.  1.
    -200001    1    1    2    0    0  0.33291684367E+03  0.66893508997E+02 -0.42714037630E+03  0.88755690939E+03  0.70000000000E+03 0.  1.
<mgrwt>
<rscale>  0 0.15712068E+04</rscale>
<asrwt>0</asrwt>
<pdfrwt beam="1">  1        1 0.16523523E+00 0.15712068E+04</pdfrwt>
<pdfrwt beam="2">  1       -1 0.76226849E-01 0.15712068E+04</pdfrwt>
<totfact> 0.22110547E+01</totfact>
</mgrwt>
</event>
<event>
 8    1  0.3893101E-010  0.3172269E+04  0.7818608E-02  0.8196179E-01
         -1   -1    0    0    0  501 -0.00000000000E+00  0.00000000000E+00  0.72363184514E+03  0.72363184516E+03  0.50400000000E-02 0.  1.
          1   -1    0    0  501    0  0.00000000000E+00 -0.00000000000E+00 -0.34766610407E+04  0.34766610407E+04  0.50400000000E-02 0. -1.
     200001    2    1    2    0    0  0.13237422136E+04  0.50174511035E+03 -0.15760549938E+04  0.22306965121E+04  0.69858140670E+03 0.  0.
    5000001    2    3    3    0    0  0.35340092328E+03  0.15741418139E+03 -0.36924591121E+03  0.56741236014E+03  0.18958588137E+03 0.  0.
        -11    1    4    4    0    0  0.17858092245E+03 -0.20311209694E+02 -0.15297440245E+03  0.23601876812E+03  0.51100000000E-03 0. -1.
     200002    1    4    4    0    0  0.17482000084E+03  0.17772539109E+03 -0.21627150876E+03  0.33139359202E+03  0.30000000000E+02 0. -1.
     200000    1    3    3    0    0  0.97034129033E+03  0.34433092895E+03 -0.12068090826E+04  0.16632841519E+04  0.50000000000E+03 0. -1.
    -200001    1    1    2    0    0 -0.13237422136E+04 -0.50174511035E+03 -0.11769742018E+04  0.19695963738E+04  0.70000000000E+03 0.  1.
<mgrwt>
<rscale>  0 0.31722690E+04</rscale>
<asrwt>0</asrwt>
<pdfrwt beam="1">  1        1 0.49666586E+00 0.31722690E+04</pdfrwt>
<pdfrwt beam="2">  1       -1 0.10337598E+00 0.31722690E+04</pdfrwt>
<totfact> 0.30144657E-01</totfact>
</mgrwt>
</event>
<event>
 8    1  0.3893101E-010  0.2360924E+04  0.7818608E-02  0.8454280E-01
          1   -1    0    0  501    0  0.00000000000E+00  0.00000000000E+00  0.13394784881E+04  0.13394784881E+04  0.50400000000E-02 0.  1.
         -1   -1    0    0    0  501 -0.00000000000E+00 -0.00000000000E+00 -0.10403227693E+04  0.10403227693E+04  0.50400000000E-02 0. -1.
     200001    2    1    2    0    0 -0.30813985537E+03 -0.11489938031E+02 -0.75657441732E+03  0.10760956504E+04  0.70035334709E+03 0.  0.
    5000001    2    3    3    0    0 -0.69050155676E+02  0.15076174383E+02 -0.22026095408E+03  0.30440803638E+03  0.19787407533E+03 0.  0.
        -11    1    4    4    0    0 -0.31165446906E+02  0.75508353839E+02 -0.12413932407E+02  0.82625070641E+02  0.51100000000E-03 0. -1.
     200002    1    4    4    0    0 -0.37884708770E+02 -0.60432179456E+02 -0.20784702168E+03  0.22178296574E+03  0.30000000000E+02 0. -1.
     200000    1    3    3    0    0 -0.23908969969E+03 -0.26566112413E+02 -0.53631346324E+03  0.77168761405E+03  0.50000000000E+03 0. -1.
    -200001    1    1    2    0    0  0.30813985537E+03  0.11489938031E+02  0.10557301361E+04  0.13037056069E+04  0.70000000000E+03 0.  1.
<mgrwt>
<rscale>  0 0.23609235E+04</rscale>
<asrwt>0</asrwt>
<pdfrwt beam="1">  1        1 0.19135407E+00 0.23609235E+04</pdfrwt>
<pdfrwt beam="2">  1       -1 0.14861754E+00 0.23609235E+04</pdfrwt>
<totfact> 0.32124563E+00</totfact>
</mgrwt>
</event>
<event>
 8    1  0.3893101E-010  0.1523955E+04  0.7818608E-02  0.8868678E-01
          1   -1    0    0  501    0  0.00000000000E+00  0.00000000000E+00  0.24392325699E+04  0.24392325699E+04  0.50400000000E-02 0.  1.
         -1   -1    0    0    0  501 -0.00000000000E+00 -0.00000000000E+00 -0.23802969139E+03  0.23802969144E+03  0.50400000000E-02 0. -1.
     200001    2    1    2    0    0 -0.16765753766E+03  0.66816780483E+01  0.66289973698E+03  0.97887177326E+03  0.70042857769E+03 0.  0.
    5000001    2    3    3    0    0 -0.10688793105E+03  0.45887268738E+01  0.13364063848E+03  0.24824702766E+03  0.17977953240E+03 0.  0.
        -11    1    4    4    0    0 -0.13306535828E+03  0.51564750554E+02  0.11678684985E+03  0.18440304057E+03  0.51100000000E-03 0. -1.
     200002    1    4    4    0    0  0.26177427224E+02 -0.46976023680E+02  0.16853788632E+02  0.63843987094E+02  0.30000000000E+02 0. -1.
     200000    1    3    3    0    0 -0.60769606609E+02  0.20929511745E+01  0.52925909851E+03  0.73062474560E+03  0.50000000000E+03 0. -1.
    -200001    1    1    2    0    0  0.16765753766E+03 -0.66816780483E+01  0.15383031415E+04  0.16983904881E+04  0.70000000000E+03 0.  1.
<mgrwt>
<rscale>  0 0.15239551E+04</rscale>
<asrwt>0</asrwt>
<pdfrwt beam="1">  1        1 0.34846179E+00 0.15239551E+04</pdfrwt>
<pdfrwt beam="2">  1       -1 0.34004242E-01 0.15239551E+04</pdfrwt>
<totfact> 0.15558702E+01</totfact>
</mgrwt>
</event>
<event>
 8    1  0.3893101E-010  0.1411430E+04  0.7818608E-02  0.8945586E-01
          1   -1    0    0  501    0  0.00000000000E+00  0.00000000000E+00  0.12664906342E+04  0.12664906342E+04  0.50400000000E-02 0. -1.
         -1   -1    0    0    0  501 -0.00000000000E+00 -0.00000000000E+00 -0.39323914832E+03  0.39323914835E+03  0.50400000000E-02 0.  1.
     200001    2    1    2    0    0  0.50206423739E+02 -0.72178872265E+02  0.43239231918E+03  0.82781195040E+03  0.70041347286E+03 0.  0.
    5000001    2    3    3    0    0  0.45475618204E+02  0.23310496823E+02 -0.49485402392E+02  0.12685065427E+03  0.10502795973E+03 0.  0.
        -11    1    4    4    0    0  0.24892304588E+02 -0.15342053191E+02 -0.65229129847E+02  0.71483178474E+02  0.51100000000E-03 0. -1.
     200002    1    4    4    0    0  0.20583313615E+02  0.38652550014E+02  0.15743727455E+02  0.55367475797E+02  0.30000000000E+02 0. -1.
     200000    1    3    3    0    0  0.47308055351E+01 -0.95489369088E+02  0.48187772157E+03  0.70096129613E+03  0.50000000000E+03 0. -1.
    -200001    1    1    2    0    0 -0.50206423739E+02  0.72178872265E+02  0.44085916669E+03  0.83191783215E+03  0.70000000000E+03 0. -1.
<mgrwt>
<rscale>  0 0.14114301E+04</rscale>
<asrwt>0</asrwt>
<pdfrwt beam="1">  1        1 0.18092724E+00 0.14114301E+04</pdfrwt>
<pdfrwt beam="2">  1       -1 0.56177021E-01 0.14114301E+04</pdfrwt>
<totfact> 0.34813537E+01</totfact>
</mgrwt>
</event>
<event>
 8    1  0.3893101E-010  0.1537994E+04  0.7818608E-02  0.8859573E-01
         -1   -1    0    0    0  501 -0.00000000000E+00  0.00000000000E+00  0.33586538915E+03  0.33586538919E+03  0.50400000000E-02 0. -1.
          1   -1    0    0  501    0  0.00000000000E+00 -0.00000000000E+00 -0.17606949227E+04  0.17606949227E+04  0.50400000000E-02 0.  1.
     200001    2    1    2    0    0 -0.30188357276E+03  0.71067279915E+01 -0.81852251435E+03  0.11225005608E+04  0.70628903822E+03 0.  0.
    5000001    2    3    3    0    0 -0.55967021612E+02  0.20303955965E+02 -0.22511556792E+03  0.30838698092E+03  0.20219038786E+03 0.  0.
        -11    1    4    4    0    0 -0.81896962565E+02  0.72566384852E+02 -0.21602608640E+03  0.24215751629E+03  0.51100000000E-03 0. -1.
     200002    1    4    4    0    0  0.25929940953E+02 -0.52262428887E+02 -0.90894815209E+01  0.66229464631E+02  0.30000000000E+02 0. -1.
     200000    1    3    3    0    0 -0.24591655115E+03 -0.13197227974E+02 -0.59340694643E+03  0.81411357993E+03  0.50000000000E+03 0. -1.
    -200001    1    1    2    0    0  0.30188357276E+03 -0.71067279915E+01 -0.60630701919E+03  0.97405975105E+03  0.70000000000E+03 0. -1.
<mgrwt>
<rscale>  0 0.15379941E+04</rscale>
<asrwt>0</asrwt>
<pdfrwt beam="1">  1        1 0.25152784E+00 0.15379941E+04</pdfrwt>
<pdfrwt beam="2">  1       -1 0.47980771E-01 0.15379941E+04</pdfrwt>
<totfact> 0.22144568E+01</totfact>
</mgrwt>
</event>
<event>
 8    1  0.3893101E-010  0.2018147E+04  0.7818608E-02  0.8598183E-01
         -1   -1    0    0    0  501 -0.00000000000E+00  0.00000000000E+00  0.16200996270E+04  0.16200996270E+04  0.50400000000E-02 0. -1.
          1   -1    0    0  501    0  0.00000000000E+00 -0.00000000000E+00 -0.62849772841E+03  0.62849772843E+03  0.50400000000E-02 0.  1.
     200001    2    1    2    0    0  0.32349928814E+03 -0.37630164450E+03  0.10869917126E+04  0.13852585264E+04  0.70081059122E+03 0.  0.
    5000001    2    3    3    0    0  0.51519252717E+02 -0.12617275226E+03  0.38740697990E+03  0.44933310174E+03  0.18232463199E+03 0.  0.
        -11    1    4    4    0    0  0.70026288153E+02 -0.52152915882E+02  0.46933575184E+02  0.99128039158E+02  0.51100000000E-03 0. -1.
     200002    1    4    4    0    0 -0.18507035436E+02 -0.74019836380E+02  0.34047340471E+03  0.35020506258E+03  0.30000000000E+02 0. -1.
     200000    1    3    3    0    0  0.27198003542E+03 -0.25012889224E+03  0.69958473269E+03  0.93592542470E+03  0.50000000000E+03 0. -1.
    -200001    1    1    2    0    0 -0.32349928814E+03  0.37630164450E+03 -0.95389813978E+02  0.86333882902E+03  0.70000000000E+03 0.  1.
<mgrwt>
<rscale>  0 0.20181466E+04</rscale>
<asrwt>0</asrwt>
<pdfrwt beam="1">  1        1 0.89785391E-01 0.20181466E+04</pdfrwt>
<pdfrwt beam="2">  1       -1 0.23144280E+00 0.20181466E+04</pdfrwt>
<totfact> 0.30607595E+00</totfact>
</mgrwt>
</event>
<event>
 8    1  0.3893101E-010  0.1570129E+04  0.7818608E-02  0.8839112E-01
          1   -1    0    0  501    0  0.00000000000E+00  0.00000000000E+00  0.81488942078E+03  0.81488942079E+03  0.50400000000E-02 0.  1.
         -1   -1    0    0    0  501 -0.00000000000E+00 -0.00000000000E+00 -0.75633163164E+03  0.75633163165E+03  0.50400000000E-02 0. -1.
     200001    2    1    2    0    0  0.16752305944E+03 -0.15367856244E+03 -0.24408015710E+03  0.77543791459E+03  0.70003411366E+03 0.  0.
    5000001    2    3    3    0    0  0.77996546499E+02 -0.40829272573E+02 -0.41421696024E+02  0.21702909428E+03  0.19399840231E+03 0.  0.
        -11    1    4    4    0    0 -0.34394660647E+02  0.49676718677E+02 -0.34279813274E+02  0.69468515588E+02  0.51100000000E-03 0. -1.
     200002    1    4    4    0    0  0.11239120715E+03 -0.90505991251E+02 -0.71418827499E+01  0.14756057870E+03  0.30000000000E+02 0. -1.
     200000    1    3    3    0    0  0.89526512937E+02 -0.11284928987E+03 -0.20265846108E+03  0.55840882030E+03  0.50000000000E+03 0. -1.
    -200001    1    1    2    0    0 -0.16752305944E+03  0.15367856244E+03  0.30263794625E+03  0.79578313786E+03  0.70000000000E+03 0.  1.
<mgrwt>
<rscale>  0 0.15701295E+04</rscale>
<asrwt>0</asrwt>
<pdfrwt beam="1">  1        1 0.11641277E+00 0.15701295E+04</pdfrwt>
<pdfrwt beam="2">  1       -1 0.10804738E+00 0.15701295E+04</pdfrwt>
<totfact> 0.18557241E+01</totfact>
</mgrwt>
</event>
<event>
 8    1  0.3893101E-010  0.1693789E+04  0.7818608E-02  0.8764915E-01
          1   -1    0    0  501    0  0.00000000000E+00  0.00000000000E+00  0.60390788791E+03  0.60390788793E+03  0.50400000000E-02 0.  1.
         -1   -1    0    0    0  501 -0.00000000000E+00 -0.00000000000E+00 -0.11876484120E+04  0.11876484120E+04  0.50400000000E-02 0. -1.
     200001    2    1    2    0    0  0.19471009159E+03 -0.17042367887E+02 -0.74920003838E+03  0.10461843707E+04  0.70356135333E+03 0.  0.
    5000001    2    3    3    0    0  0.28430708512E+02 -0.10642111320E+03 -0.21527474139E+03  0.29072847117E+03  0.16138795230E+03 0.  0.
        -11    1    4    4    0    0  0.86853970598E+02 -0.94554914518E+02 -0.14875743208E+03  0.19650195334E+03  0.51100000000E-03 0. -1.
     200002    1    4    4    0    0 -0.58423262086E+02 -0.11866198683E+02 -0.66517309311E+02  0.94226517828E+02  0.30000000000E+02 0. -1.
     200000    1    3    3    0    0  0.16627938308E+03  0.89378745315E+02 -0.53392529699E+03  0.75545589952E+03  0.50000000000E+03 0. -1.
    -200001    1    1    2    0    0 -0.19471009159E+03  0.17042367887E+02  0.16545951427E+03  0.74537192926E+03  0.70000000000E+03 0.  1.
<mgrwt>
<rscale>  0 0.16937889E+04</rscale>
<asrwt>0</asrwt>
<pdfrwt beam="1">  1        1 0.86272556E-01 0.16937889E+04</pdfrwt>
<pdfrwt beam="2">  1       -1 0.16966406E+00 0.16937889E+04</pdfrwt>
<totfact> 0.89192210E+00</totfact>
</mgrwt>
</event>
<event>
 8    1  0.3893101E-010  0.1861721E+04  0.7818608E-02  0.8674148E-01
         -1   -1    0    0    0  501 -0.00000000000E+00  0.00000000000E+00  0.95623320794E+03  0.95623320796E+03  0.50400000000E-02 0. -1.
          1   -1    0    0  501    0  0.00000000000E+00 -0.00000000000E+00 -0.90616132076E+03  0.90616132078E+03  0.50400000000E-02 0.  1.
     200001    2    1    2    0    0 -0.37310602059E+02 -0.38905976552E+03  0.49811378534E+03  0.94397135575E+03  0.70014640981E+03 0.  0.
    5000001    2    3    3    0    0  0.16586390214E+02 -0.82042440869E+02  0.13791414950E+03  0.25338587873E+03  0.19539196623E+03 0.  0.
        -11    1    4    4    0    0  0.90312506616E+02 -0.55657569758E+02  0.13196642847E+03  0.16931996978E+03  0.51100000000E-03 0. -1.
     200002    1    4    4    0    0 -0.73726116402E+02 -0.26384871112E+02  0.59477210327E+01  0.84065908957E+02  0.30000000000E+02 0. -1.
     200000    1    3    3    0    0 -0.53896992274E+02 -0.30701732465E+03  0.36019963584E+03  0.69058547702E+03  0.50000000000E+03 0. -1.
    -200001    1    1    2    0    0  0.37310602059E+02  0.38905976552E+03 -0.44804189816E+03  0.91842317298E+03  0.70000000000E+03 0.  1.
<mgrwt>
<rscale>  0 0.18617213E+04</rscale>
<asrwt>0</asrwt>
<pdfrwt beam="1">  1        1 0.12945162E+00 0.18617213E+04</pdfrwt>
<pdfrwt beam="2">  1       -1 0.13660474E+00 0.18617213E+04</pdfrwt>
<totfact> 0.85778663E+00</totfact>
</mgrwt>
</event>
<event>
 8    1  0.3893101E-010  0.1981518E+04  0.7818608E-02  0.8615311E-01
         -1   -1    0    0    0  501 -0.00000000000E+00  0.00000000000E+00  0.74116667599E+03  0.74116667601E+03  0.50400000000E-02 0.  1.
          1   -1    0    0  501    0  0.00000000000E+00 -0.00000000000E+00 -0.13244031369E+04  0.13244031369E+04  0.50400000000E-02 0. -1.
     200001    2    1    2    0    0  0.57401593789E+03 -0.39886514721E+03 -0.35006840452E+03  0.10492258529E+04  0.69981376086E+03 0.  0.
    5000001    2    3    3    0    0  0.16849114679E+03 -0.78495771661E+02 -0.16358843576E+03  0.30635192566E+03  0.18038700986E+03 0.  0.
        -11    1    4    4    0    0  0.46060499342E+02 -0.11785848477E+03 -0.71305592460E+02  0.14524696054E+03  0.51100000000E-03 0. -1.
     200002    1    4    4    0    0  0.12243064745E+03  0.39362713106E+02 -0.92282843303E+02  0.16110496512E+03  0.30000000000E+02 0. -1.
     200000    1    3    3    0    0  0.40552479110E+03 -0.32036937555E+03 -0.18647996875E+03  0.74287392721E+03  0.50000000000E+03 0.  1.
    -200001    1    1    2    0    0 -0.57401593789E+03  0.39886514721E+03 -0.23316805641E+03  0.10163439601E+04  0.70000000000E+03 0. -1.
<mgrwt>
<rscale>  0 0.19815181E+04</rscale>
<asrwt>0</asrwt>
<pdfrwt beam="1">  1        1 0.18920045E+00 0.19815181E+04</pdfrwt>
<pdfrwt beam="2">  1       -1 0.10588095E+00 0.19815181E+04</pdfrwt>
<totfact> 0.79195640E+00</totfact>
</mgrwt>
</event>
<event>
 8    1  0.3893101E-010  0.1762553E+04  0.7818608E-02  0.8726471E-01
         -1   -1    0    0    0  501 -0.00000000000E+00  0.00000000000E+00  0.88873881510E+03  0.88873881511E+03  0.50400000000E-02 0. -1.
          1   -1    0    0  501    0  0.00000000000E+00 -0.00000000000E+00 -0.87387666329E+03  0.87387666331E+03  0.50400000000E-02 0.  1.
     200001    2    1    2    0    0  0.19340489710E+03 -0.14683641428E+03  0.47585221729E+03  0.88998828009E+03  0.71181276978E+03 0.  0.
    5000001    2    3    3    0    0 -0.29041637469E+02  0.37655647242E+02  0.48158561494E+02  0.17134953586E+03  0.15741680952E+03 0.  0.
        -11    1    4    4    0    0 -0.82886708058E+02  0.53623758328E+02  0.15973797011E+02  0.10000438001E+03  0.51100000000E-03 0. -1.
     200002    1    4    4    0    0  0.53845070590E+02 -0.15968111087E+02  0.32184764484E+02  0.71345155851E+02  0.30000000000E+02 0. -1.
     200000    1    3    3    0    0  0.22244653456E+03 -0.18449206153E+03  0.42769365579E+03  0.71863874423E+03  0.50000000000E+03 0. -1.
    -200001    1    1    2    0    0 -0.19340489710E+03  0.14683641428E+03 -0.46099006548E+03  0.87262719832E+03  0.70000000000E+03 0.  1.
<mgrwt>
<rscale>  0 0.17625528E+04</rscale>
<asrwt>0</asrwt>
<pdfrwt beam="1">  1        1 0.12483952E+00 0.17625528E+04</pdfrwt>
<pdfrwt beam="2">  1       -1 0.12696269E+00 0.17625528E+04</pdfrwt>
<totfact> 0.11052310E+01</totfact>
</mgrwt>
</event>
<event>
 8    1  0.3955539E-010  0.1671378E+04  0.7818608E-02  0.8777859E-01
          1   -1    0    0  501    0  0.00000000000E+00  0.00000000000E+00  0.14258062940E+04  0.14258062940E+04  0.50400000000E-02 0. -1.
         -1   -1    0    0    0  501 -0.00000000000E+00 -0.00000000000E+00 -0.48981163367E+03  0.48981163370E+03  0.50400000000E-02 0.  1.
     200001    2    1    2    0    0 -0.14736701213E+03 -0.42066117668E+03  0.46381302774E+03  0.96082561733E+03  0.71371596618E+03 0.  0.
    5000001    2    3    3    0    0 -0.17187143751E+03 -0.38271447222E+02  0.17407215350E+03  0.26744826966E+03  0.10110869209E+03 0.  0.
        -11    1    4    4    0    0 -0.94381172162E+02  0.24662597218E+02  0.69333826374E+02  0.11967969268E+03  0.51100000000E-03 0. -1.
     200002    1    4    4    0    0 -0.77490265345E+02 -0.62934044440E+02  0.10473832713E+03  0.14776857698E+03  0.30000000000E+02 0. -1.
     200000    1    3    3    0    0  0.24504425373E+02 -0.38238972946E+03  0.28974087424E+03  0.69337734767E+03  0.50000000000E+03 0.  1.
    -200001    1    1    2    0    0  0.14736701213E+03  0.42066117668E+03  0.47218163262E+03  0.95479231041E+03  0.70000000000E+03 0.  1.
<mgrwt>
<rscale>  0 0.16713785E+04</rscale>
<asrwt>0</asrwt>
<pdfrwt beam="1">  1        1 0.20368661E+00 0.16713785E+04</pdfrwt>
<pdfrwt beam="2">  1       -1 0.69973090E-01 0.16713785E+04</pdfrwt>
<totfact> 0.17177485E+01</totfact>
</mgrwt>
</event>
<event>
 8    1  0.3893101E-010  0.1817285E+04  0.7818608E-02  0.8697161E-01
          1   -1    0    0  501    0  0.00000000000E+00  0.00000000000E+00  0.15129018580E+04  0.15129018580E+04  0.50400000000E-02 0.  1.
         -1   -1    0    0    0  501 -0.00000000000E+00 -0.00000000000E+00 -0.54572701073E+03  0.54572701076E+03  0.50400000000E-02 0. -1.
     200001    2    1    2    0    0  0.12221290728E+03  0.55654513595E+03  0.60199123608E+03  0.10849566688E+04  0.70004217152E+03 0.  0.
    5000001    2    3    3    0    0 -0.17045144285E+02  0.15802121095E+03  0.16105403996E+03  0.29588142868E+03  0.19064673089E+03 0.  0.
        -11    1    4    4    0    0  0.65575737630E+02  0.11245707789E+03  0.14621459556E+03  0.19576894464E+03  0.51100000000E-03 0. -1.
     200002    1    4    4    0    0 -0.82620881915E+02  0.45564133058E+02  0.14839444403E+02  0.10011248404E+03  0.30000000000E+02 0. -1.
     200000    1    3    3    0    0  0.13925805156E+03  0.39852392500E+03  0.44093719612E+03  0.78907524016E+03  0.50000000000E+03 0.  1.
    -200001    1    1    2    0    0 -0.12221290728E+03 -0.55654513595E+03  0.36518361122E+03  0.97367219995E+03  0.70000000000E+03 0. -1.
<mgrwt>
<rscale>  0 0.18172852E+04</rscale>
<asrwt>0</asrwt>
<pdfrwt beam="1">  1        1 0.21612884E+00 0.18172852E+04</pdfrwt>
<pdfrwt beam="2">  1       -1 0.77961001E-01 0.18172852E+04</pdfrwt>
<totfact> 0.11876691E+01</totfact>
</mgrwt>
</event>
<event>
 8    1  0.3893101E-010  0.1810294E+04  0.7818608E-02  0.8700844E-01
         -1   -1    0    0    0  501 -0.00000000000E+00  0.00000000000E+00  0.22756664752E+03  0.22756664757E+03  0.50400000000E-02 0.  1.
          1   -1    0    0  501    0  0.00000000000E+00 -0.00000000000E+00 -0.36002253467E+04  0.36002253467E+04  0.50400000000E-02 0. -1.
     200001    2    1    2    0    0  0.35481467129E+03  0.14803895101E+03 -0.25871293870E+04  0.27075842983E+04  0.69997520315E+03 0.  0.
    5000001    2    3    3    0    0  0.34236249133E+02 -0.78957933666E+02 -0.85932495340E+03  0.86649595947E+03  0.70493944370E+02 0.  0.
        -11    1    4    4    0    0  0.31067944360E+02 -0.74869824487E+01 -0.32525695914E+03  0.32682313495E+03  0.51100000000E-03 0. -1.
     200002    1    4    4    0    0  0.31683047736E+01 -0.71470951217E+02 -0.53406799427E+03  0.53967282452E+03  0.30000000000E+02 0. -1.
     200000    1    3    3    0    0  0.32057842216E+03  0.22699688468E+03 -0.17278044336E+04  0.18410883388E+04  0.50000000000E+03 0. -1.
    -200001    1    1    2    0    0 -0.35481467129E+03 -0.14803895101E+03 -0.78552931220E+03  0.11202076961E+04  0.70000000000E+03 0.  1.
<mgrwt>
<rscale>  0 0.18102941E+04</rscale>
<asrwt>0</asrwt>
<pdfrwt beam="1">  1        1 0.51431787E+00 0.18102941E+04</pdfrwt>
<pdfrwt beam="2">  1       -1 0.32509523E-01 0.18102941E+04</pdfrwt>
<totfact> 0.27831501E+00</totfact>
</mgrwt>
</event>
<event>
 8    1  0.3893101E-010  0.2047587E+04  0.7818608E-02  0.8584690E-01
          1   -1    0    0  501    0  0.00000000000E+00  0.00000000000E+00  0.35033032367E+04  0.35033032367E+04  0.50400000000E-02 0.  1.
         -1   -1    0    0    0  501 -0.00000000000E+00 -0.00000000000E+00 -0.29918984534E+03  0.29918984538E+03  0.50400000000E-02 0. -1.
     200001    2    1    2    0    0 -0.32728444017E+03  0.46211883419E+03  0.25071777313E+04  0.26639026219E+04  0.69983432407E+03 0.  0.
    5000001    2    3    3    0    0  0.17142906525E+01  0.55457975237E+02  0.51151537938E+03  0.54110224461E+03  0.16752650529E+03 0.  0.
        -11    1    4    4    0    0 -0.35144456904E+02 -0.16031658440E+02  0.39228978609E+03  0.39418704087E+03  0.51100000000E-03 0. -1.
     200002    1    4    4    0    0  0.36858747556E+02  0.71489633677E+02  0.11922559329E+03  0.14691520374E+03  0.30000000000E+02 0. -1.
     200000    1    3    3    0    0 -0.32899873082E+03  0.40666085895E+03  0.19956623519E+04  0.21228003773E+04  0.50000000000E+03 0.  1.
    -200001    1    1    2    0    0  0.32728444017E+03 -0.46211883419E+03  0.69693566009E+03  0.11385904602E+04  0.70000000000E+03 0. -1.
<mgrwt>
<rscale>  0 0.20475866E+04</rscale>
<asrwt>0</asrwt>
<pdfrwt beam="1">  1        1 0.50047186E+00 0.20475866E+04</pdfrwt>
<pdfrwt beam="2">  1       -1 0.42741409E-01 0.20475866E+04</pdfrwt>
<totfact> 0.19414948E+00</totfact>
</mgrwt>
</event>
<event>
 8    1  0.3893101E-010  0.1914276E+04  0.7818608E-02  0.8647783E-01
         -1   -1    0    0    0  501 -0.00000000000E+00  0.00000000000E+00  0.58847758147E+03  0.58847758149E+03  0.50400000000E-02 0. -1.
          1   -1    0    0  501    0  0.00000000000E+00 -0.00000000000E+00 -0.15567509594E+04  0.15567509594E+04  0.50400000000E-02 0.  1.
     200001    2    1    2    0    0 -0.48191812130E+03  0.29684889673E+03 -0.11958207244E+03  0.90803766026E+03  0.69990583459E+03 0.  0.
    5000001    2    3    3    0    0 -0.20569709981E+03  0.75506421898E+02 -0.39751063851E+02  0.29024842937E+03  0.18614909900E+03 0.  0.
        -11    1    4    4    0    0  0.98795465229E+01 -0.39461358633E+02 -0.12693029858E+02  0.42613580839E+02  0.51100000000E-03 0. -1.
     200002    1    4    4    0    0 -0.21557664633E+03  0.11496778053E+03 -0.27058033993E+02  0.24763484853E+03  0.30000000000E+02 0. -1.
     200000    1    3    3    0    0 -0.27622102149E+03  0.22134247483E+03 -0.79831008585E+02  0.61778923089E+03  0.50000000000E+03 0.  1.
    -200001    1    1    2    0    0  0.48191812130E+03 -0.29684889673E+03 -0.84869130552E+03  0.12371908807E+04  0.70000000000E+03 0.  1.
<mgrwt>
<rscale>  0 0.19142759E+04</rscale>
<asrwt>0</asrwt>
<pdfrwt beam="1">  1        1 0.22239299E+00 0.19142759E+04</pdfrwt>
<pdfrwt beam="2">  1       -1 0.84068226E-01 0.19142759E+04</pdfrwt>
<totfact> 0.93894416E+00</totfact>
</mgrwt>
</event>
<event>
 8    1  0.3893101E-010  0.1643074E+04  0.7818608E-02  0.8794514E-01
          1   -1    0    0  501    0  0.00000000000E+00  0.00000000000E+00  0.73670930092E+03  0.73670930093E+03  0.50400000000E-02 0.  1.
         -1   -1    0    0    0  501 -0.00000000000E+00 -0.00000000000E+00 -0.91613213000E+03  0.91613213002E+03  0.50400000000E-02 0. -1.
     200001    2    1    2    0    0 -0.47607220302E+02  0.42277925516E+03 -0.15111514365E+03  0.83320122265E+03  0.70027119373E+03 0.  0.
    5000001    2    3    3    0    0 -0.36599204217E+02 -0.21265299769E+02 -0.63486868254E+02  0.15868253660E+03  0.13913249174E+03 0.  0.
        -11    1    4    4    0    0 -0.26258152474E+02 -0.76834031865E+02 -0.40027295563E+02  0.90527031401E+02  0.51100000000E-03 0. -1.
     200002    1    4    4    0    0 -0.10341051743E+02  0.55568732096E+02 -0.23459572691E+02  0.68155505198E+02  0.30000000000E+02 0. -1.
     200000    1    3    3    0    0 -0.11008016085E+02  0.44404455493E+03 -0.87628275393E+02  0.67451868605E+03  0.50000000000E+03 0.  1.
    -200001    1    1    2    0    0  0.47607220302E+02 -0.42277925516E+03 -0.28307685439E+02  0.81964020831E+03  0.70000000000E+03 0.  1.
<mgrwt>
<rscale>  0 0.16430740E+04</rscale>
<asrwt>0</asrwt>
<pdfrwt beam="1">  1        1 0.10524419E+00 0.16430740E+04</pdfrwt>
<pdfrwt beam="2">  1       -1 0.13087602E+00 0.16430740E+04</pdfrwt>
<totfact> 0.13494267E+01</totfact>
</mgrwt>
</event>
<event>
 8    1  0.3893101E-010  0.1657209E+04  0.7818608E-02  0.8786153E-01
          1   -1    0    0  501    0  0.00000000000E+00  0.00000000000E+00  0.31139965608E+04  0.31139965608E+04  0.50400000000E-02 0.  1.
         -1   -1    0    0    0  501 -0.00000000000E+00 -0.00000000000E+00 -0.22048362279E+03  0.22048362284E+03  0.50400000000E-02 0. -1.
     200001    2    1    2    0    0  0.32643287023E+03 -0.21220000655E+03  0.10213894599E+04  0.12982008367E+04  0.70035828120E+03 0.  0.
    5000001    2    3    3    0    0  0.12605124677E+03 -0.31728382314E+02  0.21183176863E+03  0.30920818875E+03  0.18396031838E+03 0.  0.
        -11    1    4    4    0    0 -0.12862148781E+01 -0.74616990235E+02  0.12756826603E+03  0.14779381611E+03  0.51100000000E-03 0. -1.
     200002    1    4    4    0    0  0.12733746164E+03  0.42888607920E+02  0.84263502591E+02  0.16141437264E+03  0.30000000000E+02 0. -1.
     200000    1    3    3    0    0  0.20038162347E+03 -0.18047162424E+03  0.80955769127E+03  0.98899264794E+03  0.50000000000E+03 0. -1.
    -200001    1    1    2    0    0 -0.32643287023E+03  0.21220000655E+03  0.18721234782E+04  0.20362793470E+04  0.70000000000E+03 0. -1.
<mgrwt>
<rscale>  0 0.16572088E+04</rscale>
<asrwt>0</asrwt>
<pdfrwt beam="1">  1        1 0.44485664E+00 0.16572088E+04</pdfrwt>
<pdfrwt beam="2">  1       -1 0.31497661E-01 0.16572088E+04</pdfrwt>
<totfact> 0.64410615E+00</totfact>
</mgrwt>
</event>
<event>
 8    1  0.3893101E-010  0.1870040E+04  0.7818608E-02  0.8669915E-01
         -1   -1    0    0    0  501 -0.00000000000E+00  0.00000000000E+00  0.55683896984E+03  0.55683896987E+03  0.50400000000E-02 0. -1.
          1   -1    0    0  501    0  0.00000000000E+00 -0.00000000000E+00 -0.15700460847E+04  0.15700460847E+04  0.50400000000E-02 0.  1.
     200001    2    1    2    0    0 -0.42235706068E+03 -0.58653447542E+02  0.19564304483E+01  0.82213115542E+03  0.70290119895E+03 0.  0.
    5000001    2    3    3    0    0 -0.20826771912E+03  0.28030160150E+02 -0.53351846299E+02  0.26859046181E+03  0.15853480364E+03 0.  0.
        -11    1    4    4    0    0 -0.20825674004E+03  0.29273101961E+02 -0.34268054208E+01  0.21033194542E+03  0.51100000000E-03 0. -1.
     200002    1    4    4    0    0 -0.10979084493E-01 -0.12429418104E+01 -0.49925040878E+02  0.58258516386E+02  0.30000000000E+02 0.  1.
     200000    1    3    3    0    0 -0.21408934155E+03 -0.86683607692E+02  0.55308276747E+02  0.55354069361E+03  0.50000000000E+03 0. -1.
    -200001    1    1    2    0    0  0.42235706068E+03  0.58653447542E+02 -0.10151635453E+04  0.13047538991E+04  0.70000000000E+03 0.  1.
<mgrwt>
<rscale>  0 0.18700405E+04</rscale>
<asrwt>0</asrwt>
<pdfrwt beam="1">  1        1 0.22429230E+00 0.18700405E+04</pdfrwt>
<pdfrwt beam="2">  1       -1 0.79548425E-01 0.18700405E+04</pdfrwt>
<totfact> 0.10401179E+01</totfact>
</mgrwt>
</event>
<event>
 8    1  0.3893101E-010  0.1475532E+04  0.7818608E-02  0.8900889E-01
         -1   -1    0    0    0  501 -0.00000000000E+00  0.00000000000E+00  0.16709031185E+04  0.16709031185E+04  0.50400000000E-02 0. -1.
          1   -1    0    0  501    0  0.00000000000E+00 -0.00000000000E+00 -0.32575122323E+03  0.32575122327E+03  0.50400000000E-02 0.  1.
     200001    2    1    2    0    0 -0.13484272431E+03 -0.17801752454E+03  0.58570365080E+03  0.93994509353E+03  0.70041074588E+03 0.  0.
    5000001    2    3    3    0    0 -0.20568854767E+02 -0.43834733687E+02  0.20903742235E+03  0.28960596179E+03  0.19450040487E+03 0.  0.
        -11    1    4    4    0    0 -0.57981865779E+02  0.28292886616E+02  0.19036602890E+03  0.20100151530E+03  0.51100000000E-03 0. -1.
     200002    1    4    4    0    0  0.37413011011E+02 -0.72127620303E+02  0.18671393447E+02  0.88604446484E+02  0.30000000000E+02 0. -1.
     200000    1    3    3    0    0 -0.11427386955E+03 -0.13418279085E+03  0.37666622845E+03  0.65033913174E+03  0.50000000000E+03 0. -1.
    -200001    1    1    2    0    0  0.13484272431E+03  0.17801752454E+03  0.75944824450E+03  0.10567092483E+04  0.70000000000E+03 0. -1.
<mgrwt>
<rscale>  0 0.14755321E+04</rscale>
<asrwt>0</asrwt>
<pdfrwt beam="1">  1        1 0.46535889E-01 0.14755321E+04</pdfrwt>
<pdfrwt beam="2">  1       -1 0.23870045E+00 0.14755321E+04</pdfrwt>
<totfact> 0.69655916E+00</totfact>
</mgrwt>
</event>
<event>
 8    1  0.3893101E-010  0.1490537E+04  0.7818608E-02  0.8890770E-01
          1   -1    0    0  501    0  0.00000000000E+00  0.00000000000E+00  0.10253660458E+04  0.10253660458E+04  0.50400000000E-02 0.  1.
         -1   -1    0    0    0  501 -0.00000000000E+00 -0.00000000000E+00 -0.54168484579E+03  0.54168484582E+03  0.50400000000E-02 0. -1.
     200001    2    1    2    0    0 -0.15127271038E+02 -0.25528528318E+03  0.24170302244E+03  0.78349945836E+03  0.70003688478E+03 0.  0.
    5000001    2    3    3    0    0 -0.39654529247E+02 -0.79942225987E+02  0.87468967330E+02  0.23110927211E+03  0.19441562238E+03 0.  0.
        -11    1    4    4    0    0  0.19253941624E+02 -0.56322463406E+00 -0.53202545326E+02  0.56582173160E+02  0.51100000000E-03 0. -1.
     200002    1    4    4    0    0 -0.58908470871E+02 -0.79379001353E+02  0.14067151266E+03  0.17452709895E+03  0.30000000000E+02 0. -1.
     200000    1    3    3    0    0  0.24527258209E+02 -0.17534305720E+03  0.15423405511E+03  0.55239018624E+03  0.50000000000E+03 0.  1.
    -200001    1    1    2    0    0  0.15127271038E+02  0.25528528318E+03  0.24197817754E+03  0.78355143325E+03  0.70000000000E+03 0. -1.
<mgrwt>
<rscale>  0 0.14905371E+04</rscale>
<asrwt>0</asrwt>
<pdfrwt beam="1">  1        1 0.14648086E+00 0.14905371E+04</pdfrwt>
<pdfrwt beam="2">  1       -1 0.77383550E-01 0.14905371E+04</pdfrwt>
<totfact> 0.26826590E+01</totfact>
</mgrwt>
</event>
<event>
 8    1  0.3893101E-010  0.1456765E+04  0.7818608E-02  0.8913724E-01
         -1   -1    0    0    0  501 -0.00000000000E+00  0.00000000000E+00  0.90744269142E+03  0.90744269144E+03  0.50400000000E-02 0. -1.
          1   -1    0    0  501    0  0.00000000000E+00 -0.00000000000E+00 -0.58465487970E+03  0.58465487972E+03  0.50400000000E-02 0.  1.
     200001    2    1    2    0    0  0.79781498248E+02 -0.67386351809E+02 -0.16044097088E+02  0.70742370877E+03  0.69948901550E+03 0.  0.
    5000001    2    3    3    0    0 -0.20703967918E+02  0.54597170626E+02 -0.22651409620E+02  0.18299929550E+03  0.17194810400E+03 0.  0.
        -11    1    4    4    0    0 -0.59391649741E+02 -0.36855556652E+02 -0.35635909049E+02  0.78457747413E+02  0.51100000000E-03 0. -1.
     200002    1    4    4    0    0  0.38687681824E+02  0.91452727278E+02  0.12984499429E+02  0.10454154809E+03  0.30000000000E+02 0. -1.
     200000    1    3    3    0    0  0.10048546617E+03 -0.12198352243E+03  0.66073125319E+01  0.52442441327E+03  0.50000000000E+03 0.  1.
    -200001    1    1    2    0    0 -0.79781498248E+02  0.67386351809E+02  0.33883190881E+03  0.78467386238E+03  0.70000000000E+03 0. -1.
<mgrwt>
<rscale>  0 0.14567646E+04</rscale>
<asrwt>0</asrwt>
<pdfrwt beam="1">  1        1 0.83522127E-01 0.14567646E+04</pdfrwt>
<pdfrwt beam="2">  1       -1 0.12963467E+00 0.14567646E+04</pdfrwt>
<totfact> 0.19639623E+01</totfact>
</mgrwt>
</event>
<event>
 8    1  0.3893101E-010  0.1707623E+04  0.7818608E-02  0.8757028E-01
         -1   -1    0    0    0  501 -0.00000000000E+00  0.00000000000E+00  0.22934588257E+03  0.22934588262E+03  0.50400000000E-02 0. -1.
          1   -1    0    0  501    0  0.00000000000E+00 -0.00000000000E+00 -0.31785800290E+04  0.31785800290E+04  0.50400000000E-02 0.  1.
     200001    2    1    2    0    0 -0.26008565822E+03  0.19709119874E+03 -0.74605984147E+03  0.10733024927E+04  0.69920201909E+03 0.  0.
    5000001    2    3    3    0    0 -0.13835721216E+03  0.70954010293E+02 -0.20325556891E+03  0.31477438957E+03  0.18328366077E+03 0.  0.
        -11    1    4    4    0    0 -0.95214599756E+02  0.11360196192E+03 -0.19738410155E+03  0.24684349151E+03  0.51100000000E-03 0. -1.
     200002    1    4    4    0    0 -0.43142612399E+02 -0.42647951626E+02 -0.58714673657E+01  0.67930898062E+02  0.30000000000E+02 0. -1.
     200000    1    3    3    0    0 -0.12172844606E+03  0.12613718845E+03 -0.54280427256E+03  0.75852810310E+03  0.50000000000E+03 0. -1.
    -200001    1    1    2    0    0  0.26008565822E+03 -0.19709119874E+03 -0.22031743049E+04  0.23346234189E+04  0.70000000000E+03 0.  1.
<mgrwt>
<rscale>  0 0.17076232E+04</rscale>
<asrwt>0</asrwt>
<pdfrwt beam="1">  1        1 0.45408283E+00 0.17076232E+04</pdfrwt>
<pdfrwt beam="2">  1       -1 0.32763700E-01 0.17076232E+04</pdfrwt>
<totfact> 0.54129053E+00</totfact>
</mgrwt>
</event>
<event>
 8    1  0.3893101E-010  0.1616742E+04  0.7818608E-02  0.8810328E-01
          1   -1    0    0  501    0  0.00000000000E+00  0.00000000000E+00  0.17244358001E+04  0.17244358001E+04  0.50400000000E-02 0.  1.
         -1   -1    0    0    0  501 -0.00000000000E+00 -0.00000000000E+00 -0.37894342619E+03  0.37894342622E+03  0.50400000000E-02 0. -1.
     200001    2    1    2    0    0 -0.19392382260E+03  0.17055342802E+03  0.10748163350E+04  0.13096787546E+04  0.70237693976E+03 0.  0.
    5000001    2    3    3    0    0 -0.75958645337E+02  0.64435134083E+01  0.20101344898E+03  0.28284900692E+03  0.18380946487E+03 0.  0.
        -11    1    4    4    0    0 -0.10671450111E+03 -0.44398739303E+02  0.17835852043E+03  0.21253469036E+03  0.51100000000E-03 0. -1.
     200002    1    4    4    0    0  0.30755855769E+02  0.50842252712E+02  0.22654928553E+02  0.70314316555E+02  0.30000000000E+02 0. -1.
     200000    1    3    3    0    0 -0.11796517726E+03  0.16410991461E+03  0.87380288602E+03  0.10268297477E+04  0.50000000000E+03 0.  1.
    -200001    1    1    2    0    0  0.19392382260E+03 -0.17055342802E+03  0.27067603893E+03  0.79370047173E+03  0.70000000000E+03 0. -1.
<mgrwt>
<rscale>  0 0.16167419E+04</rscale>
<asrwt>0</asrwt>
<pdfrwt beam="1">  1        1 0.24634797E+00 0.16167419E+04</pdfrwt>
<pdfrwt beam="2">  1       -1 0.54134776E-01 0.16167419E+04</pdfrwt>
<totfact> 0.18426767E+01</totfact>
</mgrwt>
</event>
<event>
 8    1  0.3893101E-010  0.1900864E+04  0.7818608E-02  0.8654427E-01
         -1   -1    0    0    0  501 -0.00000000000E+00  0.00000000000E+00  0.64446673105E+03  0.64446673107E+03  0.50400000000E-02 0. -1.
          1   -1    0    0  501    0  0.00000000000E+00 -0.00000000000E+00 -0.14016560253E+04  0.14016560253E+04  0.50400000000E-02 0.  1.
     200001    2    1    2    0    0  0.32762787227E+03 -0.49677751044E+03 -0.11678744189E+03  0.92619309339E+03  0.70004744275E+03 0.  0.
    5000001    2    3    3    0    0  0.14770051147E+03 -0.16776056086E+03 -0.24287483709E+02  0.29438437983E+03  0.19003482406E+03 0.  0.
        -11    1    4    4    0    0  0.14652340835E+03 -0.28614066488E+02  0.35774168553E+01  0.14933409492E+03  0.51100000000E-03 0. -1.
     200002    1    4    4    0    0  0.11771031201E+01 -0.13914649437E+03 -0.27864900564E+02  0.14505028490E+03  0.30000000000E+02 0. -1.
     200000    1    3    3    0    0  0.17992736080E+03 -0.32901694958E+03 -0.92499958180E+02  0.63180871357E+03  0.50000000000E+03 0. -1.
    -200001    1    1    2    0    0 -0.32762787227E+03  0.49677751044E+03 -0.64040185238E+03  0.11199296630E+04  0.70000000000E+03 0.  1.
<mgrwt>
<rscale>  0 0.19008637E+04</rscale>
<asrwt>0</asrwt>
<pdfrwt beam="1">  1        1 0.20023657E+00 0.19008637E+04</pdfrwt>
<pdfrwt beam="2">  1       -1 0.92066676E-01 0.19008637E+04</pdfrwt>
<totfact> 0.97344953E+00</totfact>
</mgrwt>
</event>
<event>
 8    1  0.3893101E-010  0.1905054E+04  0.7818608E-02  0.8652345E-01
          1   -1    0    0  501    0  0.00000000000E+00  0.00000000000E+00  0.59111386329E+03  0.59111386331E+03  0.50400000000E-02 0.  1.
         -1   -1    0    0    0  501 -0.00000000000E+00 -0.00000000000E+00 -0.15349113218E+04  0.15349113218E+04  0.50400000000E-02 0. -1.
     200001    2    1    2    0    0 -0.21866471119E+03 -0.38534122556E+03 -0.99590230295E+03  0.12959546876E+04  0.70098148284E+03 0.  0.
    5000001    2    3    3    0    0  0.29714037084E+02 -0.32193977195E+02 -0.48988329467E+02  0.14137638589E+03  0.12517208114E+03 0.  0.
        -11    1    4    4    0    0 -0.16166208819E+02 -0.61226680913E+02 -0.16515949366E+01  0.63346511579E+02  0.51100000000E-03 0. -1.
     200002    1    4    4    0    0  0.45880245902E+02  0.29032703718E+02 -0.47336734530E+02  0.78029874312E+02  0.30000000000E+02 0. -1.
     200000    1    3    3    0    0 -0.24837874827E+03 -0.35314724837E+03 -0.94691397348E+03  0.11545783017E+04  0.50000000000E+03 0. -1.
    -200001    1    1    2    0    0  0.21866471119E+03  0.38534122556E+03  0.52104844434E+02  0.83007049752E+03  0.70000000000E+03 0.  1.
<mgrwt>
<rscale>  0 0.19050537E+04</rscale>
<asrwt>0</asrwt>
<pdfrwt beam="1">  1        1 0.84444838E-01 0.19050537E+04</pdfrwt>
<pdfrwt beam="2">  1       -1 0.21927304E+00 0.19050537E+04</pdfrwt>
<totfact> 0.40636033E+00</totfact>
</mgrwt>
</event>
<event>
 8    1  0.3893101E-010  0.1509922E+04  0.7818608E-02  0.8877882E-01
         -1   -1    0    0    0  501 -0.00000000000E+00  0.00000000000E+00  0.62459738951E+03  0.62459738953E+03  0.50400000000E-02 0.  1.
          1   -1    0    0  501    0  0.00000000000E+00 -0.00000000000E+00 -0.91253314837E+03  0.91253314839E+03  0.50400000000E-02 0. -1.
     200001    2    1    2    0    0  0.19725105821E+03  0.19838249380E+03 -0.18925992962E+03  0.77686708813E+03  0.69959956964E+03 0.  0.
    5000001    2    3    3    0    0  0.16371202798E+02  0.15127070751E+03 -0.76795662780E+02  0.23135333595E+03  0.15644791146E+03 0.  0.
        -11    1    4    4    0    0  0.65008753633E+02  0.10858372147E+02 -0.32070391731E+02  0.73297696558E+02  0.51100000000E-03 0. -1.
     200002    1    4    4    0    0 -0.48637550836E+02  0.14041233536E+03 -0.44725271049E+02  0.15805563939E+03  0.30000000000E+02 0. -1.
     200000    1    3    3    0    0  0.18087985541E+03  0.47111786296E+02 -0.11246426684E+03  0.54551375218E+03  0.50000000000E+03 0. -1.
    -200001    1    1    2    0    0 -0.19725105821E+03 -0.19838249380E+03 -0.98675829247E+02  0.76026344979E+03  0.70000000000E+03 0.  1.
<mgrwt>
<rscale>  0 0.15099216E+04</rscale>
<asrwt>0</asrwt>
<pdfrwt beam="1">  1        1 0.13036188E+00 0.15099216E+04</pdfrwt>
<pdfrwt beam="2">  1       -1 0.89228198E-01 0.15099216E+04</pdfrwt>
<totfact> 0.24026089E+01</totfact>
</mgrwt>
</event>
<event>
 8    1  0.3893101E-010  0.1979493E+04  0.7818608E-02  0.8616269E-01
         -1   -1    0    0    0  501 -0.00000000000E+00  0.00000000000E+00  0.54318875048E+03  0.54318875050E+03  0.50400000000E-02 0. -1.
          1   -1    0    0  501    0  0.00000000000E+00 -0.00000000000E+00 -0.18034214013E+04  0.18034214013E+04  0.50400000000E-02 0.  1.
     200001    2    1    2    0    0 -0.48275633188E+03  0.19970737831E+02 -0.12304357021E+04  0.14955282729E+04  0.69941424903E+03 0.  0.
    5000001    2    3    3    0    0 -0.19554977713E+03  0.70312324075E+02 -0.42972302961E+03  0.50751882748E+03  0.17242372172E+03 0.  0.
        -11    1    4    4    0    0 -0.20560816519E+01  0.73669210005E+02 -0.13151981160E+03  0.15076087297E+03  0.51100000000E-03 0. -1.
     200002    1    4    4    0    0 -0.19349369548E+03 -0.33568859308E+01 -0.29820321801E+03  0.35675795451E+03  0.30000000000E+02 0. -1.
     200000    1    3    3    0    0 -0.28720655475E+03 -0.50341586244E+02 -0.80071267249E+03  0.98800944544E+03  0.50000000000E+03 0.  1.
    -200001    1    1    2    0    0  0.48275633188E+03 -0.19970737831E+02 -0.29796948676E+02  0.85108187884E+03  0.70000000000E+03 0. -1.
<mgrwt>
<rscale>  0 0.19794931E+04</rscale>
<asrwt>0</asrwt>
<pdfrwt beam="1">  1        1 0.25763163E+00 0.19794931E+04</pdfrwt>
<pdfrwt beam="2">  1       -1 0.77598394E-01 0.19794931E+04</pdfrwt>
<totfact> 0.77004150E+00</totfact>
</mgrwt>
</event>
<event>
 8    1  0.3893101E-010  0.1783100E+04  0.7818608E-02  0.8715338E-01
         -1   -1    0    0    0  501 -0.00000000000E+00  0.00000000000E+00  0.13749872039E+04  0.13749872039E+04  0.50400000000E-02 0. -1.
          1   -1    0    0  501    0  0.00000000000E+00 -0.00000000000E+00 -0.57808666843E+03  0.57808666845E+03  0.50400000000E-02 0.  1.
     200001    2    1    2    0    0  0.35200377059E+02  0.11359365925E+03  0.98917917554E+03  0.12174695892E+04  0.69972435533E+03 0.  0.
    5000001    2    3    3    0    0  0.44551123915E+02  0.95376836371E+02  0.98078421815E+02  0.19547162330E+03  0.13231868777E+03 0.  0.
        -11    1    4    4    0    0  0.12923133107E+02  0.62301783763E+02 -0.18859412988E+02  0.66364125007E+02  0.51100000000E-03 0. -1.
     200002    1    4    4    0    0  0.31627990808E+02  0.33075052608E+02  0.11693783480E+03  0.12910749829E+03  0.30000000000E+02 0. -1.
     200000    1    3    3    0    0 -0.93507468560E+01  0.18216822882E+02  0.89110075373E+03  0.10219979659E+04  0.50000000000E+03 0. -1.
    -200001    1    1    2    0    0 -0.35200377059E+02 -0.11359365925E+03 -0.19227864004E+03  0.73560428315E+03  0.70000000000E+03 0.  1.
<mgrwt>
<rscale>  0 0.17831004E+04</rscale>
<asrwt>0</asrwt>
<pdfrwt beam="1">  1        1 0.82583810E-01 0.17831004E+04</pdfrwt>
<pdfrwt beam="2">  1       -1 0.19642674E+00 0.17831004E+04</pdfrwt>
<totfact> 0.60635716E+00</totfact>
</mgrwt>
</event>
<event>
 8    1  0.3893101E-010  0.2359153E+04  0.7818608E-02  0.8454956E-01
          1   -1    0    0  501    0  0.00000000000E+00  0.00000000000E+00  0.87676799470E+03  0.87676799471E+03  0.50400000000E-02 0.  1.
         -1   -1    0    0    0  501 -0.00000000000E+00 -0.00000000000E+00 -0.15869658304E+04  0.15869658305E+04  0.50400000000E-02 0. -1.
     200001    2    1    2    0    0 -0.24718290091E+03  0.91043055269E+03 -0.24301651643E+03  0.11995180355E+04  0.69985949477E+03 0.  0.
    5000001    2    3    3    0    0 -0.47497662447E+02  0.27691625562E+03  0.24404435660E+02  0.32617473261E+03  0.16387720754E+03 0.  0.
        -11    1    4    4    0    0  0.12130239011E+02 -0.15223494826E+02  0.17886835244E+02  0.26435513395E+02  0.51100000000E-03 0. -1.
     200002    1    4    4    0    0 -0.59627901458E+02  0.29213975045E+03  0.65176004166E+01  0.29973921922E+03  0.30000000000E+02 0. -1.
     200000    1    3    3    0    0 -0.19968523846E+03  0.63351429707E+03 -0.26742095209E+03  0.87334330287E+03  0.50000000000E+03 0.  1.
    -200001    1    1    2    0    0  0.24718290091E+03 -0.91043055269E+03 -0.46718131932E+03  0.12642157897E+04  0.70000000000E+03 0. -1.
<mgrwt>
<rscale>  0 0.23591531E+04</rscale>
<asrwt>0</asrwt>
<pdfrwt beam="1">  1        1 0.12525257E+00 0.23591531E+04</pdfrwt>
<pdfrwt beam="2">  1       -1 0.22670940E+00 0.23591531E+04</pdfrwt>
<totfact> 0.19291902E+00</totfact>
</mgrwt>
</event>
<event>
 8    1  0.3893101E-010  0.1739099E+04  0.7818608E-02  0.8739374E-01
          1   -1    0    0  501    0  0.00000000000E+00  0.00000000000E+00  0.90263385062E+03  0.90263385064E+03  0.50400000000E-02 0.  1.
         -1   -1    0    0    0  501 -0.00000000000E+00 -0.00000000000E+00 -0.83767734616E+03  0.83767734618E+03  0.50400000000E-02 0. -1.
     200001    2    1    2    0    0 -0.11275200403E+03 -0.27115395515E+03  0.45763346933E+03  0.88565765265E+03  0.69908769382E+03 0.  0.
    5000001    2    3    3    0    0 -0.70898830312E+02 -0.68607201785E+02  0.12694585429E+03  0.25151951771E+03  0.19342498699E+03 0.  0.
        -11    1    4    4    0    0 -0.13459688799E+03 -0.39730903533E+02  0.91790156210E+02  0.16769108423E+03  0.51100000000E-03 0. -1.
     200002    1    4    4    0    0  0.63698057678E+02 -0.28876298253E+02  0.35155698083E+02  0.83828433484E+02  0.30000000000E+02 0. -1.
     200000    1    3    3    0    0 -0.41853173720E+02 -0.20254675337E+03  0.33068761503E+03  0.63413813494E+03  0.50000000000E+03 0.  1.
    -200001    1    1    2    0    0  0.11275200403E+03  0.27115395515E+03 -0.39267696487E+03  0.85465354416E+03  0.70000000000E+03 0.  1.
<mgrwt>
<rscale>  0 0.17390985E+04</rscale>
<asrwt>0</asrwt>
<pdfrwt beam="1">  1        1 0.12894769E+00 0.17390985E+04</pdfrwt>
<pdfrwt beam="2">  1       -1 0.11966819E+00 0.17390985E+04</pdfrwt>
<totfact> 0.12163581E+01</totfact>
</mgrwt>
</event>
<event>
 8    1  0.3893101E-010  0.2191973E+04  0.7818608E-02  0.8521777E-01
         -1   -1    0    0    0  501 -0.00000000000E+00  0.00000000000E+00  0.22768227715E+04  0.22768227715E+04  0.50400000000E-02 0. -1.
          1   -1    0    0  501    0  0.00000000000E+00 -0.00000000000E+00 -0.52757117004E+03  0.52757117006E+03  0.50400000000E-02 0.  1.
     200001    2    1    2    0    0  0.41484435939E+03 -0.54033037845E+03  0.15104464737E+04  0.17988688800E+04  0.70030560266E+03 0.  0.
    5000001    2    3    3    0    0  0.16786101959E+03 -0.11508187338E+03  0.54585888845E+03  0.60628082420E+03  0.16790876159E+03 0.  0.
        -11    1    4    4    0    0  0.14160905142E+03 -0.65732528785E+02  0.19531937839E+03  0.25004709228E+03  0.51100000000E-03 0. -1.
     200002    1    4    4    0    0  0.26251968173E+02 -0.49349344597E+02  0.35053951006E+03  0.35623373192E+03  0.30000000000E+02 0. -1.
     200000    1    3    3    0    0  0.24698333980E+03 -0.42524850507E+03  0.96458758521E+03  0.11925880558E+04  0.50000000000E+03 0.  1.
    -200001    1    1    2    0    0 -0.41484435939E+03  0.54033037845E+03  0.23880512778E+03  0.10055250616E+04  0.70000000000E+03 0.  1.
<mgrwt>
<rscale>  0 0.21919727E+04</rscale>
<asrwt>0</asrwt>
<pdfrwt beam="1">  1        1 0.75367310E-01 0.21919727E+04</pdfrwt>
<pdfrwt beam="2">  1       -1 0.32526040E+00 0.21919727E+04</pdfrwt>
<totfact> 0.94519139E-01</totfact>
</mgrwt>
</event>
<event>
 8    1  0.3893101E-010  0.1618189E+04  0.7818608E-02  0.8809451E-01
          1   -1    0    0  501    0  0.00000000000E+00  0.00000000000E+00  0.68404703703E+03  0.68404703705E+03  0.50400000000E-02 0.  1.
         -1   -1    0    0    0  501 -0.00000000000E+00 -0.00000000000E+00 -0.95700168951E+03  0.95700168952E+03  0.50400000000E-02 0. -1.
     200001    2    1    2    0    0 -0.22891690760E+03 -0.10009503077E+03  0.18764751579E+03  0.76664817580E+03  0.70008275904E+03 0.  0.
    5000001    2    3    3    0    0 -0.77825404324E+02 -0.44715347767E+02  0.62538778299E+02  0.22669655959E+03  0.19855471652E+03 0.  0.
        -11    1    4    4    0    0 -0.68440733941E+02 -0.58441252680E+02 -0.54176481940E+02  0.10504572944E+03  0.51100000000E-03 0. -1.
     200002    1    4    4    0    0 -0.93846703832E+01  0.13725904913E+02  0.11671526024E+03  0.12165083015E+03  0.30000000000E+02 0. -1.
     200000    1    3    3    0    0 -0.15109150328E+03 -0.55379683000E+02  0.12510873749E+03  0.53995161621E+03  0.50000000000E+03 0.  1.
    -200001    1    1    2    0    0  0.22891690760E+03  0.10009503077E+03 -0.46060216827E+03  0.87440055077E+03  0.70000000000E+03 0. -1.
<mgrwt>
<rscale>  0 0.16181893E+04</rscale>
<asrwt>0</asrwt>
<pdfrwt beam="1">  1        1 0.97721005E-01 0.16181893E+04</pdfrwt>
<pdfrwt beam="2">  1       -1 0.13671453E+00 0.16181893E+04</pdfrwt>
<totfact> 0.13506342E+01</totfact>
</mgrwt>
</event>
<event>
 8    1  0.3893101E-010  0.2191759E+04  0.7818608E-02  0.8521866E-01
         -1   -1    0    0    0  501 -0.00000000000E+00  0.00000000000E+00  0.68615748362E+03  0.68615748363E+03  0.50400000000E-02 0. -1.
          1   -1    0    0  501    0  0.00000000000E+00 -0.00000000000E+00 -0.17502576644E+04  0.17502576644E+04  0.50400000000E-02 0.  1.
     200001    2    1    2    0    0  0.66028599606E+03 -0.39427857318E+02 -0.11131331550E+04  0.14720830553E+04  0.70030775263E+03 0.  0.
    5000001    2    3    3    0    0  0.21063864802E+03  0.22373376237E+02 -0.29767191061E+03  0.41332001704E+03  0.19327612920E+03 0.  0.
        -11    1    4    4    0    0  0.67952754765E+02 -0.73436611093E+02 -0.16952132884E+03  0.19684510068E+03  0.51100000000E-03 0. -1.
     200002    1    4    4    0    0  0.14268589325E+03  0.95809987330E+02 -0.12815058176E+03  0.21647491636E+03  0.30000000000E+02 0. -1.
     200000    1    3    3    0    0  0.44964734804E+03 -0.61801233555E+02 -0.81546124439E+03  0.10587630382E+04  0.50000000000E+03 0. -1.
    -200001    1    1    2    0    0 -0.66028599606E+03  0.39427857318E+02  0.49032974225E+02  0.96433209274E+03  0.70000000000E+03 0. -1.
<mgrwt>
<rscale>  0 0.21917595E+04</rscale>
<asrwt>0</asrwt>
<pdfrwt beam="1">  1        1 0.25003681E+00 0.21917595E+04</pdfrwt>
<pdfrwt beam="2">  1       -1 0.98022498E-01 0.21917595E+04</pdfrwt>
<totfact> 0.49034718E+00</totfact>
</mgrwt>
</event>
<event>
 8    1  0.3893101E-010  0.2277218E+04  0.7818608E-02  0.8486958E-01
         -1   -1    0    0    0  501 -0.00000000000E+00  0.00000000000E+00  0.16652891955E+04  0.16652891955E+04  0.50400000000E-02 0. -1.
          1   -1    0    0  501    0  0.00000000000E+00 -0.00000000000E+00 -0.77850148140E+03  0.77850148142E+03  0.50400000000E-02 0.  1.
     200001    2    1    2    0    0 -0.66590356895E+03  0.43899051777E+03  0.88651016150E+03  0.13825930917E+04  0.69965931211E+03 0.  0.
    5000001    2    3    3    0    0 -0.11469385918E+03  0.20181649789E+03  0.15972935623E+03  0.31568447392E+03  0.14233284820E+03 0.  0.
        -11    1    4    4    0    0 -0.90105690020E+02  0.17920779261E+03  0.17706546131E+03  0.26755680873E+03  0.51100000000E-03 0. -1.
     200002    1    4    4    0    0 -0.24588169162E+02  0.22608705280E+02 -0.17336105085E+02  0.48127665190E+02  0.30000000000E+02 0. -1.
     200000    1    3    3    0    0 -0.55120970977E+03  0.23717401988E+03  0.72678080528E+03  0.10669086178E+04  0.50000000000E+03 0. -1.
    -200001    1    1    2    0    0  0.66590356895E+03 -0.43899051777E+03  0.27755261698E+00  0.10611975852E+04  0.70000000000E+03 0.  1.
<mgrwt>
<rscale>  0 0.22772177E+04</rscale>
<asrwt>0</asrwt>
<pdfrwt beam="1">  1        1 0.11121450E+00 0.22772177E+04</pdfrwt>
<pdfrwt beam="2">  1       -1 0.23789845E+00 0.22772177E+04</pdfrwt>
<totfact> 0.19758370E+00</totfact>
</mgrwt>
</event>
<event>
 8    1  0.3893101E-010  0.1425322E+04  0.7818608E-02  0.8935690E-01
          1   -1    0    0  501    0  0.00000000000E+00  0.00000000000E+00  0.17856580114E+04  0.17856580114E+04  0.50400000000E-02 0. -1.
         -1   -1    0    0    0  501 -0.00000000000E+00 -0.00000000000E+00 -0.28442508613E+03  0.28442508617E+03  0.50400000000E-02 0.  1.
     200001    2    1    2    0    0 -0.73727610717E+02  0.99547428686E+02  0.82885907087E+03  0.10915985288E+04  0.69945302750E+03 0.  0.
    5000001    2    3    3    0    0 -0.57615712306E+02  0.11270609494E+03  0.34098992204E+03  0.39270722818E+03  0.14806284473E+03 0.  0.
        -11    1    4    4    0    0 -0.98856920777E+02  0.87398152020E+02  0.18986395214E+03  0.23121299290E+03  0.51100000000E-03 0. -1.
     200002    1    4    4    0    0  0.41241208472E+02  0.25307942918E+02  0.15112596990E+03  0.16149423528E+03  0.30000000000E+02 0. -1.
     200000    1    3    3    0    0 -0.16111898411E+02 -0.13158666252E+02  0.48786914883E+03  0.69889130066E+03  0.50000000000E+03 0.  1.
    -200001    1    1    2    0    0  0.73727610717E+02 -0.99547428686E+02  0.67237385437E+03  0.97848456870E+03  0.70000000000E+03 0.  1.
<mgrwt>
<rscale>  0 0.14253223E+04</rscale>
<asrwt>0</asrwt>
<pdfrwt beam="1">  1        1 0.25509399E+00 0.14253223E+04</pdfrwt>
<pdfrwt beam="2">  1       -1 0.40632157E-01 0.14253223E+04</pdfrwt>
<totfact> 0.29355163E+01</totfact>
</mgrwt>
</event>
<event>
 8    1  0.3893101E-010  0.1551663E+04  0.7818608E-02  0.8850806E-01
         -1   -1    0    0    0  501 -0.00000000000E+00  0.00000000000E+00  0.45531312885E+03  0.45531312887E+03  0.50400000000E-02 0. -1.
          1   -1    0    0  501    0  0.00000000000E+00 -0.00000000000E+00 -0.13219800054E+04  0.13219800055E+04  0.50400000000E-02 0.  1.
     200001    2    1    2    0    0  0.10041628391E+03  0.24585410794E+03 -0.66370683780E+03  0.10015867145E+04  0.70152798062E+03 0.  0.
    5000001    2    3    3    0    0 -0.31256360988E+02  0.34887656430E+02 -0.22272516029E+03  0.29003252189E+03  0.17977279565E+03 0.  0.
        -11    1    4    4    0    0  0.61725123924E+02  0.54931822474E+01 -0.23637783511E+02  0.66324285026E+02  0.51100000000E-03 0. -1.
     200002    1    4    4    0    0 -0.92981484912E+02  0.29394474183E+02 -0.19908737678E+03  0.22370823687E+03  0.30000000000E+02 0. -1.
     200000    1    3    3    0    0  0.13167264490E+03  0.21096645151E+03 -0.44098167750E+03  0.71155419257E+03  0.50000000000E+03 0. -1.
    -200001    1    1    2    0    0 -0.10041628391E+03 -0.24585410794E+03 -0.20296003880E+03  0.77570641986E+03  0.70000000000E+03 0.  1.
<mgrwt>
<rscale>  0 0.15516634E+04</rscale>
<asrwt>0</asrwt>
<pdfrwt beam="1">  1        1 0.18885428E+00 0.15516634E+04</pdfrwt>
<pdfrwt beam="2">  1       -1 0.65044733E-01 0.15516634E+04</pdfrwt>
<totfact> 0.23607756E+01</totfact>
</mgrwt>
</event>
<event>
 8    1  0.3893101E-010  0.1627657E+04  0.7818608E-02  0.8803735E-01
         -1   -1    0    0    0  501 -0.00000000000E+00  0.00000000000E+00  0.42344418751E+03  0.42344418754E+03  0.50400000000E-02 0. -1.
          1   -1    0    0  501    0  0.00000000000E+00 -0.00000000000E+00 -0.15641181823E+04  0.15641181823E+04  0.50400000000E-02 0.  1.
     200001    2    1    2    0    0  0.17312221324E+03 -0.33878053690E+03 -0.36796332135E+03  0.87768609849E+03  0.70013736419E+03 0.  0.
    5000001    2    3    3    0    0  0.83480402301E+02 -0.23056056991E+03 -0.97324848308E+02  0.29203056952E+03  0.12523008214E+03 0.  0.
        -11    1    4    4    0    0 -0.69309330438E+01 -0.24716344130E+02  0.23706435670E+02  0.34941817246E+02  0.51100000000E-03 0. -1.
     200002    1    4    4    0    0  0.90411335345E+02 -0.20584422578E+03 -0.12103128398E+03  0.25708875228E+03  0.30000000000E+02 0. -1.
     200000    1    3    3    0    0  0.89641810939E+02 -0.10821996699E+03 -0.27063847304E+03  0.58565552897E+03  0.50000000000E+03 0. -1.
    -200001    1    1    2    0    0 -0.17312221324E+03  0.33878053690E+03 -0.77271067347E+03  0.11098762714E+04  0.70000000000E+03 0.  1.
<mgrwt>
<rscale>  0 0.16276569E+04</rscale>
<asrwt>0</asrwt>
<pdfrwt beam="1">  1        1 0.22344545E+00 0.16276569E+04</pdfrwt>
<pdfrwt beam="2">  1       -1 0.60492028E-01 0.16276569E+04</pdfrwt>
<totfact> 0.18776729E+01</totfact>
</mgrwt>
</event>
<event>
 8    1  0.3893101E-010  0.1710875E+04  0.7818608E-02  0.8755186E-01
          1   -1    0    0  501    0  0.00000000000E+00  0.00000000000E+00  0.28444448200E+04  0.28444448200E+04  0.50400000000E-02 0. -1.
         -1   -1    0    0    0  501 -0.00000000000E+00 -0.00000000000E+00 -0.25726395132E+03  0.25726395137E+03  0.50400000000E-02 0.  1.
     200001    2    1    2    0    0 -0.37238493897E+03  0.30704155890E+03  0.14608484433E+04  0.16904788843E+04  0.70049669691E+03 0.  0.
    5000001    2    3    3    0    0 -0.43362849848E+02 -0.21620849414E+02  0.34643707234E+03  0.38350251977E+03  0.15718695780E+03 0.  0.
        -11    1    4    4    0    0  0.84599253031E+01 -0.49900787012E+02  0.29590625804E+03  0.30020355166E+03  0.51100000000E-03 0. -1.
     200002    1    4    4    0    0 -0.51822775151E+02  0.28279937598E+02  0.50530814302E+02  0.83298968114E+02  0.30000000000E+02 0. -1.
     200000    1    3    3    0    0 -0.32902208912E+03  0.32866240831E+03  0.11144113710E+04  0.13069763645E+04  0.50000000000E+03 0. -1.
    -200001    1    1    2    0    0  0.37238493897E+03 -0.30704155890E+03  0.11263324254E+04  0.14112298871E+04  0.70000000000E+03 0.  1.
<mgrwt>
<rscale>  0 0.17108748E+04</rscale>
<asrwt>0</asrwt>
<pdfrwt beam="1">  1        1 0.40634923E+00 0.17108748E+04</pdfrwt>
<pdfrwt beam="2">  1       -1 0.36751996E-01 0.17108748E+04</pdfrwt>
<totfact> 0.73217819E+00</totfact>
</mgrwt>
</event>
<event>
 8    1  0.3893101E-010  0.1569892E+04  0.7818608E-02  0.8839261E-01
          1   -1    0    0  501    0  0.00000000000E+00  0.00000000000E+00  0.13467237133E+04  0.13467237133E+04  0.50400000000E-02 0.  1.
         -1   -1    0    0    0  501 -0.00000000000E+00 -0.00000000000E+00 -0.45751020742E+03  0.45751020744E+03  0.50400000000E-02 0. -1.
     200001    2    1    2    0    0  0.35579007489E+02 -0.28627844849E+03  0.21146764894E+03  0.78808399950E+03  0.70223686024E+03 0.  0.
    5000001    2    3    3    0    0  0.15910278618E+02  0.31366780345E+02  0.59016663987E+02  0.17609817196E+03  0.16214372533E+03 0.  0.
        -11    1    4    4    0    0 -0.61070174464E+02 -0.23876401533E+02  0.14290366634E+02  0.67110828769E+02  0.51100000000E-03 0. -1.
     200002    1    4    4    0    0  0.76980453082E+02  0.55243181878E+02  0.44726297353E+02  0.10898734319E+03  0.30000000000E+02 0. -1.
     200000    1    3    3    0    0  0.19668728870E+02 -0.31764522884E+03  0.15245098495E+03  0.61198582754E+03  0.50000000000E+03 0. -1.
    -200001    1    1    2    0    0 -0.35579007489E+02  0.28627844849E+03  0.67774585694E+03  0.10161499212E+04  0.70000000000E+03 0. -1.
<mgrwt>
<rscale>  0 0.15698915E+04</rscale>
<asrwt>0</asrwt>
<pdfrwt beam="1">  1        1 0.19238911E+00 0.15698915E+04</pdfrwt>
<pdfrwt beam="2">  1       -1 0.65358600E-01 0.15698915E+04</pdfrwt>
<totfact> 0.22467076E+01</totfact>
</mgrwt>
</event>
<event>
 8    1  0.3893101E-010  0.1474775E+04  0.7818608E-02  0.8901403E-01
         -1   -1    0    0    0  501 -0.00000000000E+00  0.00000000000E+00  0.43790786851E+03  0.43790786853E+03  0.50400000000E-02 0. -1.
          1   -1    0    0  501    0  0.00000000000E+00 -0.00000000000E+00 -0.12416776000E+04  0.12416776000E+04  0.50400000000E-02 0.  1.
     200001    2    1    2    0    0 -0.17296620811E+03  0.48622357186E+02 -0.56834674595E+03  0.91951611324E+03  0.70015028108E+03 0.  0.
    5000001    2    3    3    0    0 -0.11747168719E+01  0.81129855092E+02 -0.27450484284E+03  0.31378340163E+03  0.12854447110E+03 0.  0.
        -11    1    4    4    0    0 -0.35457174340E+02  0.74922975873E+02 -0.84781780623E+02  0.11856902568E+03  0.51100000000E-03 0. -1.
     200002    1    4    4    0    0  0.34282457468E+02  0.62068792189E+01 -0.18972306222E+03  0.19521437595E+03  0.30000000000E+02 0. -1.
     200000    1    3    3    0    0 -0.17179149124E+03 -0.32507497906E+02 -0.29384190312E+03  0.60573271161E+03  0.50000000000E+03 0.  1.
    -200001    1    1    2    0    0  0.17296620811E+03 -0.48622357186E+02 -0.23542298555E+03  0.76006935532E+03  0.70000000000E+03 0. -1.
<mgrwt>
<rscale>  0 0.14747751E+04</rscale>
<asrwt>0</asrwt>
<pdfrwt beam="1">  1        1 0.17738251E+00 0.14747751E+04</pdfrwt>
<pdfrwt beam="2">  1       -1 0.62558267E-01 0.14747751E+04</pdfrwt>
<totfact> 0.29135251E+01</totfact>
</mgrwt>
</event>
<event>
 8    1  0.3893101E-010  0.1886687E+04  0.7818608E-02  0.8661512E-01
          1   -1    0    0  501    0  0.00000000000E+00  0.00000000000E+00  0.19906738754E+04  0.19906738754E+04  0.50400000000E-02 0.  1.
         -1   -1    0    0    0  501 -0.00000000000E+00 -0.00000000000E+00 -0.44703299715E+03  0.44703299718E+03  0.50400000000E-02 0. -1.
     200001    2    1    2    0    0 -0.39061672968E+03 -0.47596946865E+03  0.58757929129E+03  0.11023484478E+04  0.70056713613E+03 0.  0.
    5000001    2    3    3    0    0 -0.17407453297E+03 -0.69484190581E+02  0.48325003889E+02  0.23464112922E+03  0.13263166194E+03 0.  0.
        -11    1    4    4    0    0 -0.13749963226E+03 -0.87846145239E+02  0.72362808318E+02  0.17849221309E+03  0.51100000000E-03 0. -1.
     200002    1    4    4    0    0 -0.36574900714E+02  0.18361954658E+02 -0.24037804428E+02  0.56148916132E+02  0.30000000000E+02 0. -1.
     200000    1    3    3    0    0 -0.21654219671E+03 -0.40648527807E+03  0.53925428740E+03  0.86770731858E+03  0.50000000000E+03 0. -1.
    -200001    1    1    2    0    0  0.39061672968E+03  0.47596946865E+03  0.95606158700E+03  0.13353584248E+04  0.70000000000E+03 0.  1.
<mgrwt>
<rscale>  0 0.18866869E+04</rscale>
<asrwt>0</asrwt>
<pdfrwt beam="1">  1        1 0.28438198E+00 0.18866869E+04</pdfrwt>
<pdfrwt beam="2">  1       -1 0.63861856E-01 0.18866869E+04</pdfrwt>
<totfact> 0.88244288E+00</totfact>
</mgrwt>
</event>
<event>
 8    1  0.3893101E-010  0.2317828E+04  0.7818608E-02  0.8470925E-01
         -1   -1    0    0    0  501 -0.00000000000E+00  0.00000000000E+00  0.42515329300E+03  0.42515329303E+03  0.50400000000E-02 0.  1.
          1   -1    0    0  501    0  0.00000000000E+00 -0.00000000000E+00 -0.31590521238E+04  0.31590521238E+04  0.50400000000E-02 0. -1.
     200001    2    1    2    0    0  0.11698077394E+03  0.71391920166E+03 -0.22548990557E+04  0.24693933643E+04  0.69997764843E+03 0.  0.
    5000001    2    3    3    0    0  0.83891506164E+02  0.69953421337E+02 -0.46683541493E+03  0.50395234272E+03  0.15524623390E+03 0.  0.
        -11    1    4    4    0    0  0.10104748267E+03  0.26089386170E+02 -0.15309981676E+03  0.18528573533E+03  0.51100000000E-03 0. -1.
     200002    1    4    4    0    0 -0.17155976502E+02  0.43864035167E+02 -0.31373559817E+03  0.31866660739E+03  0.30000000000E+02 0. -1.
     200000    1    3    3    0    0  0.33089267772E+02  0.64396578032E+03 -0.17880636408E+04  0.19654410216E+04  0.50000000000E+03 0. -1.
    -200001    1    1    2    0    0 -0.11698077394E+03 -0.71391920166E+03 -0.47899977513E+03  0.11148120526E+04  0.70000000000E+03 0.  1.
<mgrwt>
<rscale>  0 0.23178278E+04</rscale>
<asrwt>0</asrwt>
<pdfrwt beam="1">  1        1 0.45129315E+00 0.23178278E+04</pdfrwt>
<pdfrwt beam="2">  1       -1 0.60736187E-01 0.23178278E+04</pdfrwt>
<totfact> 0.16657079E+00</totfact>
</mgrwt>
</event>
<event>
 8    1  0.3893101E-010  0.1436470E+04  0.7818608E-02  0.8927835E-01
         -1   -1    0    0    0  501 -0.00000000000E+00  0.00000000000E+00  0.13326328035E+04  0.13326328035E+04  0.50400000000E-02 0. -1.
          1   -1    0    0  501    0  0.00000000000E+00 -0.00000000000E+00 -0.38709934891E+03  0.38709934894E+03  0.50400000000E-02 0.  1.
     200001    2    1    2    0    0 -0.13281798829E+03 -0.30165827030E+02  0.57365365618E+03  0.91546529403E+03  0.70031963573E+03 0.  0.
    5000001    2    3    3    0    0 -0.32544680505E+00 -0.28371966843E+02  0.14090183476E+03  0.24105323125E+03  0.19351552609E+03 0.  0.
        -11    1    4    4    0    0  0.77597978379E+00 -0.10889537665E+03  0.68224274884E+02  0.12850430687E+03  0.51100000000E-03 0. -1.
     200002    1    4    4    0    0 -0.11014265888E+01  0.80523409811E+02  0.72677559880E+02  0.11254892438E+03  0.30000000000E+02 0. -1.
     200000    1    3    3    0    0 -0.13249254148E+03 -0.17938601871E+01  0.43275182141E+03  0.67441206278E+03  0.50000000000E+03 0.  1.
    -200001    1    1    2    0    0  0.13281798829E+03  0.30165827030E+02  0.37187979845E+03  0.80426685847E+03  0.70000000000E+03 0.  1.
<mgrwt>
<rscale>  0 0.14364697E+04</rscale>
<asrwt>0</asrwt>
<pdfrwt beam="1">  1        1 0.55299908E-01 0.14364697E+04</pdfrwt>
<pdfrwt beam="2">  1       -1 0.19037611E+00 0.14364697E+04</pdfrwt>
<totfact> 0.11825888E+01</totfact>
</mgrwt>
</event>
<event>
 8    1  0.3893101E-010  0.1512694E+04  0.7818608E-02  0.8876055E-01
          1   -1    0    0  501    0  0.00000000000E+00  0.00000000000E+00  0.75057093175E+03  0.75057093176E+03  0.50400000000E-02 0.  1.
         -1   -1    0    0    0  501 -0.00000000000E+00 -0.00000000000E+00 -0.76216795142E+03  0.76216795143E+03  0.50400000000E-02 0. -1.
     200001    2    1    2    0    0 -0.77423400597E+02 -0.23361793739E+03 -0.15110105460E+03  0.75773351938E+03  0.70054038718E+03 0.  0.
    5000001    2    3    3    0    0  0.35840757296E+02 -0.55602302089E+02  0.74765993877E+02  0.16991189724E+03  0.13749153829E+03 0.  0.
        -11    1    4    4    0    0 -0.31143568758E+02 -0.51823930704E+02  0.75105723631E+02  0.96418418318E+02  0.51100000000E-03 0. -1.
     200002    1    4    4    0    0  0.66984326054E+02 -0.37783713851E+01 -0.33972975487E+00  0.73493478919E+02  0.30000000000E+02 0. -1.
     200000    1    3    3    0    0 -0.11326415789E+03 -0.17801563530E+03 -0.22586704848E+03  0.58782162215E+03  0.50000000000E+03 0. -1.
    -200001    1    1    2    0    0  0.77423400597E+02  0.23361793739E+03  0.13950403493E+03  0.75500536382E+03  0.70000000000E+03 0.  1.
<mgrwt>
<rscale>  0 0.15126944E+04</rscale>
<asrwt>0</asrwt>
<pdfrwt beam="1">  1        1 0.10722442E+00 0.15126944E+04</pdfrwt>
<pdfrwt beam="2">  1       -1 0.10888114E+00 0.15126944E+04</pdfrwt>
<totfact> 0.20783847E+01</totfact>
</mgrwt>
</event>
<event>
 8    1  0.3893101E-010  0.2645093E+04  0.7818608E-02  0.8353043E-01
          1   -1    0    0  501    0  0.00000000000E+00  0.00000000000E+00  0.27780096645E+04  0.27780096645E+04  0.50400000000E-02 0.  1.
         -1   -1    0    0    0  501 -0.00000000000E+00 -0.00000000000E+00 -0.62963395308E+03  0.62963395310E+03  0.50400000000E-02 0. -1.
     200001    2    1    2    0    0 -0.41243769839E+03 -0.94362818583E+03  0.16486190621E+04  0.20658926285E+04  0.69959168995E+03 0.  0.
    5000001    2    3    3    0    0 -0.65755857096E+02 -0.71790132475E+02  0.90226615109E+02  0.17939404409E+03  0.12068025984E+03 0.  0.
        -11    1    4    4    0    0 -0.82563951328E+02 -0.62330464110E+02  0.98433156596E+02  0.14279698573E+03  0.51100000000E-03 0. -1.
     200002    1    4    4    0    0  0.16808094232E+02 -0.94596683655E+01 -0.82065414875E+01  0.36597058358E+02  0.30000000000E+02 0. -1.
     200000    1    3    3    0    0 -0.34668184129E+03 -0.87183805335E+03  0.15583924470E+04  0.18864985844E+04  0.50000000000E+03 0.  1.
    -200001    1    1    2    0    0  0.41243769839E+03  0.94362818583E+03  0.49975664936E+03  0.13417509891E+04  0.70000000000E+03 0. -1.
<mgrwt>
<rscale>  0 0.26450930E+04</rscale>
<asrwt>0</asrwt>
<pdfrwt beam="1">  1        1 0.39685852E+00 0.26450930E+04</pdfrwt>
<pdfrwt beam="2">  1       -1 0.89947707E-01 0.26450930E+04</pdfrwt>
<totfact> 0.12719972E+00</totfact>
</mgrwt>
</event>
<event>
 8    1  0.3893101E-010  0.1771416E+04  0.7818608E-02  0.8721649E-01
          1   -1    0    0  501    0  0.00000000000E+00  0.00000000000E+00  0.97678688050E+03  0.97678688052E+03  0.50400000000E-02 0.  1.
         -1   -1    0    0    0  501 -0.00000000000E+00 -0.00000000000E+00 -0.80312179074E+03  0.80312179076E+03  0.50400000000E-02 0. -1.
     200001    2    1    2    0    0  0.77298140153E+01 -0.82215956987E+02 -0.45220826217E+03  0.83728644246E+03  0.69981216104E+03 0.  0.
    5000001    2    3    3    0    0  0.54046516929E+02  0.81346665023E+02 -0.21217330462E+03  0.25718752923E+03  0.10765504212E+03 0.  0.
        -11    1    4    4    0    0  0.33598278488E+02  0.84440941174E+02 -0.19841741945E+03  0.21823975166E+03  0.51100000000E-03 0. -1.
     200002    1    4    4    0    0  0.20448238441E+02 -0.30942761518E+01 -0.13755885164E+02  0.38947777560E+02  0.30000000000E+02 0.  1.
     200000    1    3    3    0    0 -0.46316702914E+02 -0.16356262201E+03 -0.24003495755E+03  0.58009891323E+03  0.50000000000E+03 0. -1.
    -200001    1    1    2    0    0 -0.77298140153E+01  0.82215956987E+02  0.62587335193E+03  0.94262222882E+03  0.70000000000E+03 0.  1.
<mgrwt>
<rscale>  0 0.17714162E+04</rscale>
<asrwt>0</asrwt>
<pdfrwt beam="1">  1        1 0.13954098E+00 0.17714162E+04</pdfrwt>
<pdfrwt beam="2">  1       -1 0.11473168E+00 0.17714162E+04</pdfrwt>
<totfact> 0.11770685E+01</totfact>
</mgrwt>
</event>
<event>
 8    1  0.3893101E-010  0.1580600E+04  0.7818608E-02  0.8832556E-01
         -1   -1    0    0    0  501 -0.00000000000E+00  0.00000000000E+00  0.22040666599E+04  0.22040666599E+04  0.50400000000E-02 0. -1.
          1   -1    0    0  501    0  0.00000000000E+00 -0.00000000000E+00 -0.28337337754E+03  0.28337337759E+03  0.50400000000E-02 0.  1.
     200001    2    1    2    0    0 -0.17811788253E+03  0.25060976875E+03  0.66905301726E+03  0.10207653669E+04  0.70696446728E+03 0.  0.
    5000001    2    3    3    0    0 -0.55943577101E+02  0.28855943474E+02  0.28499646406E+03  0.34135330044E+03  0.17702186844E+03 0.  0.
        -11    1    4    4    0    0 -0.32743401535E+02  0.86761384712E+02  0.72035926143E+02  0.11742590377E+03  0.51100000000E-03 0. -1.
     200002    1    4    4    0    0 -0.23200175567E+02 -0.57905441238E+02  0.21296053792E+03  0.22392739667E+03  0.30000000000E+02 0. -1.
     200000    1    3    3    0    0 -0.12217430543E+03  0.22175382528E+03  0.38405655320E+03  0.67941206642E+03  0.50000000000E+03 0.  1.
    -200001    1    1    2    0    0  0.17811788253E+03 -0.25060976875E+03  0.12516402651E+04  0.14666746706E+04  0.70000000000E+03 0.  1.
<mgrwt>
<rscale>  0 0.15805997E+04</rscale>
<asrwt>0</asrwt>
<pdfrwt beam="1">  1        1 0.40481910E-01 0.15805997E+04</pdfrwt>
<pdfrwt beam="2">  1       -1 0.31486667E+00 0.15805997E+04</pdfrwt>
<totfact> 0.26550597E+00</totfact>
</mgrwt>
</event>
<event>
 8    1  0.3893101E-010  0.1652580E+04  0.7818608E-02  0.8788882E-01
         -1   -1    0    0    0  501 -0.00000000000E+00  0.00000000000E+00  0.23921745424E+04  0.23921745424E+04  0.50400000000E-02 0. -1.
          1   -1    0    0  501    0  0.00000000000E+00 -0.00000000000E+00 -0.28541200253E+03  0.28541200258E+03  0.50400000000E-02 0.  1.
     200001    2    1    2    0    0  0.12932873598E+03 -0.37759268152E+03  0.13465981220E+04  0.15698175721E+04  0.70121220213E+03 0.  0.
    5000001    2    3    3    0    0  0.89854509812E+01 -0.72545732068E+02  0.29794426848E+03  0.36266760126E+03  0.19342538693E+03 0.  0.
        -11    1    4    4    0    0 -0.70096681838E+02 -0.54778568382E+02  0.54480654303E+02  0.10431863713E+03  0.51100000000E-03 0. -1.
     200002    1    4    4    0    0  0.79082132819E+02 -0.17767163686E+02  0.24346361418E+03  0.25834896413E+03  0.30000000000E+02 0. -1.
     200000    1    3    3    0    0  0.12034328500E+03 -0.30504694945E+03  0.10486538535E+04  0.12071499708E+04  0.50000000000E+03 0. -1.
    -200001    1    1    2    0    0 -0.12932873598E+03  0.37759268152E+03  0.76016441788E+03  0.11077689729E+04  0.70000000000E+03 0. -1.
<mgrwt>
<rscale>  0 0.16525802E+04</rscale>
<asrwt>0</asrwt>
<pdfrwt beam="1">  1        1 0.40773144E-01 0.16525802E+04</pdfrwt>
<pdfrwt beam="2">  1       -1 0.34173921E+00 0.16525802E+04</pdfrwt>
<totfact> 0.17443048E+00</totfact>
</mgrwt>
</event>
<event>
 8    1  0.3893101E-010  0.2050885E+04  0.7818608E-02  0.8583193E-01
         -1   -1    0    0    0  501 -0.00000000000E+00  0.00000000000E+00  0.75367200785E+03  0.75367200787E+03  0.50400000000E-02 0.  1.
          1   -1    0    0  501    0  0.00000000000E+00 -0.00000000000E+00 -0.13952123291E+04  0.13952123291E+04  0.50400000000E-02 0. -1.
     200001    2    1    2    0    0  0.56497142495E+03  0.73774524938E+02 -0.83070567229E+03  0.12267027271E+04  0.70006590765E+03 0.  0.
    5000001    2    3    3    0    0  0.25476997202E+03  0.95804910089E+02 -0.33517432345E+03  0.45711738615E+03  0.15009383123E+03 0.  0.
        -11    1    4    4    0    0  0.12365515584E+03  0.89990201380E+01 -0.24195534980E+03  0.27187124016E+03  0.51100000000E-03 0. -1.
     200002    1    4    4    0    0  0.13111481618E+03  0.86805889951E+02 -0.93218973650E+02  0.18524614598E+03  0.30000000000E+02 0. -1.
     200000    1    3    3    0    0  0.31020145292E+03 -0.22030385151E+02 -0.49553134884E+03  0.76958534091E+03  0.50000000000E+03 0.  1.
    -200001    1    1    2    0    0 -0.56497142495E+03 -0.73774524938E+02  0.18916535109E+03  0.92218160987E+03  0.70000000000E+03 0.  1.
<mgrwt>
<rscale>  0 0.20508852E+04</rscale>
<asrwt>0</asrwt>
<pdfrwt beam="1">  1        1 0.19931605E+00 0.20508852E+04</pdfrwt>
<pdfrwt beam="2">  1       -1 0.10766743E+00 0.20508852E+04</pdfrwt>
<totfact> 0.67876268E+00</totfact>
</mgrwt>
</event>
<event>
 8    1  0.3893101E-010  0.2118161E+04  0.7818608E-02  0.8553285E-01
         -1   -1    0    0    0  501 -0.00000000000E+00  0.00000000000E+00  0.21011127466E+04  0.21011127466E+04  0.50400000000E-02 0. -1.
          1   -1    0    0  501    0  0.00000000000E+00 -0.00000000000E+00 -0.53383708282E+03  0.53383708284E+03  0.50400000000E-02 0.  1.
     200001    2    1    2    0    0 -0.53672697974E+02  0.82557736924E+02  0.17651212222E+04  0.19008930173E+04  0.69860202962E+03 0.  0.
    5000001    2    3    3    0    0  0.33637442162E+02  0.79799484787E+02  0.72630794460E+03  0.74470804326E+03  0.13988353733E+03 0.  0.
        -11    1    4    4    0    0 -0.16410082508E+02  0.51798508763E+02  0.60303439937E+03  0.60547738451E+03  0.51100000000E-03 0. -1.
     200002    1    4    4    0    0  0.50047524670E+02  0.28000976024E+02  0.12327354523E+03  0.13923065875E+03  0.30000000000E+02 0. -1.
     200000    1    3    3    0    0 -0.87310140136E+02  0.27582521378E+01  0.10388132776E+04  0.11561849741E+04  0.50000000000E+03 0. -1.
    -200001    1    1    2    0    0  0.53672697974E+02 -0.82557736924E+02 -0.19784555843E+03  0.73405681212E+03  0.70000000000E+03 0.  1.
<mgrwt>
<rscale>  0 0.21181614E+04</rscale>
<asrwt>0</asrwt>
<pdfrwt beam="1">  1        1 0.76262441E-01 0.21181614E+04</pdfrwt>
<pdfrwt beam="2">  1       -1 0.30015896E+00 0.21181614E+04</pdfrwt>
<totfact> 0.13632113E+00</totfact>
</mgrwt>
</event>
<event>
 8    1  0.3893101E-010  0.1530300E+04  0.7818608E-02  0.8864550E-01
         -1   -1    0    0    0  501 -0.00000000000E+00  0.00000000000E+00  0.40341426202E+03  0.40341426205E+03  0.50400000000E-02 0. -1.
          1   -1    0    0  501    0  0.00000000000E+00 -0.00000000000E+00 -0.14512491551E+04  0.14512491551E+04  0.50400000000E-02 0.  1.
     200001    2    1    2    0    0  0.23287780501E+03 -0.87142184970E+02 -0.74631462524E+03  0.10529525563E+04  0.69992694868E+03 0.  0.
    5000001    2    3    3    0    0  0.64952405730E+02 -0.99290830802E+02 -0.38448926954E+03  0.41321501843E+03  0.94006217738E+02 0.  0.
        -11    1    4    4    0    0  0.13270816364E+02 -0.24459313927E+02 -0.22841066750E+03  0.23009955591E+03  0.51100000000E-03 0. -1.
     200002    1    4    4    0    0  0.51681589366E+02 -0.74831516875E+02 -0.15607860204E+03  0.18311546252E+03  0.30000000000E+02 0. -1.
     200000    1    3    3    0    0  0.16792539928E+03  0.12148645833E+02 -0.36182535569E+03  0.63973753786E+03  0.50000000000E+03 0.  1.
    -200001    1    1    2    0    0 -0.23287780501E+03  0.87142184970E+02 -0.30152026780E+03  0.80171086082E+03  0.70000000000E+03 0. -1.
<mgrwt>
<rscale>  0 0.15303001E+04</rscale>
<asrwt>0</asrwt>
<pdfrwt beam="1">  1        1 0.20732131E+00 0.15303001E+04</pdfrwt>
<pdfrwt beam="2">  1       -1 0.57630610E-01 0.15303001E+04</pdfrwt>
<totfact> 0.24671404E+01</totfact>
</mgrwt>
</event>
<event>
 8    1  0.3893101E-010  0.1969316E+04  0.7818608E-02  0.8621102E-01
          1   -1    0    0  501    0  0.00000000000E+00  0.00000000000E+00  0.77714072961E+03  0.77714072962E+03  0.50400000000E-02 0.  1.
         -1   -1    0    0    0  501 -0.00000000000E+00 -0.00000000000E+00 -0.12475883344E+04  0.12475883345E+04  0.50400000000E-02 0. -1.
     200001    2    1    2    0    0  0.22082809548E+03 -0.22282385982E+03 -0.86891621622E+03  0.11603259437E+04  0.70208645091E+03 0.  0.
    5000001    2    3    3    0    0  0.53931979622E+02  0.88503852621E+02 -0.24884034948E+03  0.28896302359E+03  0.10409860288E+03 0.  0.
        -11    1    4    4    0    0 -0.14081060815E+02 -0.66378606131E+01 -0.79365679760E+02  0.80877985826E+02  0.51100000000E-03 0. -1.
     200002    1    4    4    0    0  0.68013040437E+02  0.95141713234E+02 -0.16947466972E+03  0.20808503777E+03  0.30000000000E+02 0. -1.
     200000    1    3    3    0    0  0.16689611586E+03 -0.31132771245E+03 -0.62007586675E+03  0.87136292011E+03  0.50000000000E+03 0. -1.
    -200001    1    1    2    0    0 -0.22082809548E+03  0.22282385982E+03  0.39846861138E+03  0.86440312038E+03  0.70000000000E+03 0.  1.
<mgrwt>
<rscale>  0 0.19693163E+04</rscale>
<asrwt>0</asrwt>
<pdfrwt beam="1">  1        1 0.11102010E+00 0.19693163E+04</pdfrwt>
<pdfrwt beam="2">  1       -1 0.17822690E+00 0.19693163E+04</pdfrwt>
<totfact> 0.52056445E+00</totfact>
</mgrwt>
</event>
<event>
 8    1  0.3893101E-010  0.1431793E+04  0.7818608E-02  0.8931121E-01
          1   -1    0    0  501    0  0.00000000000E+00  0.00000000000E+00  0.37858209577E+03  0.37858209580E+03  0.50400000000E-02 0.  1.
         -1   -1    0    0    0  501 -0.00000000000E+00 -0.00000000000E+00 -0.13537555304E+04  0.13537555304E+04  0.50400000000E-02 0. -1.
     200001    2    1    2    0    0 -0.87154748812E+01  0.13991134486E+03 -0.55795238082E+03  0.90546124386E+03  0.69921245766E+03 0.  0.
    5000001    2    3    3    0    0 -0.55875703732E+01  0.49584345700E+02 -0.14599076701E+03  0.25133501612E+03  0.19840906732E+03 0.  0.
        -11    1    4    4    0    0 -0.45067950361E+02  0.10489716167E+03 -0.13407894032E+03  0.17610138249E+03  0.51100000000E-03 0. -1.
     200002    1    4    4    0    0  0.39480379987E+02 -0.55312815973E+02 -0.11911826693E+02  0.75233633635E+02  0.30000000000E+02 0. -1.
     200000    1    3    3    0    0 -0.31279045080E+01  0.90326999160E+02 -0.41196161380E+03  0.65412622773E+03  0.50000000000E+03 0. -1.
    -200001    1    1    2    0    0  0.87154748812E+01 -0.13991134486E+03 -0.41722105380E+03  0.82687638233E+03  0.70000000000E+03 0.  1.
<mgrwt>
<rscale>  0 0.14317927E+04</rscale>
<asrwt>0</asrwt>
<pdfrwt beam="1">  1        1 0.54083157E-01 0.14317927E+04</pdfrwt>
<pdfrwt beam="2">  1       -1 0.19339365E+00 0.14317927E+04</pdfrwt>
<totfact> 0.11603583E+01</totfact>
</mgrwt>
</event>
<event>
 8    1  0.3893101E-010  0.1899125E+04  0.7818608E-02  0.8655292E-01
          1   -1    0    0  501    0  0.00000000000E+00  0.00000000000E+00  0.13612772282E+04  0.13612772282E+04  0.50400000000E-02 0.  1.
         -1   -1    0    0    0  501 -0.00000000000E+00 -0.00000000000E+00 -0.66236965579E+03  0.66236965581E+03  0.50400000000E-02 0. -1.
     200001    2    1    2    0    0 -0.29829637290E+03 -0.52505535276E+03  0.11950017583E+03  0.93260298905E+03  0.70057418852E+03 0.  0.
    5000001    2    3    3    0    0  0.38526611877E+02 -0.13157375711E+03 -0.91267075402E+02  0.18246945202E+03  0.78545964161E+02 0.  0.
        -11    1    4    4    0    0 -0.17596200128E+02 -0.10397194189E+02 -0.17935637838E+02  0.27192186578E+02  0.51100000000E-03 0. -1.
     200002    1    4    4    0    0  0.56122812005E+02 -0.12117656292E+03 -0.73331437563E+02  0.15527726544E+03  0.30000000000E+02 0. -1.
     200000    1    3    3    0    0 -0.33682298478E+03 -0.39348159565E+03  0.21076725123E+03  0.75013353703E+03  0.50000000000E+03 0.  1.
    -200001    1    1    2    0    0  0.29829637290E+03  0.52505535276E+03  0.57940739660E+03  0.10910438950E+04  0.70000000000E+03 0.  1.
<mgrwt>
<rscale>  0 0.18991248E+04</rscale>
<asrwt>0</asrwt>
<pdfrwt beam="1">  1        1 0.19446817E+00 0.18991248E+04</pdfrwt>
<pdfrwt beam="2">  1       -1 0.94624237E-01 0.18991248E+04</pdfrwt>
<totfact> 0.97435881E+00</totfact>
</mgrwt>
</event>
<event>
 8    1  0.3893101E-010  0.1415223E+04  0.7818608E-02  0.8942872E-01
          1   -1    0    0  501    0  0.00000000000E+00  0.00000000000E+00  0.58163309116E+03  0.58163309119E+03  0.50400000000E-02 0. -1.
         -1   -1    0    0    0  501 -0.00000000000E+00 -0.00000000000E+00 -0.86087664288E+03  0.86087664290E+03  0.50400000000E-02 0.  1.
     200001    2    1    2    0    0 -0.53632384171E+02 -0.53551981792E+02 -0.61472348541E+02  0.70551004323E+03  0.69872836215E+03 0.  0.
    5000001    2    3    3    0    0  0.11910049868E+02  0.34850249122E+01 -0.95968131032E+00  0.19442217046E+03  0.19402336120E+03 0.  0.
        -11    1    4    4    0    0  0.43398079720E+02 -0.84502678118E+02  0.10641345170E+02  0.95589404014E+02  0.51100000000E-03 0. -1.
     200002    1    4    4    0    0 -0.31488029852E+02  0.87987703030E+02 -0.11601026480E+02  0.98832766449E+02  0.30000000000E+02 0. -1.
     200000    1    3    3    0    0 -0.65542434039E+02 -0.57037006704E+02 -0.60512667231E+02  0.51108787277E+03  0.50000000000E+03 0. -1.
    -200001    1    1    2    0    0  0.53632384171E+02  0.53551981792E+02 -0.21777120318E+03  0.73699969085E+03  0.70000000000E+03 0.  1.
<mgrwt>
<rscale>  0 0.14152234E+04</rscale>
<asrwt>0</asrwt>
<pdfrwt beam="1">  1        1 0.83090442E-01 0.14152234E+04</pdfrwt>
<pdfrwt beam="2">  1       -1 0.12298238E+00 0.14152234E+04</pdfrwt>
<totfact> 0.22642672E+01</totfact>
</mgrwt>
</event>
<event>
 8    1  0.3893101E-010  0.2426300E+04  0.7818608E-02  0.8429722E-01
         -1   -1    0    0    0  501 -0.00000000000E+00  0.00000000000E+00  0.72167291673E+03  0.72167291674E+03  0.50400000000E-02 0. -1.
          1   -1    0    0  501    0  0.00000000000E+00 -0.00000000000E+00 -0.20393354607E+04  0.20393354607E+04  0.50400000000E-02 0.  1.
     200001    2    1    2    0    0  0.20837605937E+03 -0.17742727048E+03  0.42471646079E+03  0.86343476501E+03  0.70016748206E+03 0.  0.
    5000001    2    3    3    0    0  0.61278051310E+02 -0.97998219484E+02  0.77933332049E+02  0.23239963405E+03  0.18594981869E+03 0.  0.
        -11    1    4    4    0    0  0.57972405658E+02 -0.14294450190E+03  0.87618613328E+02  0.17740054070E+03  0.51100000000E-03 0. -1.
     200002    1    4    4    0    0  0.33056456521E+01  0.44946282413E+02 -0.96852812786E+01  0.54999093351E+02  0.30000000000E+02 0. -1.
     200000    1    3    3    0    0  0.14709800806E+03 -0.79429050998E+02  0.34678312874E+03  0.63103513095E+03  0.50000000000E+03 0. -1.
    -200001    1    1    2    0    0 -0.20837605937E+03  0.17742727048E+03 -0.17423790048E+04  0.18975736125E+04  0.70000000000E+03 0.  1.
<mgrwt>
<rscale>  0 0.24263002E+04</rscale>
<asrwt>0</asrwt>
<pdfrwt beam="1">  1        1 0.29133363E+00 0.24263002E+04</pdfrwt>
<pdfrwt beam="2">  1       -1 0.10309613E+00 0.24263002E+04</pdfrwt>
<totfact> 0.28099643E+00</totfact>
</mgrwt>
</event>
<event>
 8    1  0.3893101E-010  0.1673449E+04  0.7818608E-02  0.8776654E-01
          1   -1    0    0  501    0  0.00000000000E+00  0.00000000000E+00  0.10477032540E+04  0.10477032540E+04  0.50400000000E-02 0.  1.
         -1   -1    0    0    0  501 -0.00000000000E+00 -0.00000000000E+00 -0.66823118703E+03  0.66823118705E+03  0.50400000000E-02 0. -1.
     200001    2    1    2    0    0 -0.44128067865E+03 -0.10846711378E+03  0.24572235016E+03  0.87072278778E+03  0.70091721884E+03 0.  0.
    5000001    2    3    3    0    0 -0.14041775633E+03 -0.82536938201E+02  0.79601889654E+02  0.26344453242E+03  0.19114671948E+03 0.  0.
        -11    1    4    4    0    0 -0.13202882350E+03  0.22828250266E+02  0.12194411604E+02  0.13454160293E+03  0.51100000000E-03 0. -1.
     200002    1    4    4    0    0 -0.83889328305E+01 -0.10536518847E+03  0.67407478050E+02  0.12890292949E+03  0.30000000000E+02 0. -1.
     200000    1    3    3    0    0 -0.30086292232E+03 -0.25930175578E+02  0.16612046051E+03  0.60727825536E+03  0.50000000000E+03 0.  1.
    -200001    1    1    2    0    0  0.44128067865E+03  0.10846711378E+03  0.13374971682E+03  0.84521165330E+03  0.70000000000E+03 0.  1.
<mgrwt>
<rscale>  0 0.16734491E+04</rscale>
<asrwt>0</asrwt>
<pdfrwt beam="1">  1        1 0.14967189E+00 0.16734491E+04</pdfrwt>
<pdfrwt beam="2">  1       -1 0.95461599E-01 0.16734491E+04</pdfrwt>
<totfact> 0.16110849E+01</totfact>
</mgrwt>
</event>
<event>
 8    1  0.3893101E-010  0.1491408E+04  0.7818608E-02  0.8890187E-01
         -1   -1    0    0    0  501 -0.00000000000E+00  0.00000000000E+00  0.41253445177E+03  0.41253445180E+03  0.50400000000E-02 0. -1.
          1   -1    0    0  501    0  0.00000000000E+00 -0.00000000000E+00 -0.13479468468E+04  0.13479468468E+04  0.50400000000E-02 0.  1.
     200001    2    1    2    0    0  0.20969009421E+03  0.14930644268E+03 -0.43815003734E+03  0.86408172152E+03  0.69885579114E+03 0.  0.
    5000001    2    3    3    0    0  0.45669867915E+01  0.82915113290E+01 -0.13394421746E+03  0.22807709818E+03  0.18435971034E+03 0.  0.
        -11    1    4    4    0    0 -0.59544900552E+01 -0.23326076403E+02 -0.16928388541E+03  0.17098712131E+03  0.51100000000E-03 0. -1.
     200002    1    4    4    0    0  0.10521476847E+02  0.31617587732E+02  0.35339667948E+02  0.57089976876E+02  0.30000000000E+02 0. -1.
     200000    1    3    3    0    0  0.20512310741E+03  0.14101493135E+03 -0.30420581987E+03  0.63600462334E+03  0.50000000000E+03 0. -1.
    -200001    1    1    2    0    0 -0.20969009421E+03 -0.14930644268E+03 -0.49726235770E+03  0.89639957709E+03  0.70000000000E+03 0.  1.
<mgrwt>
<rscale>  0 0.14914081E+04</rscale>
<asrwt>0</asrwt>
<pdfrwt beam="1">  1        1 0.19256383E+00 0.14914081E+04</pdfrwt>
<pdfrwt beam="2">  1       -1 0.58933494E-01 0.14914081E+04</pdfrwt>
<totfact> 0.27738741E+01</totfact>
</mgrwt>
</event>
<event>
 8    1  0.3893101E-010  0.1576528E+04  0.7818608E-02  0.8835099E-01
          1   -1    0    0  501    0  0.00000000000E+00  0.00000000000E+00  0.15368269258E+04  0.15368269258E+04  0.50400000000E-02 0. -1.
         -1   -1    0    0    0  501 -0.00000000000E+00 -0.00000000000E+00 -0.40431353508E+03  0.40431353511E+03  0.50400000000E-02 0.  1.
     200001    2    1    2    0    0 -0.33996286628E+02 -0.33990852080E+03  0.41920064103E+03  0.88496404153E+03  0.70052739229E+03 0.  0.
    5000001    2    3    3    0    0 -0.20787272234E+02 -0.11252806249E+03  0.19369943055E+03  0.29105567586E+03  0.18465985358E+03 0.  0.
        -11    1    4    4    0    0 -0.45731702549E+02 -0.15048106906E+03  0.11278128167E+03  0.19353438521E+03  0.51100000000E-03 0. -1.
     200002    1    4    4    0    0  0.24944430316E+02  0.37953006576E+02  0.80918148879E+02  0.97521290650E+02  0.30000000000E+02 0. -1.
     200000    1    3    3    0    0 -0.13209014395E+02 -0.22738045831E+03  0.22550121048E+03  0.59390836567E+03  0.50000000000E+03 0.  1.
    -200001    1    1    2    0    0  0.33996286628E+02  0.33990852080E+03  0.71331274973E+03  0.10561764194E+04  0.70000000000E+03 0. -1.
<mgrwt>
<rscale>  0 0.15765277E+04</rscale>
<asrwt>0</asrwt>
<pdfrwt beam="1">  1        1 0.21954670E+00 0.15765277E+04</pdfrwt>
<pdfrwt beam="2">  1       -1 0.57759077E-01 0.15765277E+04</pdfrwt>
<totfact> 0.21514422E+01</totfact>
</mgrwt>
</event>
<event>
 8    1  0.3893101E-010  0.1448661E+04  0.7818608E-02  0.8919329E-01
          1   -1    0    0  501    0  0.00000000000E+00  0.00000000000E+00  0.10244101870E+04  0.10244101870E+04  0.50400000000E-02 0.  1.
         -1   -1    0    0    0  501 -0.00000000000E+00 -0.00000000000E+00 -0.51215311055E+03  0.51215311057E+03  0.50400000000E-02 0. -1.
     200001    2    1    2    0    0  0.26188673093E+02 -0.44310651703E+02  0.44574320860E+03  0.83152898989E+03  0.70007440502E+03 0.  0.
    5000001    2    3    3    0    0  0.15527697847E+02 -0.12413284784E+03  0.15269416310E+03  0.24641106805E+03  0.14748841887E+03 0.  0.
        -11    1    4    4    0    0  0.29259368045E+02 -0.39972378536E+02 -0.18449354674E+02  0.52860953003E+02  0.51100000000E-03 0. -1.
     200002    1    4    4    0    0 -0.13731670198E+02 -0.84160469301E+02  0.17114351777E+03  0.19355011504E+03  0.30000000000E+02 0. -1.
     200000    1    3    3    0    0  0.10660975246E+02  0.79822196134E+02  0.29304904550E+03  0.58511792184E+03  0.50000000000E+03 0. -1.
    -200001    1    1    2    0    0 -0.26188673093E+02  0.44310651703E+02  0.66513867888E+02  0.70503430773E+03  0.70000000000E+03 0. -1.
<mgrwt>
<rscale>  0 0.14486613E+04</rscale>
<asrwt>0</asrwt>
<pdfrwt beam="1">  1        1 0.14634431E+00 0.14486613E+04</pdfrwt>
<pdfrwt beam="2">  1       -1 0.73164731E-01 0.14486613E+04</pdfrwt>
<totfact> 0.30316983E+01</totfact>
</mgrwt>
</event>
<event>
 8    1  0.4507207E-010  0.1953120E+04  0.7818608E-02  0.8628858E-01
         -1   -1    0    0    0  501 -0.00000000000E+00  0.00000000000E+00  0.63933468025E+03  0.63933468027E+03  0.50400000000E-02 0. -1.
          1   -1    0    0  501    0  0.00000000000E+00 -0.00000000000E+00 -0.14916584206E+04  0.14916584206E+04  0.50400000000E-02 0.  1.
     200001    2    1    2    0    0 -0.62821403575E+03  0.25282828054E+03 -0.41763172294E+03  0.10644415718E+04  0.70713831013E+03 0.  0.
    5000001    2    3    3    0    0 -0.13997449807E+03 -0.24257803580E+02 -0.75754102580E+02  0.23858755841E+03  0.17607963489E+03 0.  0.
        -11    1    4    4    0    0 -0.78906809339E+02  0.50987285737E+02  0.23310907358E+02  0.96795590132E+02  0.51100000000E-03 0. -1.
     200002    1    4    4    0    0 -0.61067688731E+02 -0.75245089317E+02 -0.99065009938E+02  0.14179196827E+03  0.30000000000E+02 0. -1.
     200000    1    3    3    0    0 -0.48823953768E+03  0.27708608412E+03 -0.34187762036E+03  0.82585401342E+03  0.50000000000E+03 0. -1.
    -200001    1    1    2    0    0  0.62821403575E+03 -0.25282828054E+03 -0.43469201742E+03  0.10665515291E+04  0.70000000000E+03 0. -1.
<mgrwt>
<rscale>  0 0.19531195E+04</rscale>
<asrwt>0</asrwt>
<pdfrwt beam="1">  1        1 0.21309406E+00 0.19531195E+04</pdfrwt>
<pdfrwt beam="2">  1       -1 0.91333526E-01 0.19531195E+04</pdfrwt>
<totfact> 0.86061436E+00</totfact>
</mgrwt>
</event>
<event>
 8    1  0.3893101E-010  0.2118384E+04  0.7818608E-02  0.8553188E-01
          1   -1    0    0  501    0  0.00000000000E+00  0.00000000000E+00  0.21685362866E+04  0.21685362866E+04  0.50400000000E-02 0.  1.
         -1   -1    0    0    0  501 -0.00000000000E+00 -0.00000000000E+00 -0.51734775833E+03  0.51734775836E+03  0.50400000000E-02 0. -1.
     200001    2    1    2    0    0 -0.46790717574E+02  0.64503053696E+03  0.14122577412E+04  0.17033660116E+04  0.69909232374E+03 0.  0.
    5000001    2    3    3    0    0  0.22987878494E+02  0.14496158994E+03  0.25268659396E+03  0.34338687584E+03  0.18033781251E+03 0.  0.
        -11    1    4    4    0    0  0.58516170465E+02  0.67010225202E+02  0.16661413971E+02  0.90510304404E+02  0.51100000000E-03 0. -1.
     200002    1    4    4    0    0 -0.35528291971E+02  0.77951364743E+02  0.23602517999E+03  0.25287657144E+03  0.30000000000E+02 0. -1.
     200000    1    3    3    0    0 -0.69778596068E+02  0.50006894702E+03  0.11595711473E+04  0.13599791358E+04  0.50000000000E+03 0.  1.
    -200001    1    1    2    0    0  0.46790717574E+02 -0.64503053696E+03  0.23893078708E+03  0.98251803336E+03  0.70000000000E+03 0. -1.
<mgrwt>
<rscale>  0 0.21183837E+04</rscale>
<asrwt>0</asrwt>
<pdfrwt beam="1">  1        1 0.30979090E+00 0.21183837E+04</pdfrwt>
<pdfrwt beam="2">  1       -1 0.73906822E-01 0.21183837E+04</pdfrwt>
<totfact> 0.49582270E+00</totfact>
</mgrwt>
</event>
<event>
 8    1  0.3893101E-010  0.1588731E+04  0.7818608E-02  0.8827501E-01
          1   -1    0    0  501    0  0.00000000000E+00  0.00000000000E+00  0.28842520138E+04  0.28842520138E+04  0.50400000000E-02 0. -1.
         -1   -1    0    0    0  501 -0.00000000000E+00 -0.00000000000E+00 -0.21878006228E+03  0.21878006234E+03  0.50400000000E-02 0.  1.
     200001    2    1    2    0    0  0.30002441123E+01 -0.35712426577E+03  0.15506238333E+04  0.17390551447E+04  0.70166358138E+03 0.  0.
    5000001    2    3    3    0    0 -0.14107788817E+02 -0.17528353651E+03  0.25612885130E+03  0.33938518579E+03  0.13659051208E+03 0.  0.
        -11    1    4    4    0    0  0.33576679268E+02 -0.13428234086E+03  0.10758068900E+03  0.17530757287E+03  0.51100000000E-03 0. -1.
     200002    1    4    4    0    0 -0.47684468085E+02 -0.41001195646E+02  0.14854816230E+03  0.16407761292E+03  0.30000000000E+02 0. -1.
     200000    1    3    3    0    0  0.17108032929E+02 -0.18184072926E+03  0.12944949820E+04  0.13996699589E+04  0.50000000000E+03 0. -1.
    -200001    1    1    2    0    0 -0.30002441123E+01  0.35712426577E+03  0.11148481182E+04  0.13639769314E+04  0.70000000000E+03 0.  1.
<mgrwt>
<rscale>  0 0.15887314E+04</rscale>
<asrwt>0</asrwt>
<pdfrwt beam="1">  1        1 0.41203596E+00 0.15887314E+04</pdfrwt>
<pdfrwt beam="2">  1       -1 0.31254298E-01 0.15887314E+04</pdfrwt>
<totfact> 0.93107302E+00</totfact>
</mgrwt>
</event>
<event>
 8    1  0.3893101E-010  0.1599456E+04  0.7818608E-02  0.8820882E-01
         -1   -1    0    0    0  501 -0.00000000000E+00  0.00000000000E+00  0.62482733664E+03  0.62482733666E+03  0.50400000000E-02 0. -1.
          1   -1    0    0  501    0  0.00000000000E+00 -0.00000000000E+00 -0.10235863026E+04  0.10235863026E+04  0.50400000000E-02 0.  1.
     200001    2    1    2    0    0  0.37933964201E+03  0.42022955388E+02 -0.26387898140E+03  0.83979932888E+03  0.69997593043E+03 0.  0.
    5000001    2    3    3    0    0  0.11172938224E+03  0.43120405764E+02  0.98962022584E+01  0.21006183856E+03  0.17229398408E+03 0.  0.
        -11    1    4    4    0    0 -0.13136835269E+02  0.74510158849E+02  0.17451413756E+02  0.77645940364E+02  0.51100000000E-03 0. -1.
     200002    1    4    4    0    0  0.12486621751E+03 -0.31389753085E+02 -0.75552114979E+01  0.13241589820E+03  0.30000000000E+02 0. -1.
     200000    1    3    3    0    0  0.26761025977E+03 -0.10974503761E+01 -0.27377518366E+03  0.62973749032E+03  0.50000000000E+03 0.  1.
    -200001    1    1    2    0    0 -0.37933964201E+03 -0.42022955388E+02 -0.13487998459E+03  0.80861431042E+03  0.70000000000E+03 0. -1.
<mgrwt>
<rscale>  0 0.15994558E+04</rscale>
<asrwt>0</asrwt>
<pdfrwt beam="1">  1        1 0.14622661E+00 0.15994558E+04</pdfrwt>
<pdfrwt beam="2">  1       -1 0.89261049E-01 0.15994558E+04</pdfrwt>
<totfact> 0.19609995E+01</totfact>
</mgrwt>
</event>
<event>
 8    1  0.3893101E-010  0.1987945E+04  0.7818608E-02  0.8612278E-01
          1   -1    0    0  501    0  0.00000000000E+00  0.00000000000E+00  0.18912639458E+04  0.18912639458E+04  0.50400000000E-02 0.  1.
         -1   -1    0    0    0  501 -0.00000000000E+00 -0.00000000000E+00 -0.52239183128E+03  0.52239183131E+03  0.50400000000E-02 0. -1.
     200001    2    1    2    0    0 -0.47787726105E+03  0.47442236043E+03  0.42439846985E+03  0.10588592174E+04  0.69830188915E+03 0.  0.
    5000001    2    3    3    0    0 -0.13862644206E+03  0.24513269935E+03  0.13052444931E+03  0.34891076379E+03  0.15935732958E+03 0.  0.
        -11    1    4    4    0    0 -0.43999242027E+02  0.21490423404E+03  0.97092021130E+02  0.23988877355E+03  0.51100000000E-03 0. -1.
     200002    1    4    4    0    0 -0.94627200036E+02  0.30228465309E+02  0.33432428184E+02  0.10902199024E+03  0.30000000000E+02 0. -1.
     200000    1    3    3    0    0 -0.33925081898E+03  0.22928966108E+03  0.29387402053E+03  0.70994845362E+03  0.50000000000E+03 0. -1.
    -200001    1    1    2    0    0  0.47787726105E+03 -0.47442236043E+03  0.94447364468E+03  0.13547965597E+04  0.70000000000E+03 0.  1.
<mgrwt>
<rscale>  0 0.19879445E+04</rscale>
<asrwt>0</asrwt>
<pdfrwt beam="1">  1        1 0.27018056E+00 0.19879445E+04</pdfrwt>
<pdfrwt beam="2">  1       -1 0.74627404E-01 0.19879445E+04</pdfrwt>
<totfact> 0.73481924E+00</totfact>
</mgrwt>
</event>
<event>
 8    1  0.3893101E-010  0.1465256E+04  0.7818608E-02  0.8907891E-01
         -1   -1    0    0    0  501 -0.00000000000E+00  0.00000000000E+00  0.59865068807E+03  0.59865068809E+03  0.50400000000E-02 0. -1.
          1   -1    0    0  501    0  0.00000000000E+00 -0.00000000000E+00 -0.89658975089E+03  0.89658975090E+03  0.50400000000E-02 0.  1.
     200001    2    1    2    0    0  0.26728546950E+02 -0.15056987771E+03  0.16666191721E+02  0.71270470851E+03  0.69590555127E+03 0.  0.
    5000001    2    3    3    0    0  0.52705485313E+02 -0.10426402640E+03 -0.84069370066E+01  0.20926881887E+03  0.17341829944E+03 0.  0.
        -11    1    4    4    0    0  0.18784019874E+02 -0.24691820354E+02 -0.84629794629E+02  0.90137270506E+02  0.51100000000E-03 0. -1.
     200002    1    4    4    0    0  0.33921465439E+02 -0.79572206044E+02  0.76222857623E+02  0.11913154837E+03  0.30000000000E+02 0. -1.
     200000    1    3    3    0    0 -0.25976938363E+02 -0.46305851315E+02  0.25073128727E+02  0.50343588964E+03  0.50000000000E+03 0. -1.
    -200001    1    1    2    0    0 -0.26728546950E+02  0.15056987771E+03 -0.31460525454E+03  0.78253573048E+03  0.70000000000E+03 0.  1.
<mgrwt>
<rscale>  0 0.14652564E+04</rscale>
<asrwt>0</asrwt>
<pdfrwt beam="1">  1        1 0.12808425E+00 0.14652564E+04</pdfrwt>
<pdfrwt beam="2">  1       -1 0.85521527E-01 0.14652564E+04</pdfrwt>
<totfact> 0.27233758E+01</totfact>
</mgrwt>
</event>
<event>
 8    1  0.3893101E-010  0.1856463E+04  0.7818608E-02  0.8676836E-01
          1   -1    0    0  501    0  0.00000000000E+00  0.00000000000E+00  0.27542483279E+04  0.27542483279E+04  0.50400000000E-02 0.  1.
         -1   -1    0    0    0  501 -0.00000000000E+00 -0.00000000000E+00 -0.31283073719E+03  0.31283073724E+03  0.50400000000E-02 0. -1.
     200001    2    1    2    0    0  0.51755165497E+03 -0.29028077729E+03  0.14519231244E+04  0.17175525022E+04  0.69984512101E+03 0.  0.
    5000001    2    3    3    0    0  0.30231891672E+02 -0.10222628551E+03  0.18422212616E+03  0.25813108790E+03  0.14604686251E+03 0.  0.
        -11    1    4    4    0    0  0.57384054282E+02 -0.47310359377E+02  0.17390737146E+03  0.18914273350E+03  0.51100000000E-03 0. -1.
     200002    1    4    4    0    0 -0.27152162610E+02 -0.54915926129E+02  0.10314754702E+02  0.68988354391E+02  0.30000000000E+02 0. -1.
     200000    1    3    3    0    0  0.48731976330E+03 -0.18805449178E+03  0.12677009982E+04  0.14594214143E+04  0.50000000000E+03 0. -1.
    -200001    1    1    2    0    0 -0.51755165497E+03  0.29028077729E+03  0.98949446631E+03  0.13495265629E+04  0.70000000000E+03 0.  1.
<mgrwt>
<rscale>  0 0.18564628E+04</rscale>
<asrwt>0</asrwt>
<pdfrwt beam="1">  1        1 0.39346408E+00 0.18564628E+04</pdfrwt>
<pdfrwt beam="2">  1       -1 0.44690102E-01 0.18564628E+04</pdfrwt>
<totfact> 0.57767952E+00</totfact>
</mgrwt>
</event>
<event>
 8    1  0.3893101E-010  0.1512297E+04  0.7818608E-02  0.8876316E-01
          1   -1    0    0  501    0  0.00000000000E+00  0.00000000000E+00  0.15167795693E+04  0.15167795693E+04  0.50400000000E-02 0. -1.
         -1   -1    0    0    0  501 -0.00000000000E+00 -0.00000000000E+00 -0.37695704051E+03  0.37695704054E+03  0.50400000000E-02 0.  1.
     200001    2    1    2    0    0  0.83168294343E+02 -0.72262425844E+02  0.90021656409E+03  0.11457059676E+04  0.70008105144E+03 0.  0.
    5000001    2    3    3    0    0  0.39727083766E+02  0.53158227755E+02  0.21981981695E+03  0.29097957124E+03  0.17872974177E+03 0.  0.
        -11    1    4    4    0    0 -0.69430134113E+02  0.15079571801E+02  0.76162707891E+02  0.10415706929E+03  0.51100000000E-03 0. -1.
     200002    1    4    4    0    0  0.10915721788E+03  0.38078655954E+02  0.14365710905E+03  0.18682250195E+03  0.30000000000E+02 0. -1.
     200000    1    3    3    0    0  0.43441210577E+02 -0.12542065360E+03  0.68039674714E+03  0.85472639637E+03  0.50000000000E+03 0. -1.
    -200001    1    1    2    0    0 -0.83168294343E+02  0.72262425844E+02  0.23960596467E+03  0.74803064221E+03  0.70000000000E+03 0.  1.
<mgrwt>
<rscale>  0 0.15122972E+04</rscale>
<asrwt>0</asrwt>
<pdfrwt beam="1">  1        1 0.21668280E+00 0.15122972E+04</pdfrwt>
<pdfrwt beam="2">  1       -1 0.53851005E-01 0.15122972E+04</pdfrwt>
<totfact> 0.25539939E+01</totfact>
</mgrwt>
</event>
<event>
 8    1  0.3893101E-010  0.1650784E+04  0.7818608E-02  0.8789943E-01
         -1   -1    0    0    0  501 -0.00000000000E+00  0.00000000000E+00  0.13238890041E+04  0.13238890041E+04  0.50400000000E-02 0. -1.
          1   -1    0    0  501    0  0.00000000000E+00 -0.00000000000E+00 -0.51459919090E+03  0.51459919092E+03  0.50400000000E-02 0.  1.
     200001    2    1    2    0    0 -0.43377942438E+03 -0.53519130692E+02  0.42786324465E+03  0.92935942879E+03  0.69972359213E+03 0.  0.
    5000001    2    3    3    0    0 -0.91303247454E+02 -0.68999540859E+02  0.91788537708E+02  0.23619582363E+03  0.18511107966E+03 0.  0.
        -11    1    4    4    0    0  0.25379061263E+02 -0.61327039986E+02  0.94458712879E+02  0.11544501298E+03  0.51100000000E-03 0. -1.
     200002    1    4    4    0    0 -0.11668230872E+03 -0.76725008736E+01 -0.26701751704E+01  0.12075081065E+03  0.30000000000E+02 0. -1.
     200000    1    3    3    0    0 -0.34247617693E+03  0.15480410168E+02  0.33607470695E+03  0.69316360515E+03  0.50000000000E+03 0. -1.
    -200001    1    1    2    0    0  0.43377942438E+03  0.53519130692E+02  0.38142656850E+03  0.90912876620E+03  0.70000000000E+03 0. -1.
<mgrwt>
<rscale>  0 0.16507843E+04</rscale>
<asrwt>0</asrwt>
<pdfrwt beam="1">  1        1 0.73514172E-01 0.16507843E+04</pdfrwt>
<pdfrwt beam="2">  1       -1 0.18912700E+00 0.16507843E+04</pdfrwt>
<totfact> 0.81001789E+00</totfact>
</mgrwt>
</event>
<event>
 8    1  0.3893101E-010  0.2039153E+04  0.7818608E-02  0.8588531E-01
         -1   -1    0    0    0  501 -0.00000000000E+00  0.00000000000E+00  0.28069192960E+04  0.28069192960E+04  0.50400000000E-02 0. -1.
          1   -1    0    0  501    0  0.00000000000E+00 -0.00000000000E+00 -0.37034774439E+03  0.37034774442E+03  0.50400000000E-02 0.  1.
     200001    2    1    2    0    0  0.28922916708E+03  0.54446781207E+03  0.18602940343E+04  0.20808207415E+04  0.69930133328E+03 0.  0.
    5000001    2    3    3    0    0 -0.38076490733E+01  0.12398498693E+03  0.69588372722E+03  0.71387972409E+03  0.99916582577E+02 0.  0.
        -11    1    4    4    0    0 -0.30765611774E+02  0.77098680921E+01  0.85061736208E+02  0.90782508782E+02  0.51100000000E-03 0. -1.
     200002    1    4    4    0    0  0.26957962700E+02  0.11627511883E+03  0.61082199101E+03  0.62309721530E+03  0.30000000000E+02 0. -1.
     200000    1    3    3    0    0  0.29303681615E+03  0.42048282514E+03  0.11644103071E+04  0.13669410174E+04  0.50000000000E+03 0.  1.
    -200001    1    1    2    0    0 -0.28922916708E+03 -0.54446781207E+03  0.57627751731E+03  0.10964462989E+04  0.70000000000E+03 0.  1.
<mgrwt>
<rscale>  0 0.20391530E+04</rscale>
<asrwt>0</asrwt>
<pdfrwt beam="1">  1        1 0.52906820E-01 0.20391530E+04</pdfrwt>
<pdfrwt beam="2">  1       -1 0.40098847E+00 0.20391530E+04</pdfrwt>
<totfact> 0.47961469E-01</totfact>
</mgrwt>
</event>
<event>
 8    1  0.3893101E-010  0.1768006E+04  0.7818608E-02  0.8723501E-01
         -1   -1    0    0    0  501 -0.00000000000E+00  0.00000000000E+00  0.88625802534E+03  0.88625802535E+03  0.50400000000E-02 0.  1.
          1   -1    0    0  501    0  0.00000000000E+00 -0.00000000000E+00 -0.88175361052E+03  0.88175361053E+03  0.50400000000E-02 0. -1.
     200001    2    1    2    0    0  0.32685448325E+03  0.35492736280E+03 -0.23777135953E+03  0.88398401363E+03  0.70148786936E+03 0.  0.
    5000001    2    3    3    0    0  0.11252202544E+03  0.74247403747E+02  0.20315477923E+02  0.21965844770E+03  0.17223017108E+03 0.  0.
        -11    1    4    4    0    0  0.87642054060E+02  0.12414448051E+03  0.31943992000E+02  0.15528490045E+03  0.51100000000E-03 0. -1.
     200002    1    4    4    0    0  0.24879971379E+02 -0.49897076766E+02 -0.11628514077E+02  0.64373547248E+02  0.30000000000E+02 0. -1.
     200000    1    3    3    0    0  0.21433245781E+03  0.28067995905E+03 -0.25808683745E+03  0.66432556593E+03  0.50000000000E+03 0. -1.
    -200001    1    1    2    0    0 -0.32685448325E+03 -0.35492736280E+03  0.24227577435E+03  0.88402762226E+03  0.70000000000E+03 0.  1.
<mgrwt>
<rscale>  0 0.17680059E+04</rscale>
<asrwt>0</asrwt>
<pdfrwt beam="1">  1        1 0.12596480E+00 0.17680059E+04</pdfrwt>
<pdfrwt beam="2">  1       -1 0.12660829E+00 0.17680059E+04</pdfrwt>
<totfact> 0.10964315E+01</totfact>
</mgrwt>
</event>
<event>
 8    1  0.3893101E-010  0.1576539E+04  0.7818608E-02  0.8835092E-01
          1   -1    0    0  501    0  0.00000000000E+00  0.00000000000E+00  0.45783925210E+03  0.45783925212E+03  0.50400000000E-02 0.  1.
         -1   -1    0    0    0  501 -0.00000000000E+00 -0.00000000000E+00 -0.13571772502E+04  0.13571772502E+04  0.50400000000E-02 0. -1.
     200001    2    1    2    0    0  0.18212370257E+03  0.20609180048E+03 -0.17850190156E+03  0.77326434785E+03  0.70030846741E+03 0.  0.
    5000001    2    3    3    0    0  0.70871568287E+02  0.57574431352E+02  0.76022011697E+00  0.21061938468E+03  0.18979555561E+03 0.  0.
        -11    1    4    4    0    0 -0.46463789166E+02  0.31804949546E+02 -0.51420043260E+02  0.76252602372E+02  0.51100000000E-03 0. -1.
     200002    1    4    4    0    0  0.11733535745E+03  0.25769481807E+02  0.52180263377E+02  0.13436678231E+03  0.30000000000E+02 0. -1.
     200000    1    3    3    0    0  0.11125213429E+03  0.14851736913E+03 -0.17926212167E+03  0.56264496317E+03  0.50000000000E+03 0.  1.
    -200001    1    1    2    0    0 -0.18212370257E+03 -0.20609180048E+03 -0.72083609652E+03  0.10417521545E+04  0.70000000000E+03 0. -1.
<mgrwt>
<rscale>  0 0.15765393E+04</rscale>
<asrwt>0</asrwt>
<pdfrwt beam="1">  1        1 0.65405608E-01 0.15765393E+04</pdfrwt>
<pdfrwt beam="2">  1       -1 0.19388246E+00 0.15765393E+04</pdfrwt>
<totfact> 0.88419273E+00</totfact>
</mgrwt>
</event>
<event>
 8    1  0.3893101E-010  0.1676244E+04  0.7818608E-02  0.8775030E-01
          1   -1    0    0  501    0  0.00000000000E+00  0.00000000000E+00  0.34402847820E+04  0.34402847820E+04  0.50400000000E-02 0.  1.
         -1   -1    0    0    0  501 -0.00000000000E+00 -0.00000000000E+00 -0.20418334981E+03  0.20418334987E+03  0.50400000000E-02 0. -1.
     200001    2    1    2    0    0  0.13381094252E+03 -0.38164789336E+03  0.11368338268E+04  0.13949159627E+04  0.69988492651E+03 0.  0.
    5000001    2    3    3    0    0  0.10010523488E+03 -0.17681025857E+03  0.51077775846E+03  0.56724408806E+03  0.13996074919E+03 0.  0.
        -11    1    4    4    0    0  0.16638782972E+02 -0.14392536841E+03  0.37270803577E+03  0.39987828236E+03  0.51100000000E-03 0. -1.
     200002    1    4    4    0    0  0.83466451907E+02 -0.32884890158E+02  0.13806972268E+03  0.16736580570E+03  0.30000000000E+02 0. -1.
     200000    1    3    3    0    0  0.33705707641E+02 -0.20483763479E+03  0.62605606838E+03  0.82767187467E+03  0.50000000000E+03 0. -1.
    -200001    1    1    2    0    0 -0.13381094252E+03  0.38164789336E+03  0.20992676053E+04  0.22495521691E+04  0.70000000000E+03 0.  1.
<mgrwt>
<rscale>  0 0.16762445E+04</rscale>
<asrwt>0</asrwt>
<pdfrwt beam="1">  1        1 0.49146924E+00 0.16762445E+04</pdfrwt>
<pdfrwt beam="2">  1       -1 0.29169051E-01 0.16762445E+04</pdfrwt>
<totfact> 0.44178077E+00</totfact>
</mgrwt>
</event>
<event>
 8    1  0.3893101E-010  0.1745805E+04  0.7818608E-02  0.8735663E-01
          1   -1    0    0  501    0  0.00000000000E+00  0.00000000000E+00  0.19664250026E+04  0.19664250026E+04  0.50400000000E-02 0.  1.
         -1   -1    0    0    0  501 -0.00000000000E+00 -0.00000000000E+00 -0.38748407739E+03  0.38748407743E+03  0.50400000000E-02 0. -1.
     200001    2    1    2    0    0  0.28882739616E+03  0.21013062967E+03  0.13024739944E+04  0.15208363880E+04  0.69923434330E+03 0.  0.
    5000001    2    3    3    0    0  0.16968165772E+03 -0.53079861455E+02  0.36905446782E+03  0.42322649277E+03  0.10634908230E+03 0.  0.
        -11    1    4    4    0    0  0.23161268168E+02 -0.91718440919E+01  0.26580765137E+01  0.25052593443E+02  0.51100000000E-03 0. -1.
     200002    1    4    4    0    0  0.14652038956E+03 -0.43908017364E+02  0.36639639131E+03  0.39817389933E+03  0.30000000000E+02 0. -1.
     200000    1    3    3    0    0  0.11914573843E+03  0.26321049112E+03  0.93341952654E+03  0.10976098952E+04  0.50000000000E+03 0. -1.
    -200001    1    1    2    0    0 -0.28882739616E+03 -0.21013062967E+03  0.27646693082E+03  0.83307269199E+03  0.70000000000E+03 0.  1.
<mgrwt>
<rscale>  0 0.17458045E+04</rscale>
<asrwt>0</asrwt>
<pdfrwt beam="1">  1        1 0.28091786E+00 0.17458045E+04</pdfrwt>
<pdfrwt beam="2">  1       -1 0.55354868E-01 0.17458045E+04</pdfrwt>
<totfact> 0.12268167E+01</totfact>
</mgrwt>
</event>
<event>
 8    1  0.3893101E-010  0.1576366E+04  0.7818608E-02  0.8835200E-01
          1   -1    0    0  501    0  0.00000000000E+00  0.00000000000E+00  0.14670254381E+04  0.14670254381E+04  0.50400000000E-02 0. -1.
         -1   -1    0    0    0  501 -0.00000000000E+00 -0.00000000000E+00 -0.42346387170E+03  0.42346387173E+03  0.50400000000E-02 0.  1.
     200001    2    1    2    0    0  0.13393760691E+03  0.31475701787E+03  0.66470366109E+03  0.10241495524E+04  0.70002863213E+03 0.  0.
    5000001    2    3    3    0    0  0.57992454534E+02  0.71658017949E+02  0.26786844157E+03  0.33687742190E+03  0.18230441321E+03 0.  0.
        -11    1    4    4    0    0  0.11519395574E+03  0.12927105633E+02  0.13555808857E+03  0.17836129871E+03  0.51100000000E-03 0. -1.
     200002    1    4    4    0    0 -0.57201501203E+02  0.58730912316E+02  0.13231035300E+03  0.15851612319E+03  0.30000000000E+02 0. -1.
     200000    1    3    3    0    0  0.75945152378E+02  0.24309899993E+03  0.39683521952E+03  0.68727213052E+03  0.50000000000E+03 0. -1.
    -200001    1    1    2    0    0 -0.13393760691E+03 -0.31475701787E+03  0.37885790526E+03  0.86633975739E+03  0.70000000000E+03 0. -1.
<mgrwt>
<rscale>  0 0.15763658E+04</rscale>
<asrwt>0</asrwt>
<pdfrwt beam="1">  1        1 0.20957506E+00 0.15763658E+04</pdfrwt>
<pdfrwt beam="2">  1       -1 0.60494840E-01 0.15763658E+04</pdfrwt>
<totfact> 0.21811421E+01</totfact>
</mgrwt>
</event>
<event>
 8    1  0.3893101E-010  0.1488296E+04  0.7818608E-02  0.8892274E-01
         -1   -1    0    0    0  501 -0.00000000000E+00  0.00000000000E+00  0.29612217449E+03  0.29612217453E+03  0.50400000000E-02 0. -1.
          1   -1    0    0  501    0  0.00000000000E+00 -0.00000000000E+00 -0.18700256447E+04  0.18700256447E+04  0.50400000000E-02 0.  1.
     200001    2    1    2    0    0  0.12194704179E+01  0.41098081491E+01 -0.11353312853E+04  0.13400945891E+04  0.71193960606E+03 0.  0.
    5000001    2    3    3    0    0 -0.33567479111E+02  0.41525395608E+02 -0.28058903242E+03  0.34853300406E+03  0.19973461309E+03 0.  0.
        -11    1    4    4    0    0 -0.33450364826E+02  0.63894801812E+02 -0.70712041649E+01  0.72467058269E+02  0.51100000000E-03 0. -1.
     200002    1    4    4    0    0 -0.11711428528E+00 -0.22369406204E+02 -0.27351782826E+03  0.27606594579E+03  0.30000000000E+02 0. -1.
     200000    1    3    3    0    0  0.34786949529E+02 -0.37415587459E+02 -0.85474225290E+03  0.99156158504E+03  0.50000000000E+03 0.  1.
    -200001    1    1    2    0    0 -0.12194704179E+01 -0.41098081491E+01 -0.43857218486E+03  0.82605323010E+03  0.70000000000E+03 0. -1.
<mgrwt>
<rscale>  0 0.14882958E+04</rscale>
<asrwt>0</asrwt>
<pdfrwt beam="1">  1        1 0.26714651E+00 0.14882958E+04</pdfrwt>
<pdfrwt beam="2">  1       -1 0.42303169E-01 0.14882958E+04</pdfrwt>
<totfact> 0.23980758E+01</totfact>
</mgrwt>
</event>
<event>
 8    1  0.3893101E-010  0.1781178E+04  0.7818608E-02  0.8716373E-01
          1   -1    0    0  501    0  0.00000000000E+00  0.00000000000E+00  0.44357122407E+03  0.44357122410E+03  0.50400000000E-02 0.  1.
         -1   -1    0    0    0  501 -0.00000000000E+00 -0.00000000000E+00 -0.17880972568E+04  0.17880972568E+04  0.50400000000E-02 0. -1.
     200001    2    1    2    0    0  0.37585502220E+03  0.40068938892E+03 -0.69160203616E+03  0.11279797887E+04  0.70157397550E+03 0.  0.
    5000001    2    3    3    0    0  0.50885719159E+02  0.13111064414E+03 -0.18506808407E+03  0.30042049037E+03  0.19032319321E+03 0.  0.
        -11    1    4    4    0    0  0.57475110381E+02  0.14938579546E+03 -0.20453724961E+03  0.25972098621E+03  0.51100000000E-03 0. -1.
     200002    1    4    4    0    0 -0.65893912214E+01 -0.18275151324E+02  0.19469165539E+02  0.40699504166E+02  0.30000000000E+02 0. -1.
     200000    1    3    3    0    0  0.32496930304E+03  0.26957874478E+03 -0.50653395209E+03  0.82755929828E+03  0.50000000000E+03 0. -1.
    -200001    1    1    2    0    0 -0.37585502220E+03 -0.40068938892E+03 -0.65292399656E+03  0.11036886922E+04  0.70000000000E+03 0.  1.
<mgrwt>
<rscale>  0 0.17811777E+04</rscale>
<asrwt>0</asrwt>
<pdfrwt beam="1">  1        1 0.63367319E-01 0.17811777E+04</pdfrwt>
<pdfrwt beam="2">  1       -1 0.25544246E+00 0.17811777E+04</pdfrwt>
<totfact> 0.35140001E+00</totfact>
</mgrwt>
</event>
<event>
 8    1  0.3893101E-010  0.1786812E+04  0.7818608E-02  0.8713345E-01
          1   -1    0    0  501    0  0.00000000000E+00  0.00000000000E+00  0.63090961511E+03  0.63090961513E+03  0.50400000000E-02 0.  1.
         -1   -1    0    0    0  501 -0.00000000000E+00 -0.00000000000E+00 -0.12651160068E+04  0.12651160069E+04  0.50400000000E-02 0. -1.
     200001    2    1    2    0    0 -0.18054438109E+03 -0.51868587431E+03 -0.40759473433E+03  0.97788393737E+03  0.69892218291E+03 0.  0.
    5000001    2    3    3    0    0  0.31186537934E+02 -0.12150658942E+03 -0.92682927035E+02  0.23508462882E+03  0.17589259882E+03 0.  0.
        -11    1    4    4    0    0 -0.21458267119E+02 -0.13862461839E+03 -0.99165104586E+02  0.17178754326E+03  0.51100000000E-03 0. -1.
     200002    1    4    4    0    0  0.52644805053E+02  0.17118028963E+02  0.64821775511E+01  0.63297085561E+02  0.30000000000E+02 0. -1.
     200000    1    3    3    0    0 -0.21173091902E+03 -0.39717928488E+03 -0.31491180730E+03  0.74279930855E+03  0.50000000000E+03 0.  1.
    -200001    1    1    2    0    0  0.18054438109E+03  0.51868587431E+03 -0.22661165741E+03  0.91814168461E+03  0.70000000000E+03 0. -1.
<mgrwt>
<rscale>  0 0.17868115E+04</rscale>
<asrwt>0</asrwt>
<pdfrwt beam="1">  1        1 0.90129946E-01 0.17868115E+04</pdfrwt>
<pdfrwt beam="2">  1       -1 0.18073086E+00 0.17868115E+04</pdfrwt>
<totfact> 0.69088255E+00</totfact>
</mgrwt>
</event>
<event>
 8    1  0.3893101E-010  0.1424854E+04  0.7818608E-02  0.8936022E-01
          1   -1    0    0  501    0  0.00000000000E+00  0.00000000000E+00  0.11648852426E+04  0.11648852426E+04  0.50400000000E-02 0.  1.
         -1   -1    0    0    0  501 -0.00000000000E+00 -0.00000000000E+00 -0.43571025994E+03  0.43571025997E+03  0.50400000000E-02 0. -1.
     200001    2    1    2    0    0 -0.96705899121E+02  0.29934713773E+02  0.46398608242E+03  0.84523249658E+03  0.69920438399E+03 0.  0.
    5000001    2    3    3    0    0 -0.47032113909E+02 -0.30086052690E+02  0.67532653191E+02  0.20239091509E+03  0.18243966937E+03 0.  0.
        -11    1    4    4    0    0 -0.96507201926E+02  0.26229710318E+02  0.69228048592E+02  0.12163124779E+03  0.51100000000E-03 0. -1.
     200002    1    4    4    0    0  0.49475088017E+02 -0.56315763008E+02 -0.16953954011E+01  0.80759667303E+02  0.30000000000E+02 0. -1.
     200000    1    3    3    0    0 -0.49673785212E+02  0.60020766462E+02  0.39645342922E+03  0.64284158149E+03  0.50000000000E+03 0.  1.
    -200001    1    1    2    0    0  0.96705899121E+02 -0.29934713773E+02  0.26518890023E+03  0.75536300599E+03  0.70000000000E+03 0. -1.
<mgrwt>
<rscale>  0 0.14248543E+04</rscale>
<asrwt>0</asrwt>
<pdfrwt beam="1">  1        1 0.16641218E+00 0.14248543E+04</pdfrwt>
<pdfrwt beam="2">  1       -1 0.62244323E-01 0.14248543E+04</pdfrwt>
<totfact> 0.33414374E+01</totfact>
</mgrwt>
</event>
<event>
 8    1  0.3893101E-010  0.1630004E+04  0.7818608E-02  0.8802324E-01
          1   -1    0    0  501    0  0.00000000000E+00  0.00000000000E+00  0.25287407252E+04  0.25287407252E+04  0.50400000000E-02 0.  1.
         -1   -1    0    0    0  501 -0.00000000000E+00 -0.00000000000E+00 -0.26267164172E+03  0.26267164176E+03  0.50400000000E-02 0. -1.
     200001    2    1    2    0    0 -0.32242525629E+03  0.31628024987E+02  0.68056691484E+03  0.10282403661E+04  0.69939155488E+03 0.  0.
    5000001    2    3    3    0    0 -0.74179145505E+02  0.48634696564E+02  0.45398329496E+02  0.18245405136E+03  0.15284172597E+03 0.  0.
        -11    1    4    4    0    0 -0.97090830596E+01 -0.38838116122E+02 -0.27173766786E+02  0.48384699641E+02  0.51100000000E-03 0. -1.
     200002    1    4    4    0    0 -0.64470062446E+02  0.87472812686E+02  0.72572096282E+02  0.13406935172E+03  0.30000000000E+02 0. -1.
     200000    1    3    3    0    0 -0.24824611079E+03 -0.17006671577E+02  0.63516858534E+03  0.84578631474E+03  0.50000000000E+03 0. -1.
    -200001    1    1    2    0    0  0.32242525629E+03 -0.31628024987E+02  0.15855021686E+04  0.17631720008E+04  0.70000000000E+03 0. -1.
<mgrwt>
<rscale>  0 0.16300043E+04</rscale>
<asrwt>0</asrwt>
<pdfrwt beam="1">  1        1 0.36124869E+00 0.16300043E+04</pdfrwt>
<pdfrwt beam="2">  1       -1 0.37524519E-01 0.16300043E+04</pdfrwt>
<totfact> 0.11332319E+01</totfact>
</mgrwt>
</event>
<event>
 8    1  0.3893101E-010  0.3325552E+04  0.7818608E-02  0.8156424E-01
         -1   -1    0    0    0  501 -0.00000000000E+00  0.00000000000E+00  0.61034549738E+03  0.61034549740E+03  0.50400000000E-02 0.  1.
          1   -1    0    0  501    0  0.00000000000E+00 -0.00000000000E+00 -0.45299339607E+04  0.45299339607E+04  0.50400000000E-02 0. -1.
     200001    2    1    2    0    0 -0.16168749498E+03 -0.14936301608E+02  0.35751064259E+03  0.80323637544E+03  0.70072025525E+03 0.  0.
    5000001    2    3    3    0    0 -0.48035351308E+02 -0.48892627259E+02  0.20706493517E+03  0.26778912996E+03  0.15536166441E+03 0.  0.
        -11    1    4    4    0    0  0.15924391993E+02 -0.85206695170E+02  0.13560831526E+03  0.16094527744E+03  0.51100000000E-03 0. -1.
     200002    1    4    4    0    0 -0.63959743301E+02  0.36314067912E+02  0.71456619910E+02  0.10684385252E+03  0.30000000000E+02 0. -1.
     200000    1    3    3    0    0 -0.11365214367E+03  0.33956325651E+02  0.15044570741E+03  0.53544724548E+03  0.50000000000E+03 0.  1.
    -200001    1    1    2    0    0  0.16168749498E+03  0.14936301608E+02 -0.42770991059E+04  0.43370430827E+04  0.70000000000E+03 0. -1.
<mgrwt>
<rscale>  0 0.33255525E+04</rscale>
<asrwt>0</asrwt>
<pdfrwt beam="1">  1        1 0.64713340E+00 0.33255525E+04</pdfrwt>
<pdfrwt beam="2">  1       -1 0.87192216E-01 0.33255525E+04</pdfrwt>
<totfact> 0.67195922E-02</totfact>
</mgrwt>
</event>
<event>
 8    1  0.3893101E-010  0.2947603E+04  0.7818608E-02  0.8258853E-01
          1   -1    0    0  501    0  0.00000000000E+00  0.00000000000E+00  0.78956680094E+03  0.78956680095E+03  0.50400000000E-02 0. -1.
         -1   -1    0    0    0  501 -0.00000000000E+00 -0.00000000000E+00 -0.27509915097E+04  0.27509915097E+04  0.50400000000E-02 0.  1.
     200001    2    1    2    0    0  0.87923568418E+03  0.72371854730E+03 -0.24147108684E+03  0.13622414408E+04  0.70750938732E+03 0.  0.
    5000001    2    3    3    0    0  0.16297923264E+03  0.19845687411E+03 -0.74773042771E+02  0.32942424127E+03  0.19230694647E+03 0.  0.
        -11    1    4    4    0    0  0.62030040291E+02  0.54597260550E+01 -0.89544994060E+02  0.10906805430E+03  0.51100000000E-03 0. -1.
     200002    1    4    4    0    0  0.10094919235E+03  0.19299714805E+03  0.14771951290E+02  0.22035618697E+03  0.30000000000E+02 0. -1.
     200000    1    3    3    0    0  0.71625645154E+03  0.52526167319E+03 -0.16669804407E+03  0.10328171995E+04  0.50000000000E+03 0. -1.
    -200001    1    1    2    0    0 -0.87923568418E+03 -0.72371854730E+03 -0.17199536220E+04  0.21783168699E+04  0.70000000000E+03 0.  1.
<mgrwt>
<rscale>  0 0.29476035E+04</rscale>
<asrwt>0</asrwt>
<pdfrwt beam="1">  1        1 0.11279526E+00 0.29476035E+04</pdfrwt>
<pdfrwt beam="2">  1       -1 0.39299878E+00 0.29476035E+04</pdfrwt>
<totfact> 0.17429280E-01</totfact>
</mgrwt>
</event>
<event>
 8    1  0.3893101E-010  0.1665888E+04  0.7818608E-02  0.8781062E-01
          1   -1    0    0  501    0  0.00000000000E+00  0.00000000000E+00  0.74315998357E+03  0.74315998359E+03  0.50400000000E-02 0.  1.
         -1   -1    0    0    0  501 -0.00000000000E+00 -0.00000000000E+00 -0.93357516091E+03  0.93357516092E+03  0.50400000000E-02 0. -1.
     200001    2    1    2    0    0 -0.41266824139E+03 -0.71584471296E+02  0.72256227906E+02  0.81975458399E+03  0.70096875930E+03 0.  0.
    5000001    2    3    3    0    0 -0.24833293950E+03 -0.10839922081E+03  0.20158992186E+01  0.28749983201E+03  0.96085637028E+02 0.  0.
        -11    1    4    4    0    0 -0.12099014408E+03 -0.89880696689E+02  0.26734108468E+02  0.15307471103E+03  0.51100000000E-03 0. -1.
     200002    1    4    4    0    0 -0.12734279542E+03 -0.18518524119E+02 -0.24718209250E+02  0.13442512098E+03  0.30000000000E+02 0. -1.
     200000    1    3    3    0    0 -0.16433530189E+03  0.36814749512E+02  0.70240328688E+02  0.53225475198E+03  0.50000000000E+03 0. -1.
    -200001    1    1    2    0    0  0.41266824139E+03  0.71584471296E+02 -0.26267140524E+03  0.85698056052E+03  0.70000000000E+03 0. -1.
<mgrwt>
<rscale>  0 0.16658880E+04</rscale>
<asrwt>0</asrwt>
<pdfrwt beam="1">  1        1 0.10616571E+00 0.16658880E+04</pdfrwt>
<pdfrwt beam="2">  1       -1 0.13336788E+00 0.16658880E+04</pdfrwt>
<totfact> 0.12669988E+01</totfact>
</mgrwt>
</event>
<event>
 8    1  0.3893101E-010  0.2410709E+04  0.7818608E-02  0.8435505E-01
         -1   -1    0    0    0  501 -0.00000000000E+00  0.00000000000E+00  0.19486047929E+04  0.19486047929E+04  0.50400000000E-02 0. -1.
          1   -1    0    0  501    0  0.00000000000E+00 -0.00000000000E+00 -0.74559981214E+03  0.74559981216E+03  0.50400000000E-02 0.  1.
     200001    2    1    2    0    0  0.82594627251E+03  0.42041237898E+02  0.11917297633E+04  0.16106540335E+04  0.70002276819E+03 0.  0.
    5000001    2    3    3    0    0  0.20280024270E+03  0.67619964869E+01  0.23341730099E+03  0.36248802896E+03  0.18905097647E+03 0.  0.
        -11    1    4    4    0    0  0.26825543057E+01 -0.15038447655E+02 -0.27573350234E+02  0.31522066063E+02  0.51100000000E-03 0. -1.
     200002    1    4    4    0    0  0.20011768839E+03  0.21800444142E+02  0.26099065122E+03  0.33096596290E+03  0.30000000000E+02 0. -1.
     200000    1    3    3    0    0  0.62314602981E+03  0.35279241411E+02  0.95831246234E+03  0.12481660045E+04  0.50000000000E+03 0. -1.
    -200001    1    1    2    0    0 -0.82594627251E+03 -0.42041237898E+02  0.11275217475E+02  0.10835505716E+04  0.70000000000E+03 0.  1.
<mgrwt>
<rscale>  0 0.24107089E+04</rscale>
<asrwt>0</asrwt>
<pdfrwt beam="1">  1        1 0.10651426E+00 0.24107089E+04</pdfrwt>
<pdfrwt beam="2">  1       -1 0.27837211E+00 0.24107089E+04</pdfrwt>
<totfact> 0.11372324E+00</totfact>
</mgrwt>
</event>
<event>
 8    1  0.3893101E-010  0.1855666E+04  0.7818608E-02  0.8677244E-01
         -1   -1    0    0    0  501 -0.00000000000E+00  0.00000000000E+00  0.81446819576E+03  0.81446819578E+03  0.50400000000E-02 0. -1.
          1   -1    0    0  501    0  0.00000000000E+00 -0.00000000000E+00 -0.10569772303E+04  0.10569772303E+04  0.50400000000E-02 0.  1.
     200001    2    1    2    0    0  0.43294816196E+02  0.26726581908E+03  0.42882536795E+03  0.86447207036E+03  0.70008235592E+03 0.  0.
    5000001    2    3    3    0    0  0.26091942288E+02  0.54263901562E+02  0.65676214576E+02  0.21060429830E+03  0.19082831246E+03 0.  0.
        -11    1    4    4    0    0  0.96965118548E+02  0.70592982807E+02  0.52100862363E+02  0.13076736327E+03  0.51100000000E-03 0. -1.
     200002    1    4    4    0    0 -0.70873176261E+02 -0.16329081245E+02  0.13575352213E+02  0.79836935032E+02  0.30000000000E+02 0. -1.
     200000    1    3    3    0    0  0.17202873908E+02  0.21300191752E+03  0.36314915338E+03  0.65386777206E+03  0.50000000000E+03 0. -1.
    -200001    1    1    2    0    0 -0.43294816196E+02 -0.26726581908E+03 -0.67133440244E+03  0.10069733557E+04  0.70000000000E+03 0.  1.
<mgrwt>
<rscale>  0 0.18556663E+04</rscale>
<asrwt>0</asrwt>
<pdfrwt beam="1">  1        1 0.15099675E+00 0.18556663E+04</pdfrwt>
<pdfrwt beam="2">  1       -1 0.11635260E+00 0.18556663E+04</pdfrwt>
<totfact> 0.98476693E+00</totfact>
</mgrwt>
</event>
<event>
 8    1  0.3893101E-010  0.1717486E+04  0.7818608E-02  0.8751454E-01
         -1   -1    0    0    0  501 -0.00000000000E+00  0.00000000000E+00  0.10108145578E+04  0.10108145578E+04  0.50400000000E-02 0. -1.
          1   -1    0    0  501    0  0.00000000000E+00 -0.00000000000E+00 -0.72954963551E+03  0.72954963553E+03  0.50400000000E-02 0.  1.
     200001    2    1    2    0    0 -0.25206529782E+03  0.42700838818E+03  0.90355539635E+02  0.86154710754E+03  0.69873186347E+03 0.  0.
    5000001    2    3    3    0    0  0.24033803076E+02  0.14530051657E+03  0.11059799144E+03  0.22436597529E+03  0.12813395861E+03 0.  0.
        -11    1    4    4    0    0  0.19277549595E+02  0.32347176325E+02  0.10007779302E+03  0.10692767832E+03  0.51100000000E-03 0. -1.
     200002    1    4    4    0    0  0.47562534807E+01  0.11295334024E+03  0.10520198422E+02  0.11743829697E+03  0.30000000000E+02 0. -1.
     200000    1    3    3    0    0 -0.27609910090E+03  0.28170787161E+03 -0.20242451807E+02  0.63718113225E+03  0.50000000000E+03 0.  1.
    -200001    1    1    2    0    0  0.25206529782E+03 -0.42700838818E+03  0.19090938267E+03  0.87881708582E+03  0.70000000000E+03 0. -1.
<mgrwt>
<rscale>  0 0.17174858E+04</rscale>
<asrwt>0</asrwt>
<pdfrwt beam="1">  1        1 0.10422138E+00 0.17174858E+04</pdfrwt>
<pdfrwt beam="2">  1       -1 0.14440208E+00 0.17174858E+04</pdfrwt>
<totfact> 0.10546456E+01</totfact>
</mgrwt>
</event>
<event>
 8    1  0.3893101E-010  0.1800988E+04  0.7818608E-02  0.8705774E-01
         -1   -1    0    0    0  501 -0.00000000000E+00  0.00000000000E+00  0.31246632543E+03  0.31246632547E+03  0.50400000000E-02 0. -1.
          1   -1    0    0  501    0  0.00000000000E+00 -0.00000000000E+00 -0.25951256916E+04  0.25951256916E+04  0.50400000000E-02 0.  1.
     200001    2    1    2    0    0 -0.21358537291E+02 -0.49618010111E+03 -0.69995395434E+03  0.11071456001E+04  0.69941758752E+03 0.  0.
    5000001    2    3    3    0    0 -0.50008776294E+02 -0.10864694314E+03 -0.28298275448E+03  0.34894525306E+03  0.16546454103E+03 0.  0.
        -11    1    4    4    0    0  0.16522524291E+02 -0.36173402778E+02 -0.22968580768E+03  0.23310315126E+03  0.51100000000E-03 0. -1.
     200002    1    4    4    0    0 -0.66531300585E+02 -0.72473540364E+02 -0.53296946797E+02  0.11584210180E+03  0.30000000000E+02 0. -1.
     200000    1    3    3    0    0  0.28650239004E+02 -0.38753315796E+03 -0.41697119986E+03  0.75820034702E+03  0.50000000000E+03 0. -1.
    -200001    1    1    2    0    0  0.21358537291E+02  0.49618010111E+03 -0.15827054118E+04  0.18004464170E+04  0.70000000000E+03 0.  1.
<mgrwt>
<rscale>  0 0.18009879E+04</rscale>
<asrwt>0</asrwt>
<pdfrwt beam="1">  1        1 0.37073223E+00 0.18009879E+04</pdfrwt>
<pdfrwt beam="2">  1       -1 0.44638048E-01 0.18009879E+04</pdfrwt>
<totfact> 0.73623381E+00</totfact>
</mgrwt>
</event>
<event>
 8    1  0.3893101E-010  0.1416174E+04  0.7818608E-02  0.8942193E-01
         -1   -1    0    0    0  501 -0.00000000000E+00  0.00000000000E+00  0.31454222818E+03  0.31454222822E+03  0.50400000000E-02 0. -1.
          1   -1    0    0  501    0  0.00000000000E+00 -0.00000000000E+00 -0.15940229481E+04  0.15940229481E+04  0.50400000000E-02 0.  1.
     200001    2    1    2    0    0  0.40678210652E+02  0.29295197207E+02 -0.76963135177E+03  0.10411210550E+04  0.69934805937E+03 0.  0.
    5000001    2    3    3    0    0  0.12678960982E+03  0.32121215317E+02 -0.16209119476E+03  0.24958571036E+03  0.13752124841E+03 0.  0.
        -11    1    4    4    0    0  0.16393290336E+01 -0.31202613207E+02  0.24064767780E+01  0.31338181207E+02  0.51100000000E-03 0. -1.
     200002    1    4    4    0    0  0.12515028078E+03  0.63323828523E+02 -0.16449767154E+03  0.21824752915E+03  0.30000000000E+02 0. -1.
     200000    1    3    3    0    0 -0.86111399167E+02 -0.28260181096E+01 -0.60754015701E+03  0.79153534465E+03  0.50000000000E+03 0.  1.
    -200001    1    1    2    0    0 -0.40678210652E+02 -0.29295197207E+02 -0.50984936812E+03  0.86744412130E+03  0.70000000000E+03 0. -1.
<mgrwt>
<rscale>  0 0.14161745E+04</rscale>
<asrwt>0</asrwt>
<pdfrwt beam="1">  1        1 0.22771756E+00 0.14161745E+04</pdfrwt>
<pdfrwt beam="2">  1       -1 0.44934605E-01 0.14161745E+04</pdfrwt>
<totfact> 0.32331923E+01</totfact>
</mgrwt>
</event>
<event>
 8    1  0.3893101E-010  0.1436078E+04  0.7818608E-02  0.8928109E-01
         -1   -1    0    0    0  501 -0.00000000000E+00  0.00000000000E+00  0.46936248301E+03  0.46936248304E+03  0.50400000000E-02 0.  1.
          1   -1    0    0  501    0  0.00000000000E+00 -0.00000000000E+00 -0.10984691048E+04  0.10984691048E+04  0.50400000000E-02 0. -1.
     200001    2    1    2    0    0  0.81828274419E+02  0.77082270862E+02 -0.18566878406E+03  0.73160514787E+03  0.69866705379E+03 0.  0.
    5000001    2    3    3    0    0  0.11332291803E+03  0.65784576183E+01 -0.10369500200E+03  0.21907963514E+03  0.15607009079E+03 0.  0.
        -11    1    4    4    0    0  0.14503389754E+03 -0.86842604935E+01 -0.66767443998E+02  0.15990040461E+03  0.51100000000E-03 0. -1.
     200002    1    4    4    0    0 -0.31710979513E+02  0.15262718112E+02 -0.36927558003E+02  0.59179230529E+02  0.30000000000E+02 0. -1.
     200000    1    3    3    0    0 -0.31494643610E+02  0.70503813244E+02 -0.81973782061E+02  0.51252551273E+03  0.50000000000E+03 0.  1.
    -200001    1    1    2    0    0 -0.81828274419E+02 -0.77082270862E+02 -0.44343783772E+03  0.83622643997E+03  0.70000000000E+03 0. -1.
<mgrwt>
<rscale>  0 0.14360783E+04</rscale>
<asrwt>0</asrwt>
<pdfrwt beam="1">  1        1 0.15692416E+00 0.14360783E+04</pdfrwt>
<pdfrwt beam="2">  1       -1 0.67051784E-01 0.14360783E+04</pdfrwt>
<totfact> 0.32048192E+01</totfact>
</mgrwt>
</event>
<event>
 8    1  0.3893101E-010  0.1678920E+04  0.7818608E-02  0.8773479E-01
         -1   -1    0    0    0  501 -0.00000000000E+00  0.00000000000E+00  0.54805043061E+03  0.54805043063E+03  0.50400000000E-02 0. -1.
          1   -1    0    0  501    0  0.00000000000E+00 -0.00000000000E+00 -0.12858185067E+04  0.12858185067E+04  0.50400000000E-02 0.  1.
     200001    2    1    2    0    0  0.22795923404E+03  0.21017076736E+03  0.66686200763E+01  0.76600979004E+03  0.70042084785E+03 0.  0.
    5000001    2    3    3    0    0  0.13876561113E+03  0.11902779690E+03 -0.35743990076E+02  0.24826335313E+03  0.16411443695E+03 0.  0.
        -11    1    4    4    0    0  0.60780972094E+02  0.14444770721E+03 -0.92121478525E+01  0.15698512781E+03  0.51100000000E-03 0. -1.
     200002    1    4    4    0    0  0.77984639035E+02 -0.25419910309E+02 -0.26531842224E+02  0.91278225319E+02  0.30000000000E+02 0. -1.
     200000    1    3    3    0    0  0.89193622909E+02  0.91142970464E+02  0.42412610153E+02  0.51774643691E+03  0.50000000000E+03 0. -1.
    -200001    1    1    2    0    0 -0.22795923404E+03 -0.21017076736E+03 -0.74443669613E+03  0.10678591473E+04  0.70000000000E+03 0.  1.
<mgrwt>
<rscale>  0 0.16789204E+04</rscale>
<asrwt>0</asrwt>
<pdfrwt beam="1">  1        1 0.18368836E+00 0.16789204E+04</pdfrwt>
<pdfrwt beam="2">  1       -1 0.78292919E-01 0.16789204E+04</pdfrwt>
<totfact> 0.16858526E+01</totfact>
</mgrwt>
</event>
<event>
 8    1  0.3893101E-010  0.1480290E+04  0.7818608E-02  0.8897667E-01
          1   -1    0    0  501    0  0.00000000000E+00  0.00000000000E+00  0.26326549549E+04  0.26326549549E+04  0.50400000000E-02 0.  1.
         -1   -1    0    0    0  501 -0.00000000000E+00 -0.00000000000E+00 -0.20808442087E+03  0.20808442093E+03  0.50400000000E-02 0. -1.
     200001    2    1    2    0    0  0.29305173177E+02 -0.58736939897E+02  0.76657454858E+03  0.10398341842E+04  0.69950680548E+03 0.  0.
    5000001    2    3    3    0    0  0.44476034552E+01 -0.12055903047E+02  0.31488133012E+03  0.36394678122E+03  0.18204911844E+03 0.  0.
        -11    1    4    4    0    0 -0.51992270953E+02  0.61515329691E+02  0.10322299697E+03  0.13092867955E+03  0.51100000000E-03 0. -1.
     200002    1    4    4    0    0  0.56439874408E+02 -0.73571232738E+02  0.21165833315E+03  0.23301810167E+03  0.30000000000E+02 0. -1.
     200000    1    3    3    0    0  0.24857569722E+02 -0.46681036850E+02  0.45169321846E+03  0.67588740303E+03  0.50000000000E+03 0. -1.
    -200001    1    1    2    0    0 -0.29305173177E+02  0.58736939897E+02  0.16579959854E+04  0.18009051915E+04  0.70000000000E+03 0.  1.
<mgrwt>
<rscale>  0 0.14802898E+04</rscale>
<asrwt>0</asrwt>
<pdfrwt beam="1">  1        1 0.37609354E+00 0.14802898E+04</pdfrwt>
<pdfrwt beam="2">  1       -1 0.29726348E-01 0.14802898E+04</pdfrwt>
<totfact> 0.14921771E+01</totfact>
</mgrwt>
</event>
<event>
 8    1  0.3893101E-010  0.2204011E+04  0.7818608E-02  0.8516761E-01
         -1   -1    0    0    0  501 -0.00000000000E+00  0.00000000000E+00  0.60005269092E+03  0.60005269094E+03  0.50400000000E-02 0. -1.
          1   -1    0    0  501    0  0.00000000000E+00 -0.00000000000E+00 -0.20238484125E+04  0.20238484125E+04  0.50400000000E-02 0.  1.
     200001    2    1    2    0    0  0.43159310363E+03  0.68776845741E+03 -0.10078091109E+04  0.14739694018E+04  0.70541373349E+03 0.  0.
    5000001    2    3    3    0    0  0.13894963988E+03  0.21427605177E+03 -0.27278959533E+03  0.42511815244E+03  0.20270681149E+03 0.  0.
        -11    1    4    4    0    0  0.33253741753E+02  0.84454095145E+02  0.13854281036E+02  0.91816374523E+02  0.51100000000E-03 0. -1.
     200002    1    4    4    0    0  0.10569589813E+03  0.12982195663E+03 -0.28664387636E+03  0.33330177791E+03  0.30000000000E+02 0. -1.
     200000    1    3    3    0    0  0.29264346375E+03  0.47349240564E+03 -0.73501951555E+03  0.10488512494E+04  0.50000000000E+03 0.  1.
    -200001    1    1    2    0    0 -0.43159310363E+03 -0.68776845741E+03 -0.41598661068E+03  0.11499317016E+04  0.70000000000E+03 0. -1.
<mgrwt>
<rscale>  0 0.22040106E+04</rscale>
<asrwt>0</asrwt>
<pdfrwt beam="1">  1        1 0.28912120E+00 0.22040106E+04</pdfrwt>
<pdfrwt beam="2">  1       -1 0.85721814E-01 0.22040106E+04</pdfrwt>
<totfact> 0.44285568E+00</totfact>
</mgrwt>
</event>
<event>
 8    1  0.3893101E-010  0.1786614E+04  0.7818608E-02  0.8713450E-01
          1   -1    0    0  501    0  0.00000000000E+00  0.00000000000E+00  0.10125197183E+04  0.10125197183E+04  0.50400000000E-02 0. -1.
         -1   -1    0    0    0  501 -0.00000000000E+00 -0.00000000000E+00 -0.78813031214E+03  0.78813031216E+03  0.50400000000E-02 0.  1.
     200001    2    1    2    0    0 -0.26272618864E+01 -0.15477958175E+03 -0.42470413113E+03  0.83354815291E+03  0.70033228027E+03 0.  0.
    5000001    2    3    3    0    0  0.14045695732E+03 -0.51491002950E+02 -0.12769101576E+03  0.22579950832E+03  0.11090961278E+03 0.  0.
        -11    1    4    4    0    0  0.84694114708E+02  0.58246280875E+01 -0.10936447262E+03  0.13844712792E+03  0.51100000000E-03 0. -1.
     200002    1    4    4    0    0  0.55762842615E+02 -0.57315631037E+02 -0.18326543143E+02  0.87352380399E+02  0.30000000000E+02 0. -1.
     200000    1    3    3    0    0 -0.14308421921E+03 -0.10328857880E+03 -0.29701311537E+03  0.60774864459E+03  0.50000000000E+03 0.  1.
    -200001    1    1    2    0    0  0.26272618864E+01  0.15477958175E+03  0.64909353731E+03  0.96710187757E+03  0.70000000000E+03 0. -1.
<mgrwt>
<rscale>  0 0.17866141E+04</rscale>
<asrwt>0</asrwt>
<pdfrwt beam="1">  1        1 0.14464567E+00 0.17866141E+04</pdfrwt>
<pdfrwt beam="2">  1       -1 0.11259004E+00 0.17866141E+04</pdfrwt>
<totfact> 0.11559117E+01</totfact>
</mgrwt>
</event>
<event>
 8    1  0.3893101E-010  0.1684881E+04  0.7818608E-02  0.8770035E-01
         -1   -1    0    0    0  501 -0.00000000000E+00  0.00000000000E+00  0.59475280693E+03  0.59475280695E+03  0.50400000000E-02 0. -1.
          1   -1    0    0  501    0  0.00000000000E+00 -0.00000000000E+00 -0.11932788542E+04  0.11932788543E+04  0.50400000000E-02 0.  1.
     200001    2    1    2    0    0 -0.29335869965E+03  0.10758667359E+03 -0.67023021142E+03  0.10181123757E+04  0.69979286530E+03 0.  0.
    5000001    2    3    3    0    0 -0.94067816906E+02 -0.93955117251E+02 -0.23556450144E+03  0.29750830356E+03  0.12387186166E+03 0.  0.
        -11    1    4    4    0    0 -0.32864426475E+02 -0.72438489739E+02 -0.39481404202E+02  0.88804203736E+02  0.51100000000E-03 0. -1.
     200002    1    4    4    0    0 -0.61203390431E+02 -0.21516627511E+02 -0.19608309724E+03  0.20870409982E+03  0.30000000000E+02 0. -1.
     200000    1    3    3    0    0 -0.19929088275E+03  0.20154179084E+03 -0.43466570998E+03  0.72060407218E+03  0.50000000000E+03 0.  1.
    -200001    1    1    2    0    0  0.29335869965E+03 -0.10758667359E+03  0.71704164107E+02  0.76991928548E+03  0.70000000000E+03 0. -1.
<mgrwt>
<rscale>  0 0.16848809E+04</rscale>
<asrwt>0</asrwt>
<pdfrwt beam="1">  1        1 0.17046841E+00 0.16848809E+04</pdfrwt>
<pdfrwt beam="2">  1       -1 0.84964687E-01 0.16848809E+04</pdfrwt>
<totfact> 0.16379100E+01</totfact>
</mgrwt>
</event>
<event>
 8    1  0.3893101E-010  0.1603640E+04  0.7818608E-02  0.8818315E-01
          1   -1    0    0  501    0  0.00000000000E+00  0.00000000000E+00  0.37644900560E+04  0.37644900560E+04  0.50400000000E-02 0.  1.
         -1   -1    0    0    0  501 -0.00000000000E+00 -0.00000000000E+00 -0.17078406716E+03  0.17078406724E+03  0.50400000000E-02 0. -1.
     200001    2    1    2    0    0  0.41723235971E+02  0.38288235692E+03  0.16032999245E+04  0.17905000025E+04  0.69783943976E+03 0.  0.
    5000001    2    3    3    0    0  0.10524693580E+03  0.12967274215E+03  0.39845227866E+03  0.46015861063E+03  0.15839757263E+03 0.  0.
        -11    1    4    4    0    0  0.47220753177E+02  0.14582997079E+03  0.20955309247E+03  0.25963181329E+03  0.51100000000E-03 0. -1.
     200002    1    4    4    0    0  0.58026182624E+02 -0.16157228634E+02  0.18889918619E+03  0.20052679734E+03  0.30000000000E+02 0. -1.
     200000    1    3    3    0    0 -0.63523699830E+02  0.25320961477E+03  0.12048476458E+04  0.13303413919E+04  0.50000000000E+03 0.  1.
    -200001    1    1    2    0    0 -0.41723235971E+02 -0.38288235692E+03  0.19904060643E+04  0.21447741207E+04  0.70000000000E+03 0.  1.
<mgrwt>
<rscale>  0 0.16036395E+04</rscale>
<asrwt>0</asrwt>
<pdfrwt beam="1">  1        1 0.53778426E+00 0.16036395E+04</pdfrwt>
<pdfrwt beam="2">  1       -1 0.24397725E-01 0.16036395E+04</pdfrwt>
<totfact> 0.35683860E+00</totfact>
</mgrwt>
</event>
<event>
 8    1  0.3893101E-010  0.2104400E+04  0.7818608E-02  0.8559308E-01
          1   -1    0    0  501    0  0.00000000000E+00  0.00000000000E+00  0.11933562396E+04  0.11933562396E+04  0.50400000000E-02 0.  1.
         -1   -1    0    0    0  501 -0.00000000000E+00 -0.00000000000E+00 -0.92774040175E+03  0.92774040176E+03  0.50400000000E-02 0. -1.
     200001    2    1    2    0    0 -0.40395935593E+03 -0.37761864863E+03 -0.42949153492E+03  0.99018848208E+03  0.70016515654E+03 0.  0.
    5000001    2    3    3    0    0 -0.10894426801E+03 -0.13593589202E+03 -0.16953246835E+03  0.30973042075E+03  0.19194857498E+03 0.  0.
        -11    1    4    4    0    0  0.54181339707E+02 -0.25180301709E+02 -0.40928140214E+02  0.72420838356E+02  0.51100000000E-03 0. -1.
     200002    1    4    4    0    0 -0.16312560771E+03 -0.11075559031E+03 -0.12860432814E+03  0.23730958239E+03  0.30000000000E+02 0. -1.
     200000    1    3    3    0    0 -0.29501508792E+03 -0.24168275661E+03 -0.25995906657E+03  0.68045806134E+03  0.50000000000E+03 0. -1.
    -200001    1    1    2    0    0  0.40395935593E+03  0.37761864863E+03  0.69510737275E+03  0.11309081593E+04  0.70000000000E+03 0.  1.
<mgrwt>
<rscale>  0 0.21044000E+04</rscale>
<asrwt>0</asrwt>
<pdfrwt beam="1">  1        1 0.17047946E+00 0.21044000E+04</pdfrwt>
<pdfrwt beam="2">  1       -1 0.13253434E+00 0.21044000E+04</pdfrwt>
<totfact> 0.55778691E+00</totfact>
</mgrwt>
</event>
<event>
 8    1  0.3893101E-010  0.1592033E+04  0.7818608E-02  0.8825458E-01
          1   -1    0    0  501    0  0.00000000000E+00  0.00000000000E+00  0.42076448544E+03  0.42076448547E+03  0.50400000000E-02 0.  1.
         -1   -1    0    0    0  501 -0.00000000000E+00 -0.00000000000E+00 -0.15059303725E+04  0.15059303725E+04  0.50400000000E-02 0. -1.
     200001    2    1    2    0    0  0.20904327363E+03  0.22640795186E+03 -0.28092381356E+03  0.81684578549E+03  0.70239532838E+03 0.  0.
    5000001    2    3    3    0    0 -0.40706507905E+02 -0.62347071806E+01 -0.47164696877E+02  0.16789210085E+03  0.15577983674E+03 0.  0.
        -11    1    4    4    0    0 -0.82017030398E+02  0.38413376251E+02 -0.11591439572E+02  0.91305762261E+02  0.51100000000E-03 0. -1.
     200002    1    4    4    0    0  0.41310522494E+02 -0.44648083432E+02 -0.35573257305E+02  0.76586338586E+02  0.30000000000E+02 0. -1.
     200000    1    3    3    0    0  0.24974978154E+03  0.23264265904E+03 -0.23375911669E+03  0.64895368465E+03  0.50000000000E+03 0.  1.
    -200001    1    1    2    0    0 -0.20904327363E+03 -0.22640795186E+03 -0.80424207349E+03  0.11098490725E+04  0.70000000000E+03 0. -1.
<mgrwt>
<rscale>  0 0.15920327E+04</rscale>
<asrwt>0</asrwt>
<pdfrwt beam="1">  1        1 0.60109213E-01 0.15920327E+04</pdfrwt>
<pdfrwt beam="2">  1       -1 0.21513291E+00 0.15920327E+04</pdfrwt>
<totfact> 0.70691949E+00</totfact>
</mgrwt>
</event>
<event>
 8    1  0.3893101E-010  0.2236066E+04  0.7818608E-02  0.8503565E-01
          1   -1    0    0  501    0  0.00000000000E+00  0.00000000000E+00  0.95356887807E+03  0.95356887808E+03  0.50400000000E-02 0.  1.
         -1   -1    0    0    0  501 -0.00000000000E+00 -0.00000000000E+00 -0.13108620390E+04  0.13108620390E+04  0.50400000000E-02 0. -1.
     200001    2    1    2    0    0  0.38957294342E+03 -0.35214120780E+03  0.52187967598E+03  0.10239812463E+04  0.70739570835E+03 0.  0.
    5000001    2    3    3    0    0  0.21976258333E+03 -0.96221628158E+02  0.20701747153E+03  0.35804686712E+03  0.16669472331E+03 0.  0.
        -11    1    4    4    0    0  0.23527436688E+03 -0.96449130051E+02  0.16098279314E+03  0.30095169395E+03  0.51100000000E-03 0. -1.
     200002    1    4    4    0    0 -0.15511783554E+02  0.22750189318E+00  0.46034678384E+02  0.57095173176E+02  0.30000000000E+02 0. -1.
     200000    1    3    3    0    0  0.16981036009E+03 -0.25591957964E+03  0.31486220445E+03  0.66593437922E+03  0.50000000000E+03 0.  1.
    -200001    1    1    2    0    0 -0.38957294342E+03  0.35214120780E+03 -0.87917283690E+03  0.12404496707E+04  0.70000000000E+03 0. -1.
<mgrwt>
<rscale>  0 0.22360655E+04</rscale>
<asrwt>0</asrwt>
<pdfrwt beam="1">  1        1 0.13622413E+00 0.22360655E+04</pdfrwt>
<pdfrwt beam="2">  1       -1 0.18726600E+00 0.22360655E+04</pdfrwt>
<totfact> 0.31572102E+00</totfact>
</mgrwt>
</event>
<event>
 8    1  0.3893101E-010  0.1736797E+04  0.7818608E-02  0.8740651E-01
         -1   -1    0    0    0  501 -0.00000000000E+00  0.00000000000E+00  0.10748120534E+04  0.10748120534E+04  0.50400000000E-02 0. -1.
          1   -1    0    0  501    0  0.00000000000E+00 -0.00000000000E+00 -0.70162597990E+03  0.70162597992E+03  0.50400000000E-02 0.  1.
     200001    2    1    2    0    0  0.72111079025E+02  0.37166921510E+03 -0.16897335034E+03  0.81348691616E+03  0.69990781998E+03 0.  0.
    5000001    2    3    3    0    0 -0.73378105919E+01  0.91628607087E+02  0.35468506444E+02  0.19986541963E+03  0.17389228250E+03 0.  0.
        -11    1    4    4    0    0  0.13918888244E+02 -0.97275199501E+01  0.81048233956E+02  0.82808069184E+02  0.51100000000E-03 0. -1.
     200002    1    4    4    0    0 -0.21256698836E+02  0.10135612704E+03 -0.45579727512E+02  0.11705735045E+03  0.30000000000E+02 0. -1.
     200000    1    3    3    0    0  0.79448889617E+02  0.28004060801E+03 -0.20444185679E+03  0.61362149653E+03  0.50000000000E+03 0.  1.
    -200001    1    1    2    0    0 -0.72111079025E+02 -0.37166921510E+03  0.54215942382E+03  0.96295111715E+03  0.70000000000E+03 0. -1.
<mgrwt>
<rscale>  0 0.17367971E+04</rscale>
<asrwt>0</asrwt>
<pdfrwt beam="1">  1        1 0.10023228E+00 0.17367971E+04</pdfrwt>
<pdfrwt beam="2">  1       -1 0.15354458E+00 0.17367971E+04</pdfrwt>
<totfact> 0.94622504E+00</totfact>
</mgrwt>
</event>
<event>
 8    1  0.3893101E-010  0.2869602E+04  0.7818608E-02  0.8281980E-01
          1   -1    0    0  501    0  0.00000000000E+00  0.00000000000E+00  0.20661762431E+04  0.20661762431E+04  0.50400000000E-02 0.  1.
         -1   -1    0    0    0  501 -0.00000000000E+00 -0.00000000000E+00 -0.99635950769E+03  0.99635950770E+03  0.50400000000E-02 0. -1.
     200001    2    1    2    0    0  0.12206731463E+04  0.94162334007E+02  0.81704968042E+03  0.16297759456E+04  0.69977852020E+03 0.  0.
    5000001    2    3    3    0    0  0.32174434403E+03  0.14199231453E+03  0.22796162986E+03  0.44344318035E+03  0.14489344088E+03 0.  0.
        -11    1    4    4    0    0  0.23535268850E+02 -0.22025015897E+02 -0.84778352420E+00  0.32244828148E+02  0.51100000000E-03 0. -1.
     200002    1    4    4    0    0  0.29820907518E+03  0.16401733043E+03  0.22880941339E+03  0.41119835221E+03  0.30000000000E+02 0. -1.
     200000    1    3    3    0    0  0.89892880227E+03 -0.47829980525E+02  0.58908805056E+03  0.11863327652E+04  0.50000000000E+03 0. -1.
    -200001    1    1    2    0    0 -0.12206731463E+04 -0.94162334007E+02  0.25276705495E+03  0.14327598052E+04  0.70000000000E+03 0. -1.
<mgrwt>
<rscale>  0 0.28696023E+04</rscale>
<asrwt>0</asrwt>
<pdfrwt beam="1">  1        1 0.29516803E+00 0.28696023E+04</pdfrwt>
<pdfrwt beam="2">  1       -1 0.14233707E+00 0.28696023E+04</pdfrwt>
<totfact> 0.11771717E+00</totfact>
</mgrwt>
</event>
<event>
 8    1  0.3893101E-010  0.3207370E+04  0.7818608E-02  0.8186874E-01
         -1   -1    0    0    0  501 -0.00000000000E+00  0.00000000000E+00  0.25966908710E+04  0.25966908710E+04  0.50400000000E-02 0. -1.
          1   -1    0    0  501    0  0.00000000000E+00 -0.00000000000E+00 -0.99041626936E+03  0.99041626938E+03  0.50400000000E-02 0.  1.
     200001    2    1    2    0    0  0.76386562982E+03 -0.10120139507E+03 -0.56123095258E+03  0.11825671115E+04  0.69982309789E+03 0.  0.
    5000001    2    3    3    0    0  0.21551172201E+03 -0.33948694620E+02 -0.15003333253E+03  0.33150987686E+03  0.19947676907E+03 0.  0.
        -11    1    4    4    0    0 -0.12022054447E+02 -0.63116074600E+02 -0.34044575768E+02  0.72713147405E+02  0.51100000000E-03 0. -1.
     200002    1    4    4    0    0  0.22753377646E+03  0.29167379980E+02 -0.11598875676E+03  0.25879672946E+03  0.30000000000E+02 0. -1.
     200000    1    3    3    0    0  0.54835390782E+03 -0.67252700451E+02 -0.41119762005E+03  0.85105723466E+03  0.50000000000E+03 0.  1.
    -200001    1    1    2    0    0 -0.76386562982E+03  0.10120139507E+03  0.21675055542E+04  0.24045400289E+04  0.70000000000E+03 0. -1.
<mgrwt>
<rscale>  0 0.32073696E+04</rscale>
<asrwt>0</asrwt>
<pdfrwt beam="1">  1        1 0.14148804E+00 0.32073696E+04</pdfrwt>
<pdfrwt beam="2">  1       -1 0.37095583E+00 0.32073696E+04</pdfrwt>
<totfact> 0.16626094E-01</totfact>
</mgrwt>
</event>
<event>
 8    1  0.3893101E-010  0.2754960E+04  0.7818608E-02  0.8317389E-01
          1   -1    0    0  501    0  0.00000000000E+00  0.00000000000E+00  0.11804229453E+04  0.11804229453E+04  0.50400000000E-02 0.  1.
         -1   -1    0    0    0  501 -0.00000000000E+00 -0.00000000000E+00 -0.16074335746E+04  0.16074335747E+04  0.50400000000E-02 0. -1.
     200001    2    1    2    0    0 -0.87814994807E+03  0.22782972149E+02 -0.10207157763E+04  0.15173636248E+04  0.69918901505E+03 0.  0.
    5000001    2    3    3    0    0 -0.15746444533E+03 -0.32534388469E+02 -0.13032580905E+03  0.26626734632E+03  0.16751103019E+03 0.  0.
        -11    1    4    4    0    0 -0.13337289176E+03 -0.57266265447E+02 -0.19597906781E+02  0.14646443720E+03  0.51100000000E-03 0. -1.
     200002    1    4    4    0    0 -0.24091553575E+02  0.24731876977E+02 -0.11072790227E+03  0.11980290912E+03  0.30000000000E+02 0. -1.
     200000    1    3    3    0    0 -0.72068550273E+03  0.55317360618E+02 -0.89038996726E+03  0.12510962785E+04  0.50000000000E+03 0. -1.
    -200001    1    1    2    0    0  0.87814994807E+03 -0.22782972149E+02  0.59370514697E+03  0.12704928952E+04  0.70000000000E+03 0.  1.
<mgrwt>
<rscale>  0 0.27549602E+04</rscale>
<asrwt>0</asrwt>
<pdfrwt beam="1">  1        1 0.16863185E+00 0.27549602E+04</pdfrwt>
<pdfrwt beam="2">  1       -1 0.22963337E+00 0.27549602E+04</pdfrwt>
<totfact> 0.10604092E+00</totfact>
</mgrwt>
</event>
<event>
 8    1  0.3893101E-010  0.1827387E+04  0.7818608E-02  0.8691870E-01
          1   -1    0    0  501    0  0.00000000000E+00  0.00000000000E+00  0.30021852244E+04  0.30021852244E+04  0.50400000000E-02 0.  1.
         -1   -1    0    0    0  501 -0.00000000000E+00 -0.00000000000E+00 -0.27807599756E+03  0.27807599761E+03  0.50400000000E-02 0. -1.
     200001    2    1    2    0    0 -0.39378972583E+03 -0.23807256902E+03  0.70548164211E+03  0.10947163879E+04  0.69925011704E+03 0.  0.
    5000001    2    3    3    0    0 -0.16085960272E+03 -0.14726497210E+03  0.30015936462E+03  0.40421757500E+03  0.16041639561E+03 0.  0.
        -11    1    4    4    0    0 -0.14748054190E+03 -0.51648173928E+02  0.24055689888E+03  0.28685478157E+03  0.51100000000E-03 0. -1.
     200002    1    4    4    0    0 -0.13379060825E+02 -0.95616798174E+02  0.59602465735E+02  0.11736279344E+03  0.30000000000E+02 0. -1.
     200000    1    3    3    0    0 -0.23293012311E+03 -0.90807596917E+02  0.40532227750E+03  0.69049881285E+03  0.50000000000E+03 0. -1.
    -200001    1    1    2    0    0  0.39378972583E+03  0.23807256902E+03  0.20186275847E+04  0.21855448341E+04  0.70000000000E+03 0.  1.
<mgrwt>
<rscale>  0 0.18273868E+04</rscale>
<asrwt>0</asrwt>
<pdfrwt beam="1">  1        1 0.42888359E+00 0.18273868E+04</pdfrwt>
<pdfrwt beam="2">  1       -1 0.39725144E-01 0.18273868E+04</pdfrwt>
<totfact> 0.49590594E+00</totfact>
</mgrwt>
</event>
<event>
 8    1  0.3893101E-010  0.1556497E+04  0.7818608E-02  0.8847729E-01
         -1   -1    0    0    0  501 -0.00000000000E+00  0.00000000000E+00  0.79348084833E+03  0.79348084834E+03  0.50400000000E-02 0. -1.
          1   -1    0    0  501    0  0.00000000000E+00 -0.00000000000E+00 -0.76330819409E+03  0.76330819410E+03  0.50400000000E-02 0.  1.
     200001    2    1    2    0    0  0.24209217120E+03  0.14398010311E+03  0.20668900143E+03  0.78187168539E+03  0.69947415938E+03 0.  0.
    5000001    2    3    3    0    0  0.10436520655E+03  0.35709585069E+02  0.62684306013E+02  0.23284657287E+03  0.19524582831E+03 0.  0.
        -11    1    4    4    0    0  0.92192983882E+02  0.90469462396E+02 -0.17657791203E+02  0.13036896676E+03  0.51100000000E-03 0. -1.
     200002    1    4    4    0    0  0.12172222671E+02 -0.54759877327E+02  0.80342097216E+02  0.10247760611E+03  0.30000000000E+02 0. -1.
     200000    1    3    3    0    0  0.13772696465E+03  0.10827051804E+03  0.14400469542E+03  0.54902511251E+03  0.50000000000E+03 0. -1.
    -200001    1    1    2    0    0 -0.24209217120E+03 -0.14398010311E+03 -0.17651634719E+03  0.77491735706E+03  0.70000000000E+03 0.  1.
<mgrwt>
<rscale>  0 0.15564966E+04</rscale>
<asrwt>0</asrwt>
<pdfrwt beam="1">  1        1 0.10904403E+00 0.15564966E+04</pdfrwt>
<pdfrwt beam="2">  1       -1 0.11335441E+00 0.15564966E+04</pdfrwt>
<totfact> 0.18346705E+01</totfact>
</mgrwt>
</event>
<event>
 8    1  0.3893101E-010  0.1407773E+04  0.7818608E-02  0.8948211E-01
          1   -1    0    0  501    0  0.00000000000E+00  0.00000000000E+00  0.17431281500E+04  0.17431281500E+04  0.50400000000E-02 0.  1.
         -1   -1    0    0    0  501 -0.00000000000E+00 -0.00000000000E+00 -0.28423392745E+03  0.28423392750E+03  0.50400000000E-02 0. -1.
     200001    2    1    2    0    0 -0.35870076511E+02  0.18463225553E+02  0.83519825206E+03  0.10889462759E+04  0.69758176471E+03 0.  0.
    5000001    2    3    3    0    0 -0.89834288889E+02 -0.67120574781E+01  0.18107897258E+03  0.26346583223E+03  0.16884726609E+03 0.  0.
        -11    1    4    4    0    0 -0.82782951025E+02 -0.55491400095E+02  0.33715938712E+02  0.10520968106E+03  0.51100000000E-03 0. -1.
     200002    1    4    4    0    0 -0.70513378641E+01  0.48779342617E+02  0.14736303387E+03  0.15825615117E+03  0.30000000000E+02 0.  1.
     200000    1    3    3    0    0  0.53964212378E+02  0.25175283031E+02  0.65411927947E+03  0.82548044366E+03  0.50000000000E+03 0.  1.
    -200001    1    1    2    0    0  0.35870076511E+02 -0.18463225553E+02  0.62369597046E+03  0.93841580158E+03  0.70000000000E+03 0. -1.
<mgrwt>
<rscale>  0 0.14077729E+04</rscale>
<asrwt>0</asrwt>
<pdfrwt beam="1">  1        1 0.24901831E+00 0.14077729E+04</pdfrwt>
<pdfrwt beam="2">  1       -1 0.40604846E-01 0.14077729E+04</pdfrwt>
<totfact> 0.31321368E+01</totfact>
</mgrwt>
</event>
<event>
 8    1  0.3893101E-010  0.1539366E+04  0.7818608E-02  0.8858689E-01
          1   -1    0    0  501    0  0.00000000000E+00  0.00000000000E+00  0.30631182893E+03  0.30631182897E+03  0.50400000000E-02 0.  1.
         -1   -1    0    0    0  501 -0.00000000000E+00 -0.00000000000E+00 -0.19340164226E+04  0.19340164226E+04  0.50400000000E-02 0. -1.
     200001    2    1    2    0    0 -0.30755003494E+03  0.52152364791E+02 -0.91926703251E+03  0.11966852708E+04  0.69978344311E+03 0.  0.
    5000001    2    3    3    0    0  0.20495034931E+02  0.96542713895E+02 -0.21390600308E+03  0.27087845903E+03  0.13371170237E+03 0.  0.
        -11    1    4    4    0    0  0.57133901485E+02  0.80365042508E+02 -0.19283307686E+03  0.21658120483E+03  0.51100000000E-03 0. -1.
     200002    1    4    4    0    0 -0.36638866554E+02  0.16177671387E+02 -0.21072926225E+02  0.54297254199E+02  0.30000000000E+02 0. -1.
     200000    1    3    3    0    0 -0.32804506987E+03 -0.44390349104E+02 -0.70536102942E+03  0.92580681181E+03  0.50000000000E+03 0.  1.
    -200001    1    1    2    0    0  0.30755003494E+03 -0.52152364791E+02 -0.70843756114E+03  0.10436429807E+04  0.70000000000E+03 0. -1.
<mgrwt>
<rscale>  0 0.15393662E+04</rscale>
<asrwt>0</asrwt>
<pdfrwt beam="1">  1        1 0.43758834E-01 0.15393662E+04</pdfrwt>
<pdfrwt beam="2">  1       -1 0.27628805E+00 0.15393662E+04</pdfrwt>
<totfact> 0.42767683E+00</totfact>
</mgrwt>
</event>
<event>
 8    1  0.3893101E-010  0.1653054E+04  0.7818608E-02  0.8788602E-01
          1   -1    0    0  501    0  0.00000000000E+00  0.00000000000E+00  0.98399107850E+03  0.98399107851E+03  0.50400000000E-02 0.  1.
         -1   -1    0    0    0  501 -0.00000000000E+00 -0.00000000000E+00 -0.69426138606E+03  0.69426138608E+03  0.50400000000E-02 0. -1.
     200001    2    1    2    0    0 -0.35717880601E+03  0.25484162632E+03  0.15868280401E+03  0.84177518400E+03  0.70063133969E+03 0.  0.
    5000001    2    3    3    0    0 -0.15329472227E+03  0.11820302426E+03  0.12415200874E+03  0.28371496951E+03  0.16616027152E+03 0.  0.
        -11    1    4    4    0    0  0.17394919602E+02  0.59149683149E+02 -0.14698604986E+01  0.61671944470E+02  0.51100000000E-03 0. -1.
     200002    1    4    4    0    0 -0.17068964187E+03  0.59053341112E+02  0.12562186924E+03  0.22204302505E+03  0.30000000000E+02 0. -1.
     200000    1    3    3    0    0 -0.20388408373E+03  0.13663860206E+03  0.34530795268E+02  0.55806021449E+03  0.50000000000E+03 0.  1.
    -200001    1    1    2    0    0  0.35717880601E+03 -0.25484162632E+03  0.13104688843E+03  0.83647728058E+03  0.70000000000E+03 0.  1.
<mgrwt>
<rscale>  0 0.16530542E+04</rscale>
<asrwt>0</asrwt>
<pdfrwt beam="1">  1        1 0.14057015E+00 0.16530542E+04</pdfrwt>
<pdfrwt beam="2">  1       -1 0.99180199E-01 0.16530542E+04</pdfrwt>
<totfact> 0.16510282E+01</totfact>
</mgrwt>
</event>
<event>
 8    1  0.3893101E-010  0.1620428E+04  0.7818608E-02  0.8808096E-01
          1   -1    0    0  501    0  0.00000000000E+00  0.00000000000E+00  0.12257195453E+04  0.12257195454E+04  0.50400000000E-02 0.  1.
         -1   -1    0    0    0  501 -0.00000000000E+00 -0.00000000000E+00 -0.53556040347E+03  0.53556040349E+03  0.50400000000E-02 0. -1.
     200001    2    1    2    0    0  0.30222171726E+03 -0.13571767155E+03  0.86095439398E+02  0.77911386849E+03  0.69989195069E+03 0.  0.
    5000001    2    3    3    0    0  0.16829344725E+03  0.16098943781E+02 -0.42698880218E+02  0.22452118646E+03  0.14143800203E+03 0.  0.
        -11    1    4    4    0    0  0.16449033903E+03  0.38962749390E+02 -0.64335514198E+02  0.18087074352E+03  0.51100000000E-03 0. -1.
     200002    1    4    4    0    0  0.38031082270E+01 -0.22863805609E+02  0.21636633980E+02  0.43650442943E+02  0.30000000000E+02 0. -1.
     200000    1    3    3    0    0  0.13392827000E+03 -0.15181661533E+03  0.12879431962E+03  0.55459268203E+03  0.50000000000E+03 0.  1.
    -200001    1    1    2    0    0 -0.30222171726E+03  0.13571767155E+03  0.60406370248E+03  0.98216608036E+03  0.70000000000E+03 0.  1.
<mgrwt>
<rscale>  0 0.16204282E+04</rscale>
<asrwt>0</asrwt>
<pdfrwt beam="1">  1        1 0.17510279E+00 0.16204282E+04</pdfrwt>
<pdfrwt beam="2">  1       -1 0.76508630E-01 0.16204282E+04</pdfrwt>
<totfact> 0.19554619E+01</totfact>
</mgrwt>
</event>
<event>
 8    1  0.3893101E-010  0.1683060E+04  0.7818608E-02  0.8771085E-01
         -1   -1    0    0    0  501 -0.00000000000E+00  0.00000000000E+00  0.27080297885E+03  0.27080297889E+03  0.50400000000E-02 0. -1.
          1   -1    0    0  501    0  0.00000000000E+00 -0.00000000000E+00 -0.26150839154E+04  0.26150839154E+04  0.50400000000E-02 0.  1.
     200001    2    1    2    0    0 -0.33855973861E+03  0.32704245939E+03 -0.11558133834E+04  0.14284800905E+04  0.69503332643E+03 0.  0.
    5000001    2    3    3    0    0 -0.34692775511E+02  0.12851848408E+03 -0.33874947986E+03  0.40410695413E+03  0.17558653379E+03 0.  0.
        -11    1    4    4    0    0 -0.69353936702E+02 -0.11975944319E+02 -0.83924157451E+02  0.10952924716E+03  0.51100000000E-03 0. -1.
     200002    1    4    4    0    0  0.34661161190E+02  0.14049442840E+03 -0.25482532241E+03  0.29457770698E+03  0.30000000000E+02 0. -1.
     200000    1    3    3    0    0 -0.30386696310E+03  0.19852397531E+03 -0.81706390355E+03  0.10243731364E+04  0.50000000000E+03 0. -1.
    -200001    1    1    2    0    0  0.33855973861E+03 -0.32704245939E+03 -0.11884675531E+04  0.14574068038E+04  0.70000000000E+03 0. -1.
<mgrwt>
<rscale>  0 0.16830597E+04</rscale>
<asrwt>0</asrwt>
<pdfrwt beam="1">  1        1 0.37358340E+00 0.16830597E+04</pdfrwt>
<pdfrwt beam="2">  1       -1 0.38686141E-01 0.16830597E+04</pdfrwt>
<totfact> 0.94015751E+00</totfact>
</mgrwt>
</event>
<event>
 8    1  0.3893101E-010  0.1943692E+04  0.7818608E-02  0.8633409E-01
         -1   -1    0    0    0  501 -0.00000000000E+00  0.00000000000E+00  0.72641686587E+03  0.72641686589E+03  0.50400000000E-02 0. -1.
          1   -1    0    0  501    0  0.00000000000E+00 -0.00000000000E+00 -0.13001958851E+04  0.13001958852E+04  0.50400000000E-02 0.  1.
     200001    2    1    2    0    0 -0.21939342984E+03 -0.39307243695E+03 -0.81051365537E+03  0.11613482217E+04  0.69939823337E+03 0.  0.
    5000001    2    3    3    0    0 -0.13520284557E+03 -0.23560192566E+03 -0.40293495784E+03  0.49201615834E+03  0.77040528275E+02 0.  0.
        -11    1    4    4    0    0 -0.26600517901E+02 -0.72683042983E+01 -0.34652379593E+02  0.44285474049E+02  0.51100000000E-03 0. -1.
     200002    1    4    4    0    0 -0.10860232767E+03 -0.22833362136E+03 -0.36828257824E+03  0.44773068430E+03  0.30000000000E+02 0. -1.
     200000    1    3    3    0    0 -0.84190584268E+02 -0.15747051129E+03 -0.40757869753E+03  0.66933206339E+03  0.50000000000E+03 0.  1.
    -200001    1    1    2    0    0  0.21939342984E+03  0.39307243695E+03  0.23673463610E+03  0.86526452931E+03  0.70000000000E+03 0. -1.
<mgrwt>
<rscale>  0 0.19436916E+04</rscale>
<asrwt>0</asrwt>
<pdfrwt beam="1">  1        1 0.18574227E+00 0.19436916E+04</pdfrwt>
<pdfrwt beam="2">  1       -1 0.10377384E+00 0.19436916E+04</pdfrwt>
<totfact> 0.86455050E+00</totfact>
</mgrwt>
</event>
<event>
 8    1  0.3893101E-010  0.1651302E+04  0.7818608E-02  0.8789636E-01
          1   -1    0    0  501    0  0.00000000000E+00  0.00000000000E+00  0.10815260850E+04  0.10815260850E+04  0.50400000000E-02 0.  1.
         -1   -1    0    0    0  501 -0.00000000000E+00 -0.00000000000E+00 -0.63031285447E+03  0.63031285449E+03  0.50400000000E-02 0. -1.
     200001    2    1    2    0    0 -0.37817642778E+03 -0.60244634159E+02  0.82381913146E+01  0.79921979008E+03  0.70145390340E+03 0.  0.
    5000001    2    3    3    0    0 -0.31666953619E+02 -0.98148748148E+02 -0.92766673684E+02  0.18139496030E+03  0.11688671081E+03 0.  0.
        -11    1    4    4    0    0 -0.50897617414E+01 -0.10986924006E+03 -0.47489252783E+02  0.11980143871E+03  0.51100000000E-03 0. -1.
     200002    1    4    4    0    0 -0.26577191877E+02  0.11720491917E+02 -0.45277420900E+02  0.61593521593E+02  0.30000000000E+02 0. -1.
     200000    1    3    3    0    0 -0.34650947416E+03  0.37904113988E+02  0.10100486500E+03  0.61782482978E+03  0.50000000000E+03 0.  1.
    -200001    1    1    2    0    0  0.37817642778E+03  0.60244634159E+02  0.44297503918E+03  0.91261914937E+03  0.70000000000E+03 0.  1.
<mgrwt>
<rscale>  0 0.16513023E+04</rscale>
<asrwt>0</asrwt>
<pdfrwt beam="1">  1        1 0.15450373E+00 0.16513023E+04</pdfrwt>
<pdfrwt beam="2">  1       -1 0.90044693E-01 0.16513023E+04</pdfrwt>
<totfact> 0.17368516E+01</totfact>
</mgrwt>
</event>
<event>
 8    1  0.3893101E-010  0.1679332E+04  0.7818608E-02  0.8773241E-01
          1   -1    0    0  501    0  0.00000000000E+00  0.00000000000E+00  0.11764695279E+04  0.11764695279E+04  0.50400000000E-02 0.  1.
         -1   -1    0    0    0  501 -0.00000000000E+00 -0.00000000000E+00 -0.59928349336E+03  0.59928349339E+03  0.50400000000E-02 0. -1.
     200001    2    1    2    0    0  0.19263696019E+03  0.81798242445E+02  0.72493345480E+03  0.10303475939E+04  0.70163216824E+03 0.  0.
    5000001    2    3    3    0    0  0.17859181130E+02 -0.70595422149E+02  0.22855574709E+03  0.28861858022E+03  0.16050012878E+03 0.  0.
        -11    1    4    4    0    0  0.10888146279E+02 -0.33821732256E+02  0.23722726593E+03  0.23987337702E+03  0.51100000000E-03 0. -1.
     200002    1    4    4    0    0  0.69710348510E+01 -0.36773689893E+02 -0.86715188407E+01  0.48745203192E+02  0.30000000000E+02 0.  1.
     200000    1    3    3    0    0  0.17477777906E+03  0.15239366459E+03  0.49637770771E+03  0.74172901370E+03  0.50000000000E+03 0.  1.
    -200001    1    1    2    0    0 -0.19263696019E+03 -0.81798242445E+02 -0.14774742030E+03  0.74540542734E+03  0.70000000000E+03 0. -1.
<mgrwt>
<rscale>  0 0.16793317E+04</rscale>
<asrwt>0</asrwt>
<pdfrwt beam="1">  1        1 0.16806707E+00 0.16793317E+04</pdfrwt>
<pdfrwt beam="2">  1       -1 0.85611930E-01 0.16793317E+04</pdfrwt>
<totfact> 0.16561376E+01</totfact>
</mgrwt>
</event>
<event>
 8    1  0.3893101E-010  0.1677270E+04  0.7818608E-02  0.8774435E-01
          1   -1    0    0  501    0  0.00000000000E+00  0.00000000000E+00  0.25185466320E+04  0.25185466320E+04  0.50400000000E-02 0. -1.
         -1   -1    0    0    0  501 -0.00000000000E+00 -0.00000000000E+00 -0.27925188915E+03  0.27925188920E+03  0.50400000000E-02 0.  1.
     200001    2    1    2    0    0  0.10188460284E+03  0.36478514269E+03  0.15597084375E+04  0.17512392926E+04  0.70049980525E+03 0.  0.
    5000001    2    3    3    0    0  0.95420119625E+02  0.82048662377E+02  0.47653352023E+03  0.52516849189E+03  0.18133054553E+03 0.  0.
        -11    1    4    4    0    0  0.26120700308E+02  0.22237180904E+02 -0.44873084396E+01  0.34596519137E+02  0.51100000000E-03 0. -1.
     200002    1    4    4    0    0  0.69299419317E+02  0.59811481473E+02  0.48102082867E+03  0.49057197275E+03  0.30000000000E+02 0. -1.
     200000    1    3    3    0    0  0.64644832180E+01  0.28273648032E+03  0.10831749173E+04  0.12260708007E+04  0.50000000000E+03 0. -1.
    -200001    1    1    2    0    0 -0.10188460284E+03 -0.36478514269E+03  0.67958630530E+03  0.10465592286E+04  0.70000000000E+03 0. -1.
<mgrwt>
<rscale>  0 0.16772703E+04</rscale>
<asrwt>0</asrwt>
<pdfrwt beam="1">  1        1 0.35979236E+00 0.16772703E+04</pdfrwt>
<pdfrwt beam="2">  1       -1 0.39893129E-01 0.16772703E+04</pdfrwt>
<totfact> 0.10248708E+01</totfact>
</mgrwt>
</event>
<event>
 8    1  0.3893101E-010  0.1705974E+04  0.7818608E-02  0.8757964E-01
         -1   -1    0    0    0  501 -0.00000000000E+00  0.00000000000E+00  0.26879934300E+03  0.26879934305E+03  0.50400000000E-02 0. -1.
          1   -1    0    0  501    0  0.00000000000E+00 -0.00000000000E+00 -0.27068042917E+04  0.27068042917E+04  0.50400000000E-02 0.  1.
     200001    2    1    2    0    0 -0.32352982288E+03 -0.26055725207E+03 -0.77044959869E+03  0.11199898621E+04  0.69872961809E+03 0.  0.
    5000001    2    3    3    0    0 -0.36672417908E+02 -0.85665539081E+02 -0.22935544779E+03  0.31026326491E+03  0.18701850524E+03 0.  0.
        -11    1    4    4    0    0 -0.82610037239E+02  0.24165276748E+02 -0.99360093017E+02  0.13145648306E+03  0.51100000000E-03 0. -1.
     200002    1    4    4    0    0  0.45937619331E+02 -0.10983081583E+03 -0.12999535477E+03  0.17880678186E+03  0.30000000000E+02 0. -1.
     200000    1    3    3    0    0 -0.28685740498E+03 -0.17489171299E+03 -0.54109415090E+03  0.80972659719E+03  0.50000000000E+03 0.  1.
    -200001    1    1    2    0    0  0.32352982288E+03  0.26055725207E+03 -0.16675553500E+04  0.18556137726E+04  0.70000000000E+03 0.  1.
<mgrwt>
<rscale>  0 0.17059745E+04</rscale>
<asrwt>0</asrwt>
<pdfrwt beam="1">  1        1 0.38668631E+00 0.17059745E+04</pdfrwt>
<pdfrwt beam="2">  1       -1 0.38399908E-01 0.17059745E+04</pdfrwt>
<totfact> 0.83050394E+00</totfact>
</mgrwt>
</event>
<event>
 8    1  0.3893101E-010  0.1654021E+04  0.7818608E-02  0.8788031E-01
          1   -1    0    0  501    0  0.00000000000E+00  0.00000000000E+00  0.57977360979E+03  0.57977360981E+03  0.50400000000E-02 0.  1.
         -1   -1    0    0    0  501 -0.00000000000E+00 -0.00000000000E+00 -0.11796786556E+04  0.11796786557E+04  0.50400000000E-02 0. -1.
     200001    2    1    2    0    0  0.40553069151E+03  0.14113740764E+03 -0.18467872957E+03  0.83924152693E+03  0.69702596635E+03 0.  0.
    5000001    2    3    3    0    0  0.55010590691E+02  0.22801149324E+02  0.28113055586E+02  0.18186176230E+03  0.16952079281E+03 0.  0.
        -11    1    4    4    0    0 -0.32646390132E+02  0.27125856899E+02 -0.46402334030E+02  0.62887005850E+02  0.51100000000E-03 0. -1.
     200002    1    4    4    0    0  0.87656980823E+02 -0.43247075753E+01  0.74515389615E+02  0.11897475645E+03  0.30000000000E+02 0. -1.
     200000    1    3    3    0    0  0.35052010082E+03  0.11833625832E+03 -0.21279178516E+03  0.65737976463E+03  0.50000000000E+03 0.  1.
    -200001    1    1    2    0    0 -0.40553069151E+03 -0.14113740764E+03 -0.41522631629E+03  0.92021073854E+03  0.70000000000E+03 0. -1.
<mgrwt>
<rscale>  0 0.16540212E+04</rscale>
<asrwt>0</asrwt>
<pdfrwt beam="1">  1        1 0.82824802E-01 0.16540212E+04</pdfrwt>
<pdfrwt beam="2">  1       -1 0.16852552E+00 0.16540212E+04</pdfrwt>
<totfact> 0.96638445E+00</totfact>
</mgrwt>
</event>
<event>
 8    1  0.3893101E-010  0.1456840E+04  0.7818608E-02  0.8913672E-01
         -1   -1    0    0    0  501 -0.00000000000E+00  0.00000000000E+00  0.37688553219E+03  0.37688553222E+03  0.50400000000E-02 0. -1.
          1   -1    0    0  501    0  0.00000000000E+00 -0.00000000000E+00 -0.14078422435E+04  0.14078422436E+04  0.50400000000E-02 0.  1.
     200001    2    1    2    0    0 -0.26492725604E+02  0.19977896405E+03 -0.50790587653E+03  0.88795819846E+03  0.69991991243E+03 0.  0.
    5000001    2    3    3    0    0  0.16285759131E+02  0.11290845210E+02 -0.17435845677E+02  0.16137811281E+03  0.15920482858E+03 0.  0.
        -11    1    4    4    0    0  0.37200830220E+01  0.69884755837E+01  0.68726367035E+02  0.69180859599E+02  0.51100000000E-03 0. -1.
     200002    1    4    4    0    0  0.12565676109E+02  0.43023696265E+01 -0.86162212712E+02  0.92197253213E+02  0.30000000000E+02 0. -1.
     200000    1    3    3    0    0 -0.42778484735E+02  0.18848811884E+03 -0.49047003085E+03  0.72658008565E+03  0.50000000000E+03 0.  1.
    -200001    1    1    2    0    0  0.26492725604E+02 -0.19977896405E+03 -0.52305083483E+03  0.89676957732E+03  0.70000000000E+03 0.  1.
<mgrwt>
<rscale>  0 0.14568396E+04</rscale>
<asrwt>0</asrwt>
<pdfrwt beam="1">  1        1 0.20112032E+00 0.14568396E+04</pdfrwt>
<pdfrwt beam="2">  1       -1 0.53840791E-01 0.14568396E+04</pdfrwt>
<totfact> 0.30260576E+01</totfact>
</mgrwt>
</event>
<event>
 8    1  0.3893101E-010  0.1628253E+04  0.7818608E-02  0.8803377E-01
         -1   -1    0    0    0  501 -0.00000000000E+00  0.00000000000E+00  0.55911180647E+03  0.55911180650E+03  0.50400000000E-02 0.  1.
          1   -1    0    0  501    0  0.00000000000E+00 -0.00000000000E+00 -0.11854554436E+04  0.11854554436E+04  0.50400000000E-02 0. -1.
     200001    2    1    2    0    0  0.31098082703E+03  0.67286116610E+02 -0.26782314358E+02  0.76952351979E+03  0.70015188272E+03 0.  0.
    5000001    2    3    3    0    0  0.66146606008E+02  0.12195980686E+03  0.57466010820E+02  0.20381088206E+03  0.13779319747E+03 0.  0.
        -11    1    4    4    0    0 -0.23093174746E+02  0.85078040479E+02  0.13450637605E+01  0.88166756141E+02  0.51100000000E-03 0. -1.
     200002    1    4    4    0    0  0.89239780754E+02  0.36881766385E+02  0.56120947060E+02  0.11564412592E+03  0.30000000000E+02 0. -1.
     200000    1    3    3    0    0  0.24483422102E+03 -0.54673690255E+02 -0.84248325178E+02  0.56571263773E+03  0.50000000000E+03 0. -1.
    -200001    1    1    2    0    0 -0.31098082703E+03 -0.67286116610E+02 -0.59956132276E+03  0.97504373031E+03  0.70000000000E+03 0. -1.
<mgrwt>
<rscale>  0 0.16282532E+04</rscale>
<asrwt>0</asrwt>
<pdfrwt beam="1">  1        1 0.16935078E+00 0.16282532E+04</pdfrwt>
<pdfrwt beam="2">  1       -1 0.79873115E-01 0.16282532E+04</pdfrwt>
<totfact> 0.19029614E+01</totfact>
</mgrwt>
</event>
<event>
 8    1  0.3893101E-010  0.1522485E+04  0.7818608E-02  0.8869637E-01
          1   -1    0    0  501    0  0.00000000000E+00  0.00000000000E+00  0.81186157654E+03  0.81186157656E+03  0.50400000000E-02 0.  1.
         -1   -1    0    0    0  501 -0.00000000000E+00 -0.00000000000E+00 -0.71377962244E+03  0.71377962246E+03  0.50400000000E-02 0. -1.
     200001    2    1    2    0    0 -0.70140211815E+00  0.22618860608E+03 -0.14185596893E+03  0.75186346323E+03  0.70286113418E+03 0.  0.
    5000001    2    3    3    0    0  0.38918936390E+02 -0.13556205149E+02 -0.11050321504E+03  0.19505978068E+03  0.15536699519E+03 0.  0.
        -11    1    4    4    0    0  0.74262618425E+02  0.38220882038E+02 -0.89589242288E+02  0.12248267083E+03  0.51100000000E-03 0. -1.
     200002    1    4    4    0    0 -0.35343682035E+02 -0.51777087187E+02 -0.20913972754E+02  0.72577109847E+02  0.30000000000E+02 0. -1.
     200000    1    3    3    0    0 -0.39620338508E+02  0.23974481123E+03 -0.31352753884E+02  0.55680368256E+03  0.50000000000E+03 0. -1.
    -200001    1    1    2    0    0  0.70140211815E+00 -0.22618860608E+03  0.23993792303E+03  0.77377773578E+03  0.70000000000E+03 0.  1.
<mgrwt>
<rscale>  0 0.15224851E+04</rscale>
<asrwt>0</asrwt>
<pdfrwt beam="1">  1        1 0.11598023E+00 0.15224851E+04</pdfrwt>
<pdfrwt beam="2">  1       -1 0.10196852E+00 0.15224851E+04</pdfrwt>
<totfact> 0.21444218E+01</totfact>
</mgrwt>
</event>
<event>
 8    1  0.3893101E-010  0.1752455E+04  0.7818608E-02  0.8732000E-01
          1   -1    0    0  501    0  0.00000000000E+00  0.00000000000E+00  0.32227219112E+03  0.32227219116E+03  0.50400000000E-02 0.  1.
         -1   -1    0    0    0  501 -0.00000000000E+00 -0.00000000000E+00 -0.23823784601E+04  0.23823784601E+04  0.50400000000E-02 0. -1.
     200001    2    1    2    0    0  0.20222188102E+03  0.34824230847E+03 -0.15553620007E+04  0.17523202617E+04  0.69950621990E+03 0.  0.
    5000001    2    3    3    0    0  0.88066901643E+02  0.11864962835E+03 -0.37700000710E+03  0.44683906838E+03  0.18895140699E+03 0.  0.
        -11    1    4    4    0    0 -0.20141717016E+02 -0.32654892661E+02 -0.13378271349E+03  0.13917559128E+03  0.51100000000E-03 0. -1.
     200002    1    4    4    0    0  0.10820861866E+03  0.15130452101E+03 -0.24321729361E+03  0.30766347710E+03  0.30000000000E+02 0. -1.
     200000    1    3    3    0    0  0.11415497938E+03  0.22959268012E+03 -0.11783619936E+04  0.13054811933E+04  0.50000000000E+03 0. -1.
    -200001    1    1    2    0    0 -0.20222188102E+03 -0.34824230847E+03 -0.50474426828E+03  0.95233038958E+03  0.70000000000E+03 0.  1.
<mgrwt>
<rscale>  0 0.17524547E+04</rscale>
<asrwt>0</asrwt>
<pdfrwt beam="1">  1        1 0.46038886E-01 0.17524547E+04</pdfrwt>
<pdfrwt beam="2">  1       -1 0.34033977E+00 0.17524547E+04</pdfrwt>
<totfact> 0.15074646E+00</totfact>
</mgrwt>
</event>
<event>
 8    1  0.3893101E-010  0.1591016E+04  0.7818608E-02  0.8826086E-01
         -1   -1    0    0    0  501 -0.00000000000E+00  0.00000000000E+00  0.18223715235E+03  0.18223715242E+03  0.50400000000E-02 0. -1.
          1   -1    0    0  501    0  0.00000000000E+00 -0.00000000000E+00 -0.34725814703E+04  0.34725814703E+04  0.50400000000E-02 0.  1.
     200001    2    1    2    0    0  0.22702049433E+03  0.99526763176E+02 -0.22944739254E+04  0.24125619181E+04  0.70313621215E+03 0.  0.
    5000001    2    3    3    0    0  0.31822056659E+02 -0.99458355587E+01 -0.33605264725E+03  0.37896889523E+03  0.17197232012E+03 0.  0.
        -11    1    4    4    0    0  0.48911636297E+02 -0.78973788338E+02 -0.13745354602E+03  0.16589962243E+03  0.51100000000E-03 0. -1.
     200002    1    4    4    0    0 -0.17089579638E+02  0.69027952779E+02 -0.19859910124E+03  0.21306927280E+03  0.30000000000E+02 0. -1.
     200000    1    3    3    0    0  0.19519843767E+03  0.10947259873E+03 -0.19584212782E+04  0.20335930229E+04  0.50000000000E+03 0. -1.
    -200001    1    1    2    0    0 -0.22702049433E+03 -0.99526763176E+02 -0.99587039251E+03  0.12422567046E+04  0.70000000000E+03 0.  1.
<mgrwt>
<rscale>  0 0.15910165E+04</rscale>
<asrwt>0</asrwt>
<pdfrwt beam="1">  1        1 0.49608303E+00 0.15910165E+04</pdfrwt>
<pdfrwt beam="2">  1       -1 0.26033881E-01 0.15910165E+04</pdfrwt>
<totfact> 0.51532000E+00</totfact>
</mgrwt>
</event>
<event>
 8    1  0.3893101E-010  0.1433297E+04  0.7818608E-02  0.8930063E-01
          1   -1    0    0  501    0  0.00000000000E+00  0.00000000000E+00  0.93213549294E+03  0.93213549296E+03  0.50400000000E-02 0.  1.
         -1   -1    0    0    0  501 -0.00000000000E+00 -0.00000000000E+00 -0.55097675300E+03  0.55097675302E+03  0.50400000000E-02 0. -1.
     200001    2    1    2    0    0 -0.50429938580E+02 -0.12737170110E+03  0.26346221986E+03  0.76018818372E+03  0.69979068616E+03 0.  0.
    5000001    2    3    3    0    0 -0.86880142877E+02 -0.14578423209E+03  0.10280314494E+03  0.23342545056E+03  0.12295427121E+03 0.  0.
        -11    1    4    4    0    0 -0.49958670269E+02 -0.12423794303E+03  0.19804332636E+02  0.13536301864E+03  0.51100000000E-03 0. -1.
     200002    1    4    4    0    0 -0.36921472608E+02 -0.21546289064E+02  0.82998812304E+02  0.98062431929E+02  0.30000000000E+02 0. -1.
     200000    1    3    3    0    0  0.36450204296E+02  0.18412530997E+02  0.16065907492E+03  0.52676273316E+03  0.50000000000E+03 0.  1.
    -200001    1    1    2    0    0  0.50429938580E+02  0.12737170110E+03  0.11769652009E+03  0.72292406225E+03  0.70000000000E+03 0.  1.
<mgrwt>
<rscale>  0 0.14332969E+04</rscale>
<asrwt>0</asrwt>
<pdfrwt beam="1">  1        1 0.13316221E+00 0.14332969E+04</pdfrwt>
<pdfrwt beam="2">  1       -1 0.78710964E-01 0.14332969E+04</pdfrwt>
<totfact> 0.30595068E+01</totfact>
</mgrwt>
</event>
<event>
 8    1  0.3893101E-010  0.1912540E+04  0.7818608E-02  0.8648640E-01
          1   -1    0    0  501    0  0.00000000000E+00  0.00000000000E+00  0.22860817595E+04  0.22860817595E+04  0.50400000000E-02 0. -1.
         -1   -1    0    0    0  501 -0.00000000000E+00 -0.00000000000E+00 -0.40000846169E+03  0.40000846172E+03  0.50400000000E-02 0.  1.
     200001    2    1    2    0    0  0.88843139491E+02  0.23660812665E+03  0.17865219871E+04  0.19352327298E+04  0.69970593739E+03 0.  0.
    5000001    2    3    3    0    0  0.23222169994E+02  0.51843052514E+02  0.50724243944E+03  0.54778889111E+03  0.19887384340E+03 0.  0.
        -11    1    4    4    0    0 -0.26205488526E+02 -0.28514492989E+02  0.39987948702E+03  0.40175043009E+03  0.51100000000E-03 0. -1.
     200002    1    4    4    0    0  0.49427658520E+02  0.80357545503E+02  0.10736295241E+03  0.14603846102E+03  0.30000000000E+02 0. -1.
     200000    1    3    3    0    0  0.65620969497E+02  0.18476507413E+03  0.12792795477E+04  0.13874438386E+04  0.50000000000E+03 0. -1.
    -200001    1    1    2    0    0 -0.88843139491E+02 -0.23660812665E+03  0.99551310676E+02  0.75085749146E+03  0.70000000000E+03 0.  1.
<mgrwt>
<rscale>  0 0.19125397E+04</rscale>
<asrwt>0</asrwt>
<pdfrwt beam="1">  1        1 0.32658311E+00 0.19125397E+04</pdfrwt>
<pdfrwt beam="2">  1       -1 0.57144066E-01 0.19125397E+04</pdfrwt>
<totfact> 0.71499900E+00</totfact>
</mgrwt>
</event>
<event>
 8    1  0.3893101E-010  0.2116152E+04  0.7818608E-02  0.8554162E-01
          1   -1    0    0  501    0  0.00000000000E+00  0.00000000000E+00  0.70966448256E+03  0.70966448257E+03  0.50400000000E-02 0.  1.
         -1   -1    0    0    0  501 -0.00000000000E+00 -0.00000000000E+00 -0.15775407049E+04  0.15775407049E+04  0.50400000000E-02 0. -1.
     200001    2    1    2    0    0  0.72795697754E+03 -0.28997370187E+03 -0.29864903529E+03  0.10922048948E+04  0.69979581097E+03 0.  0.
    5000001    2    3    3    0    0  0.30741541941E+03 -0.57608598579E+02 -0.12182731882E+03  0.37658302346E+03  0.17073338054E+03 0.  0.
        -11    1    4    4    0    0  0.25145469005E+03 -0.36684837656E+02 -0.20173831949E+02  0.25491610769E+03  0.51100000000E-03 0. -1.
     200002    1    4    4    0    0  0.55960729353E+02 -0.20923760923E+02 -0.10165348687E+03  0.12166691577E+03  0.30000000000E+02 0. -1.
     200000    1    3    3    0    0  0.42054155814E+03 -0.23236510329E+03 -0.17682171647E+03  0.71562187136E+03  0.50000000000E+03 0.  1.
    -200001    1    1    2    0    0 -0.72795697754E+03  0.28997370187E+03 -0.56922718701E+03  0.11950002926E+04  0.70000000000E+03 0.  1.
<mgrwt>
<rscale>  0 0.21161518E+04</rscale>
<asrwt>0</asrwt>
<pdfrwt beam="1">  1        1 0.10138064E+00 0.21161518E+04</pdfrwt>
<pdfrwt beam="2">  1       -1 0.22536296E+00 0.21161518E+04</pdfrwt>
<totfact> 0.27896693E+00</totfact>
</mgrwt>
</event>
<event>
 8    1  0.3893101E-010  0.1996025E+04  0.7818608E-02  0.8608482E-01
         -1   -1    0    0    0  501 -0.00000000000E+00  0.00000000000E+00  0.39363579285E+03  0.39363579288E+03  0.50400000000E-02 0. -1.
          1   -1    0    0  501    0  0.00000000000E+00 -0.00000000000E+00 -0.25303302644E+04  0.25303302644E+04  0.50400000000E-02 0.  1.
     200001    2    1    2    0    0  0.50899275298E+03 -0.45594676045E+03 -0.13593051279E+04  0.16744480452E+04  0.69936024643E+03 0.  0.
    5000001    2    3    3    0    0  0.56232284625E+01 -0.16421003445E+02 -0.11980541529E+03  0.18015111790E+03  0.13341595742E+03 0.  0.
        -11    1    4    4    0    0 -0.10635959847E+02 -0.67226902413E+02 -0.37893283043E+02  0.77900455390E+02  0.51100000000E-03 0. -1.
     200002    1    4    4    0    0  0.16259188310E+02  0.50805898968E+02 -0.81912132243E+02  0.10225066251E+03  0.30000000000E+02 0. -1.
     200000    1    3    3    0    0  0.50336952452E+03 -0.43952575700E+03 -0.12394997126E+04  0.14942969273E+04  0.50000000000E+03 0. -1.
    -200001    1    1    2    0    0 -0.50899275298E+03  0.45594676045E+03 -0.77738934359E+03  0.12495180121E+04  0.70000000000E+03 0. -1.
<mgrwt>
<rscale>  0 0.19960246E+04</rscale>
<asrwt>0</asrwt>
<pdfrwt beam="1">  1        1 0.36147574E+00 0.19960246E+04</pdfrwt>
<pdfrwt beam="2">  1       -1 0.56233686E-01 0.19960246E+04</pdfrwt>
<totfact> 0.51280943E+00</totfact>
</mgrwt>
</event>
<event>
 8    1  0.3893101E-010  0.1522832E+04  0.7818608E-02  0.8869411E-01
         -1   -1    0    0    0  501 -0.00000000000E+00  0.00000000000E+00  0.33111553702E+03  0.33111553705E+03  0.50400000000E-02 0. -1.
          1   -1    0    0  501    0  0.00000000000E+00 -0.00000000000E+00 -0.17509115736E+04  0.17509115736E+04  0.50400000000E-02 0.  1.
     200001    2    1    2    0    0  0.24421114518E+03  0.17057409902E+03 -0.66271945575E+03  0.10087612741E+04  0.69976254857E+03 0.  0.
    5000001    2    3    3    0    0  0.51842083290E+02  0.58843492202E+02 -0.19934785410E+03  0.29168190213E+03  0.19796112477E+03 0.  0.
        -11    1    4    4    0    0  0.32147478414E+02 -0.47308274242E+02 -0.16476842696E+03  0.17441378301E+03  0.51100000000E-03 0. -1.
     200002    1    4    4    0    0  0.19694604876E+02  0.10615176644E+03 -0.34579427137E+02  0.11726811912E+03  0.30000000000E+02 0. -1.
     200000    1    3    3    0    0  0.19236906189E+03  0.11173060682E+03 -0.46337160166E+03  0.71707937196E+03  0.50000000000E+03 0. -1.
    -200001    1    1    2    0    0 -0.24421114518E+03 -0.17057409902E+03 -0.75707658080E+03  0.10732658365E+04  0.70000000000E+03 0. -1.
<mgrwt>
<rscale>  0 0.15228316E+04</rscale>
<asrwt>0</asrwt>
<pdfrwt beam="1">  1        1 0.25013022E+00 0.15228316E+04</pdfrwt>
<pdfrwt beam="2">  1       -1 0.47302221E-01 0.15228316E+04</pdfrwt>
<totfact> 0.23103886E+01</totfact>
</mgrwt>
</event>
<event>
 8    1  0.3893101E-010  0.2315212E+04  0.7818608E-02  0.8471947E-01
          1   -1    0    0  501    0  0.00000000000E+00  0.00000000000E+00  0.11218069870E+04  0.11218069870E+04  0.50400000000E-02 0.  1.
         -1   -1    0    0    0  501 -0.00000000000E+00 -0.00000000000E+00 -0.11945474063E+04  0.11945474063E+04  0.50400000000E-02 0. -1.
     200001    2    1    2    0    0  0.67018894855E+03 -0.62726667352E+03 -0.12420198373E+03  0.11608177218E+04  0.69961056603E+03 0.  0.
    5000001    2    3    3    0    0  0.16920976571E+03 -0.61848375641E+02 -0.11908123908E+03  0.25489045365E+03  0.13539437020E+03 0.  0.
        -11    1    4    4    0    0  0.77442557584E+02 -0.61513306169E+02 -0.12352734195E+03  0.15824108433E+03  0.51100000000E-03 0. -1.
     200002    1    4    4    0    0  0.91767208129E+02 -0.33506947196E+00  0.44461028753E+01  0.96649369321E+02  0.30000000000E+02 0. -1.
     200000    1    3    3    0    0  0.50097918283E+03 -0.56541829788E+03 -0.51207446497E+01  0.90592726818E+03  0.50000000000E+03 0.  1.
    -200001    1    1    2    0    0 -0.67018894855E+03  0.62726667352E+03  0.51461564413E+02  0.11555366715E+04  0.70000000000E+03 0. -1.
<mgrwt>
<rscale>  0 0.23152120E+04</rscale>
<asrwt>0</asrwt>
<pdfrwt beam="1">  1        1 0.16025814E+00 0.23152120E+04</pdfrwt>
<pdfrwt beam="2">  1       -1 0.17064963E+00 0.23152120E+04</pdfrwt>
<totfact> 0.31032664E+00</totfact>
</mgrwt>
</event>
<event>
 8    1  0.3893101E-010  0.1789062E+04  0.7818608E-02  0.8712138E-01
         -1   -1    0    0    0  501 -0.00000000000E+00  0.00000000000E+00  0.72714727768E+03  0.72714727770E+03  0.50400000000E-02 0. -1.
          1   -1    0    0  501    0  0.00000000000E+00 -0.00000000000E+00 -0.11004453556E+04  0.11004453556E+04  0.50400000000E-02 0.  1.
     200001    2    1    2    0    0 -0.29959125848E+03 -0.15923957851E+03 -0.63773370401E+03  0.10059854486E+04  0.70013590116E+03 0.  0.
    5000001    2    3    3    0    0 -0.16301025276E+03 -0.13664070021E+02 -0.17379326867E+03  0.29529048780E+03  0.17387732065E+03 0.  0.
        -11    1    4    4    0    0 -0.52463972926E+02 -0.33094122824E+02 -0.16786426433E+03  0.17895837689E+03  0.51100000000E-03 0. -1.
     200002    1    4    4    0    0 -0.11054627983E+03  0.19430052803E+02 -0.59290043431E+01  0.11633211091E+03  0.30000000000E+02 0. -1.
     200000    1    3    3    0    0 -0.13658100572E+03 -0.14557550848E+03 -0.46394043534E+03  0.71069496082E+03  0.50000000000E+03 0.  1.
    -200001    1    1    2    0    0  0.29959125848E+03  0.15923957851E+03  0.26443562612E+03  0.82160718466E+03  0.70000000000E+03 0. -1.
<mgrwt>
<rscale>  0 0.17890622E+04</rscale>
<asrwt>0</asrwt>
<pdfrwt beam="1">  1        1 0.15720648E+00 0.17890622E+04</pdfrwt>
<pdfrwt beam="2">  1       -1 0.10387818E+00 0.17890622E+04</pdfrwt>
<totfact> 0.12042355E+01</totfact>
</mgrwt>
</event>
<event>
 8    1  0.3893101E-010  0.1739058E+04  0.7818608E-02  0.8739396E-01
          1   -1    0    0  501    0  0.00000000000E+00  0.00000000000E+00  0.33343799664E+04  0.33343799664E+04  0.50400000000E-02 0.  1.
         -1   -1    0    0    0  501 -0.00000000000E+00 -0.00000000000E+00 -0.22675305660E+03  0.22675305666E+03  0.50400000000E-02 0. -1.
     200001    2    1    2    0    0 -0.21072719561E+02 -0.41435151720E+03  0.21775575432E+04  0.23253497630E+04  0.70239833903E+03 0.  0.
    5000001    2    3    3    0    0 -0.43028120160E+02 -0.12774196085E+03  0.54715048317E+03  0.59594111867E+03  0.19391425427E+03 0.  0.
        -11    1    4    4    0    0 -0.80081544987E+01  0.31200067521E+02  0.27885160324E+03  0.28070588056E+03  0.51100000000E-03 0. -1.
     200002    1    4    4    0    0 -0.35019965661E+02 -0.15894202837E+03  0.26829887993E+03  0.31523523811E+03  0.30000000000E+02 0. -1.
     200000    1    3    3    0    0  0.21955400599E+02 -0.28660955636E+03  0.16304070601E+04  0.17294086443E+04  0.50000000000E+03 0. -1.
    -200001    1    1    2    0    0  0.21072719561E+02  0.41435151720E+03  0.93006936652E+03  0.12357832601E+04  0.70000000000E+03 0.  1.
<mgrwt>
<rscale>  0 0.17390582E+04</rscale>
<asrwt>0</asrwt>
<pdfrwt beam="1">  1        1 0.47634001E+00 0.17390582E+04</pdfrwt>
<pdfrwt beam="2">  1       -1 0.32393293E-01 0.17390582E+04</pdfrwt>
<totfact> 0.43187739E+00</totfact>
</mgrwt>
</event>
<event>
 8    1  0.3893101E-010  0.1646960E+04  0.7818608E-02  0.8792207E-01
         -1   -1    0    0    0  501 -0.00000000000E+00  0.00000000000E+00  0.91651631904E+03  0.91651631905E+03  0.50400000000E-02 0. -1.
          1   -1    0    0  501    0  0.00000000000E+00 -0.00000000000E+00 -0.73988750953E+03  0.73988750955E+03  0.50400000000E-02 0.  1.
     200001    2    1    2    0    0  0.28350026467E+03 -0.31750443409E+02  0.41724196023E+03  0.86313516098E+03  0.69966489266E+03 0.  0.
    5000001    2    3    3    0    0 -0.17009332998E+02 -0.66343146027E+02  0.16319825224E+03  0.22592179096E+03  0.14041458493E+03 0.  0.
        -11    1    4    4    0    0 -0.58591797787E+02  0.79139108518E+01  0.33609639434E+02  0.68009092156E+02  0.51100000000E-03 0. -1.
     200002    1    4    4    0    0  0.41582464789E+02 -0.74257056878E+02  0.12958861281E+03  0.15791269880E+03  0.30000000000E+02 0. -1.
     200000    1    3    3    0    0  0.30050959767E+03  0.34592702617E+02  0.25404370799E+03  0.63721337002E+03  0.50000000000E+03 0. -1.
    -200001    1    1    2    0    0 -0.28350026467E+03  0.31750443409E+02 -0.24061315073E+03  0.79326866762E+03  0.70000000000E+03 0.  1.
<mgrwt>
<rscale>  0 0.16469596E+04</rscale>
<asrwt>0</asrwt>
<pdfrwt beam="1">  1        1 0.10569822E+00 0.16469596E+04</pdfrwt>
<pdfrwt beam="2">  1       -1 0.13093090E+00 0.16469596E+04</pdfrwt>
<totfact> 0.13388354E+01</totfact>
</mgrwt>
</event>
<event>
 8    1  0.3893101E-010  0.2012390E+04  0.7818608E-02  0.8600850E-01
         -1   -1    0    0    0  501 -0.00000000000E+00  0.00000000000E+00  0.88431097648E+03  0.88431097649E+03  0.50400000000E-02 0. -1.
          1   -1    0    0  501    0  0.00000000000E+00 -0.00000000000E+00 -0.11448780215E+04  0.11448780215E+04  0.50400000000E-02 0.  1.
     200001    2    1    2    0    0 -0.61987830181E+03  0.34089509188E+03 -0.27703179177E+03  0.10338349602E+04  0.70114872781E+03 0.  0.
    5000001    2    3    3    0    0 -0.56457152188E+02  0.70790069030E+02  0.10320829647E+02  0.18355756765E+03  0.15933680432E+03 0.  0.
        -11    1    4    4    0    0 -0.75878819929E+02 -0.24517241620E+02 -0.79739003714E+01  0.80139088701E+02  0.51100000000E-03 0. -1.
     200002    1    4    4    0    0  0.19421667740E+02  0.95307310650E+02  0.18294730019E+02  0.10341847895E+03  0.30000000000E+02 0. -1.
     200000    1    3    3    0    0 -0.56342114962E+03  0.27010502285E+03 -0.28735262141E+03  0.85027739253E+03  0.50000000000E+03 0. -1.
    -200001    1    1    2    0    0  0.61987830181E+03 -0.34089509188E+03  0.16464746751E+02  0.99535403782E+03  0.70000000000E+03 0.  1.
<mgrwt>
<rscale>  0 0.20123898E+04</rscale>
<asrwt>0</asrwt>
<pdfrwt beam="1">  1        1 0.16355400E+00 0.20123898E+04</pdfrwt>
<pdfrwt beam="2">  1       -1 0.12633014E+00 0.20123898E+04</pdfrwt>
<totfact> 0.68623918E+00</totfact>
</mgrwt>
</event>
<event>
 8    1  0.3893101E-010  0.1536043E+04  0.7818608E-02  0.8860832E-01
         -1   -1    0    0    0  501 -0.00000000000E+00  0.00000000000E+00  0.11067996963E+04  0.11067996963E+04  0.50400000000E-02 0. -1.
          1   -1    0    0  501    0  0.00000000000E+00 -0.00000000000E+00 -0.53293921196E+03  0.53293921199E+03  0.50400000000E-02 0.  1.
     200001    2    1    2    0    0 -0.25693500624E+03 -0.11333508322E+03  0.43909770664E+03  0.87356566105E+03  0.70103475640E+03 0.  0.
    5000001    2    3    3    0    0 -0.74421358405E+02 -0.80351663910E+02  0.16859517149E+03  0.27559345508E+03  0.18850064232E+03 0.  0.
        -11    1    4    4    0    0 -0.80886391042E+02 -0.99880131218E+02  0.29562327205E+02  0.13188093137E+03  0.51100000000E-03 0. -1.
     200002    1    4    4    0    0  0.64650326375E+01  0.19528467308E+02  0.13903284428E+03  0.14371252371E+03  0.30000000000E+02 0. -1.
     200000    1    3    3    0    0 -0.18251364783E+03 -0.32983419309E+02  0.27050253515E+03  0.59797220597E+03  0.50000000000E+03 0. -1.
    -200001    1    1    2    0    0  0.25693500624E+03  0.11333508322E+03  0.13476277767E+03  0.76617324723E+03  0.70000000000E+03 0.  1.
<mgrwt>
<rscale>  0 0.15360429E+04</rscale>
<asrwt>0</asrwt>
<pdfrwt beam="1">  1        1 0.76134173E-01 0.15360429E+04</pdfrwt>
<pdfrwt beam="2">  1       -1 0.15811424E+00 0.15360429E+04</pdfrwt>
<totfact> 0.13130812E+01</totfact>
</mgrwt>
</event>
<event>
 8    1  0.3893101E-010  0.1403440E+04  0.7818608E-02  0.8951332E-01
          1   -1    0    0  501    0  0.00000000000E+00  0.00000000000E+00  0.15696589724E+04  0.15696589724E+04  0.50400000000E-02 0. -1.
         -1   -1    0    0    0  501 -0.00000000000E+00 -0.00000000000E+00 -0.31370590942E+03  0.31370590946E+03  0.50400000000E-02 0.  1.
     200001    2    1    2    0    0 -0.43586783831E+02 -0.19774237015E+02  0.61513156187E+03  0.93313173970E+03  0.70004083956E+03 0.  0.
    5000001    2    3    3    0    0 -0.12754994215E+03 -0.52140607681E+02  0.58779370070E+02  0.17972271718E+03  0.99285497492E+02 0.  0.
        -11    1    4    4    0    0 -0.89928889097E+01  0.18165421583E+02 -0.10207175841E+02  0.22694515442E+02  0.51100000000E-03 0. -1.
     200002    1    4    4    0    0 -0.11855705324E+03 -0.70306029264E+02  0.68986545911E+02  0.15702820173E+03  0.30000000000E+02 0. -1.
     200000    1    3    3    0    0  0.83963158316E+02  0.32366370666E+02  0.55635219180E+03  0.75340902253E+03  0.50000000000E+03 0.  1.
    -200001    1    1    2    0    0  0.43586783831E+02  0.19774237015E+02  0.64082150107E+03  0.95023314213E+03  0.70000000000E+03 0. -1.
<mgrwt>
<rscale>  0 0.14034405E+04</rscale>
<asrwt>0</asrwt>
<pdfrwt beam="1">  1        1 0.22423699E+00 0.14034405E+04</pdfrwt>
<pdfrwt beam="2">  1       -1 0.44815131E-01 0.14034405E+04</pdfrwt>
<totfact> 0.33725459E+01</totfact>
</mgrwt>
</event>
<event>
 8    1  0.3893101E-010  0.1792084E+04  0.7818608E-02  0.8710521E-01
         -1   -1    0    0    0  501 -0.00000000000E+00  0.00000000000E+00  0.74615692789E+03  0.74615692790E+03  0.50400000000E-02 0.  1.
          1   -1    0    0  501    0  0.00000000000E+00 -0.00000000000E+00 -0.10760351508E+04  0.10760351508E+04  0.50400000000E-02 0. -1.
     200001    2    1    2    0    0 -0.43249566860E+03  0.31934506375E+03 -0.32026869746E+03  0.93951087005E+03  0.70076733890E+03 0.  0.
    5000001    2    3    3    0    0 -0.21840120505E+02  0.44774248850E+02 -0.92245519390E+02  0.20057807113E+03  0.17099883786E+03 0.  0.
        -11    1    4    4    0    0 -0.90473096169E+02  0.16081457184E+02 -0.74813516550E+02  0.11849496468E+03  0.51100000000E-03 0. -1.
     200002    1    4    4    0    0  0.68632975663E+02  0.28692791666E+02 -0.17432002839E+02  0.82083106453E+02  0.30000000000E+02 0. -1.
     200000    1    3    3    0    0 -0.41065554809E+03  0.27457081490E+03 -0.22802317807E+03  0.73893279892E+03  0.50000000000E+03 0. -1.
    -200001    1    1    2    0    0  0.43249566860E+03 -0.31934506375E+03 -0.96095254184E+01  0.88268120863E+03  0.70000000000E+03 0.  1.
<mgrwt>
<rscale>  0 0.17920838E+04</rscale>
<asrwt>0</asrwt>
<pdfrwt beam="1">  1        1 0.15371931E+00 0.17920838E+04</pdfrwt>
<pdfrwt beam="2">  1       -1 0.10659385E+00 0.17920838E+04</pdfrwt>
<totfact> 0.11806496E+01</totfact>
</mgrwt>
</event>
<event>
 8    1  0.3893101E-010  0.1476940E+04  0.7818608E-02  0.8899934E-01
          1   -1    0    0  501    0  0.00000000000E+00  0.00000000000E+00  0.24325689438E+04  0.24325689438E+04  0.50400000000E-02 0.  1.
         -1   -1    0    0    0  501 -0.00000000000E+00 -0.00000000000E+00 -0.22418184081E+03  0.22418184086E+03  0.50400000000E-02 0. -1.
     200001    2    1    2    0    0 -0.19576941634E+03  0.31609406703E+02  0.87369098664E+03  0.11366394262E+04  0.69949154835E+03 0.  0.
    5000001    2    3    3    0    0 -0.30182907367E+02  0.83835747248E+02  0.23562346108E+03  0.30761792486E+03  0.17655291521E+03 0.  0.
        -11    1    4    4    0    0  0.36744392755E+02  0.10134768626E+03  0.78558763191E+02  0.13339034141E+03  0.51100000000E-03 0. -1.
     200002    1    4    4    0    0 -0.66927300121E+02 -0.17511939007E+02  0.15706469789E+03  0.17422758345E+03  0.30000000000E+02 0. -1.
     200000    1    3    3    0    0 -0.16558650898E+03 -0.52226340544E+02  0.63806752555E+03  0.82902150139E+03  0.50000000000E+03 0. -1.
    -200001    1    1    2    0    0  0.19576941634E+03 -0.31609406703E+02  0.13346961164E+04  0.15201113584E+04  0.70000000000E+03 0.  1.
<mgrwt>
<rscale>  0 0.14769398E+04</rscale>
<asrwt>0</asrwt>
<pdfrwt beam="1">  1        1 0.34750985E+00 0.14769398E+04</pdfrwt>
<pdfrwt beam="2">  1       -1 0.32025977E-01 0.14769398E+04</pdfrwt>
<totfact> 0.17547446E+01</totfact>
</mgrwt>
</event>
<event>
 8    1  0.3893101E-010  0.1652865E+04  0.7818608E-02  0.8788713E-01
         -1   -1    0    0    0  501 -0.00000000000E+00  0.00000000000E+00  0.61118042054E+03  0.61118042056E+03  0.50400000000E-02 0.  1.
          1   -1    0    0  501    0  0.00000000000E+00 -0.00000000000E+00 -0.11174943264E+04  0.11174943264E+04  0.50400000000E-02 0. -1.
     200001    2    1    2    0    0  0.24402892638E+03 -0.32471585126E+03 -0.43088402507E+03  0.91585239990E+03  0.69866592473E+03 0.  0.
    5000001    2    3    3    0    0  0.13286332758E+03 -0.17401510485E+03 -0.12415314243E+03  0.30009892676E+03  0.16343635622E+03 0.  0.
        -11    1    4    4    0    0  0.87192140544E+02 -0.18600451014E+03 -0.57989698989E+02  0.21345480167E+03  0.51100000000E-03 0. -1.
     200002    1    4    4    0    0  0.45671187037E+02  0.11989405296E+02 -0.66163443438E+02  0.86644125088E+02  0.30000000000E+02 0. -1.
     200000    1    3    3    0    0  0.11116559880E+03 -0.15070074641E+03 -0.30673088265E+03  0.61575347315E+03  0.50000000000E+03 0. -1.
    -200001    1    1    2    0    0 -0.24402892638E+03  0.32471585126E+03 -0.75429880784E+02  0.81282234706E+03  0.70000000000E+03 0.  1.
<mgrwt>
<rscale>  0 0.16528650E+04</rscale>
<asrwt>0</asrwt>
<pdfrwt beam="1">  1        1 0.15964205E+00 0.16528650E+04</pdfrwt>
<pdfrwt beam="2">  1       -1 0.87311489E-01 0.16528650E+04</pdfrwt>
<totfact> 0.17506925E+01</totfact>
</mgrwt>
</event>
<event>
 8    1  0.3893101E-010  0.1748294E+04  0.7818608E-02  0.8734290E-01
         -1   -1    0    0    0  501 -0.00000000000E+00  0.00000000000E+00  0.10987781456E+04  0.10987781457E+04  0.50400000000E-02 0. -1.
          1   -1    0    0  501    0  0.00000000000E+00 -0.00000000000E+00 -0.69543869908E+03  0.69543869910E+03  0.50400000000E-02 0.  1.
     200001    2    1    2    0    0 -0.44887261616E+03  0.23402741453E+02 -0.72899103317E+02  0.83565674219E+03  0.70069508180E+03 0.  0.
    5000001    2    3    3    0    0 -0.85359576045E+02 -0.10079929814E+02 -0.17257480472E+02  0.21407906418E+03  0.19530530684E+03 0.  0.
        -11    1    4    4    0    0  0.47635857209E+02  0.20192402311E+02 -0.48558859552E+02  0.70956823805E+02  0.51100000000E-03 0. -1.
     200002    1    4    4    0    0 -0.13299543325E+03 -0.30272332125E+02  0.31301379080E+02  0.14312224038E+03  0.30000000000E+02 0. -1.
     200000    1    3    3    0    0 -0.36351304011E+03  0.33482671266E+02 -0.55641622845E+02  0.62157767801E+03  0.50000000000E+03 0.  1.
    -200001    1    1    2    0    0  0.44887261616E+03 -0.23402741453E+02  0.47623854988E+03  0.95856010257E+03  0.70000000000E+03 0.  1.
<mgrwt>
<rscale>  0 0.17482938E+04</rscale>
<asrwt>0</asrwt>
<pdfrwt beam="1">  1        1 0.99348385E-01 0.17482938E+04</pdfrwt>
<pdfrwt beam="2">  1       -1 0.15696831E+00 0.17482938E+04</pdfrwt>
<totfact> 0.90148621E+00</totfact>
</mgrwt>
</event>
<event>
 8    1  0.3893101E-010  0.1585942E+04  0.7818608E-02  0.8829231E-01
          1   -1    0    0  501    0  0.00000000000E+00  0.00000000000E+00  0.15431445617E+04  0.15431445617E+04  0.50400000000E-02 0.  1.
         -1   -1    0    0    0  501 -0.00000000000E+00 -0.00000000000E+00 -0.40748157440E+03  0.40748157443E+03  0.50400000000E-02 0. -1.
     200001    2    1    2    0    0  0.26106815646E+03 -0.26476070136E+03  0.51324377994E+03  0.94282631424E+03  0.69803113819E+03 0.  0.
    5000001    2    3    3    0    0  0.32944816158E+02 -0.71510158725E+02  0.29214965720E+01  0.16834915930E+03  0.14877446214E+03 0.  0.
        -11    1    4    4    0    0  0.87818903594E+02 -0.53205843095E+02  0.79883383776E+01  0.10298949033E+03  0.51100000000E-03 0. -1.
     200002    1    4    4    0    0 -0.54874087437E+02 -0.18304315629E+02 -0.50668418055E+01  0.65359668975E+02  0.30000000000E+02 0. -1.
     200000    1    3    3    0    0  0.22812334031E+03 -0.19325054263E+03  0.51032228337E+03  0.77447715494E+03  0.50000000000E+03 0.  1.
    -200001    1    1    2    0    0 -0.26106815646E+03  0.26476070136E+03  0.62241920735E+03  0.10077998219E+04  0.70000000000E+03 0.  1.
<mgrwt>
<rscale>  0 0.15859420E+04</rscale>
<asrwt>0</asrwt>
<pdfrwt beam="1">  1        1 0.22044922E+00 0.15859420E+04</pdfrwt>
<pdfrwt beam="2">  1       -1 0.58211654E-01 0.15859420E+04</pdfrwt>
<totfact> 0.20971923E+01</totfact>
</mgrwt>
</event>
<event>
 8    1  0.3893101E-010  0.1955867E+04  0.7818608E-02  0.8627537E-01
         -1   -1    0    0    0  501 -0.00000000000E+00  0.00000000000E+00  0.20324881478E+04  0.20324881478E+04  0.50400000000E-02 0. -1.
          1   -1    0    0  501    0  0.00000000000E+00 -0.00000000000E+00 -0.47053342744E+03  0.47053342747E+03  0.50400000000E-02 0.  1.
     200001    2    1    2    0    0 -0.43922473667E+03  0.40240957488E+02  0.14485531585E+04  0.16679182175E+04  0.69936201165E+03 0.  0.
    5000001    2    3    3    0    0 -0.10865713492E+03 -0.17989198226E+01  0.62858476824E+03  0.65136007769E+03  0.13168724638E+03 0.  0.
        -11    1    4    4    0    0 -0.98628628337E+02 -0.31676994927E+02  0.25482391939E+03  0.27507502291E+03  0.51100000000E-03 0. -1.
     200002    1    4    4    0    0 -0.10028506587E+02  0.29878075105E+02  0.37376084885E+03  0.37628505478E+03  0.30000000000E+02 0. -1.
     200000    1    3    3    0    0 -0.33056760175E+03  0.42039877310E+02  0.81996839024E+03  0.10165581398E+04  0.50000000000E+03 0.  1.
    -200001    1    1    2    0    0  0.43922473667E+03 -0.40240957488E+02  0.11340156190E+03  0.83510335780E+03  0.70000000000E+03 0.  1.
<mgrwt>
<rscale>  0 0.19558667E+04</rscale>
<asrwt>0</asrwt>
<pdfrwt beam="1">  1        1 0.67219060E-01 0.19558667E+04</pdfrwt>
<pdfrwt beam="2">  1       -1 0.29035546E+00 0.19558667E+04</pdfrwt>
<totfact> 0.19001588E+00</totfact>
</mgrwt>
</event>
<event>
 8    1  0.3893101E-010  0.1422443E+04  0.7818608E-02  0.8937732E-01
         -1   -1    0    0    0  501 -0.00000000000E+00  0.00000000000E+00  0.39677778471E+03  0.39677778474E+03  0.50400000000E-02 0. -1.
          1   -1    0    0  501    0  0.00000000000E+00 -0.00000000000E+00 -0.12748593218E+04  0.12748593218E+04  0.50400000000E-02 0.  1.
     200001    2    1    2    0    0  0.33251432787E+02  0.65219016644E+02 -0.31792742756E+03  0.77211956681E+03  0.69980825827E+03 0.  0.
    5000001    2    3    3    0    0 -0.77262986403E+01 -0.35051765552E+02 -0.77573729057E+02  0.20687333319E+03  0.18838941209E+03 0.  0.
        -11    1    4    4    0    0  0.42765170007E+01  0.75098038656E+02 -0.17149011475E+02  0.77149806238E+02  0.51100000000E-03 0. -1.
     200002    1    4    4    0    0 -0.12002815641E+02 -0.11014980421E+03 -0.60424717582E+02  0.12972352695E+03  0.30000000000E+02 0. -1.
     200000    1    3    3    0    0  0.40977731428E+02  0.10027078220E+03 -0.24035369850E+03  0.56524623362E+03  0.50000000000E+03 0. -1.
    -200001    1    1    2    0    0 -0.33251432787E+02 -0.65219016644E+02 -0.56015410957E+03  0.89951753979E+03  0.70000000000E+03 0.  1.
<mgrwt>
<rscale>  0 0.14224428E+04</rscale>
<asrwt>0</asrwt>
<pdfrwt beam="1">  1        1 0.18212276E+00 0.14224428E+04</pdfrwt>
<pdfrwt beam="2">  1       -1 0.56682541E-01 0.14224428E+04</pdfrwt>
<totfact> 0.33734400E+01</totfact>
</mgrwt>
</event>
<event>
 8    1  0.3893101E-010  0.1760532E+04  0.7818608E-02  0.8727575E-01
          1   -1    0    0  501    0  0.00000000000E+00  0.00000000000E+00  0.19304352609E+04  0.19304352609E+04  0.50400000000E-02 0.  1.
         -1   -1    0    0    0  501 -0.00000000000E+00 -0.00000000000E+00 -0.40139543018E+03  0.40139543021E+03  0.50400000000E-02 0. -1.
     200001    2    1    2    0    0 -0.45966013647E+03 -0.59466890601E+02  0.41410022867E+03  0.93615376992E+03  0.70005794717E+03 0.  0.
    5000001    2    3    3    0    0 -0.19367862872E+03 -0.80485087770E+02  0.21810129415E+03  0.33648426976E+03  0.14718773289E+03 0.  0.
        -11    1    4    4    0    0 -0.19594332685E+02  0.35778006253E+02  0.59506748527E+02  0.72146079071E+02  0.51100000000E-03 0. -1.
     200002    1    4    4    0    0 -0.17408429603E+03 -0.11626309402E+03  0.15859454562E+03  0.26433819069E+03  0.30000000000E+02 0. -1.
     200000    1    3    3    0    0 -0.26598150775E+03  0.21018197169E+02  0.19599893452E+03  0.59966950015E+03  0.50000000000E+03 0. -1.
    -200001    1    1    2    0    0  0.45966013647E+03  0.59466890601E+02  0.11149396020E+04  0.13956769212E+04  0.70000000000E+03 0.  1.
<mgrwt>
<rscale>  0 0.17605316E+04</rscale>
<asrwt>0</asrwt>
<pdfrwt beam="1">  1        1 0.27577647E+00 0.17605316E+04</pdfrwt>
<pdfrwt beam="2">  1       -1 0.57342204E-01 0.17605316E+04</pdfrwt>
<totfact> 0.12052174E+01</totfact>
</mgrwt>
</event>
<event>
 8    1  0.3893101E-010  0.2255514E+04  0.7818608E-02  0.8495671E-01
         -1   -1    0    0    0  501 -0.00000000000E+00  0.00000000000E+00  0.18097847330E+04  0.18097847330E+04  0.50400000000E-02 0.  1.
          1   -1    0    0  501    0  0.00000000000E+00 -0.00000000000E+00 -0.70275558285E+03  0.70275558287E+03  0.50400000000E-02 0. -1.
     200001    2    1    2    0    0 -0.85461719232E+03  0.20947805136E+03  0.45840904367E+03  0.12144803628E+04  0.70040852420E+03 0.  0.
    5000001    2    3    3    0    0 -0.26690622698E+03  0.11911555924E+03  0.13296268592E+03  0.37217110212E+03  0.18816164050E+03 0.  0.
        -11    1    4    4    0    0 -0.87614494619E+02  0.23400524943E+02  0.13977373295E+03  0.16661506732E+03  0.51100000000E-03 0. -1.
     200002    1    4    4    0    0 -0.17929173236E+03  0.95715034297E+02 -0.68110470312E+01  0.20555603481E+03  0.30000000000E+02 0. -1.
     200000    1    3    3    0    0 -0.58771096534E+03  0.90362492124E+02  0.32544635775E+03  0.84230926063E+03  0.50000000000E+03 0. -1.
    -200001    1    1    2    0    0  0.85461719232E+03 -0.20947805136E+03  0.64862010651E+03  0.12980599532E+04  0.70000000000E+03 0.  1.
<mgrwt>
<rscale>  0 0.22555144E+04</rscale>
<asrwt>0</asrwt>
<pdfrwt beam="1">  1        1 0.10039366E+00 0.22555144E+04</pdfrwt>
<pdfrwt beam="2">  1       -1 0.25854067E+00 0.22555144E+04</pdfrwt>
<totfact> 0.16932612E+00</totfact>
</mgrwt>
</event>
<event>
 8    1  0.3893101E-010  0.1747483E+04  0.7818608E-02  0.8734737E-01
         -1   -1    0    0    0  501 -0.00000000000E+00  0.00000000000E+00  0.41729782138E+03  0.41729782141E+03  0.50400000000E-02 0. -1.
          1   -1    0    0  501    0  0.00000000000E+00 -0.00000000000E+00 -0.18294477157E+04  0.18294477157E+04  0.50400000000E-02 0.  1.
     200001    2    1    2    0    0 -0.24105610694E+03 -0.27146083638E+03 -0.21989354378E+03  0.81731409849E+03  0.69846269235E+03 0.  0.
    5000001    2    3    3    0    0 -0.43275792469E+02 -0.45334959439E+02  0.15287148668E+02  0.18837855082E+03  0.17698793387E+03 0.  0.
        -11    1    4    4    0    0  0.47905786027E+01 -0.85484264530E+02  0.61100729802E+02  0.10518463913E+03  0.51100000000E-03 0. -1.
     200002    1    4    4    0    0 -0.48066371072E+02  0.40149305091E+02 -0.45813581134E+02  0.83193911698E+02  0.30000000000E+02 0. -1.
     200000    1    3    3    0    0 -0.19778031447E+03 -0.22612587694E+03 -0.23518069245E+03  0.62893554766E+03  0.50000000000E+03 0. -1.
    -200001    1    1    2    0    0  0.24105610694E+03  0.27146083638E+03 -0.11922563506E+04  0.14294314387E+04  0.70000000000E+03 0.  1.
<mgrwt>
<rscale>  0 0.17474834E+04</rscale>
<asrwt>0</asrwt>
<pdfrwt beam="1">  1        1 0.26134967E+00 0.17474834E+04</pdfrwt>
<pdfrwt beam="2">  1       -1 0.59613975E-01 0.17474834E+04</pdfrwt>
<totfact> 0.12947359E+01</totfact>
</mgrwt>
</event>
<event>
 8    1  0.3893101E-010  0.2144102E+04  0.7818608E-02  0.8542061E-01
          1   -1    0    0  501    0  0.00000000000E+00  0.00000000000E+00  0.22164594666E+04  0.22164594666E+04  0.50400000000E-02 0.  1.
         -1   -1    0    0    0  501 -0.00000000000E+00 -0.00000000000E+00 -0.51852652333E+03  0.51852652335E+03  0.50400000000E-02 0. -1.
     200001    2    1    2    0    0  0.30054347922E+03  0.66579536102E+03  0.39505096484E+03  0.10854068632E+04  0.69887978095E+03 0.  0.
    5000001    2    3    3    0    0  0.76168672387E+02  0.18822570484E+03  0.10675431012E+03  0.30340188140E+03  0.19855889880E+03 0.  0.
        -11    1    4    4    0    0  0.97468618792E+02  0.57585241338E+01  0.42457348314E+02  0.10647027132E+03  0.51100000000E-03 0. -1.
     200002    1    4    4    0    0 -0.21299946405E+02  0.18246718070E+03  0.64296961807E+02  0.19693161008E+03  0.30000000000E+02 0. -1.
     200000    1    3    3    0    0  0.22437480683E+03  0.47756965618E+03  0.28829665472E+03  0.78200498180E+03  0.50000000000E+03 0.  1.
    -200001    1    1    2    0    0 -0.30054347922E+03 -0.66579536102E+03  0.13028819784E+04  0.16495791267E+04  0.70000000000E+03 0. -1.
<mgrwt>
<rscale>  0 0.21441017E+04</rscale>
<asrwt>0</asrwt>
<pdfrwt beam="1">  1        1 0.31663707E+00 0.21441017E+04</pdfrwt>
<pdfrwt beam="2">  1       -1 0.74075218E-01 0.21441017E+04</pdfrwt>
<totfact> 0.45929902E+00</totfact>
</mgrwt>
</event>
<event>
 8    1  0.3893101E-010  0.1760910E+04  0.7818608E-02  0.8727368E-01
          1   -1    0    0  501    0  0.00000000000E+00  0.00000000000E+00  0.42610112861E+04  0.42610112861E+04  0.50400000000E-02 0.  1.
         -1   -1    0    0    0  501 -0.00000000000E+00 -0.00000000000E+00 -0.18192880168E+03  0.18192880175E+03  0.50400000000E-02 0. -1.
     200001    2    1    2    0    0 -0.48794811945E+03  0.19130692994E+03  0.17838965451E+04  0.19868109779E+04  0.70031369366E+03 0.  0.
    5000001    2    3    3    0    0 -0.10548926935E+03  0.62493557461E+02  0.40802477014E+03  0.46829499244E+03  0.19437735522E+03 0.  0.
        -11    1    4    4    0    0  0.21074687366E+02 -0.35987495481E+02  0.17810749509E+02  0.45348264320E+02  0.51100000000E-03 0. -1.
     200002    1    4    4    0    0 -0.12656395672E+03  0.98481052942E+02  0.39021402063E+03  0.42294672812E+03  0.30000000000E+02 0. -1.
     200000    1    3    3    0    0 -0.38245885010E+03  0.12881337248E+03  0.13758717749E+04  0.15185159854E+04  0.50000000000E+03 0. -1.
    -200001    1    1    2    0    0  0.48794811945E+03 -0.19130692994E+03  0.22951859393E+04  0.24561291100E+04  0.70000000000E+03 0.  1.
<mgrwt>
<rscale>  0 0.17609096E+04</rscale>
<asrwt>0</asrwt>
<pdfrwt beam="1">  1        1 0.60871583E+00 0.17609096E+04</pdfrwt>
<pdfrwt beam="2">  1       -1 0.25989832E-01 0.17609096E+04</pdfrwt>
<totfact> 0.13168590E+00</totfact>
</mgrwt>
</event>
<event>
 8    1  0.3893101E-010  0.1513807E+04  0.7818608E-02  0.8875323E-01
         -1   -1    0    0    0  501 -0.00000000000E+00  0.00000000000E+00  0.10765919509E+04  0.10765919509E+04  0.50400000000E-02 0.  1.
          1   -1    0    0  501    0  0.00000000000E+00 -0.00000000000E+00 -0.53214509265E+03  0.53214509267E+03  0.50400000000E-02 0. -1.
     200001    2    1    2    0    0  0.85794441971E+01 -0.10628865193E+03  0.55665080607E+03  0.90055640231E+03  0.69983628760E+03 0.  0.
    5000001    2    3    3    0    0 -0.57051042832E+02 -0.24756654549E+02  0.76293539691E+02  0.19934464343E+03  0.17334898105E+03 0.  0.
        -11    1    4    4    0    0  0.44577756985E+02  0.39360367881E+02  0.33818634775E+02  0.68411366277E+02  0.51100000000E-03 0. -1.
     200002    1    4    4    0    0 -0.10162879982E+03 -0.64117022429E+02  0.42474904915E+02  0.13093327715E+03  0.30000000000E+02 0. -1.
     200000    1    3    3    0    0  0.65630487029E+02 -0.81531997378E+02  0.48035726638E+03  0.70121175888E+03  0.50000000000E+03 0.  1.
    -200001    1    1    2    0    0 -0.85794441971E+01  0.10628865193E+03 -0.12203947784E+02  0.70818064131E+03  0.70000000000E+03 0. -1.
<mgrwt>
<rscale>  0 0.15138073E+04</rscale>
<asrwt>0</asrwt>
<pdfrwt beam="1">  1        1 0.76020728E-01 0.15138073E+04</pdfrwt>
<pdfrwt beam="2">  1       -1 0.15379885E+00 0.15138073E+04</pdfrwt>
<totfact> 0.14225636E+01</totfact>
</mgrwt>
</event>
<event>
 8    1  0.3893101E-010  0.1573977E+04  0.7818608E-02  0.8836696E-01
         -1   -1    0    0    0  501 -0.00000000000E+00  0.00000000000E+00  0.37688552106E+03  0.37688552109E+03  0.50400000000E-02 0. -1.
          1   -1    0    0  501    0  0.00000000000E+00 -0.00000000000E+00 -0.16433398049E+04  0.16433398049E+04  0.50400000000E-02 0.  1.
     200001    2    1    2    0    0  0.14385733577E+02 -0.28441194609E+03 -0.35063139095E+03  0.83286326009E+03  0.69972975732E+03 0.  0.
    5000001    2    3    3    0    0 -0.11226408673E+03 -0.99694610654E+02 -0.18698865542E+02  0.19228549556E+03  0.11866686002E+03 0.  0.
        -11    1    4    4    0    0 -0.39566458318E+02 -0.10177206268E+03  0.72802304267E+01  0.10943518228E+03  0.51100000000E-03 0. -1.
     200002    1    4    4    0    0 -0.72697628407E+02  0.20774520222E+01 -0.25979095969E+02  0.82850313278E+02  0.30000000000E+02 0.  1.
     200000    1    3    3    0    0  0.12664982030E+03 -0.18471733543E+03 -0.33193252541E+03  0.64057776454E+03  0.50000000000E+03 0. -1.
    -200001    1    1    2    0    0 -0.14385733577E+02  0.28441194609E+03 -0.91582289290E+03  0.11873620659E+04  0.70000000000E+03 0.  1.
<mgrwt>
<rscale>  0 0.15739771E+04</rscale>
<asrwt>0</asrwt>
<pdfrwt beam="1">  1        1 0.23476283E+00 0.15739771E+04</pdfrwt>
<pdfrwt beam="2">  1       -1 0.53840789E-01 0.15739771E+04</pdfrwt>
<totfact> 0.21057409E+01</totfact>
</mgrwt>
</event>
<event>
 8    1  0.3893101E-010  0.2522211E+04  0.7818608E-02  0.8395115E-01
         -1   -1    0    0    0  501 -0.00000000000E+00  0.00000000000E+00  0.12438042543E+04  0.12438042544E+04  0.50400000000E-02 0. -1.
          1   -1    0    0  501    0  0.00000000000E+00 -0.00000000000E+00 -0.12786475654E+04  0.12786475654E+04  0.50400000000E-02 0.  1.
     200001    2    1    2    0    0  0.26120260722E+02  0.10402439206E+04 -0.14913027263E+03  0.12631459824E+04  0.70036294318E+03 0.  0.
    5000001    2    3    3    0    0 -0.17735812159E+02  0.27338776127E+03  0.50608792224E+02  0.32512283859E+03  0.16759529611E+03 0.  0.
        -11    1    4    4    0    0  0.14207111815E+02  0.26253811524E+03  0.79973268248E+01  0.26304383897E+03  0.51100000000E-03 0. -1.
     200002    1    4    4    0    0 -0.31942923974E+02  0.10849646030E+02  0.42611465399E+02  0.62078999625E+02  0.30000000000E+02 0. -1.
     200000    1    3    3    0    0  0.43856072881E+02  0.76685615935E+03 -0.19973906486E+03  0.93802314379E+03  0.50000000000E+03 0.  1.
    -200001    1    1    2    0    0 -0.26120260722E+02 -0.10402439206E+04  0.11428696160E+03  0.12593058374E+04  0.70000000000E+03 0. -1.
<mgrwt>
<rscale>  0 0.25222112E+04</rscale>
<asrwt>0</asrwt>
<pdfrwt beam="1">  1        1 0.18266394E+00 0.25222112E+04</pdfrwt>
<pdfrwt beam="2">  1       -1 0.17768632E+00 0.25222112E+04</pdfrwt>
<totfact> 0.21069634E+00</totfact>
</mgrwt>
</event>
<event>
 8    1  0.3893101E-010  0.2065059E+04  0.7818608E-02  0.8576793E-01
          1   -1    0    0  501    0  0.00000000000E+00  0.00000000000E+00  0.99912093165E+03  0.99912093166E+03  0.50400000000E-02 0.  1.
         -1   -1    0    0    0  501 -0.00000000000E+00 -0.00000000000E+00 -0.10670546983E+04  0.10670546983E+04  0.50400000000E-02 0. -1.
     200001    2    1    2    0    0  0.30307376002E+03  0.69575864614E+03 -0.55337486107E+02  0.10336580931E+04  0.69960918972E+03 0.  0.
    5000001    2    3    3    0    0  0.58676790009E+02  0.77686575652E+02 -0.73990592276E+02  0.20173808393E+03  0.16045397172E+03 0.  0.
        -11    1    4    4    0    0  0.70697622812E+02 -0.15355202834E+02  0.90485577957E+01  0.72909618870E+02  0.51100000000E-03 0. -1.
     200002    1    4    4    0    0 -0.12020832803E+02  0.93041778486E+02 -0.83039150072E+02  0.12882846506E+03  0.30000000000E+02 0. -1.
     200000    1    3    3    0    0  0.24439697001E+03  0.61807207048E+03  0.18653106170E+02  0.83192000916E+03  0.50000000000E+03 0. -1.
    -200001    1    1    2    0    0 -0.30307376002E+03 -0.69575864614E+03 -0.12596280534E+02  0.10325175369E+04  0.70000000000E+03 0.  1.
<mgrwt>
<rscale>  0 0.20650585E+04</rscale>
<asrwt>0</asrwt>
<pdfrwt beam="1">  1        1 0.14273156E+00 0.20650585E+04</pdfrwt>
<pdfrwt beam="2">  1       -1 0.15243639E+00 0.20650585E+04</pdfrwt>
<totfact> 0.53477363E+00</totfact>
</mgrwt>
</event>
<event>
 8    1  0.3893101E-010  0.1936637E+04  0.7818608E-02  0.8636832E-01
          1   -1    0    0  501    0  0.00000000000E+00  0.00000000000E+00  0.86691943412E+03  0.86691943414E+03  0.50400000000E-02 0. -1.
         -1   -1    0    0    0  501 -0.00000000000E+00 -0.00000000000E+00 -0.10815779049E+04  0.10815779049E+04  0.50400000000E-02 0.  1.
     200001    2    1    2    0    0  0.45955374537E+03  0.41983654306E+03  0.14062071161E+03  0.94666119213E+03  0.69924306245E+03 0.  0.
    5000001    2    3    3    0    0  0.17647529000E+03  0.11339501617E+03  0.71265780834E+02  0.29179484873E+03  0.18990382975E+03 0.  0.
        -11    1    4    4    0    0  0.17216193536E+03  0.14264751374E+03  0.18594859132E+02  0.22435198673E+03  0.51100000000E-03 0. -1.
     200002    1    4    4    0    0  0.43133546380E+01 -0.29252497566E+02  0.52670921702E+02  0.67442862002E+02  0.30000000000E+02 0. -1.
     200000    1    3    3    0    0  0.28307845537E+03  0.30644152688E+03  0.69354930780E+02  0.65486634340E+03  0.50000000000E+03 0. -1.
    -200001    1    1    2    0    0 -0.45955374537E+03 -0.41983654306E+03 -0.35527918235E+03  0.10018361469E+04  0.70000000000E+03 0. -1.
<mgrwt>
<rscale>  0 0.19366372E+04</rscale>
<asrwt>0</asrwt>
<pdfrwt beam="1">  1        1 0.12384563E+00 0.19366372E+04</pdfrwt>
<pdfrwt beam="2">  1       -1 0.15451113E+00 0.19366372E+04</pdfrwt>
<totfact> 0.66005502E+00</totfact>
</mgrwt>
</event>
<event>
 8    1  0.3893101E-010  0.1419138E+04  0.7818608E-02  0.8940081E-01
          1   -1    0    0  501    0  0.00000000000E+00  0.00000000000E+00  0.27635731641E+04  0.27635731641E+04  0.50400000000E-02 0. -1.
         -1   -1    0    0    0  501 -0.00000000000E+00 -0.00000000000E+00 -0.18218737296E+03  0.18218737303E+03  0.50400000000E-02 0.  1.
     200001    2    1    2    0    0 -0.17308238149E+02 -0.35445952451E+02  0.15178067800E+04  0.16718860129E+04  0.69993530270E+03 0.  0.
    5000001    2    3    3    0    0 -0.43922020243E+02 -0.77917419914E+02  0.32616368010E+03  0.37862447842E+03  0.17021598414E+03 0.  0.
        -11    1    4    4    0    0 -0.84660804538E+02 -0.52865393958E+02  0.85490788582E+02  0.13141870733E+03  0.51100000000E-03 0. -1.
     200002    1    4    4    0    0  0.40738784295E+02 -0.25052025955E+02  0.24067289151E+03  0.24720577109E+03  0.30000000000E+02 0. -1.
     200000    1    3    3    0    0  0.26613782094E+02  0.42471467463E+02  0.11916430999E+04  0.12932615345E+04  0.50000000000E+03 0. -1.
    -200001    1    1    2    0    0  0.17308238149E+02  0.35445952451E+02  0.10635790111E+04  0.12738745243E+04  0.70000000000E+03 0.  1.
<mgrwt>
<rscale>  0 0.14191380E+04</rscale>
<asrwt>0</asrwt>
<pdfrwt beam="1">  1        1 0.39479613E+00 0.14191380E+04</pdfrwt>
<pdfrwt beam="2">  1       -1 0.26026770E-01 0.14191380E+04</pdfrwt>
<totfact> 0.15575952E+01</totfact>
</mgrwt>
</event>
<event>
 8    1  0.3893101E-010  0.1550954E+04  0.7818608E-02  0.8851258E-01
          1   -1    0    0  501    0  0.00000000000E+00  0.00000000000E+00  0.76693770660E+03  0.76693770662E+03  0.50400000000E-02 0.  1.
         -1   -1    0    0    0  501 -0.00000000000E+00 -0.00000000000E+00 -0.78411163435E+03  0.78411163437E+03  0.50400000000E-02 0. -1.
     200001    2    1    2    0    0  0.10195149047E+03 -0.81522440564E+02  0.28316427746E+03  0.77823432287E+03  0.71304041858E+03 0.  0.
    5000001    2    3    3    0    0  0.16763647896E+02  0.55626192809E+01  0.11527984623E+03  0.23691560120E+03  0.20622220182E+03 0.  0.
        -11    1    4    4    0    0 -0.75390618415E+02 -0.37037222484E+02  0.51493245731E+01  0.84154719048E+02  0.51100000000E-03 0. -1.
     200002    1    4    4    0    0  0.92154266311E+02  0.42599841765E+02  0.11013052165E+03  0.15276088216E+03  0.30000000000E+02 0. -1.
     200000    1    3    3    0    0  0.85187842579E+02 -0.87085059844E+02  0.16788443123E+03  0.54131872166E+03  0.50000000000E+03 0.  1.
    -200001    1    1    2    0    0 -0.10195149047E+03  0.81522440564E+02 -0.30033820521E+03  0.77281501812E+03  0.70000000000E+03 0. -1.
<mgrwt>
<rscale>  0 0.15509543E+04</rscale>
<asrwt>0</asrwt>
<pdfrwt beam="1">  1        1 0.10956253E+00 0.15509543E+04</pdfrwt>
<pdfrwt beam="2">  1       -1 0.11201595E+00 0.15509543E+04</pdfrwt>
<totfact> 0.18745767E+01</totfact>
</mgrwt>
</event>
<event>
 8    1  0.3893101E-010  0.1561285E+04  0.7818608E-02  0.8844692E-01
         -1   -1    0    0    0  501 -0.00000000000E+00  0.00000000000E+00  0.34841047087E+03  0.34841047090E+03  0.50400000000E-02 0. -1.
          1   -1    0    0  501    0  0.00000000000E+00 -0.00000000000E+00 -0.17490936511E+04  0.17490936511E+04  0.50400000000E-02 0.  1.
     200001    2    1    2    0    0 -0.54790419760E+02  0.26948709407E+02 -0.11579751379E+04  0.13541095990E+04  0.69926973551E+03 0.  0.
    5000001    2    3    3    0    0  0.66978064519E+02  0.16221890800E+02 -0.31844999336E+03  0.36935323483E+03  0.17396034877E+03 0.  0.
        -11    1    4    4    0    0  0.71211961053E+02  0.76207112266E+02 -0.11578054751E+03  0.15583261064E+03  0.51100000000E-03 0. -1.
     200002    1    4    4    0    0 -0.42338965342E+01 -0.59985221467E+02 -0.20266944585E+03  0.21352062419E+03  0.30000000000E+02 0. -1.
     200000    1    3    3    0    0 -0.12176848428E+03  0.10726818608E+02 -0.83952514456E+03  0.98475636416E+03  0.50000000000E+03 0.  1.
    -200001    1    1    2    0    0  0.54790419760E+02 -0.26948709407E+02 -0.24270804230E+03  0.74339452301E+03  0.70000000000E+03 0. -1.
<mgrwt>
<rscale>  0 0.15612848E+04</rscale>
<asrwt>0</asrwt>
<pdfrwt beam="1">  1        1 0.24987052E+00 0.15612848E+04</pdfrwt>
<pdfrwt beam="2">  1       -1 0.49772925E-01 0.15612848E+04</pdfrwt>
<totfact> 0.20972596E+01</totfact>
</mgrwt>
</event>
<event>
 8    1  0.3893101E-010  0.1724565E+04  0.7818608E-02  0.8747477E-01
          1   -1    0    0  501    0  0.00000000000E+00  0.00000000000E+00  0.21223198920E+04  0.21223198920E+04  0.50400000000E-02 0.  1.
         -1   -1    0    0    0  501 -0.00000000000E+00 -0.00000000000E+00 -0.35033873049E+03  0.35033873052E+03  0.50400000000E-02 0. -1.
     200001    2    1    2    0    0  0.28781433739E+03 -0.20650231537E+03  0.13996681347E+04  0.16042708698E+04  0.69938103889E+03 0.  0.
    5000001    2    3    3    0    0 -0.26456794615E+02 -0.13460240752E+03  0.19633583795E+03  0.26190558517E+03  0.10596699576E+03 0.  0.
        -11    1    4    4    0    0 -0.58367173313E+02 -0.10165628514E+03  0.14825603466E+03  0.18899888635E+03  0.51100000000E-03 0. -1.
     200002    1    4    4    0    0  0.31910378698E+02 -0.32946122382E+02  0.48079803283E+02  0.72906698817E+02  0.30000000000E+02 0. -1.
     200000    1    3    3    0    0  0.31427113200E+03 -0.71899907856E+02  0.12033322967E+04  0.13423652847E+04  0.50000000000E+03 0.  1.
    -200001    1    1    2    0    0 -0.28781433739E+03  0.20650231537E+03  0.37231302685E+03  0.86838775269E+03  0.70000000000E+03 0. -1.
<mgrwt>
<rscale>  0 0.17245647E+04</rscale>
<asrwt>0</asrwt>
<pdfrwt beam="1">  1        1 0.30318854E+00 0.17245647E+04</pdfrwt>
<pdfrwt beam="2">  1       -1 0.50048392E-01 0.17245647E+04</pdfrwt>
<totfact> 0.11900151E+01</totfact>
</mgrwt>
</event>
<event>
 8    1  0.3893101E-010  0.1633306E+04  0.7818608E-02  0.8800344E-01
          1   -1    0    0  501    0  0.00000000000E+00  0.00000000000E+00  0.15404363254E+04  0.15404363254E+04  0.50400000000E-02 0.  1.
         -1   -1    0    0    0  501 -0.00000000000E+00 -0.00000000000E+00 -0.43294361975E+03  0.43294361978E+03  0.50400000000E-02 0. -1.
     200001    2    1    2    0    0  0.30208634269E+03  0.17598231073E+03  0.27124317010E+03  0.82815541794E+03  0.70003043277E+03 0.  0.
    5000001    2    3    3    0    0  0.97867913298E+02  0.12970730696E+02  0.59167538749E+02  0.22544983846E+03  0.19385681239E+03 0.  0.
        -11    1    4    4    0    0  0.43455821259E+02 -0.88373856333E+02  0.22104086606E+02  0.10093035980E+03  0.51100000000E-03 0. -1.
     200002    1    4    4    0    0  0.54412092039E+02  0.10134458703E+03  0.37063452143E+02  0.12451947866E+03  0.30000000000E+02 0. -1.
     200000    1    3    3    0    0  0.20421842939E+03  0.16301158004E+03  0.21207563135E+03  0.60270557948E+03  0.50000000000E+03 0. -1.
    -200001    1    1    2    0    0 -0.30208634269E+03 -0.17598231073E+03  0.83624953558E+03  0.11452245273E+04  0.70000000000E+03 0.  1.
<mgrwt>
<rscale>  0 0.16333059E+04</rscale>
<asrwt>0</asrwt>
<pdfrwt beam="1">  1        1 0.22006233E+00 0.16333059E+04</pdfrwt>
<pdfrwt beam="2">  1       -1 0.61849089E-01 0.16333059E+04</pdfrwt>
<totfact> 0.18604971E+01</totfact>
</mgrwt>
</event>
<event>
 8    1  0.3893101E-010  0.2256188E+04  0.7818608E-02  0.8495399E-01
          1   -1    0    0  501    0  0.00000000000E+00  0.00000000000E+00  0.27099019515E+04  0.27099019515E+04  0.50400000000E-02 0.  1.
         -1   -1    0    0    0  501 -0.00000000000E+00 -0.00000000000E+00 -0.46960956468E+03  0.46960956471E+03  0.50400000000E-02 0. -1.
     200001    2    1    2    0    0 -0.57993859876E+03  0.39160169431E+03  0.35800993406E+03  0.10528550096E+04  0.70046548306E+03 0.  0.
    5000001    2    3    3    0    0 -0.12253574615E+03  0.20631607168E+03  0.22264978849E+02  0.27421978914E+03  0.13084125098E+03 0.  0.
        -11    1    4    4    0    0 -0.74602787113E+01  0.66667701511E+02  0.56406079935E+02  0.87646357808E+02  0.51100000000E-03 0. -1.
     200002    1    4    4    0    0 -0.11507546744E+03  0.13964837016E+03 -0.34141101086E+02  0.18657343133E+03  0.30000000000E+02 0. -1.
     200000    1    3    3    0    0 -0.45740285260E+03  0.18528562263E+03  0.33574495521E+03  0.77863522042E+03  0.50000000000E+03 0.  1.
    -200001    1    1    2    0    0  0.57993859876E+03 -0.39160169431E+03  0.18822824528E+04  0.21266565067E+04  0.70000000000E+03 0.  1.
<mgrwt>
<rscale>  0 0.22561878E+04</rscale>
<asrwt>0</asrwt>
<pdfrwt beam="1">  1        1 0.38712884E+00 0.22561878E+04</pdfrwt>
<pdfrwt beam="2">  1       -1 0.67087083E-01 0.22561878E+04</pdfrwt>
<totfact> 0.27066355E+00</totfact>
</mgrwt>
</event>
<event>
 8    1  0.3893101E-010  0.1548738E+04  0.7818608E-02  0.8852674E-01
         -1   -1    0    0    0  501 -0.00000000000E+00  0.00000000000E+00  0.39528673891E+03  0.39528673894E+03  0.50400000000E-02 0. -1.
          1   -1    0    0  501    0  0.00000000000E+00 -0.00000000000E+00 -0.15169930631E+04  0.15169930632E+04  0.50400000000E-02 0.  1.
     200001    2    1    2    0    0  0.14643705009E+03  0.27678617142E+03 -0.68988431539E+03  0.10322089858E+04  0.70104252899E+03 0.  0.
    5000001    2    3    3    0    0 -0.33699895805E+02  0.52592020714E+02 -0.22274059667E+03  0.28995863020E+03  0.17481713360E+03 0.  0.
        -11    1    4    4    0    0 -0.78228149491E+01 -0.38818248845E+02 -0.17511011049E+03  0.17953162304E+03  0.51100000000E-03 0. -1.
     200002    1    4    4    0    0 -0.25877080856E+02  0.91410269559E+02 -0.47630486184E+02  0.11042700715E+03  0.30000000000E+02 0. -1.
     200000    1    3    3    0    0  0.18013694589E+03  0.22419415071E+03 -0.46714371872E+03  0.74225035562E+03  0.50000000000E+03 0.  1.
    -200001    1    1    2    0    0 -0.14643705009E+03 -0.27678617142E+03 -0.43182200885E+03  0.88007081627E+03  0.70000000000E+03 0. -1.
<mgrwt>
<rscale>  0 0.15487379E+04</rscale>
<asrwt>0</asrwt>
<pdfrwt beam="1">  1        1 0.21671329E+00 0.15487379E+04</pdfrwt>
<pdfrwt beam="2">  1       -1 0.56469535E-01 0.15487379E+04</pdfrwt>
<totfact> 0.23216144E+01</totfact>
</mgrwt>
</event>
<event>
 8    1  0.3893101E-010  0.1574636E+04  0.7818608E-02  0.8836284E-01
          1   -1    0    0  501    0  0.00000000000E+00  0.00000000000E+00  0.37235753436E+03  0.37235753440E+03  0.50400000000E-02 0. -1.
         -1   -1    0    0    0  501 -0.00000000000E+00 -0.00000000000E+00 -0.16647153801E+04  0.16647153801E+04  0.50400000000E-02 0.  1.
     200001    2    1    2    0    0 -0.29772138217E+02 -0.32328440479E+03 -0.84868019956E+03  0.11469891879E+04  0.69994780484E+03 0.  0.
    5000001    2    3    3    0    0  0.44574462536E+02 -0.69593330957E+02 -0.14176636390E+03  0.24166397065E+03  0.17740816879E+03 0.  0.
        -11    1    4    4    0    0  0.10323374861E+02  0.44247116609E+02 -0.10380561360E+03  0.11331365677E+03  0.51100000000E-03 0. -1.
     200002    1    4    4    0    0  0.34251087675E+02 -0.11384044757E+03 -0.37960750299E+02  0.12835031388E+03  0.30000000000E+02 0. -1.
     200000    1    3    3    0    0 -0.74346600753E+02 -0.25369107383E+03 -0.70691383567E+03  0.90532521728E+03  0.50000000000E+03 0.  1.
    -200001    1    1    2    0    0  0.29772138217E+02  0.32328440479E+03 -0.44367764617E+03  0.89008372657E+03  0.70000000000E+03 0.  1.
<mgrwt>
<rscale>  0 0.15746356E+04</rscale>
<asrwt>0</asrwt>
<pdfrwt beam="1">  1        1 0.53193934E-01 0.15746356E+04</pdfrwt>
<pdfrwt beam="2">  1       -1 0.23781648E+00 0.15746356E+04</pdfrwt>
<totfact> 0.58777650E+00</totfact>
</mgrwt>
</event>
<event>
 8    1  0.3893101E-010  0.2016461E+04  0.7818608E-02  0.8598963E-01
         -1   -1    0    0    0  501 -0.00000000000E+00  0.00000000000E+00  0.43389822826E+03  0.43389822828E+03  0.50400000000E-02 0. -1.
          1   -1    0    0  501    0  0.00000000000E+00 -0.00000000000E+00 -0.23427811498E+04  0.23427811498E+04  0.50400000000E-02 0.  1.
     200001    2    1    2    0    0  0.58049438424E+03  0.27650423292E+03 -0.14203348802E+04  0.17079850768E+04  0.69744786876E+03 0.  0.
    5000001    2    3    3    0    0  0.65563328947E+02  0.69218891346E+02 -0.38201616631E+03  0.42883420368E+03  0.16991944533E+03 0.  0.
        -11    1    4    4    0    0  0.61065343283E+02  0.66536150298E+02 -0.38750514248E+03  0.39788977229E+03  0.51100000000E-03 0. -1.
     200002    1    4    4    0    0  0.44979856644E+01  0.26827410480E+01  0.54889761682E+01  0.30944431388E+02  0.30000000000E+02 0. -1.
     200000    1    3    3    0    0  0.51493105529E+03  0.20728534158E+03 -0.10383187139E+04  0.12791508731E+04  0.50000000000E+03 0.  1.
    -200001    1    1    2    0    0 -0.58049438424E+03 -0.27650423292E+03 -0.48854804135E+03  0.10686943013E+04  0.70000000000E+03 0. -1.
<mgrwt>
<rscale>  0 0.20164609E+04</rscale>
<asrwt>0</asrwt>
<pdfrwt beam="1">  1        1 0.33468302E+00 0.20164609E+04</pdfrwt>
<pdfrwt beam="2">  1       -1 0.61985462E-01 0.20164609E+04</pdfrwt>
<totfact> 0.55568597E+00</totfact>
</mgrwt>
</event>
<event>
 8    1  0.3893101E-010  0.1693398E+04  0.7818608E-02  0.8765139E-01
         -1   -1    0    0    0  501 -0.00000000000E+00  0.00000000000E+00  0.60713073431E+03  0.60713073433E+03  0.50400000000E-02 0. -1.
          1   -1    0    0  501    0  0.00000000000E+00 -0.00000000000E+00 -0.11807987338E+04  0.11807987338E+04  0.50400000000E-02 0.  1.
     200001    2    1    2    0    0 -0.10399996337E+02 -0.13467813657E+03  0.19517768620E+03  0.73942098044E+03  0.70028758145E+03 0.  0.
    5000001    2    3    3    0    0 -0.18302343655E+02 -0.44646675004E+02  0.13273883077E+03  0.22749645296E+03  0.17834443513E+03 0.  0.
        -11    1    4    4    0    0 -0.56226932207E+02  0.15420390394E+02  0.13839720160E+03  0.15017670178E+03  0.51100000000E-03 0. -1.
     200002    1    4    4    0    0  0.37924588552E+02 -0.60067065398E+02 -0.56583708290E+01  0.77319751182E+02  0.30000000000E+02 0. -1.
     200000    1    3    3    0    0  0.79023473181E+01 -0.90031461562E+02  0.62438855424E+02  0.51192452748E+03  0.50000000000E+03 0. -1.
    -200001    1    1    2    0    0  0.10399996337E+02  0.13467813657E+03 -0.76884568568E+03  0.10485084877E+04  0.70000000000E+03 0.  1.
<mgrwt>
<rscale>  0 0.16933980E+04</rscale>
<asrwt>0</asrwt>
<pdfrwt beam="1">  1        1 0.16868553E+00 0.16933980E+04</pdfrwt>
<pdfrwt beam="2">  1       -1 0.86732962E-01 0.16933980E+04</pdfrwt>
<totfact> 0.15968109E+01</totfact>
</mgrwt>
</event>
<event>
 8    1  0.3893101E-010  0.1625795E+04  0.7818608E-02  0.8804856E-01
         -1   -1    0    0    0  501 -0.00000000000E+00  0.00000000000E+00  0.11332898448E+04  0.11332898448E+04  0.50400000000E-02 0.  1.
          1   -1    0    0  501    0  0.00000000000E+00 -0.00000000000E+00 -0.58308318741E+03  0.58308318744E+03  0.50400000000E-02 0. -1.
     200001    2    1    2    0    0  0.36659079033E+03  0.21085140521E+02  0.47695540572E+03  0.92252220457E+03  0.69909038627E+03 0.  0.
    5000001    2    3    3    0    0  0.15912759567E+03 -0.66771041946E+02  0.13898254638E+03  0.27832864702E+03  0.16843611195E+03 0.  0.
        -11    1    4    4    0    0  0.12531352266E+03  0.30047039872E+02  0.46454065016E+02  0.13698278623E+03  0.51100000000E-03 0. -1.
     200002    1    4    4    0    0  0.33814073014E+02 -0.96818081817E+02  0.92528481363E+02  0.14134586079E+03  0.30000000000E+02 0. -1.
     200000    1    3    3    0    0  0.20746319466E+03  0.87856182467E+02  0.33797285934E+03  0.64419355755E+03  0.50000000000E+03 0. -1.
    -200001    1    1    2    0    0 -0.36659079033E+03 -0.21085140521E+02  0.73251251651E+02  0.79385082766E+03  0.70000000000E+03 0. -1.
<mgrwt>
<rscale>  0 0.16257949E+04</rscale>
<asrwt>0</asrwt>
<pdfrwt beam="1">  1        1 0.83297599E-01 0.16257949E+04</pdfrwt>
<pdfrwt beam="2">  1       -1 0.16189855E+00 0.16257949E+04</pdfrwt>
<totfact> 0.10767786E+01</totfact>
</mgrwt>
</event>
<event>
 8    1  0.3893101E-010  0.1687064E+04  0.7818608E-02  0.8768777E-01
          1   -1    0    0  501    0  0.00000000000E+00  0.00000000000E+00  0.36978715727E+03  0.36978715730E+03  0.50400000000E-02 0.  1.
         -1   -1    0    0    0  501 -0.00000000000E+00 -0.00000000000E+00 -0.19242057299E+04  0.19242057299E+04  0.50400000000E-02 0. -1.
     200001    2    1    2    0    0 -0.23216646940E+02 -0.28658983956E+03 -0.12828865442E+04  0.14900013504E+04  0.70116573647E+03 0.  0.
    5000001    2    3    3    0    0 -0.19130170682E+02 -0.11760162138E+03 -0.42566826041E+03  0.48332518436E+03  0.19548314794E+03 0.  0.
        -11    1    4    4    0    0 -0.49671307259E+02 -0.42698340509E+02 -0.38020333151E+03  0.38580430316E+03  0.51100000000E-03 0. -1.
     200002    1    4    4    0    0  0.30541136577E+02 -0.74903280872E+02 -0.45464928901E+02  0.97520881193E+02  0.30000000000E+02 0. -1.
     200000    1    3    3    0    0 -0.40864762574E+01 -0.16898821818E+03 -0.85721828378E+03  0.10066761660E+04  0.50000000000E+03 0. -1.
    -200001    1    1    2    0    0  0.23216646940E+02  0.28658983956E+03 -0.27153202844E+03  0.80399153684E+03  0.70000000000E+03 0.  1.
<mgrwt>
<rscale>  0 0.16870644E+04</rscale>
<asrwt>0</asrwt>
<pdfrwt beam="1">  1        1 0.52826738E-01 0.16870644E+04</pdfrwt>
<pdfrwt beam="2">  1       -1 0.27488653E+00 0.16870644E+04</pdfrwt>
<totfact> 0.33716196E+00</totfact>
</mgrwt>
</event>
<event>
 8    1  0.3893101E-010  0.1695008E+04  0.7818608E-02  0.8764216E-01
          1   -1    0    0  501    0  0.00000000000E+00  0.00000000000E+00  0.37651013805E+04  0.37651013805E+04  0.50400000000E-02 0.  1.
         -1   -1    0    0    0  501 -0.00000000000E+00 -0.00000000000E+00 -0.19076866821E+03  0.19076866828E+03  0.50400000000E-02 0. -1.
     200001    2    1    2    0    0  0.34936675754E+03  0.26126634310E+03  0.22427977686E+04  0.23895678623E+04  0.69969672292E+03 0.  0.
    5000001    2    3    3    0    0  0.30203996968E+02 -0.73824915250E+02  0.44913092656E+03  0.47087253484E+03  0.11679021929E+03 0.  0.
        -11    1    4    4    0    0 -0.16822178414E+02 -0.12385048596E+02  0.29570986261E+03  0.29644678774E+03  0.51100000000E-03 0. -1.
     200002    1    4    4    0    0  0.47026175382E+02 -0.61439866654E+02  0.15342106396E+03  0.17442574710E+03  0.30000000000E+02 0. -1.
     200000    1    3    3    0    0  0.31916276058E+03  0.33509125835E+03  0.17936668421E+04  0.19186953274E+04  0.50000000000E+03 0. -1.
    -200001    1    1    2    0    0 -0.34936675754E+03 -0.26126634310E+03  0.13315349436E+04  0.15663021865E+04  0.70000000000E+03 0.  1.
<mgrwt>
<rscale>  0 0.16950084E+04</rscale>
<asrwt>0</asrwt>
<pdfrwt beam="1">  1        1 0.53787160E+00 0.16950084E+04</pdfrwt>
<pdfrwt beam="2">  1       -1 0.27252668E-01 0.16950084E+04</pdfrwt>
<totfact> 0.29193809E+00</totfact>
</mgrwt>
</event>
<event>
 8    1  0.3893101E-010  0.1426165E+04  0.7818608E-02  0.8935094E-01
          1   -1    0    0  501    0  0.00000000000E+00  0.00000000000E+00  0.24609379438E+04  0.24609379438E+04  0.50400000000E-02 0.  1.
         -1   -1    0    0    0  501 -0.00000000000E+00 -0.00000000000E+00 -0.20662300613E+03  0.20662300619E+03  0.50400000000E-02 0. -1.
     200001    2    1    2    0    0 -0.91925958592E+02 -0.21115978912E+02  0.12781342536E+04  0.14626439427E+04  0.70484315035E+03 0.  0.
    5000001    2    3    3    0    0 -0.95308562849E+02 -0.33656457300E+02  0.46491079744E+03  0.50791827783E+03  0.17782701736E+03 0.  0.
        -11    1    4    4    0    0 -0.10020024425E+03 -0.16972088070E+01  0.10438213652E+03  0.14470176188E+03  0.51100000000E-03 0. -1.
     200002    1    4    4    0    0  0.48916814037E+01 -0.31959248493E+02  0.36052866092E+03  0.36321651595E+03  0.30000000000E+02 0. -1.
     200000    1    3    3    0    0  0.33826042564E+01  0.12540478388E+02  0.81322345613E+03  0.95472566489E+03  0.50000000000E+03 0.  1.
    -200001    1    1    2    0    0  0.91925958592E+02  0.21115978912E+02  0.97618068412E+03  0.12049170073E+04  0.70000000000E+03 0. -1.
<mgrwt>
<rscale>  0 0.14261646E+04</rscale>
<asrwt>0</asrwt>
<pdfrwt beam="1">  1        1 0.35156253E+00 0.14261646E+04</pdfrwt>
<pdfrwt beam="2">  1       -1 0.29517575E-01 0.14261646E+04</pdfrwt>
<totfact> 0.19520921E+01</totfact>
</mgrwt>
</event>
<event>
 8    1  0.3893101E-010  0.1666667E+04  0.7818608E-02  0.8780607E-01
         -1   -1    0    0    0  501 -0.00000000000E+00  0.00000000000E+00  0.86370331281E+03  0.86370331282E+03  0.50400000000E-02 0. -1.
          1   -1    0    0  501    0  0.00000000000E+00 -0.00000000000E+00 -0.80403129135E+03  0.80403129137E+03  0.50400000000E-02 0.  1.
     200001    2    1    2    0    0  0.37492003208E+03  0.64757438115E+02  0.27319790097E+03  0.84290016173E+03  0.70077459523E+03 0.  0.
    5000001    2    3    3    0    0  0.14391916241E+03  0.54111848794E+02  0.98987812318E+02  0.26512521822E+03  0.19196868719E+03 0.  0.
        -11    1    4    4    0    0  0.88956817006E+01  0.99125656699E+02  0.51855985018E+02  0.11222331376E+03  0.51100000000E-03 0. -1.
     200002    1    4    4    0    0  0.13502348071E+03 -0.45013807905E+02  0.47131827301E+02  0.15290190446E+03  0.30000000000E+02 0. -1.
     200000    1    3    3    0    0  0.23100086967E+03  0.10645589320E+02  0.17421008865E+03  0.57777494351E+03  0.50000000000E+03 0. -1.
    -200001    1    1    2    0    0 -0.37492003208E+03 -0.64757438115E+02 -0.21352587951E+03  0.82483444246E+03  0.70000000000E+03 0.  1.
<mgrwt>
<rscale>  0 0.16666667E+04</rscale>
<asrwt>0</asrwt>
<pdfrwt beam="1">  1        1 0.11486161E+00 0.16666667E+04</pdfrwt>
<pdfrwt beam="2">  1       -1 0.12338619E+00 0.16666667E+04</pdfrwt>
<totfact> 0.13653574E+01</totfact>
</mgrwt>
</event>
<event>
 8    1  0.3893101E-010  0.1946936E+04  0.7818608E-02  0.8631840E-01
         -1   -1    0    0    0  501 -0.00000000000E+00  0.00000000000E+00  0.13057669162E+04  0.13057669162E+04  0.50400000000E-02 0.  1.
          1   -1    0    0  501    0  0.00000000000E+00 -0.00000000000E+00 -0.72573405605E+03  0.72573405607E+03  0.50400000000E-02 0. -1.
     200001    2    1    2    0    0  0.66170302242E+03 -0.13935164112E+03  0.28188658151E+03  0.10135810475E+04  0.70044037957E+03 0.  0.
    5000001    2    3    3    0    0  0.25897291113E+03 -0.88981822292E+01  0.27300221930E+02  0.31071273700E+03  0.16926593416E+03 0.  0.
        -11    1    4    4    0    0  0.13627163194E+03 -0.80729317887E+02  0.44151241906E+02  0.16442783402E+03  0.51100000000E-03 0. -1.
     200002    1    4    4    0    0  0.12270127919E+03  0.71831135658E+02 -0.16851019976E+02  0.14628490298E+03  0.30000000000E+02 0. -1.
     200000    1    3    3    0    0  0.40273011128E+03 -0.13045345889E+03  0.25458635958E+03  0.70286831053E+03  0.50000000000E+03 0. -1.
    -200001    1    1    2    0    0 -0.66170302242E+03  0.13935164112E+03  0.29814627865E+03  0.10179199248E+04  0.70000000000E+03 0.  1.
<mgrwt>
<rscale>  0 0.19469356E+04</rscale>
<asrwt>0</asrwt>
<pdfrwt beam="1">  1        1 0.10367630E+00 0.19469356E+04</pdfrwt>
<pdfrwt beam="2">  1       -1 0.18653813E+00 0.19469356E+04</pdfrwt>
<totfact> 0.50469261E+00</totfact>
</mgrwt>
</event>
<event>
 8    1  0.3893101E-010  0.1432169E+04  0.7818608E-02  0.8930857E-01
          1   -1    0    0  501    0  0.00000000000E+00  0.00000000000E+00  0.12683041062E+04  0.12683041062E+04  0.50400000000E-02 0.  1.
         -1   -1    0    0    0  501 -0.00000000000E+00 -0.00000000000E+00 -0.40430113931E+03  0.40430113934E+03  0.50400000000E-02 0. -1.
     200001    2    1    2    0    0 -0.10226131748E+03  0.77917728933E+02  0.35525243349E+03  0.79775917064E+03  0.70262853152E+03 0.  0.
    5000001    2    3    3    0    0  0.73035868919E+02  0.33463029462E-01 -0.31348505699E+02  0.13726288101E+03  0.11191126139E+03 0.  0.
        -11    1    4    4    0    0  0.10199218121E+02 -0.75901483937E+01  0.37165300970E+02  0.39279689400E+02  0.51100000000E-03 0. -1.
     200002    1    4    4    0    0  0.62836650798E+02  0.76236114232E+01 -0.68513806668E+02  0.97983191614E+02  0.30000000000E+02 0. -1.
     200000    1    3    3    0    0 -0.17529718640E+03  0.77884265903E+02  0.38660093918E+03  0.66049628963E+03  0.50000000000E+03 0.  1.
    -200001    1    1    2    0    0  0.10226131748E+03 -0.77917728933E+02  0.50875053338E+03  0.87484607489E+03  0.70000000000E+03 0.  1.
<mgrwt>
<rscale>  0 0.14321687E+04</rscale>
<asrwt>0</asrwt>
<pdfrwt beam="1">  1        1 0.18118631E+00 0.14321687E+04</pdfrwt>
<pdfrwt beam="2">  1       -1 0.57757304E-01 0.14321687E+04</pdfrwt>
<totfact> 0.32829007E+01</totfact>
</mgrwt>
</event>
<event>
 8    1  0.3893101E-010  0.1527808E+04  0.7818608E-02  0.8866168E-01
          1   -1    0    0  501    0  0.00000000000E+00  0.00000000000E+00  0.51355529334E+03  0.51355529336E+03  0.50400000000E-02 0.  1.
         -1   -1    0    0    0  501 -0.00000000000E+00 -0.00000000000E+00 -0.11362934236E+04  0.11362934237E+04  0.50400000000E-02 0. -1.
     200001    2    1    2    0    0 -0.37630851900E+02  0.21817370441E+03 -0.84091642841E+02  0.73926874537E+03  0.70030780887E+03 0.  0.
    5000001    2    3    3    0    0 -0.11513248468E+02 -0.75596215480E+02 -0.32232150895E+02  0.15645462239E+03  0.13263406286E+03 0.  0.
        -11    1    4    4    0    0 -0.67285335854E+02 -0.45358092661E+02 -0.54102006112E+01  0.81326153614E+02  0.51100000000E-03 0. -1.
     200002    1    4    4    0    0  0.55772087386E+02 -0.30238122819E+02 -0.26821950284E+02  0.75128468772E+02  0.30000000000E+02 0. -1.
     200000    1    3    3    0    0 -0.26117603432E+02  0.29376991989E+03 -0.51859491946E+02  0.58281412298E+03  0.50000000000E+03 0. -1.
    -200001    1    1    2    0    0  0.37630851900E+02 -0.21817370441E+03 -0.53864648746E+03  0.91057997165E+03  0.70000000000E+03 0. -1.
<mgrwt>
<rscale>  0 0.15278082E+04</rscale>
<asrwt>0</asrwt>
<pdfrwt beam="1">  1        1 0.73365042E-01 0.15278082E+04</pdfrwt>
<pdfrwt beam="2">  1       -1 0.16232763E+00 0.15278082E+04</pdfrwt>
<totfact> 0.12845066E+01</totfact>
</mgrwt>
</event>
<event>
 8    1  0.3893101E-010  0.1585606E+04  0.7818608E-02  0.8829440E-01
          1   -1    0    0  501    0  0.00000000000E+00  0.00000000000E+00  0.99427042358E+03  0.99427042359E+03  0.50400000000E-02 0.  1.
         -1   -1    0    0    0  501 -0.00000000000E+00 -0.00000000000E+00 -0.63215854605E+03  0.63215854607E+03  0.50400000000E-02 0. -1.
     200001    2    1    2    0    0  0.80886148118E+02 -0.36174799864E+03  0.21240266412E+03  0.82031667472E+03  0.70028592134E+03 0.  0.
    5000001    2    3    3    0    0  0.34212101546E+02 -0.37638373485E+02  0.20787476816E+02  0.19266876726E+03  0.18466732151E+03 0.  0.
        -11    1    4    4    0    0 -0.16350085631E+02 -0.92990255004E+02 -0.27805993532E+02  0.98426043822E+02  0.51100000000E-03 0. -1.
     200002    1    4    4    0    0  0.50562187177E+02  0.55351881520E+02  0.48593470347E+02  0.94242723434E+02  0.30000000000E+02 0. -1.
     200000    1    3    3    0    0  0.46674046573E+02 -0.32410962516E+03  0.19161518730E+03  0.62764790747E+03  0.50000000000E+03 0.  1.
    -200001    1    1    2    0    0 -0.80886148118E+02  0.36174799864E+03  0.14970921341E+03  0.80611229494E+03  0.70000000000E+03 0. -1.
<mgrwt>
<rscale>  0 0.15856059E+04</rscale>
<asrwt>0</asrwt>
<pdfrwt beam="1">  1        1 0.14203863E+00 0.15856059E+04</pdfrwt>
<pdfrwt beam="2">  1       -1 0.90308363E-01 0.15856059E+04</pdfrwt>
<totfact> 0.20123818E+01</totfact>
</mgrwt>
</event>
<event>
 8    1  0.3893101E-010  0.1507645E+04  0.7818608E-02  0.8879385E-01
         -1   -1    0    0    0  501 -0.00000000000E+00  0.00000000000E+00  0.16813471552E+03  0.16813471560E+03  0.50400000000E-02 0. -1.
          1   -1    0    0  501    0  0.00000000000E+00 -0.00000000000E+00 -0.33797206381E+04  0.33797206381E+04  0.50400000000E-02 0.  1.
     200001    2    1    2    0    0 -0.26894577144E+03 -0.74252400133E+02 -0.15885304404E+04  0.17583989153E+04  0.70049449547E+03 0.  0.
    5000001    2    3    3    0    0 -0.70875039123E+02 -0.83428996711E+01 -0.45312140300E+03  0.50033303483E+03  0.19980306491E+03 0.  0.
        -11    1    4    4    0    0 -0.10029787444E+03 -0.38603786272E+02 -0.11169523309E+03  0.15500239039E+03  0.51100000000E-03 0. -1.
     200002    1    4    4    0    0  0.29422835313E+02  0.30260886601E+02 -0.34142616991E+03  0.34533064445E+03  0.30000000000E+02 0. -1.
     200000    1    3    3    0    0 -0.19807073232E+03 -0.65909500462E+02 -0.11354090374E+04  0.12580658805E+04  0.50000000000E+03 0.  1.
    -200001    1    1    2    0    0  0.26894577144E+03  0.74252400133E+02 -0.16230554822E+04  0.17894564385E+04  0.70000000000E+03 0.  1.
<mgrwt>
<rscale>  0 0.15076450E+04</rscale>
<asrwt>0</asrwt>
<pdfrwt beam="1">  1        1 0.48281719E+00 0.15076450E+04</pdfrwt>
<pdfrwt beam="2">  1       -1 0.24019247E-01 0.15076450E+04</pdfrwt>
<totfact> 0.69148112E+00</totfact>
</mgrwt>
</event>
<event>
 8    1  0.3893101E-010  0.1508421E+04  0.7818608E-02  0.8878872E-01
          1   -1    0    0  501    0  0.00000000000E+00  0.00000000000E+00  0.19751306367E+04  0.19751306367E+04  0.50400000000E-02 0. -1.
         -1   -1    0    0    0  501 -0.00000000000E+00 -0.00000000000E+00 -0.28799797438E+03  0.28799797443E+03  0.50400000000E-02 0.  1.
     200001    2    1    2    0    0 -0.10663485402E+03  0.13166047359E+03  0.50700582357E+03  0.88059295954E+03  0.69977395125E+03 0.  0.
    5000001    2    3    3    0    0 -0.10051638675E+03  0.62639208454E+02  0.74940026756E+02  0.21615167284E+03  0.16455492585E+03 0.  0.
        -11    1    4    4    0    0 -0.72345041903E+00  0.36159006521E+02 -0.43247267001E+02  0.56376619591E+02  0.51100000000E-03 0. -1.
     200002    1    4    4    0    0 -0.99792936335E+02  0.26480201932E+02  0.11818729376E+03  0.15977505325E+03  0.30000000000E+02 0. -1.
     200000    1    3    3    0    0 -0.61184672711E+01  0.69021265136E+02  0.43206579681E+03  0.66444128669E+03  0.50000000000E+03 0.  1.
    -200001    1    1    2    0    0  0.10663485402E+03 -0.13166047359E+03  0.11801268387E+04  0.13825356516E+04  0.70000000000E+03 0. -1.
<mgrwt>
<rscale>  0 0.15084212E+04</rscale>
<asrwt>0</asrwt>
<pdfrwt beam="1">  1        1 0.28216152E+00 0.15084212E+04</pdfrwt>
<pdfrwt beam="2">  1       -1 0.41142567E-01 0.15084212E+04</pdfrwt>
<totfact> 0.21633195E+01</totfact>
</mgrwt>
</event>
<event>
 8    1  0.3893101E-010  0.1455332E+04  0.7818608E-02  0.8914712E-01
          1   -1    0    0  501    0  0.00000000000E+00  0.00000000000E+00  0.30321978364E+03  0.30321978368E+03  0.50400000000E-02 0.  1.
         -1   -1    0    0    0  501 -0.00000000000E+00 -0.00000000000E+00 -0.17462516709E+04  0.17462516709E+04  0.50400000000E-02 0. -1.
     200001    2    1    2    0    0 -0.79675638031E+02  0.10728886929E+03 -0.51449303413E+03  0.87898287688E+03  0.70003478979E+03 0.  0.
    5000001    2    3    3    0    0 -0.44751603588E+02  0.11228628080E+03 -0.14352258009E+03  0.25539347666E+03  0.17325178799E+03 0.  0.
        -11    1    4    4    0    0 -0.91216469064E+02  0.14139483929E+02 -0.34274336932E+02  0.98463695882E+02  0.51100000000E-03 0. -1.
     200002    1    4    4    0    0  0.46464865476E+02  0.98146796871E+02 -0.10924824316E+03  0.15692978077E+03  0.30000000000E+02 0. -1.
     200000    1    3    3    0    0 -0.34924034443E+02 -0.49974115098E+01 -0.37097045404E+03  0.62358940022E+03  0.50000000000E+03 0.  1.
    -200001    1    1    2    0    0  0.79675638031E+02 -0.10728886929E+03 -0.92853885314E+03  0.11704885777E+04  0.70000000000E+03 0. -1.
<mgrwt>
<rscale>  0 0.14553323E+04</rscale>
<asrwt>0</asrwt>
<pdfrwt beam="1">  1        1 0.43317113E-01 0.14553323E+04</pdfrwt>
<pdfrwt beam="2">  1       -1 0.24946452E+00 0.14553323E+04</pdfrwt>
<totfact> 0.65137548E+00</totfact>
</mgrwt>
</event>
<event>
 8    1  0.3893101E-010  0.1594719E+04  0.7818608E-02  0.8823799E-01
          1   -1    0    0  501    0  0.00000000000E+00  0.00000000000E+00  0.87531805759E+03  0.87531805760E+03  0.50400000000E-02 0.  1.
         -1   -1    0    0    0  501 -0.00000000000E+00 -0.00000000000E+00 -0.72634452844E+03  0.72634452846E+03  0.50400000000E-02 0. -1.
     200001    2    1    2    0    0  0.38005684225E+03 -0.21446057299E+02  0.50582485387E+02  0.79880273888E+03  0.70044563751E+03 0.  0.
    5000001    2    3    3    0    0  0.13287153681E+03 -0.13329185465E+03 -0.27736344362E+02  0.22456942680E+03  0.11933381267E+03 0.  0.
        -11    1    4    4    0    0  0.10681597386E+03 -0.92646932675E+02 -0.66007423922E+02  0.15604514225E+03  0.51100000000E-03 0. -1.
     200002    1    4    4    0    0  0.26055562946E+02 -0.40644921977E+02  0.38271079560E+02  0.68524284554E+02  0.30000000000E+02 0. -1.
     200000    1    3    3    0    0  0.24718530544E+03  0.11184579735E+03  0.78318829749E+02  0.57423331208E+03  0.50000000000E+03 0. -1.
    -200001    1    1    2    0    0 -0.38005684225E+03  0.21446057299E+02  0.98391043758E+02  0.80285984717E+03  0.70000000000E+03 0.  1.
<mgrwt>
<rscale>  0 0.15947194E+04</rscale>
<asrwt>0</asrwt>
<pdfrwt beam="1">  1        1 0.12504544E+00 0.15947194E+04</pdfrwt>
<pdfrwt beam="2">  1       -1 0.10376350E+00 0.15947194E+04</pdfrwt>
<totfact> 0.18164633E+01</totfact>
</mgrwt>
</event>
<event>
 8    1  0.3893101E-010  0.2044928E+04  0.7818608E-02  0.8585899E-01
          1   -1    0    0  501    0  0.00000000000E+00  0.00000000000E+00  0.71279425903E+03  0.71279425905E+03  0.50400000000E-02 0.  1.
         -1   -1    0    0    0  501 -0.00000000000E+00 -0.00000000000E+00 -0.14666683995E+04  0.14666683996E+04  0.50400000000E-02 0. -1.
     200001    2    1    2    0    0 -0.48915396619E+03 -0.23078442349E+03 -0.92381578553E+03  0.12786778811E+04  0.69932000195E+03 0.  0.
    5000001    2    3    3    0    0 -0.20040630218E+03 -0.12817409760E+03 -0.19377633456E+03  0.34226894665E+03  0.15168216361E+03 0.  0.
        -11    1    4    4    0    0 -0.52832219577E+02 -0.48767177791E+02 -0.15021993089E+03  0.16653981114E+03  0.51100000000E-03 0. -1.
     200002    1    4    4    0    0 -0.14757408260E+03 -0.79406919809E+02 -0.43556403669E+02  0.17572913552E+03  0.30000000000E+02 0.  1.
     200000    1    3    3    0    0 -0.28874766401E+03 -0.10261032589E+03 -0.73003945097E+03  0.93640893440E+03  0.50000000000E+03 0. -1.
    -200001    1    1    2    0    0  0.48915396619E+03  0.23078442349E+03  0.16994164501E+03  0.90078477755E+03  0.70000000000E+03 0. -1.
<mgrwt>
<rscale>  0 0.20449282E+04</rscale>
<asrwt>0</asrwt>
<pdfrwt beam="1">  1        1 0.10182775E+00 0.20449282E+04</pdfrwt>
<pdfrwt beam="2">  1       -1 0.20952406E+00 0.20449282E+04</pdfrwt>
<totfact> 0.35634169E+00</totfact>
</mgrwt>
</event>
<event>
 8    1  0.3893101E-010  0.1441525E+04  0.7818608E-02  0.8924297E-01
         -1   -1    0    0    0  501 -0.00000000000E+00  0.00000000000E+00  0.70297816569E+03  0.70297816571E+03  0.50400000000E-02 0. -1.
          1   -1    0    0  501    0  0.00000000000E+00 -0.00000000000E+00 -0.73899633993E+03  0.73899633994E+03  0.50400000000E-02 0.  1.
     200001    2    1    2    0    0 -0.38523645056E+02 -0.13252901542E+03 -0.12129191494E+03  0.72342066493E+03  0.69969830546E+03 0.  0.
    5000001    2    3    3    0    0 -0.56727061520E+02  0.36024258210E+02  0.31208885486E+02  0.17387715933E+03  0.15730087513E+03 0.  0.
        -11    1    4    4    0    0 -0.10523249691E+03  0.36400906232E+02  0.34987566893E+02  0.11671775451E+03  0.51100000000E-03 0. -1.
     200002    1    4    4    0    0  0.48505435391E+02 -0.37664802175E+00 -0.37786814077E+01  0.57159404820E+02  0.30000000000E+02 0. -1.
     200000    1    3    3    0    0  0.18203416464E+02 -0.16855327363E+03 -0.15250080042E+03  0.54954350560E+03  0.50000000000E+03 0.  1.
    -200001    1    1    2    0    0  0.38523645056E+02  0.13252901542E+03  0.85273740701E+02  0.71855384072E+03  0.70000000000E+03 0. -1.
<mgrwt>
<rscale>  0 0.14415246E+04</rscale>
<asrwt>0</asrwt>
<pdfrwt beam="1">  1        1 0.10557091E+00 0.14415246E+04</pdfrwt>
<pdfrwt beam="2">  1       -1 0.10042545E+00 0.14415246E+04</pdfrwt>
<totfact> 0.25829937E+01</totfact>
</mgrwt>
</event>
<event>
 8    1  0.3893101E-010  0.1890564E+04  0.7818608E-02  0.8659568E-01
         -1   -1    0    0    0  501 -0.00000000000E+00  0.00000000000E+00  0.41192692755E+03  0.41192692758E+03  0.50400000000E-02 0. -1.
          1   -1    0    0  501    0  0.00000000000E+00 -0.00000000000E+00 -0.21692147663E+04  0.21692147663E+04  0.50400000000E-02 0.  1.
     200001    2    1    2    0    0 -0.37166749151E+03 -0.11073681787E+03 -0.19199585366E+03  0.82314898468E+03  0.70022316162E+03 0.  0.
    5000001    2    3    3    0    0 -0.19943297739E+03 -0.93678835441E+02 -0.62319212949E+02  0.27838138857E+03  0.15831385447E+03 0.  0.
        -11    1    4    4    0    0 -0.35951153652E+02  0.30078564796E+02 -0.53272660413E+02  0.70959015332E+02  0.51100000000E-03 0. -1.
     200002    1    4    4    0    0 -0.16348182374E+03 -0.12375740024E+03 -0.90465525357E+01  0.20742237324E+03  0.30000000000E+02 0. -1.
     200000    1    3    3    0    0 -0.17223451412E+03 -0.17057982427E+02 -0.12967664071E+03  0.54476759610E+03  0.50000000000E+03 0. -1.
    -200001    1    1    2    0    0  0.37166749151E+03  0.11073681787E+03 -0.15652919851E+04  0.17579927092E+04  0.70000000000E+03 0. -1.
<mgrwt>
<rscale>  0 0.18905639E+04</rscale>
<asrwt>0</asrwt>
<pdfrwt beam="1">  1        1 0.30988782E+00 0.18905639E+04</pdfrwt>
<pdfrwt beam="2">  1       -1 0.58846705E-01 0.18905639E+04</pdfrwt>
<totfact> 0.80121644E+00</totfact>
</mgrwt>
</event>
<event>
 8    1  0.3893101E-010  0.1473566E+04  0.7818608E-02  0.8902224E-01
         -1   -1    0    0    0  501 -0.00000000000E+00  0.00000000000E+00  0.56465667281E+03  0.56465667283E+03  0.50400000000E-02 0. -1.
          1   -1    0    0  501    0  0.00000000000E+00 -0.00000000000E+00 -0.96137940744E+03  0.96137940746E+03  0.50400000000E-02 0.  1.
     200001    2    1    2    0    0 -0.13802926989E+02 -0.12642744826E+03 -0.39635344372E+03  0.81457662477E+03  0.70018897793E+03 0.  0.
    5000001    2    3    3    0    0 -0.62059994358E+01 -0.11750248994E+03 -0.16203096659E+03  0.26226838522E+03  0.16936741770E+03 0.  0.
        -11    1    4    4    0    0  0.62469798369E+01  0.40743380665E+02 -0.15100226758E+02  0.43898344769E+02  0.51100000000E-03 0. -1.
     200002    1    4    4    0    0 -0.12452979273E+02 -0.15824587061E+03 -0.14693073983E+03  0.21837004045E+03  0.30000000000E+02 0. -1.
     200000    1    3    3    0    0 -0.75969275528E+01 -0.89249583113E+01 -0.23432247712E+03  0.55230823955E+03  0.50000000000E+03 0.  1.
    -200001    1    1    2    0    0  0.13802926989E+02  0.12642744826E+03 -0.36929092069E+00  0.71145945552E+03  0.70000000000E+03 0. -1.
<mgrwt>
<rscale>  0 0.14735661E+04</rscale>
<asrwt>0</asrwt>
<pdfrwt beam="1">  1        1 0.13733992E+00 0.14735661E+04</pdfrwt>
<pdfrwt beam="2">  1       -1 0.80665239E-01 0.14735661E+04</pdfrwt>
<totfact> 0.27483772E+01</totfact>
</mgrwt>
</event>
<event>
 8    1  0.3893101E-010  0.1459826E+04  0.7818608E-02  0.8911617E-01
          1   -1    0    0  501    0  0.00000000000E+00  0.00000000000E+00  0.56800083648E+03  0.56800083650E+03  0.50400000000E-02 0. -1.
         -1   -1    0    0    0  501 -0.00000000000E+00 -0.00000000000E+00 -0.93797888911E+03  0.93797888912E+03  0.50400000000E-02 0.  1.
     200001    2    1    2    0    0 -0.18721534720E+03  0.57309040400E+02 -0.25971582035E+03  0.77079833834E+03  0.69881604068E+03 0.  0.
    5000001    2    3    3    0    0 -0.11831838576E+03  0.76330332851E+02 -0.10456391390E+03  0.24242279487E+03  0.16736080563E+03 0.  0.
        -11    1    4    4    0    0 -0.10083073906E+03  0.18884735691E+02 -0.13430742945E+03  0.16900283071E+03  0.51100000000E-03 0. -1.
     200002    1    4    4    0    0 -0.17487646707E+02  0.57445597161E+02  0.29743515550E+02  0.73419964163E+02  0.30000000000E+02 0. -1.
     200000    1    3    3    0    0 -0.68896961440E+02 -0.19021292452E+02 -0.15515190644E+03  0.52837554347E+03  0.50000000000E+03 0.  1.
    -200001    1    1    2    0    0  0.18721534720E+03 -0.57309040400E+02 -0.11026223228E+03  0.73518138728E+03  0.70000000000E+03 0.  1.
<mgrwt>
<rscale>  0 0.14598257E+04</rscale>
<asrwt>0</asrwt>
<pdfrwt beam="1">  1        1 0.81142977E-01 0.14598257E+04</pdfrwt>
<pdfrwt beam="2">  1       -1 0.13399698E+00 0.14598257E+04</pdfrwt>
<totfact> 0.18796668E+01</totfact>
</mgrwt>
</event>
<event>
 8    1  0.3893101E-010  0.2180096E+04  0.7818608E-02  0.8526759E-01
         -1   -1    0    0    0  501 -0.00000000000E+00  0.00000000000E+00  0.70703694093E+03  0.70703694095E+03  0.50400000000E-02 0. -1.
          1   -1    0    0  501    0  0.00000000000E+00 -0.00000000000E+00 -0.16805407437E+04  0.16805407437E+04  0.50400000000E-02 0.  1.
     200001    2    1    2    0    0 -0.30335689860E+03  0.65593289765E+03 -0.27414909232E+02  0.10065065176E+04  0.70002172715E+03 0.  0.
    5000001    2    3    3    0    0 -0.11430105028E+02  0.21441348394E+03 -0.10071544742E+03  0.27470489526E+03  0.13861958280E+03 0.  0.
        -11    1    4    4    0    0 -0.13929780776E+02  0.19328268625E+03 -0.12502671908E+03  0.23061638294E+03  0.51100000000E-03 0. -1.
     200002    1    4    4    0    0  0.24996757481E+01  0.21130797691E+02  0.24311271650E+02  0.44088512326E+02  0.30000000000E+02 0. -1.
     200000    1    3    3    0    0 -0.29192679358E+03  0.44151941372E+03  0.73300538193E+02  0.73180162230E+03  0.50000000000E+03 0. -1.
    -200001    1    1    2    0    0  0.30335689860E+03 -0.65593289765E+03 -0.94608889356E+03  0.13810711671E+04  0.70000000000E+03 0.  1.
<mgrwt>
<rscale>  0 0.21800958E+04</rscale>
<asrwt>0</asrwt>
<pdfrwt beam="1">  1        1 0.24007725E+00 0.21800958E+04</pdfrwt>
<pdfrwt beam="2">  1       -1 0.10100528E+00 0.21800958E+04</pdfrwt>
<totfact> 0.50782513E+00</totfact>
</mgrwt>
</event>
<event>
 8    1  0.3893101E-010  0.1632026E+04  0.7818608E-02  0.8801111E-01
         -1   -1    0    0    0  501 -0.00000000000E+00  0.00000000000E+00  0.79324727934E+03  0.79324727936E+03  0.50400000000E-02 0. -1.
          1   -1    0    0  501    0  0.00000000000E+00 -0.00000000000E+00 -0.83943202802E+03  0.83943202804E+03  0.50400000000E-02 0.  1.
     200001    2    1    2    0    0  0.38846594126E+03 -0.16055352759E+03  0.56461000910E+01  0.81452916248E+03  0.69766944562E+03 0.  0.
    5000001    2    3    3    0    0  0.79951032575E+02 -0.80161700386E+01 -0.33211064605E+02  0.20628663390E+03  0.18706890154E+03 0.  0.
        -11    1    4    4    0    0 -0.57344178095E+02  0.11505287003E+02 -0.26591779362E+02  0.64248339436E+02  0.51100000000E-03 0. -1.
     200002    1    4    4    0    0  0.13729521067E+03 -0.19521457042E+02 -0.66192852427E+01  0.14203829447E+03  0.30000000000E+02 0. -1.
     200000    1    3    3    0    0  0.30851490868E+03 -0.15253735755E+03  0.38857164696E+02  0.60824252858E+03  0.50000000000E+03 0. -1.
    -200001    1    1    2    0    0 -0.38846594126E+03  0.16055352759E+03 -0.51830848771E+02  0.81815014491E+03  0.70000000000E+03 0.  1.
<mgrwt>
<rscale>  0 0.16320259E+04</rscale>
<asrwt>0</asrwt>
<pdfrwt beam="1">  1        1 0.11991886E+00 0.16320259E+04</pdfrwt>
<pdfrwt beam="2">  1       -1 0.11332104E+00 0.16320259E+04</pdfrwt>
<totfact> 0.15737511E+01</totfact>
</mgrwt>
</event>
