<event>
 4    1  0.5280257E-005  0.4650861E+03  0.7818608E-02  0.1023316E+00
         -2   -1    0    0    0  501 -0.00000000000E+00  0.00000000000E+00  0.60689319223E+02  0.60689319276E+02  0.25500000000E-02 0. -1.
          2   -1    0    0  501    0  0.00000000000E+00 -0.00000000000E+00 -0.89103424020E+03  0.89103424021E+03  0.25500000000E-02 0.  1.
    5000001    1    1    2    0    0 -0.11541795873E+03  0.11352841145E+03 -0.46699196284E+03  0.52107245059E+03  0.16500000000E+03 0.  0.
   -5000001    1    1    2    0    0  0.11541795873E+03 -0.11352841145E+03 -0.36335295814E+03  0.43065110890E+03  0.16500000000E+03 0.  0.
<mgrwt>
<rscale>  0 0.46508606E+03</rscale>
<asrwt>0</asrwt>
<pdfrwt beam="1">  1        2 0.12729060E+00 0.46508606E+03</pdfrwt>
<pdfrwt beam="2">  1       -2 0.86699033E-02 0.46508606E+03</pdfrwt>
<totfact> 0.28436211E+03</totfact>
</mgrwt>
</event>
<event>
 4    1  0.5280257E-005  0.6371579E+03  0.7818608E-02  0.9831179E-01
         -2   -1    0    0    0  501 -0.00000000000E+00  0.00000000000E+00  0.12403523491E+03  0.12403523494E+03  0.25500000000E-02 0. -1.
          2   -1    0    0  501    0  0.00000000000E+00 -0.00000000000E+00 -0.81825582443E+03  0.81825582444E+03  0.25500000000E-02 0.  1.
    5000001    1    1    2    0    0 -0.32556073672E+02  0.20966305423E+03 -0.94184026763E+02  0.28480541627E+03  0.16500000000E+03 0.  0.
   -5000001    1    1    2    0    0  0.32556073672E+02 -0.20966305423E+03 -0.60003656276E+03  0.65748564310E+03  0.16500000000E+03 0.  0.
<mgrwt>
<rscale>  0 0.63715792E+03</rscale>
<asrwt>0</asrwt>
<pdfrwt beam="1">  1        2 0.11689369E+00 0.63715792E+03</pdfrwt>
<pdfrwt beam="2">  1       -2 0.17719320E-01 0.63715792E+03</pdfrwt>
<totfact> 0.97554005E+02</totfact>
</mgrwt>
</event>
<event>
 4    1  0.5280257E-005  0.6139605E+03  0.7818608E-02  0.9876858E-01
         -2   -1    0    0    0  501 -0.00000000000E+00  0.00000000000E+00  0.66875594468E+02  0.66875594517E+02  0.25500000000E-02 0. -1.
          2   -1    0    0  501    0  0.00000000000E+00 -0.00000000000E+00 -0.14091370120E+04  0.14091370120E+04  0.25500000000E-02 0.  1.
    5000001    1    1    2    0    0 -0.13965376531E+03  0.20643276480E+03 -0.83931721454E+03  0.89095232598E+03  0.16500000000E+03 0.  0.
   -5000001    1    1    2    0    0  0.13965376531E+03 -0.20643276480E+03 -0.50294420301E+03  0.58506028056E+03  0.16500000000E+03 0.  0.
<mgrwt>
<rscale>  0 0.61396050E+03</rscale>
<asrwt>0</asrwt>
<pdfrwt beam="1">  1        2 0.20130527E+00 0.61396050E+03</pdfrwt>
<pdfrwt beam="2">  1       -2 0.95536572E-02 0.61396050E+03</pdfrwt>
<totfact> 0.12239863E+03</totfact>
</mgrwt>
</event>
<event>
 4    1  0.5280257E-005  0.9249478E+03  0.7818608E-02  0.9394922E-01
          2   -1    0    0  501    0  0.00000000000E+00  0.00000000000E+00  0.10535924427E+04  0.10535924427E+04  0.25500000000E-02 0.  1.
         -2   -1    0    0    0  501 -0.00000000000E+00 -0.00000000000E+00 -0.20300271724E+03  0.20300271725E+03  0.25500000000E-02 0. -1.
    5000001    1    1    2    0    0 -0.25947145828E+03 -0.32841918578E+03  0.27977987424E+03  0.52979843080E+03  0.16500000000E+03 0.  0.
   -5000001    1    1    2    0    0  0.25947145828E+03  0.32841918578E+03  0.57080985124E+03  0.72679672917E+03  0.16500000000E+03 0.  0.
<mgrwt>
<rscale>  0 0.92494784E+03</rscale>
<asrwt>0</asrwt>
<pdfrwt beam="1">  1        2 0.15051321E+00 0.92494784E+03</pdfrwt>
<pdfrwt beam="2">  1       -2 0.29000388E-01 0.92494784E+03</pdfrwt>
<totfact> 0.28403851E+02</totfact>
</mgrwt>
</event>
<event>
 4    1  0.5280257E-005  0.5814557E+03  0.7818608E-02  0.9944644E-01
          2   -1    0    0  501    0  0.00000000000E+00  0.00000000000E+00  0.12574699756E+03  0.12574699759E+03  0.25500000000E-02 0.  1.
         -2   -1    0    0    0  501 -0.00000000000E+00 -0.00000000000E+00 -0.67216452876E+03  0.67216452876E+03  0.25500000000E-02 0. -1.
    5000001    1    1    2    0    0  0.97137706866E+02 -0.14973406118E+03 -0.54326408285E+02  0.24906300771E+03  0.16500000000E+03 0.  0.
   -5000001    1    1    2    0    0 -0.97137706866E+02  0.14973406118E+03 -0.49209112291E+03  0.54884851864E+03  0.16500000000E+03 0.  0.
<mgrwt>
<rscale>  0 0.58145566E+03</rscale>
<asrwt>0</asrwt>
<pdfrwt beam="1">  1        2 0.17963857E-01 0.58145566E+03</pdfrwt>
<pdfrwt beam="2">  1       -2 0.96023502E-01 0.58145566E+03</pdfrwt>
<totfact> 0.29663116E+02</totfact>
</mgrwt>
</event>
<event>
 4    1  0.5280257E-005  0.7170572E+03  0.7818608E-02  0.9688499E-01
          2   -1    0    0  501    0  0.00000000000E+00  0.00000000000E+00  0.11442292451E+04  0.11442292451E+04  0.25500000000E-02 0.  1.
         -2   -1    0    0    0  501 -0.00000000000E+00 -0.00000000000E+00 -0.11234002621E+03  0.11234002624E+03  0.25500000000E-02 0. -1.
    5000001    1    1    2    0    0 -0.26853811227E+03 -0.15838183289E+03  0.62842916489E+03  0.72065646324E+03  0.16500000000E+03 0.  0.
   -5000001    1    1    2    0    0  0.26853811227E+03  0.15838183289E+03  0.40346005404E+03  0.53591280815E+03  0.16500000000E+03 0.  0.
<mgrwt>
<rscale>  0 0.71705716E+03</rscale>
<asrwt>0</asrwt>
<pdfrwt beam="1">  1        2 0.16346131E+00 0.71705716E+03</pdfrwt>
<pdfrwt beam="2">  1       -2 0.16048576E-01 0.71705716E+03</pdfrwt>
<totfact> 0.72269894E+02</totfact>
</mgrwt>
</event>
<event>
 4    1  0.5280257E-005  0.3790485E+03  0.7818608E-02  0.1051286E+00
          2   -1    0    0  501    0  0.00000000000E+00  0.00000000000E+00  0.20161654353E+04  0.20161654353E+04  0.25500000000E-02 0.  1.
         -2   -1    0    0    0  501 -0.00000000000E+00 -0.00000000000E+00 -0.17815722605E+02  0.17815722787E+02  0.25500000000E-02 0. -1.
    5000001    1    1    2    0    0 -0.54012151442E+02 -0.67840823749E+02  0.81525624790E+03  0.83629387156E+03  0.16500000000E+03 0.  0.
   -5000001    1    1    2    0    0  0.54012151442E+02  0.67840823749E+02  0.11830934648E+04  0.11976872866E+04  0.16500000000E+03 0.  0.
<mgrwt>
<rscale>  0 0.37904852E+03</rscale>
<asrwt>0</asrwt>
<pdfrwt beam="1">  1        2 0.28802348E+00 0.37904852E+03</pdfrwt>
<pdfrwt beam="2">  1       -2 0.25451046E-02 0.37904852E+03</pdfrwt>
<totfact> 0.46924529E+03</totfact>
</mgrwt>
</event>
<event>
 4    1  0.5280257E-005  0.6102237E+03  0.7818608E-02  0.9884419E-01
         -2   -1    0    0    0  501 -0.00000000000E+00  0.00000000000E+00  0.68168270567E+02  0.68168270614E+02  0.25500000000E-02 0. -1.
          2   -1    0    0  501    0  0.00000000000E+00 -0.00000000000E+00 -0.13656388615E+04  0.13656388615E+04  0.25500000000E-02 0.  1.
    5000001    1    1    2    0    0 -0.75232685553E+02 -0.24492971935E+03 -0.61406593025E+03  0.68553080973E+03  0.16500000000E+03 0.  0.
   -5000001    1    1    2    0    0  0.75232685553E+02  0.24492971935E+03 -0.68340466065E+03  0.74827632235E+03  0.16500000000E+03 0.  0.
<mgrwt>
<rscale>  0 0.61022369E+03</rscale>
<asrwt>0</asrwt>
<pdfrwt beam="1">  1        2 0.19509125E+00 0.61022369E+03</pdfrwt>
<pdfrwt beam="2">  1       -2 0.97383252E-02 0.61022369E+03</pdfrwt>
<totfact> 0.12518933E+03</totfact>
</mgrwt>
</event>
<event>
 4    1  0.5280257E-005  0.4710678E+03  0.7818608E-02  0.1021619E+00
          2   -1    0    0  501    0  0.00000000000E+00  0.00000000000E+00  0.32483165177E+03  0.32483165178E+03  0.25500000000E-02 0.  1.
         -2   -1    0    0    0  501 -0.00000000000E+00 -0.00000000000E+00 -0.17078449800E+03  0.17078449802E+03  0.25500000000E-02 0. -1.
    5000001    1    1    2    0    0 -0.14292826944E+03  0.62212801752E+02  0.10880204486E+02  0.22724942631E+03  0.16500000000E+03 0.  0.
   -5000001    1    1    2    0    0  0.14292826944E+03 -0.62212801752E+02  0.14316694929E+03  0.26836672349E+03  0.16500000000E+03 0.  0.
<mgrwt>
<rscale>  0 0.47106777E+03</rscale>
<asrwt>0</asrwt>
<pdfrwt beam="1">  1        2 0.46404521E-01 0.47106777E+03</pdfrwt>
<pdfrwt beam="2">  1       -2 0.24397786E-01 0.47106777E+03</pdfrwt>
<totfact> 0.16265767E+03</totfact>
</mgrwt>
</event>
<event>
 4    1  0.5280257E-005  0.4522288E+03  0.7818608E-02  0.1027059E+00
          2   -1    0    0  501    0  0.00000000000E+00  0.00000000000E+00  0.11019559601E+04  0.11019559601E+04  0.25500000000E-02 0.  1.
         -2   -1    0    0    0  501 -0.00000000000E+00 -0.00000000000E+00 -0.46397253015E+02  0.46397253085E+02  0.25500000000E-02 0. -1.
    5000001    1    1    2    0    0  0.15439883036E+03 -0.37184324965E+01  0.50984090757E+03  0.55768770525E+03  0.16500000000E+03 0.  0.
   -5000001    1    1    2    0    0 -0.15439883036E+03  0.37184324965E+01  0.54571779951E+03  0.59066550793E+03  0.16500000000E+03 0.  0.
<mgrwt>
<rscale>  0 0.45222883E+03</rscale>
<asrwt>0</asrwt>
<pdfrwt beam="1">  1        2 0.15742226E+00 0.45222883E+03</pdfrwt>
<pdfrwt beam="2">  1       -2 0.66281800E-02 0.45222883E+03</pdfrwt>
<totfact> 0.32366809E+03</totfact>
</mgrwt>
</event>
<event>
 4    1  0.5280257E-005  0.4923985E+03  0.7818608E-02  0.1015782E+00
          2   -1    0    0  501    0  0.00000000000E+00  0.00000000000E+00  0.24317919660E+04  0.24317919660E+04  0.25500000000E-02 0.  1.
         -2   -1    0    0    0  501 -0.00000000000E+00 -0.00000000000E+00 -0.24925683024E+02  0.24925683154E+02  0.25500000000E-02 0. -1.
    5000001    1    1    2    0    0  0.14776173392E+03 -0.48739752430E+02  0.72539843295E+03  0.76002432857E+03  0.16500000000E+03 0.  0.
   -5000001    1    1    2    0    0 -0.14776173392E+03  0.48739752430E+02  0.16814678500E+04  0.16966933205E+04  0.16500000000E+03 0.  0.
<mgrwt>
<rscale>  0 0.49239852E+03</rscale>
<asrwt>0</asrwt>
<pdfrwt beam="1">  1        2 0.34739873E+00 0.49239852E+03</pdfrwt>
<pdfrwt beam="2">  1       -2 0.35608131E-02 0.49239852E+03</pdfrwt>
<totfact> 0.17459487E+03</totfact>
</mgrwt>
</event>
<event>
 4    1  0.5280257E-005  0.6253101E+03  0.7818608E-02  0.9854244E-01
          2   -1    0    0  501    0  0.00000000000E+00  0.00000000000E+00  0.10687478481E+03  0.10687478484E+03  0.25500000000E-02 0.  1.
         -2   -1    0    0    0  501 -0.00000000000E+00 -0.00000000000E+00 -0.91465161159E+03  0.91465161159E+03  0.25500000000E-02 0. -1.
    5000001    1    1    2    0    0 -0.16053478243E+03 -0.21146861213E+03 -0.39384405096E+03  0.50282057114E+03  0.16500000000E+03 0.  0.
   -5000001    1    1    2    0    0  0.16053478243E+03  0.21146861213E+03 -0.41393277582E+03  0.51870582529E+03  0.16500000000E+03 0.  0.
<mgrwt>
<rscale>  0 0.62531014E+03</rscale>
<asrwt>0</asrwt>
<pdfrwt beam="1">  1        2 0.15267827E-01 0.62531014E+03</pdfrwt>
<pdfrwt beam="2">  1       -2 0.13066451E+00 0.62531014E+03</pdfrwt>
<totfact> 0.17055576E+02</totfact>
</mgrwt>
</event>
<event>
 4    1  0.5280257E-005  0.5168648E+03  0.7818608E-02  0.1009468E+00
          2   -1    0    0  501    0  0.00000000000E+00  0.00000000000E+00  0.17162369764E+03  0.17162369766E+03  0.25500000000E-02 0.  1.
         -2   -1    0    0    0  501 -0.00000000000E+00 -0.00000000000E+00 -0.38914962497E+03  0.38914962498E+03  0.25500000000E-02 0. -1.
    5000001    1    1    2    0    0 -0.15529703495E+02 -0.11689562699E+03 -0.28254682521E+03  0.34779802722E+03  0.16500000000E+03 0.  0.
   -5000001    1    1    2    0    0  0.15529703495E+02  0.11689562699E+03  0.65020897880E+02  0.21297529543E+03  0.16500000000E+03 0.  0.
<mgrwt>
<rscale>  0 0.51686477E+03</rscale>
<asrwt>0</asrwt>
<pdfrwt beam="1">  1        2 0.24517671E-01 0.51686477E+03</pdfrwt>
<pdfrwt beam="2">  1       -2 0.55592803E-01 0.51686477E+03</pdfrwt>
<totfact> 0.68545082E+02</totfact>
</mgrwt>
</event>
<event>
 4    1  0.5280257E-005  0.4748911E+03  0.7818608E-02  0.1020549E+00
          2   -1    0    0  501    0  0.00000000000E+00  0.00000000000E+00  0.55141313017E+03  0.55141313017E+03  0.25500000000E-02 0.  1.
         -2   -1    0    0    0  501 -0.00000000000E+00 -0.00000000000E+00 -0.10224709695E+03  0.10224709698E+03  0.25500000000E-02 0. -1.
    5000001    1    1    2    0    0  0.35703121795E+02  0.14693885712E+03  0.11542106298E+03  0.25181890798E+03  0.16500000000E+03 0.  0.
   -5000001    1    1    2    0    0 -0.35703121795E+02 -0.14693885712E+03  0.33374497024E+03  0.40184131918E+03  0.16500000000E+03 0.  0.
<mgrwt>
<rscale>  0 0.47489111E+03</rscale>
<asrwt>0</asrwt>
<pdfrwt beam="1">  1        2 0.78773304E-01 0.47489111E+03</pdfrwt>
<pdfrwt beam="2">  1       -2 0.14606728E-01 0.47489111E+03</pdfrwt>
<totfact> 0.21835404E+03</totfact>
</mgrwt>
</event>
<event>
 4    1  0.5280257E-005  0.4116227E+03  0.7818608E-02  0.1039828E+00
          2   -1    0    0  501    0  0.00000000000E+00  0.00000000000E+00  0.49025436210E+03  0.49025436211E+03  0.25500000000E-02 0.  1.
         -2   -1    0    0    0  501 -0.00000000000E+00 -0.00000000000E+00 -0.86400663686E+02  0.86400663724E+02  0.25500000000E-02 0. -1.
    5000001    1    1    2    0    0  0.10745059457E+03  0.59371152268E+02  0.19083042350E+03  0.28055625911E+03  0.16500000000E+03 0.  0.
   -5000001    1    1    2    0    0 -0.10745059457E+03 -0.59371152268E+02  0.21302327492E+03  0.29609876672E+03  0.16500000000E+03 0.  0.
<mgrwt>
<rscale>  0 0.41162265E+03</rscale>
<asrwt>0</asrwt>
<pdfrwt beam="1">  1        2 0.70036338E-01 0.41162265E+03</pdfrwt>
<pdfrwt beam="2">  1       -2 0.12342952E-01 0.41162265E+03</pdfrwt>
<totfact> 0.32900123E+03</totfact>
</mgrwt>
</event>
<event>
 4    1  0.5280257E-005  0.8425436E+03  0.7818608E-02  0.9500400E-01
          2   -1    0    0  501    0  0.00000000000E+00  0.00000000000E+00  0.17705665747E+04  0.17705665747E+04  0.25500000000E-02 0.  1.
         -2   -1    0    0    0  501 -0.00000000000E+00 -0.00000000000E+00 -0.10023341375E+03  0.10023341378E+03  0.25500000000E-02 0. -1.
    5000001    1    1    2    0    0 -0.29446060179E+03  0.19176454891E+03  0.47191086144E+03  0.61106918542E+03  0.16500000000E+03 0.  0.
   -5000001    1    1    2    0    0  0.29446060179E+03 -0.19176454891E+03  0.11984222995E+04  0.12597308030E+04  0.16500000000E+03 0.  0.
<mgrwt>
<rscale>  0 0.84254361E+03</rscale>
<asrwt>0</asrwt>
<pdfrwt beam="1">  1        2 0.25293809E+00 0.84254361E+03</pdfrwt>
<pdfrwt beam="2">  1       -2 0.14319059E-01 0.84254361E+03</pdfrwt>
<totfact> 0.40316965E+02</totfact>
</mgrwt>
</event>
<event>
 4    1  0.5280257E-005  0.6937576E+03  0.7818608E-02  0.9727967E-01
         -2   -1    0    0    0  501 -0.00000000000E+00  0.00000000000E+00  0.69216935286E+02  0.69216935333E+02  0.25500000000E-02 0. -1.
          2   -1    0    0  501    0  0.00000000000E+00 -0.00000000000E+00 -0.17383739673E+04  0.17383739673E+04  0.25500000000E-02 0.  1.
    5000001    1    1    2    0    0 -0.26213648987E+03  0.15406495251E+03 -0.76823420912E+03  0.84253210561E+03  0.16500000000E+03 0.  0.
   -5000001    1    1    2    0    0  0.26213648987E+03 -0.15406495251E+03 -0.90092282290E+03  0.96505879703E+03  0.16500000000E+03 0.  0.
<mgrwt>
<rscale>  0 0.69375765E+03</rscale>
<asrwt>0</asrwt>
<pdfrwt beam="1">  1        2 0.24833911E+00 0.69375765E+03</pdfrwt>
<pdfrwt beam="2">  1       -2 0.98881347E-02 0.69375765E+03</pdfrwt>
<totfact> 0.77883673E+02</totfact>
</mgrwt>
</event>
<event>
 4    1  0.5280257E-005  0.6024642E+03  0.7818608E-02  0.9900307E-01
          2   -1    0    0  501    0  0.00000000000E+00  0.00000000000E+00  0.14555841383E+04  0.14555841383E+04  0.25500000000E-02 0.  1.
         -2   -1    0    0    0  501 -0.00000000000E+00 -0.00000000000E+00 -0.62339762457E+02  0.62339762509E+02  0.25500000000E-02 0. -1.
    5000001    1    1    2    0    0 -0.31386415909E+02 -0.24985140758E+03  0.72243183311E+03  0.78265163800E+03  0.16500000000E+03 0.  0.
   -5000001    1    1    2    0    0  0.31386415909E+02  0.24985140758E+03  0.67081254275E+03  0.73527226283E+03  0.16500000000E+03 0.  0.
<mgrwt>
<rscale>  0 0.60246417E+03</rscale>
<asrwt>0</asrwt>
<pdfrwt beam="1">  1        2 0.20794061E+00 0.60246417E+03</pdfrwt>
<pdfrwt beam="2">  1       -2 0.89056794E-02 0.60246417E+03</pdfrwt>
<totfact> 0.12959226E+03</totfact>
</mgrwt>
</event>
<event>
 4    1  0.5280257E-005  0.4313922E+03  0.7818608E-02  0.1033421E+00
         -2   -1    0    0    0  501 -0.00000000000E+00  0.00000000000E+00  0.13445873888E+02  0.13445874130E+02  0.25500000000E-02 0. -1.
          2   -1    0    0  501    0  0.00000000000E+00 -0.00000000000E+00 -0.34601549353E+04  0.34601549353E+04  0.25500000000E-02 0.  1.
    5000001    1    1    2    0    0  0.13881791137E+03 -0.52945819545E+01 -0.17139566915E+04  0.17274753212E+04  0.16500000000E+03 0.  0.
   -5000001    1    1    2    0    0 -0.13881791137E+03  0.52945819545E+01 -0.17327523699E+04  0.17461254882E+04  0.16500000000E+03 0.  0.
<mgrwt>
<rscale>  0 0.43139220E+03</rscale>
<asrwt>0</asrwt>
<pdfrwt beam="1">  1        2 0.49430728E+00 0.43139220E+03</pdfrwt>
<pdfrwt beam="2">  1       -2 0.19208414E-02 0.43139220E+03</pdfrwt>
<totfact> 0.12412544E+03</totfact>
</mgrwt>
</event>
<event>
 4    1  0.5280257E-005  0.5496774E+03  0.7818608E-02  0.1001569E+00
          2   -1    0    0  501    0  0.00000000000E+00  0.00000000000E+00  0.37162666602E+03  0.37162666603E+03  0.25500000000E-02 0.  1.
         -2   -1    0    0    0  501 -0.00000000000E+00 -0.00000000000E+00 -0.20325855814E+03  0.20325855815E+03  0.25500000000E-02 0. -1.
    5000001    1    1    2    0    0  0.19546823153E+03  0.10628104315E+02  0.18872037598E+03  0.31805843244E+03  0.16500000000E+03 0.  0.
   -5000001    1    1    2    0    0 -0.19546823153E+03 -0.10628104315E+02 -0.20352268095E+02  0.25682679174E+03  0.16500000000E+03 0.  0.
<mgrwt>
<rscale>  0 0.54967736E+03</rscale>
<asrwt>0</asrwt>
<pdfrwt beam="1">  1        2 0.53089523E-01 0.54967736E+03</pdfrwt>
<pdfrwt beam="2">  1       -2 0.29036937E-01 0.54967736E+03</pdfrwt>
<totfact> 0.10245748E+03</totfact>
</mgrwt>
</event>
<event>
 4    1  0.5280257E-005  0.7500276E+03  0.7818608E-02  0.9635307E-01
         -2   -1    0    0    0  501 -0.00000000000E+00  0.00000000000E+00  0.16761084494E+03  0.16761084496E+03  0.25500000000E-02 0. -1.
          2   -1    0    0  501    0  0.00000000000E+00 -0.00000000000E+00 -0.83905868380E+03  0.83905868380E+03  0.25500000000E-02 0.  1.
    5000001    1    1    2    0    0  0.30245501284E+03 -0.51981242606E+02 -0.52184299246E+03  0.62747604986E+03  0.16500000000E+03 0.  0.
   -5000001    1    1    2    0    0 -0.30245501284E+03  0.51981242606E+02 -0.14960484639E+03  0.37919347890E+03  0.16500000000E+03 0.  0.
<mgrwt>
<rscale>  0 0.75002756E+03</rscale>
<asrwt>0</asrwt>
<pdfrwt beam="1">  1        2 0.11986552E+00 0.75002756E+03</pdfrwt>
<pdfrwt beam="2">  1       -2 0.23944407E-01 0.75002756E+03</pdfrwt>
<totfact> 0.55515983E+02</totfact>
</mgrwt>
</event>
<event>
 4    1  0.5280257E-005  0.3680313E+03  0.7818608E-02  0.1055448E+00
         -2   -1    0    0    0  501 -0.00000000000E+00  0.00000000000E+00  0.69313490957E+01  0.69313495648E+01  0.25500000000E-02 0. -1.
          2   -1    0    0  501    0  0.00000000000E+00 -0.00000000000E+00 -0.48853060886E+04  0.48853060886E+04  0.25500000000E-02 0.  1.
    5000001    1    1    2    0    0  0.31194637755E+01  0.22990315897E+02 -0.34772736645E+04  0.34812634809E+04  0.16500000000E+03 0.  0.
   -5000001    1    1    2    0    0 -0.31194637755E+01 -0.22990315897E+02 -0.14011010750E+04  0.14109739572E+04  0.16500000000E+03 0.  0.
<mgrwt>
<rscale>  0 0.36803132E+03</rscale>
<asrwt>0</asrwt>
<pdfrwt beam="1">  1        2 0.69789867E+00 0.36803132E+03</pdfrwt>
<pdfrwt beam="2">  1       -2 0.99019589E-03 0.36803132E+03</pdfrwt>
<totfact> 0.33021763E+02</totfact>
</mgrwt>
</event>
<event>
 4    1  0.5280257E-005  0.8985768E+03  0.7818608E-02  0.9427362E-01
          2   -1    0    0  501    0  0.00000000000E+00  0.00000000000E+00  0.19178931421E+04  0.19178931421E+04  0.25500000000E-02 0.  1.
         -2   -1    0    0    0  501 -0.00000000000E+00 -0.00000000000E+00 -0.10525095645E+03  0.10525095648E+03  0.25500000000E-02 0. -1.
    5000001    1    1    2    0    0  0.88134140246E+02  0.40835411221E+03  0.93040054455E+03  0.10331461082E+04  0.16500000000E+03 0.  0.
   -5000001    1    1    2    0    0 -0.88134140246E+02 -0.40835411221E+03  0.88224164109E+03  0.98999799035E+03  0.16500000000E+03 0.  0.
<mgrwt>
<rscale>  0 0.89857685E+03</rscale>
<asrwt>0</asrwt>
<pdfrwt beam="1">  1        2 0.27398472E+00 0.89857685E+03</pdfrwt>
<pdfrwt beam="2">  1       -2 0.15035852E-01 0.89857685E+03</pdfrwt>
<totfact> 0.31112151E+02</totfact>
</mgrwt>
</event>
<event>
 4    1  0.5280257E-005  0.4680780E+03  0.7818608E-02  0.1022464E+00
          2   -1    0    0  501    0  0.00000000000E+00  0.00000000000E+00  0.16419575166E+04  0.16419575167E+04  0.25500000000E-02 0.  1.
         -2   -1    0    0    0  501 -0.00000000000E+00 -0.00000000000E+00 -0.33359119586E+02  0.33359119683E+02  0.25500000000E-02 0. -1.
    5000001    1    1    2    0    0  0.15537965033E+03 -0.28550459521E+02  0.98649438455E+03  0.10125977164E+04  0.16500000000E+03 0.  0.
   -5000001    1    1    2    0    0 -0.15537965033E+03  0.28550459521E+02  0.62210401251E+03  0.66271891995E+03  0.16500000000E+03 0.  0.
<mgrwt>
<rscale>  0 0.46807802E+03</rscale>
<asrwt>0</asrwt>
<pdfrwt beam="1">  1        2 0.23456537E+00 0.46807802E+03</pdfrwt>
<pdfrwt beam="2">  1       -2 0.47655883E-02 0.46807802E+03</pdfrwt>
<totfact> 0.27831497E+03</totfact>
</mgrwt>
</event>
<event>
 4    1  0.5280257E-005  0.5724448E+03  0.7818608E-02  0.9964283E-01
         -2   -1    0    0    0  501 -0.00000000000E+00  0.00000000000E+00  0.19659774471E+02  0.19659774636E+02  0.25500000000E-02 0. -1.
          2   -1    0    0  501    0  0.00000000000E+00 -0.00000000000E+00 -0.41670501334E+04  0.41670501334E+04  0.25500000000E-02 0.  1.
    5000001    1    1    2    0    0  0.39033553873E+02 -0.90559511475E+02 -0.36247179773E+04  0.36298112979E+04  0.16500000000E+03 0.  0.
   -5000001    1    1    2    0    0 -0.39033553873E+02  0.90559511475E+02 -0.52267238162E+03  0.55689861012E+03  0.16500000000E+03 0.  0.
<mgrwt>
<rscale>  0 0.57244481E+03</rscale>
<asrwt>0</asrwt>
<pdfrwt beam="1">  1        2 0.59529231E+00 0.57244481E+03</pdfrwt>
<pdfrwt beam="2">  1       -2 0.28085419E-02 0.57244481E+03</pdfrwt>
<totfact> 0.24447733E+02</totfact>
</mgrwt>
</event>
<event>
 4    1  0.5280257E-005  0.5593729E+03  0.7818608E-02  0.9993475E-01
         -2   -1    0    0    0  501 -0.00000000000E+00  0.00000000000E+00  0.15994517207E+03  0.15994517209E+03  0.25500000000E-02 0. -1.
          2   -1    0    0  501    0  0.00000000000E+00 -0.00000000000E+00 -0.48907083274E+03  0.48907083275E+03  0.25500000000E-02 0.  1.
    5000001    1    1    2    0    0  0.65533179756E+02  0.20981434105E+03 -0.22465988966E+03  0.35498411426E+03  0.16500000000E+03 0.  0.
   -5000001    1    1    2    0    0 -0.65533179756E+02 -0.20981434105E+03 -0.10446577102E+03  0.29403189057E+03  0.16500000000E+03 0.  0.
<mgrwt>
<rscale>  0 0.55937293E+03</rscale>
<asrwt>0</asrwt>
<pdfrwt beam="1">  1        2 0.69867261E-01 0.55937293E+03</pdfrwt>
<pdfrwt beam="2">  1       -2 0.22849311E-01 0.55937293E+03</pdfrwt>
<totfact> 0.11612723E+03</totfact>
</mgrwt>
</event>
<event>
 4    1  0.5280257E-005  0.6834105E+03  0.7818608E-02  0.9746031E-01
         -2   -1    0    0    0  501 -0.00000000000E+00  0.00000000000E+00  0.57234127387E+02  0.57234127444E+02  0.25500000000E-02 0. -1.
          2   -1    0    0  501    0  0.00000000000E+00 -0.00000000000E+00 -0.20400846585E+04  0.20400846585E+04  0.25500000000E-02 0.  1.
    5000001    1    1    2    0    0 -0.29876662064E+03 -0.12036579399E+02 -0.10265628285E+04  0.10818792048E+04  0.16500000000E+03 0.  0.
   -5000001    1    1    2    0    0  0.29876662064E+03  0.12036579399E+02 -0.95628770260E+03  0.10154395812E+04  0.16500000000E+03 0.  0.
<mgrwt>
<rscale>  0 0.68341046E+03</rscale>
<asrwt>0</asrwt>
<pdfrwt beam="1">  1        2 0.29144062E+00 0.68341046E+03</pdfrwt>
<pdfrwt beam="2">  1       -2 0.81763052E-02 0.68341046E+03</pdfrwt>
<totfact> 0.74495776E+02</totfact>
</mgrwt>
</event>
<event>
 4    1  0.5280257E-005  0.4642032E+03  0.7818608E-02  0.1023569E+00
          2   -1    0    0  501    0  0.00000000000E+00  0.00000000000E+00  0.12425908496E+04  0.12425908496E+04  0.25500000000E-02 0.  1.
         -2   -1    0    0    0  501 -0.00000000000E+00 -0.00000000000E+00 -0.43353896507E+02  0.43353896582E+02  0.25500000000E-02 0. -1.
    5000001    1    1    2    0    0 -0.15481543426E+03 -0.14516228911E+02  0.46200755015E+03  0.51464018108E+03  0.16500000000E+03 0.  0.
   -5000001    1    1    2    0    0  0.15481543426E+03  0.14516228911E+02  0.73722940293E+03  0.77130456509E+03  0.16500000000E+03 0.  0.
<mgrwt>
<rscale>  0 0.46420321E+03</rscale>
<asrwt>0</asrwt>
<pdfrwt beam="1">  1        2 0.17751299E+00 0.46420321E+03</pdfrwt>
<pdfrwt beam="2">  1       -2 0.61934134E-02 0.46420321E+03</pdfrwt>
<totfact> 0.30014405E+03</totfact>
</mgrwt>
</event>
<event>
 4    1  0.5280257E-005  0.4061237E+03  0.7818608E-02  0.1041680E+00
          2   -1    0    0  501    0  0.00000000000E+00  0.00000000000E+00  0.15482716850E+03  0.15482716852E+03  0.25500000000E-02 0. -1.
         -2   -1    0    0    0  501 -0.00000000000E+00 -0.00000000000E+00 -0.26632354964E+03  0.26632354965E+03  0.25500000000E-02 0.  1.
    5000001    1    1    2    0    0  0.10216988180E+03  0.26413577541E+02 -0.11132950292E+03  0.22529007978E+03  0.16500000000E+03 0.  0.
   -5000001    1    1    2    0    0 -0.10216988180E+03 -0.26413577541E+02 -0.16687821194E+00  0.19586063840E+03  0.16500000000E+03 0.  0.
<mgrwt>
<rscale>  0 0.40612373E+03</rscale>
<asrwt>0</asrwt>
<pdfrwt beam="1">  1        2 0.22118167E-01 0.40612373E+03</pdfrwt>
<pdfrwt beam="2">  1       -2 0.38046221E-01 0.40612373E+03</pdfrwt>
<totfact> 0.16348121E+03</totfact>
</mgrwt>
</event>
<event>
 4    1  0.5280257E-005  0.5266106E+03  0.7818608E-02  0.1007057E+00
          2   -1    0    0  501    0  0.00000000000E+00  0.00000000000E+00  0.27266662757E+04  0.27266662757E+04  0.25500000000E-02 0.  1.
         -2   -1    0    0    0  501 -0.00000000000E+00 -0.00000000000E+00 -0.25426536128E+02  0.25426536256E+02  0.25500000000E-02 0. -1.
    5000001    1    1    2    0    0  0.14995588922E+03 -0.66370176933E+02  0.19952040304E+04  0.20087199636E+04  0.16500000000E+03 0.  0.
   -5000001    1    1    2    0    0 -0.14995588922E+03  0.66370176933E+02  0.70603570914E+03  0.74337284836E+03  0.16500000000E+03 0.  0.
<mgrwt>
<rscale>  0 0.52661059E+03</rscale>
<asrwt>0</asrwt>
<pdfrwt beam="1">  1        2 0.38952350E+00 0.52661059E+03</pdfrwt>
<pdfrwt beam="2">  1       -2 0.36323646E-02 0.52661059E+03</pdfrwt>
<totfact> 0.11917086E+03</totfact>
</mgrwt>
</event>
<event>
 4    1  0.5280257E-005  0.3690800E+03  0.7818608E-02  0.1055045E+00
         -2   -1    0    0    0  501 -0.00000000000E+00  0.00000000000E+00  0.65436526724E+02  0.65436526773E+02  0.25500000000E-02 0. -1.
          2   -1    0    0  501    0  0.00000000000E+00 -0.00000000000E+00 -0.52042811957E+03  0.52042811958E+03  0.25500000000E-02 0.  1.
    5000001    1    1    2    0    0 -0.34193812634E+02  0.74057209624E+02 -0.20641779768E+03  0.27656282165E+03  0.16500000000E+03 0.  0.
   -5000001    1    1    2    0    0  0.34193812634E+02 -0.74057209624E+02 -0.24857379517E+03  0.30930182470E+03  0.16500000000E+03 0.  0.
<mgrwt>
<rscale>  0 0.36907998E+03</rscale>
<asrwt>0</asrwt>
<pdfrwt beam="1">  1        2 0.74346872E-01 0.36907998E+03</pdfrwt>
<pdfrwt beam="2">  1       -2 0.93480755E-02 0.36907998E+03</pdfrwt>
<totfact> 0.48075112E+03</totfact>
</mgrwt>
</event>
<event>
 4    1  0.5280257E-005  0.5999581E+03  0.7818608E-02  0.9905493E-01
          2   -1    0    0  501    0  0.00000000000E+00  0.00000000000E+00  0.30945646038E+04  0.30945646038E+04  0.25500000000E-02 0.  1.
         -2   -1    0    0    0  501 -0.00000000000E+00 -0.00000000000E+00 -0.29079190138E+02  0.29079190250E+02  0.25500000000E-02 0. -1.
    5000001    1    1    2    0    0 -0.22890148727E+03  0.99898381504E+02  0.14303392099E+04  0.14613250265E+04  0.16500000000E+03 0.  0.
   -5000001    1    1    2    0    0  0.22890148727E+03 -0.99898381504E+02  0.16351462037E+04  0.16623187676E+04  0.16500000000E+03 0.  0.
<mgrwt>
<rscale>  0 0.59995811E+03</rscale>
<asrwt>0</asrwt>
<pdfrwt beam="1">  1        2 0.44208088E+00 0.59995811E+03</pdfrwt>
<pdfrwt beam="2">  1       -2 0.41541679E-02 0.59995811E+03</pdfrwt>
<totfact> 0.61175303E+02</totfact>
</mgrwt>
</event>
<event>
 4    1  0.5280257E-005  0.3612906E+03  0.7818608E-02  0.1058074E+00
          2   -1    0    0  501    0  0.00000000000E+00  0.00000000000E+00  0.42669787806E+03  0.42669787807E+03  0.25500000000E-02 0.  1.
         -2   -1    0    0    0  501 -0.00000000000E+00 -0.00000000000E+00 -0.76477368127E+02  0.76477368170E+02  0.25500000000E-02 0. -1.
    5000001    1    1    2    0    0  0.47253256731E+02 -0.31114731059E+02  0.10968618585E+03  0.20605110077E+03  0.16500000000E+03 0.  0.
   -5000001    1    1    2    0    0 -0.47253256731E+02  0.31114731059E+02  0.24053432408E+03  0.29712414547E+03  0.16500000000E+03 0.  0.
<mgrwt>
<rscale>  0 0.36129063E+03</rscale>
<asrwt>0</asrwt>
<pdfrwt beam="1">  1        2 0.60956839E-01 0.36129063E+03</pdfrwt>
<pdfrwt beam="2">  1       -2 0.10925338E-01 0.36129063E+03</pdfrwt>
<totfact> 0.46656751E+03</totfact>
</mgrwt>
</event>
<event>
 4    1  0.5280257E-005  0.7667947E+03  0.7818608E-02  0.9609364E-01
         -2   -1    0    0    0  501 -0.00000000000E+00  0.00000000000E+00  0.32853143251E+03  0.32853143252E+03  0.25500000000E-02 0. -1.
          2   -1    0    0  501    0  0.00000000000E+00 -0.00000000000E+00 -0.44742602080E+03  0.44742602081E+03  0.25500000000E-02 0.  1.
    5000001    1    1    2    0    0  0.27223462486E+03 -0.21074000185E+03 -0.95160254556E+02  0.39345077633E+03  0.16500000000E+03 0.  0.
   -5000001    1    1    2    0    0 -0.27223462486E+03  0.21074000185E+03 -0.23734333731E+02  0.38250667700E+03  0.16500000000E+03 0.  0.
<mgrwt>
<rscale>  0 0.76679466E+03</rscale>
<asrwt>0</asrwt>
<pdfrwt beam="1">  1        2 0.63918003E-01 0.76679466E+03</pdfrwt>
<pdfrwt beam="2">  1       -2 0.46933062E-01 0.76679466E+03</pdfrwt>
<totfact> 0.33020010E+02</totfact>
</mgrwt>
</event>
<event>
 4    1  0.5280257E-005  0.5192090E+03  0.7818608E-02  0.1008883E+00
         -2   -1    0    0    0  501 -0.00000000000E+00  0.00000000000E+00  0.10725322721E+03  0.10725322724E+03  0.25500000000E-02 0. -1.
          2   -1    0    0  501    0  0.00000000000E+00 -0.00000000000E+00 -0.62836809738E+03  0.62836809739E+03  0.25500000000E-02 0.  1.
    5000001    1    1    2    0    0 -0.18148271970E+03  0.78045886244E+02 -0.30844416290E+03  0.40173366742E+03  0.16500000000E+03 0.  0.
   -5000001    1    1    2    0    0  0.18148271970E+03 -0.78045886244E+02 -0.21267070727E+03  0.33388765721E+03  0.16500000000E+03 0.  0.
<mgrwt>
<rscale>  0 0.51920904E+03</rscale>
<asrwt>0</asrwt>
<pdfrwt beam="1">  1        2 0.89766869E-01 0.51920904E+03</pdfrwt>
<pdfrwt beam="2">  1       -2 0.15321890E-01 0.51920904E+03</pdfrwt>
<totfact> 0.17316216E+03</totfact>
</mgrwt>
</event>
<event>
 4    1  0.5280257E-005  0.4871127E+03  0.7818608E-02  0.1017199E+00
         -2   -1    0    0    0  501 -0.00000000000E+00  0.00000000000E+00  0.11621553426E+04  0.11621553426E+04  0.25500000000E-02 0. -1.
          2   -1    0    0  501    0  0.00000000000E+00 -0.00000000000E+00 -0.51042832146E+02  0.51042832210E+02  0.25500000000E-02 0.  1.
    5000001    1    1    2    0    0 -0.11378197729E+03  0.74728309899E+02  0.84562226018E+03  0.87225722443E+03  0.16500000000E+03 0.  0.
   -5000001    1    1    2    0    0  0.11378197729E+03 -0.74728309899E+02  0.26549025027E+03  0.34094095038E+03  0.16500000000E+03 0.  0.
<mgrwt>
<rscale>  0 0.48711272E+03</rscale>
<asrwt>0</asrwt>
<pdfrwt beam="1">  1        2 0.72918332E-02 0.48711272E+03</pdfrwt>
<pdfrwt beam="2">  1       -2 0.16602219E+00 0.48711272E+03</pdfrwt>
<totfact> 0.23217212E+02</totfact>
</mgrwt>
</event>
<event>
 4    1  0.5280257E-005  0.4904806E+03  0.7818608E-02  0.1016294E+00
          2   -1    0    0  501    0  0.00000000000E+00  0.00000000000E+00  0.10592328020E+04  0.10592328020E+04  0.25500000000E-02 0.  1.
         -2   -1    0    0    0  501 -0.00000000000E+00 -0.00000000000E+00 -0.56779583823E+02  0.56779583880E+02  0.25500000000E-02 0. -1.
    5000001    1    1    2    0    0  0.17524023498E+03 -0.70025554596E+01  0.39548739610E+03  0.46302640984E+03  0.16500000000E+03 0.  0.
   -5000001    1    1    2    0    0 -0.17524023498E+03  0.70025554596E+01  0.60696582210E+03  0.65298597606E+03  0.16500000000E+03 0.  0.
<mgrwt>
<rscale>  0 0.49048057E+03</rscale>
<asrwt>0</asrwt>
<pdfrwt beam="1">  1        2 0.15131896E+00 0.49048057E+03</pdfrwt>
<pdfrwt beam="2">  1       -2 0.81113697E-02 0.49048057E+03</pdfrwt>
<totfact> 0.24933356E+03</totfact>
</mgrwt>
</event>
<event>
 4    1  0.5280257E-005  0.7573176E+03  0.7818608E-02  0.9623940E-01
         -2   -1    0    0    0  501 -0.00000000000E+00  0.00000000000E+00  0.46147821561E+02  0.46147821631E+02  0.25500000000E-02 0. -1.
          2   -1    0    0  501    0  0.00000000000E+00 -0.00000000000E+00 -0.31070260422E+04  0.31070260422E+04  0.25500000000E-02 0.  1.
    5000001    1    1    2    0    0  0.29622849926E+03  0.14960092938E+03 -0.12072368375E+04  0.12628450197E+04  0.16500000000E+03 0.  0.
   -5000001    1    1    2    0    0 -0.29622849926E+03 -0.14960092938E+03 -0.18536413831E+04  0.18903288441E+04  0.16500000000E+03 0.  0.
<mgrwt>
<rscale>  0 0.75731759E+03</rscale>
<asrwt>0</asrwt>
<pdfrwt beam="1">  1        2 0.44386073E+00 0.75731759E+03</pdfrwt>
<pdfrwt beam="2">  1       -2 0.65925479E-02 0.75731759E+03</pdfrwt>
<totfact> 0.28849829E+02</totfact>
</mgrwt>
</event>
<event>
 4    1  0.5280257E-005  0.7380667E+03  0.7818608E-02  0.9654260E-01
         -2   -1    0    0    0  501 -0.00000000000E+00  0.00000000000E+00  0.14982938814E+03  0.14982938816E+03  0.25500000000E-02 0. -1.
          2   -1    0    0  501    0  0.00000000000E+00 -0.00000000000E+00 -0.90893786688E+03  0.90893786688E+03  0.25500000000E-02 0.  1.
    5000001    1    1    2    0    0 -0.10384775280E+03  0.10314773757E+03  0.44870039946E+02  0.22508250046E+03  0.16500000000E+03 0.  0.
   -5000001    1    1    2    0    0  0.10384775280E+03 -0.10314773757E+03 -0.80397851868E+03  0.83368475459E+03  0.16500000000E+03 0.  0.
<mgrwt>
<rscale>  0 0.73806668E+03</rscale>
<asrwt>0</asrwt>
<pdfrwt beam="1">  1        2 0.12984826E+00 0.73806668E+03</pdfrwt>
<pdfrwt beam="2">  1       -2 0.21404199E-01 0.73806668E+03</pdfrwt>
<totfact> 0.60943879E+02</totfact>
</mgrwt>
</event>
<event>
 4    1  0.5280257E-005  0.6395243E+03  0.7818608E-02  0.9826637E-01
         -2   -1    0    0    0  501 -0.00000000000E+00  0.00000000000E+00  0.25544333096E+03  0.25544333097E+03  0.25500000000E-02 0. -1.
          2   -1    0    0  501    0  0.00000000000E+00 -0.00000000000E+00 -0.40027596441E+03  0.40027596442E+03  0.25500000000E-02 0.  1.
    5000001    1    1    2    0    0 -0.52896192075E+02  0.17647220802E+03  0.13540434149E+03  0.28195705885E+03  0.16500000000E+03 0.  0.
   -5000001    1    1    2    0    0  0.52896192075E+02 -0.17647220802E+03 -0.28023697495E+03  0.37376223654E+03  0.16500000000E+03 0.  0.
<mgrwt>
<rscale>  0 0.63952428E+03</rscale>
<asrwt>0</asrwt>
<pdfrwt beam="1">  1        2 0.57182280E-01 0.63952428E+03</pdfrwt>
<pdfrwt beam="2">  1       -2 0.36491905E-01 0.63952428E+03</pdfrwt>
<totfact> 0.61444999E+02</totfact>
</mgrwt>
</event>
<event>
 4    1  0.5280257E-005  0.3737789E+03  0.7818608E-02  0.1053257E+00
         -2   -1    0    0    0  501 -0.00000000000E+00  0.00000000000E+00  0.22385638090E+02  0.22385638235E+02  0.25500000000E-02 0. -1.
          2   -1    0    0  501    0  0.00000000000E+00 -0.00000000000E+00 -0.15602713837E+04  0.15602713837E+04  0.25500000000E-02 0.  1.
    5000001    1    1    2    0    0 -0.33126080571E+02 -0.79312621768E+02 -0.69381208335E+03  0.71832307230E+03  0.16500000000E+03 0.  0.
   -5000001    1    1    2    0    0  0.33126080571E+02  0.79312621768E+02 -0.84407366223E+03  0.86433394962E+03  0.16500000000E+03 0.  0.
<mgrwt>
<rscale>  0 0.37377892E+03</rscale>
<asrwt>0</asrwt>
<pdfrwt beam="1">  1        2 0.22289584E+00 0.37377892E+03</pdfrwt>
<pdfrwt beam="2">  1       -2 0.31979493E-02 0.37377892E+03</pdfrwt>
<totfact> 0.56182193E+03</totfact>
</mgrwt>
</event>
<event>
 4    1  0.5280257E-005  0.6090364E+03  0.7818608E-02  0.9886834E-01
         -2   -1    0    0    0  501 -0.00000000000E+00  0.00000000000E+00  0.14356266638E+03  0.14356266641E+03  0.25500000000E-02 0. -1.
          2   -1    0    0  501    0  0.00000000000E+00 -0.00000000000E+00 -0.64592921641E+03  0.64592921642E+03  0.25500000000E-02 0.  1.
    5000001    1    1    2    0    0 -0.10739690333E+03 -0.20210613827E+03 -0.39969462423E+03  0.48924613295E+03  0.16500000000E+03 0.  0.
   -5000001    1    1    2    0    0  0.10739690333E+03  0.20210613827E+03 -0.10267192580E+03  0.30024574987E+03  0.16500000000E+03 0.  0.
<mgrwt>
<rscale>  0 0.60903636E+03</rscale>
<asrwt>0</asrwt>
<pdfrwt beam="1">  1        2 0.92275601E-01 0.60903636E+03</pdfrwt>
<pdfrwt beam="2">  1       -2 0.20508953E-01 0.60903636E+03</pdfrwt>
<totfact> 0.10160900E+03</totfact>
</mgrwt>
</event>
<event>
 4    1  0.5280257E-005  0.4163311E+03  0.7818608E-02  0.1038267E+00
          2   -1    0    0  501    0  0.00000000000E+00  0.00000000000E+00  0.19610763859E+03  0.19610763860E+03  0.25500000000E-02 0.  1.
         -2   -1    0    0    0  501 -0.00000000000E+00 -0.00000000000E+00 -0.22096480368E+03  0.22096480369E+03  0.25500000000E-02 0. -1.
    5000001    1    1    2    0    0 -0.12428864694E+03 -0.93918588911E+00 -0.38151848023E+02  0.21006930603E+03  0.16500000000E+03 0.  0.
   -5000001    1    1    2    0    0  0.12428864694E+03  0.93918588911E+00  0.13294682935E+02  0.20700313626E+03  0.16500000000E+03 0.  0.
<mgrwt>
<rscale>  0 0.41633105E+03</rscale>
<asrwt>0</asrwt>
<pdfrwt beam="1">  1        2 0.28015377E-01 0.41633105E+03</pdfrwt>
<pdfrwt beam="2">  1       -2 0.31566400E-01 0.41633105E+03</pdfrwt>
<totfact> 0.17768500E+03</totfact>
</mgrwt>
</event>
<event>
 4    1  0.5280257E-005  0.4783691E+03  0.7818608E-02  0.1019584E+00
         -2   -1    0    0    0  501 -0.00000000000E+00  0.00000000000E+00  0.74211202550E+02  0.74211202593E+02  0.25500000000E-02 0. -1.
          2   -1    0    0  501    0  0.00000000000E+00 -0.00000000000E+00 -0.77089763518E+03  0.77089763519E+03  0.25500000000E-02 0.  1.
    5000001    1    1    2    0    0  0.25216328190E+02  0.14401750131E+03 -0.51224510262E+03  0.55767100431E+03  0.16500000000E+03 0.  0.
   -5000001    1    1    2    0    0 -0.25216328190E+02 -0.14401750131E+03 -0.18444133001E+03  0.28743783347E+03  0.16500000000E+03 0.  0.
<mgrwt>
<rscale>  0 0.47836906E+03</rscale>
<asrwt>0</asrwt>
<pdfrwt beam="1">  1        2 0.11012823E+00 0.47836906E+03</pdfrwt>
<pdfrwt beam="2">  1       -2 0.10601601E-01 0.47836906E+03</pdfrwt>
<totfact> 0.24792880E+03</totfact>
</mgrwt>
</event>
<event>
 4    1  0.5280257E-005  0.4443965E+03  0.7818608E-02  0.1029406E+00
          2   -1    0    0  501    0  0.00000000000E+00  0.00000000000E+00  0.67284557768E+03  0.67284557768E+03  0.25500000000E-02 0.  1.
         -2   -1    0    0    0  501 -0.00000000000E+00 -0.00000000000E+00 -0.73378002089E+02  0.73378002134E+02  0.25500000000E-02 0. -1.
    5000001    1    1    2    0    0  0.31292421018E+02 -0.13878838473E+03  0.22643142936E+03  0.31422543429E+03  0.16500000000E+03 0.  0.
   -5000001    1    1    2    0    0 -0.31292421018E+02  0.13878838473E+03  0.37303614623E+03  0.43199814553E+03  0.16500000000E+03 0.  0.
<mgrwt>
<rscale>  0 0.44439651E+03</rscale>
<asrwt>0</asrwt>
<pdfrwt beam="1">  1        2 0.96120801E-01 0.44439651E+03</pdfrwt>
<pdfrwt beam="2">  1       -2 0.10482571E-01 0.44439651E+03</pdfrwt>
<totfact> 0.29802994E+03</totfact>
</mgrwt>
</event>
<event>
 4    1  0.5280257E-005  0.3761353E+03  0.7818608E-02  0.1052371E+00
         -2   -1    0    0    0  501 -0.00000000000E+00  0.00000000000E+00  0.10442153524E+03  0.10442153527E+03  0.25500000000E-02 0. -1.
          2   -1    0    0  501    0  0.00000000000E+00 -0.00000000000E+00 -0.33871790339E+03  0.33871790340E+03  0.25500000000E-02 0.  1.
    5000001    1    1    2    0    0 -0.20480875557E+02  0.83798217847E+02 -0.14838187205E+03  0.23808357258E+03  0.16500000000E+03 0.  0.
   -5000001    1    1    2    0    0  0.20480875557E+02 -0.83798217847E+02 -0.85914496100E+02  0.20505586609E+03  0.16500000000E+03 0.  0.
<mgrwt>
<rscale>  0 0.37613531E+03</rscale>
<asrwt>0</asrwt>
<pdfrwt beam="1">  1        2 0.48388271E-01 0.37613531E+03</pdfrwt>
<pdfrwt beam="2">  1       -2 0.14917362E-01 0.37613531E+03</pdfrwt>
<totfact> 0.36085054E+03</totfact>
</mgrwt>
</event>
<event>
 4    1  0.5280257E-005  0.3554406E+03  0.7818608E-02  0.1060404E+00
         -2   -1    0    0    0  501 -0.00000000000E+00  0.00000000000E+00  0.26567617092E+02  0.26567617214E+02  0.25500000000E-02 0. -1.
          2   -1    0    0  501    0  0.00000000000E+00 -0.00000000000E+00 -0.11888344975E+04  0.11888344975E+04  0.25500000000E-02 0.  1.
    5000001    1    1    2    0    0 -0.52118989765E+02  0.23027693915E+02 -0.69520268739E+03  0.71678339848E+03  0.16500000000E+03 0.  0.
   -5000001    1    1    2    0    0  0.52118989765E+02 -0.23027693915E+02 -0.46706419299E+03  0.49861871621E+03  0.16500000000E+03 0.  0.
<mgrwt>
<rscale>  0 0.35544057E+03</rscale>
<asrwt>0</asrwt>
<pdfrwt beam="1">  1        2 0.16983347E+00 0.35544057E+03</pdfrwt>
<pdfrwt beam="2">  1       -2 0.37953746E-02 0.35544057E+03</pdfrwt>
<totfact> 0.67961313E+03</totfact>
</mgrwt>
</event>
<event>
 4    1  0.5280257E-005  0.5957325E+03  0.7818608E-02  0.9914299E-01
          2   -1    0    0  501    0  0.00000000000E+00  0.00000000000E+00  0.64694399714E+03  0.64694399715E+03  0.25500000000E-02 0.  1.
         -2   -1    0    0    0  501 -0.00000000000E+00 -0.00000000000E+00 -0.13714372303E+03  0.13714372305E+03  0.25500000000E-02 0. -1.
    5000001    1    1    2    0    0  0.14868244039E+03 -0.17191565529E+03  0.12435418976E+03  0.30716514308E+03  0.16500000000E+03 0.  0.
   -5000001    1    1    2    0    0 -0.14868244039E+03  0.17191565529E+03  0.38544608436E+03  0.47692257712E+03  0.16500000000E+03 0.  0.
<mgrwt>
<rscale>  0 0.59573252E+03</rscale>
<asrwt>0</asrwt>
<pdfrwt beam="1">  1        2 0.92420573E-01 0.59573252E+03</pdfrwt>
<pdfrwt beam="2">  1       -2 0.19591960E-01 0.59573252E+03</pdfrwt>
<totfact> 0.10985367E+03</totfact>
</mgrwt>
</event>
<event>
 4    1  0.5280257E-005  0.4033190E+03  0.7818608E-02  0.1042636E+00
         -2   -1    0    0    0  501 -0.00000000000E+00  0.00000000000E+00  0.48113288596E+02  0.48113288664E+02  0.25500000000E-02 0. -1.
          2   -1    0    0  501    0  0.00000000000E+00 -0.00000000000E+00 -0.84522516144E+03  0.84522516145E+03  0.25500000000E-02 0.  1.
    5000001    1    1    2    0    0 -0.86093364735E+02 -0.73099693241E+02 -0.34054537647E+03  0.39490731323E+03  0.16500000000E+03 0.  0.
   -5000001    1    1    2    0    0  0.86093364735E+02  0.73099693241E+02 -0.45656649638E+03  0.49843113689E+03  0.16500000000E+03 0.  0.
<mgrwt>
<rscale>  0 0.40331904E+03</rscale>
<asrwt>0</asrwt>
<pdfrwt beam="1">  1        2 0.12074644E+00 0.40331904E+03</pdfrwt>
<pdfrwt beam="2">  1       -2 0.68733275E-02 0.40331904E+03</pdfrwt>
<totfact> 0.43876752E+03</totfact>
</mgrwt>
</event>
<event>
 4    1  0.5280257E-005  0.7675625E+03  0.7818608E-02  0.9608193E-01
         -2   -1    0    0    0  501 -0.00000000000E+00  0.00000000000E+00  0.65433259391E+03  0.65433259392E+03  0.25500000000E-02 0. -1.
          2   -1    0    0  501    0  0.00000000000E+00 -0.00000000000E+00 -0.22509661277E+03  0.22509661278E+03  0.25500000000E-02 0.  1.
    5000001    1    1    2    0    0  0.33108943146E+03  0.10132817635E+03  0.19944221433E+03  0.43230753845E+03  0.16500000000E+03 0.  0.
   -5000001    1    1    2    0    0 -0.33108943146E+03 -0.10132817635E+03  0.22979376681E+03  0.44712166825E+03  0.16500000000E+03 0.  0.
<mgrwt>
<rscale>  0 0.76756251E+03</rscale>
<asrwt>0</asrwt>
<pdfrwt beam="1">  1        2 0.32156659E-01 0.76756251E+03</pdfrwt>
<pdfrwt beam="2">  1       -2 0.93476085E-01 0.76756251E+03</pdfrwt>
<totfact> 0.16055580E+02</totfact>
</mgrwt>
</event>
<event>
 4    1  0.5280257E-005  0.6362387E+03  0.7818608E-02  0.9832950E-01
         -2   -1    0    0    0  501 -0.00000000000E+00  0.00000000000E+00  0.46904465194E+02  0.46904465264E+02  0.25500000000E-02 0. -1.
          2   -1    0    0  501    0  0.00000000000E+00 -0.00000000000E+00 -0.21575752455E+04  0.21575752455E+04  0.25500000000E-02 0.  1.
    5000001    1    1    2    0    0 -0.16896390154E+03 -0.19482747121E+03 -0.13547678925E+04  0.13889303748E+04  0.16500000000E+03 0.  0.
   -5000001    1    1    2    0    0  0.16896390154E+03  0.19482747121E+03 -0.75590288780E+03  0.81554933594E+03  0.16500000000E+03 0.  0.
<mgrwt>
<rscale>  0 0.63623868E+03</rscale>
<asrwt>0</asrwt>
<pdfrwt beam="1">  1        2 0.30822497E+00 0.63623868E+03</pdfrwt>
<pdfrwt beam="2">  1       -2 0.67006392E-02 0.63623868E+03</pdfrwt>
<totfact> 0.89441238E+02</totfact>
</mgrwt>
</event>
<event>
 4    1  0.5280257E-005  0.5924026E+03  0.7818608E-02  0.9921295E-01
          2   -1    0    0  501    0  0.00000000000E+00  0.00000000000E+00  0.49286384617E+03  0.49286384617E+03  0.25500000000E-02 0.  1.
         -2   -1    0    0    0  501 -0.00000000000E+00 -0.00000000000E+00 -0.17801106498E+03  0.17801106500E+03  0.25500000000E-02 0. -1.
    5000001    1    1    2    0    0 -0.20719939811E+03  0.13143580143E+03  0.13770532031E+03  0.32618202850E+03  0.16500000000E+03 0.  0.
   -5000001    1    1    2    0    0  0.20719939811E+03 -0.13143580143E+03  0.17714746088E+03  0.34469288268E+03  0.16500000000E+03 0.  0.
<mgrwt>
<rscale>  0 0.59240263E+03</rscale>
<asrwt>0</asrwt>
<pdfrwt beam="1">  1        2 0.70409120E-01 0.59240263E+03</pdfrwt>
<pdfrwt beam="2">  1       -2 0.25430152E-01 0.59240263E+03</pdfrwt>
<totfact> 0.95077091E+02</totfact>
</mgrwt>
</event>
<event>
 4    1  0.5280257E-005  0.4478316E+03  0.7818608E-02  0.1028371E+00
         -2   -1    0    0    0  501 -0.00000000000E+00  0.00000000000E+00  0.67119897557E+02  0.67119897606E+02  0.25500000000E-02 0. -1.
          2   -1    0    0  501    0  0.00000000000E+00 -0.00000000000E+00 -0.74699575002E+03  0.74699575002E+03  0.25500000000E-02 0.  1.
    5000001    1    1    2    0    0 -0.10403693302E+03 -0.32324447262E+02 -0.53098872168E+03  0.56660619117E+03  0.16500000000E+03 0.  0.
   -5000001    1    1    2    0    0  0.10403693302E+03  0.32324447262E+02 -0.14888713078E+03  0.24750945645E+03  0.16500000000E+03 0.  0.
<mgrwt>
<rscale>  0 0.44783157E+03</rscale>
<asrwt>0</asrwt>
<pdfrwt beam="1">  1        2 0.10671367E+00 0.44783157E+03</pdfrwt>
<pdfrwt beam="2">  1       -2 0.95885573E-02 0.44783157E+03</pdfrwt>
<totfact> 0.30299806E+03</totfact>
</mgrwt>
</event>
<event>
 4    1  0.5280257E-005  0.7907451E+03  0.7818608E-02  0.9573511E-01
          2   -1    0    0  501    0  0.00000000000E+00  0.00000000000E+00  0.83292537546E+03  0.83292537546E+03  0.25500000000E-02 0.  1.
         -2   -1    0    0    0  501 -0.00000000000E+00 -0.00000000000E+00 -0.18767520262E+03  0.18767520264E+03  0.25500000000E-02 0. -1.
    5000001    1    1    2    0    0  0.33834708623E+03  0.11999600490E+03  0.30362763582E+03  0.49828960775E+03  0.16500000000E+03 0.  0.
   -5000001    1    1    2    0    0 -0.33834708623E+03 -0.11999600490E+03  0.34162253702E+03  0.52231097036E+03  0.16500000000E+03 0.  0.
<mgrwt>
<rscale>  0 0.79074506E+03</rscale>
<asrwt>0</asrwt>
<pdfrwt beam="1">  1        2 0.11898934E+00 0.79074506E+03</pdfrwt>
<pdfrwt beam="2">  1       -2 0.26810744E-01 0.79074506E+03</pdfrwt>
<totfact> 0.45628441E+02</totfact>
</mgrwt>
</event>
<event>
 4    1  0.5280257E-005  0.5604818E+03  0.7818608E-02  0.9990965E-01
          2   -1    0    0  501    0  0.00000000000E+00  0.00000000000E+00  0.60993878024E+03  0.60993878025E+03  0.25500000000E-02 0.  1.
         -2   -1    0    0    0  501 -0.00000000000E+00 -0.00000000000E+00 -0.12875874972E+03  0.12875874975E+03  0.25500000000E-02 0. -1.
    5000001    1    1    2    0    0  0.60077967962E+02 -0.16439034028E+03  0.43010462901E+03  0.49279664986E+03  0.16500000000E+03 0.  0.
   -5000001    1    1    2    0    0 -0.60077967962E+02  0.16439034028E+03  0.51075401513E+02  0.24590088014E+03  0.16500000000E+03 0.  0.
<mgrwt>
<rscale>  0 0.56048177E+03</rscale>
<asrwt>0</asrwt>
<pdfrwt beam="1">  1        2 0.87134112E-01 0.56048177E+03</pdfrwt>
<pdfrwt beam="2">  1       -2 0.18394107E-01 0.56048177E+03</pdfrwt>
<totfact> 0.13143113E+03</totfact>
</mgrwt>
</event>
<event>
 4    1  0.5280257E-005  0.5504270E+03  0.7818608E-02  0.1001395E+00
         -2   -1    0    0    0  501 -0.00000000000E+00  0.00000000000E+00  0.47948862158E+02  0.47948862226E+02  0.25500000000E-02 0. -1.
          2   -1    0    0  501    0  0.00000000000E+00 -0.00000000000E+00 -0.15796513129E+04  0.15796513129E+04  0.25500000000E-02 0.  1.
    5000001    1    1    2    0    0 -0.17874131810E+03 -0.75926401853E+02 -0.10732091303E+04  0.11030485550E+04  0.16500000000E+03 0.  0.
   -5000001    1    1    2    0    0  0.17874131810E+03  0.75926401853E+02 -0.45849332036E+03  0.52455162006E+03  0.16500000000E+03 0.  0.
<mgrwt>
<rscale>  0 0.55042705E+03</rscale>
<asrwt>0</asrwt>
<pdfrwt beam="1">  1        2 0.22566444E+00 0.55042705E+03</pdfrwt>
<pdfrwt beam="2">  1       -2 0.68498384E-02 0.55042705E+03</pdfrwt>
<totfact> 0.16989541E+03</totfact>
</mgrwt>
</event>
<event>
 4    1  0.5280257E-005  0.5828841E+03  0.7818608E-02  0.9941567E-01
          2   -1    0    0  501    0  0.00000000000E+00  0.00000000000E+00  0.53950066126E+03  0.53950066127E+03  0.25500000000E-02 0.  1.
         -2   -1    0    0    0  501 -0.00000000000E+00 -0.00000000000E+00 -0.15743901931E+03  0.15743901933E+03  0.25500000000E-02 0. -1.
    5000001    1    1    2    0    0  0.82708605416E+02  0.22231426227E+03  0.14551485574E+03  0.32351803329E+03  0.16500000000E+03 0.  0.
   -5000001    1    1    2    0    0 -0.82708605416E+02 -0.22231426227E+03  0.23654678621E+03  0.37342164732E+03  0.16500000000E+03 0.  0.
<mgrwt>
<rscale>  0 0.58288405E+03</rscale>
<asrwt>0</asrwt>
<pdfrwt beam="1">  1        2 0.77071522E-01 0.58288405E+03</pdfrwt>
<pdfrwt beam="2">  1       -2 0.22491289E-01 0.58288405E+03</pdfrwt>
<totfact> 0.10674764E+03</totfact>
</mgrwt>
</event>
<event>
 4    1  0.5280257E-005  0.1049182E+04  0.7818608E-02  0.9256189E-01
          2   -1    0    0  501    0  0.00000000000E+00  0.00000000000E+00  0.31738238254E+04  0.31738238254E+04  0.25500000000E-02 0.  1.
         -2   -1    0    0    0  501 -0.00000000000E+00 -0.00000000000E+00 -0.86707901975E+02  0.86707902013E+02  0.25500000000E-02 0. -1.
    5000001    1    1    2    0    0  0.43838999027E+03 -0.18039838760E+03  0.10697881686E+04  0.11816941599E+04  0.16500000000E+03 0.  0.
   -5000001    1    1    2    0    0 -0.43838999027E+03  0.18039838760E+03  0.20173277548E+04  0.20788375675E+04  0.16500000000E+03 0.  0.
<mgrwt>
<rscale>  0 0.10491818E+04</rscale>
<asrwt>0</asrwt>
<pdfrwt beam="1">  1        2 0.45340338E+00 0.10491818E+04</pdfrwt>
<pdfrwt beam="2">  1       -2 0.12386844E-01 0.10491818E+04</pdfrwt>
<totfact> 0.92498627E+01</totfact>
</mgrwt>
</event>
<event>
 4    1  0.5280257E-005  0.3713051E+03  0.7818608E-02  0.1054195E+00
          2   -1    0    0  501    0  0.00000000000E+00  0.00000000000E+00  0.16219813445E+04  0.16219813445E+04  0.25500000000E-02 0.  1.
         -2   -1    0    0    0  501 -0.00000000000E+00 -0.00000000000E+00 -0.21249852539E+02  0.21249852692E+02  0.25500000000E-02 0. -1.
    5000001    1    1    2    0    0  0.16878585785E+01  0.54133959692E+02  0.10908565249E+04  0.11045932701E+04  0.16500000000E+03 0.  0.
   -5000001    1    1    2    0    0 -0.16878585785E+01 -0.54133959692E+02  0.50987496710E+03  0.53863792712E+03  0.16500000000E+03 0.  0.
<mgrwt>
<rscale>  0 0.37130507E+03</rscale>
<asrwt>0</asrwt>
<pdfrwt beam="1">  1        2 0.23171159E+00 0.37130507E+03</pdfrwt>
<pdfrwt beam="2">  1       -2 0.30356936E-02 0.37130507E+03</pdfrwt>
<totfact> 0.56547913E+03</totfact>
</mgrwt>
</event>
<event>
 4    1  0.5280257E-005  0.1590665E+04  0.7818608E-02  0.8826303E-01
          2   -1    0    0  501    0  0.00000000000E+00  0.00000000000E+00  0.28110390873E+04  0.28110390873E+04  0.25500000000E-02 0.  1.
         -2   -1    0    0    0  501 -0.00000000000E+00 -0.00000000000E+00 -0.22502488813E+03  0.22502488814E+03  0.25500000000E-02 0. -1.
    5000001    1    1    2    0    0  0.18333682291E+03 -0.45502903889E+03  0.14040552484E+03  0.53628586432E+03  0.16500000000E+03 0.  0.
   -5000001    1    1    2    0    0 -0.18333682291E+03  0.45502903889E+03  0.24456086744E+04  0.24997781112E+04  0.16500000000E+03 0.  0.
<mgrwt>
<rscale>  0 0.15906650E+04</rscale>
<asrwt>0</asrwt>
<pdfrwt beam="1">  1        2 0.40157700E+00 0.15906650E+04</pdfrwt>
<pdfrwt beam="2">  1       -2 0.32146414E-01 0.15906650E+04</pdfrwt>
<totfact> 0.26052898E+01</totfact>
</mgrwt>
</event>
<event>
 4    1  0.5280257E-005  0.5151572E+03  0.7818608E-02  0.1009897E+00
          2   -1    0    0  501    0  0.00000000000E+00  0.00000000000E+00  0.54649578230E+03  0.54649578230E+03  0.25500000000E-02 0.  1.
         -2   -1    0    0    0  501 -0.00000000000E+00 -0.00000000000E+00 -0.12140391996E+03  0.12140391998E+03  0.25500000000E-02 0. -1.
    5000001    1    1    2    0    0  0.18630352613E+03  0.57798566032E+02  0.17009576000E+03  0.30693198865E+03  0.16500000000E+03 0.  0.
   -5000001    1    1    2    0    0 -0.18630352613E+03 -0.57798566032E+02  0.25499610233E+03  0.36096771364E+03  0.16500000000E+03 0.  0.
<mgrwt>
<rscale>  0 0.51515718E+03</rscale>
<asrwt>0</asrwt>
<pdfrwt beam="1">  1        2 0.78070828E-01 0.51515718E+03</pdfrwt>
<pdfrwt beam="2">  1       -2 0.17343417E-01 0.51515718E+03</pdfrwt>
<totfact> 0.16517911E+03</totfact>
</mgrwt>
</event>
<event>
 4    1  0.5280257E-005  0.5862031E+03  0.7818608E-02  0.9934451E-01
          2   -1    0    0  501    0  0.00000000000E+00  0.00000000000E+00  0.30093760228E+04  0.30093760228E+04  0.25500000000E-02 0.  1.
         -2   -1    0    0    0  501 -0.00000000000E+00 -0.00000000000E+00 -0.28546954136E+02  0.28546954249E+02  0.25500000000E-02 0. -1.
    5000001    1    1    2    0    0 -0.10771453656E+03 -0.15893176374E+03  0.72486401189E+03  0.76779851696E+03  0.16500000000E+03 0.  0.
   -5000001    1    1    2    0    0  0.10771453656E+03  0.15893176374E+03  0.22559650567E+04  0.22701244601E+04  0.16500000000E+03 0.  0.
<mgrwt>
<rscale>  0 0.58620310E+03</rscale>
<asrwt>0</asrwt>
<pdfrwt beam="1">  1        2 0.42991069E+00 0.58620310E+03</pdfrwt>
<pdfrwt beam="2">  1       -2 0.40781379E-02 0.58620310E+03</pdfrwt>
<totfact> 0.70177178E+02</totfact>
</mgrwt>
</event>
<event>
 4    1  0.5280257E-005  0.8692932E+03  0.7818608E-02  0.9464802E-01
          2   -1    0    0  501    0  0.00000000000E+00  0.00000000000E+00  0.11505949132E+04  0.11505949132E+04  0.25500000000E-02 0.  1.
         -2   -1    0    0    0  501 -0.00000000000E+00 -0.00000000000E+00 -0.16419128122E+03  0.16419128124E+03  0.25500000000E-02 0. -1.
    5000001    1    1    2    0    0 -0.20450451174E+03  0.30475435375E+03  0.74170575774E+03  0.84383039914E+03  0.16500000000E+03 0.  0.
   -5000001    1    1    2    0    0  0.20450451174E+03 -0.30475435375E+03  0.24469787420E+03  0.47095579526E+03  0.16500000000E+03 0.  0.
<mgrwt>
<rscale>  0 0.86929317E+03</rscale>
<asrwt>0</asrwt>
<pdfrwt beam="1">  1        2 0.16437070E+00 0.86929317E+03</pdfrwt>
<pdfrwt beam="2">  1       -2 0.23455897E-01 0.86929317E+03</pdfrwt>
<totfact> 0.36729467E+02</totfact>
</mgrwt>
</event>
<event>
 4    1  0.5280257E-005  0.4619821E+03  0.7818608E-02  0.1024208E+00
          2   -1    0    0  501    0  0.00000000000E+00  0.00000000000E+00  0.94208021045E+03  0.94208021046E+03  0.25500000000E-02 0.  1.
         -2   -1    0    0    0  501 -0.00000000000E+00 -0.00000000000E+00 -0.56637293672E+02  0.56637293729E+02  0.25500000000E-02 0. -1.
    5000001    1    1    2    0    0 -0.10797099359E+03 -0.10997610968E+03  0.33727048169E+03  0.40586803025E+03  0.16500000000E+03 0.  0.
   -5000001    1    1    2    0    0  0.10797099359E+03  0.10997610968E+03  0.54817243509E+03  0.59284947394E+03  0.16500000000E+03 0.  0.
<mgrwt>
<rscale>  0 0.46198214E+03</rscale>
<asrwt>0</asrwt>
<pdfrwt beam="1">  1        2 0.13458290E+00 0.46198214E+03</pdfrwt>
<pdfrwt beam="2">  1       -2 0.80910412E-02 0.46198214E+03</pdfrwt>
<totfact> 0.29461138E+03</totfact>
</mgrwt>
</event>
<event>
 4    1  0.5280257E-005  0.7537958E+03  0.7818608E-02  0.9629414E-01
         -2   -1    0    0    0  501 -0.00000000000E+00  0.00000000000E+00  0.74102414359E+02  0.74102414403E+02  0.25500000000E-02 0. -1.
          2   -1    0    0  501    0  0.00000000000E+00 -0.00000000000E+00 -0.19169690214E+04  0.19169690214E+04  0.25500000000E-02 0.  1.
    5000001    1    1    2    0    0  0.10310711510E+03  0.22772765619E+03 -0.31715962885E+03  0.43624098013E+03  0.16500000000E+03 0.  0.
   -5000001    1    1    2    0    0 -0.10310711510E+03 -0.22772765619E+03 -0.15257069782E+04  0.15548304557E+04  0.16500000000E+03 0.  0.
<mgrwt>
<rscale>  0 0.75379582E+03</rscale>
<asrwt>0</asrwt>
<pdfrwt beam="1">  1        2 0.27385269E+00 0.75379582E+03</pdfrwt>
<pdfrwt beam="2">  1       -2 0.10586060E-01 0.75379582E+03</pdfrwt>
<totfact> 0.56365502E+02</totfact>
</mgrwt>
</event>
<event>
 4    1  0.5280257E-005  0.6430611E+03  0.7818608E-02  0.9819887E-01
          2   -1    0    0  501    0  0.00000000000E+00  0.00000000000E+00  0.21595183430E+03  0.21595183431E+03  0.25500000000E-02 0.  1.
         -2   -1    0    0    0  501 -0.00000000000E+00 -0.00000000000E+00 -0.47872665474E+03  0.47872665475E+03  0.25500000000E-02 0. -1.
    5000001    1    1    2    0    0 -0.67222992746E+02 -0.26748743274E+03 -0.12122818993E+03  0.34349633399E+03  0.16500000000E+03 0.  0.
   -5000001    1    1    2    0    0  0.67222992746E+02  0.26748743274E+03 -0.14154663051E+03  0.35118215507E+03  0.16500000000E+03 0.  0.
<mgrwt>
<rscale>  0 0.64306111E+03</rscale>
<asrwt>0</asrwt>
<pdfrwt beam="1">  1        2 0.30850262E-01 0.64306111E+03</pdfrwt>
<pdfrwt beam="2">  1       -2 0.68389522E-01 0.64306111E+03</pdfrwt>
<totfact> 0.34043510E+02</totfact>
</mgrwt>
</event>
<event>
 4    1  0.5280257E-005  0.7029461E+03  0.7818608E-02  0.9712207E-01
         -2   -1    0    0    0  501 -0.00000000000E+00  0.00000000000E+00  0.29248111231E+02  0.29248111342E+02  0.25500000000E-02 0. -1.
          2   -1    0    0  501    0  0.00000000000E+00 -0.00000000000E+00 -0.42236339408E+04  0.42236339408E+04  0.25500000000E-02 0.  1.
    5000001    1    1    2    0    0  0.30208241377E+03 -0.39312273786E+02 -0.17388014334E+04  0.17729790367E+04  0.16500000000E+03 0.  0.
   -5000001    1    1    2    0    0 -0.30208241377E+03  0.39312273786E+02 -0.24555843961E+04  0.24799030154E+04  0.16500000000E+03 0.  0.
<mgrwt>
<rscale>  0 0.70294613E+03</rscale>
<asrwt>0</asrwt>
<pdfrwt beam="1">  1        2 0.60337589E+00 0.70294613E+03</pdfrwt>
<pdfrwt beam="2">  1       -2 0.41783043E-02 0.70294613E+03</pdfrwt>
<totfact> 0.11908719E+02</totfact>
</mgrwt>
</event>
<event>
 4    1  0.5280257E-005  0.6683743E+03  0.7818608E-02  0.9772899E-01
          2   -1    0    0  501    0  0.00000000000E+00  0.00000000000E+00  0.26861631293E+03  0.26861631294E+03  0.25500000000E-02 0.  1.
         -2   -1    0    0    0  501 -0.00000000000E+00 -0.00000000000E+00 -0.41576420034E+03  0.41576420034E+03  0.25500000000E-02 0. -1.
    5000001    1    1    2    0    0  0.24465330277E+03 -0.21510575632E+02  0.85511143802E+02  0.30798555021E+03  0.16500000000E+03 0.  0.
   -5000001    1    1    2    0    0 -0.24465330277E+03  0.21510575632E+02 -0.23265903121E+03  0.37639496307E+03  0.16500000000E+03 0.  0.
<mgrwt>
<rscale>  0 0.66837429E+03</rscale>
<asrwt>0</asrwt>
<pdfrwt beam="1">  1        2 0.38373759E-01 0.66837429E+03</pdfrwt>
<pdfrwt beam="2">  1       -2 0.59394886E-01 0.66837429E+03</pdfrwt>
<totfact> 0.36020160E+02</totfact>
</mgrwt>
</event>
<event>
 4    1  0.5280257E-005  0.3868772E+03  0.7818608E-02  0.1048421E+00
         -2   -1    0    0    0  501 -0.00000000000E+00  0.00000000000E+00  0.68521979088E+03  0.68521979088E+03  0.25500000000E-02 0. -1.
          2   -1    0    0  501    0  0.00000000000E+00 -0.00000000000E+00 -0.54608006730E+02  0.54608006789E+02  0.25500000000E-02 0.  1.
    5000001    1    1    2    0    0  0.77004297957E+02  0.62318956213E+02  0.35259208484E+03  0.40169577107E+03  0.16500000000E+03 0.  0.
   -5000001    1    1    2    0    0 -0.77004297957E+02 -0.62318956213E+02  0.27801969930E+03  0.33813202659E+03  0.16500000000E+03 0.  0.
<mgrwt>
<rscale>  0 0.38687717E+03</rscale>
<asrwt>0</asrwt>
<pdfrwt beam="1">  1        2 0.78011442E-02 0.38687717E+03</pdfrwt>
<pdfrwt beam="2">  1       -2 0.97888537E-01 0.38687717E+03</pdfrwt>
<totfact> 0.79731315E+02</totfact>
</mgrwt>
</event>
<event>
 4    1  0.5280257E-005  0.4388228E+03  0.7818608E-02  0.1031109E+00
         -2   -1    0    0    0  501 -0.00000000000E+00  0.00000000000E+00  0.58028679703E+02  0.58028679759E+02  0.25500000000E-02 0. -1.
          2   -1    0    0  501    0  0.00000000000E+00 -0.00000000000E+00 -0.82961328778E+03  0.82961328779E+03  0.25500000000E-02 0.  1.
    5000001    1    1    2    0    0 -0.99218871816E+02 -0.10522201548E+03 -0.38691255597E+03  0.44479476507E+03  0.16500000000E+03 0.  0.
   -5000001    1    1    2    0    0  0.99218871816E+02  0.10522201548E+03 -0.38467205211E+03  0.44284720248E+03  0.16500000000E+03 0.  0.
<mgrwt>
<rscale>  0 0.43882281E+03</rscale>
<asrwt>0</asrwt>
<pdfrwt beam="1">  1        2 0.11851618E+00 0.43882281E+03</pdfrwt>
<pdfrwt beam="2">  1       -2 0.82898119E-02 0.43882281E+03</pdfrwt>
<totfact> 0.33491539E+03</totfact>
</mgrwt>
</event>
<event>
 4    1  0.5280257E-005  0.4551347E+03  0.7818608E-02  0.1026202E+00
         -2   -1    0    0    0  501 -0.00000000000E+00  0.00000000000E+00  0.42346123533E+02  0.42346123609E+02  0.25500000000E-02 0. -1.
          2   -1    0    0  501    0  0.00000000000E+00 -0.00000000000E+00 -0.12229432923E+04  0.12229432924E+04  0.25500000000E-02 0.  1.
    5000001    1    1    2    0    0 -0.14950993757E+03  0.38943999992E+02 -0.51716463832E+03  0.56440598836E+03  0.16500000000E+03 0.  0.
   -5000001    1    1    2    0    0  0.14950993757E+03 -0.38943999992E+02 -0.66343253050E+03  0.70088342761E+03  0.16500000000E+03 0.  0.
<mgrwt>
<rscale>  0 0.45513474E+03</rscale>
<asrwt>0</asrwt>
<pdfrwt beam="1">  1        2 0.17470616E+00 0.45513474E+03</pdfrwt>
<pdfrwt beam="2">  1       -2 0.60494470E-02 0.45513474E+03</pdfrwt>
<totfact> 0.31916975E+03</totfact>
</mgrwt>
</event>
<event>
 4    1  0.5280257E-005  0.5985718E+03  0.7818608E-02  0.9908374E-01
         -2   -1    0    0    0  501 -0.00000000000E+00  0.00000000000E+00  0.63411458427E+03  0.63411458427E+03  0.25500000000E-02 0. -1.
          2   -1    0    0  501    0  0.00000000000E+00 -0.00000000000E+00 -0.14125529404E+03  0.14125529407E+03  0.25500000000E-02 0.  1.
    5000001    1    1    2    0    0  0.21731275395E+03 -0.44214468697E+02  0.39507142227E+03  0.48216820817E+03  0.16500000000E+03 0.  0.
   -5000001    1    1    2    0    0 -0.21731275395E+03  0.44214468697E+02  0.97787867957E+02  0.29320167017E+03  0.16500000000E+03 0.  0.
<mgrwt>
<rscale>  0 0.59857177E+03</rscale>
<asrwt>0</asrwt>
<pdfrwt beam="1">  1        2 0.20179328E-01 0.59857177E+03</pdfrwt>
<pdfrwt beam="2">  1       -2 0.90587797E-01 0.59857177E+03</pdfrwt>
<totfact> 0.29592755E+02</totfact>
</mgrwt>
</event>
<event>
 4    1  0.5280257E-005  0.4408340E+03  0.7818608E-02  0.1030491E+00
         -2   -1    0    0    0  501 -0.00000000000E+00  0.00000000000E+00  0.34603115178E+02  0.34603115272E+02  0.25500000000E-02 0. -1.
          2   -1    0    0  501    0  0.00000000000E+00 -0.00000000000E+00 -0.14040254528E+04  0.14040254528E+04  0.25500000000E-02 0.  1.
    5000001    1    1    2    0    0 -0.14456570430E+03 -0.14739548692E+02 -0.63392769094E+03  0.67097378078E+03  0.16500000000E+03 0.  0.
   -5000001    1    1    2    0    0  0.14456570430E+03  0.14739548692E+02 -0.73549464672E+03  0.76765478733E+03  0.16500000000E+03 0.  0.
<mgrwt>
<rscale>  0 0.44083400E+03</rscale>
<asrwt>0</asrwt>
<pdfrwt beam="1">  1        2 0.20057503E+00 0.44083400E+03</pdfrwt>
<pdfrwt beam="2">  1       -2 0.49433031E-02 0.44083400E+03</pdfrwt>
<totfact> 0.34881303E+03</totfact>
</mgrwt>
</event>
<event>
 4    1  0.5280257E-005  0.4251585E+03  0.7818608E-02  0.1035400E+00
          2   -1    0    0  501    0  0.00000000000E+00  0.00000000000E+00  0.13042890617E+03  0.13042890620E+03  0.25500000000E-02 0.  1.
         -2   -1    0    0    0  501 -0.00000000000E+00 -0.00000000000E+00 -0.34647181733E+03  0.34647181734E+03  0.25500000000E-02 0. -1.
    5000001    1    1    2    0    0 -0.86715401447E+02 -0.91629462941E+02 -0.15880145318E+03  0.26145443362E+03  0.16500000000E+03 0.  0.
   -5000001    1    1    2    0    0  0.86715401447E+02  0.91629462941E+02 -0.57241457977E+02  0.21544628992E+03  0.16500000000E+03 0.  0.
<mgrwt>
<rscale>  0 0.42515851E+03</rscale>
<asrwt>0</asrwt>
<pdfrwt beam="1">  1        2 0.18632701E-01 0.42515851E+03</pdfrwt>
<pdfrwt beam="2">  1       -2 0.49495973E-01 0.42515851E+03</pdfrwt>
<totfact> 0.11917945E+03</totfact>
</mgrwt>
</event>
<event>
 4    1  0.5280257E-005  0.4359742E+03  0.7818608E-02  0.1031989E+00
          2   -1    0    0  501    0  0.00000000000E+00  0.00000000000E+00  0.25338944747E+04  0.25338944747E+04  0.25500000000E-02 0.  1.
         -2   -1    0    0    0  501 -0.00000000000E+00 -0.00000000000E+00 -0.18753102473E+02  0.18753102646E+02  0.25500000000E-02 0. -1.
    5000001    1    1    2    0    0 -0.66897897225E+02  0.75288747342E+02  0.18474399395E+04  0.18575260575E+04  0.16500000000E+03 0.  0.
   -5000001    1    1    2    0    0  0.66897897225E+02 -0.75288747342E+02  0.66770143276E+03  0.69512151991E+03  0.16500000000E+03 0.  0.
<mgrwt>
<rscale>  0 0.43597423E+03</rscale>
<asrwt>0</asrwt>
<pdfrwt beam="1">  1        2 0.36198516E+00 0.43597423E+03</pdfrwt>
<pdfrwt beam="2">  1       -2 0.26790129E-02 0.43597423E+03</pdfrwt>
<totfact> 0.23907615E+03</totfact>
</mgrwt>
</event>
<event>
 4    1  0.5280257E-005  0.4979194E+03  0.7818608E-02  0.1014323E+00
         -2   -1    0    0    0  501 -0.00000000000E+00  0.00000000000E+00  0.21472735185E+02  0.21472735336E+02  0.25500000000E-02 0. -1.
          2   -1    0    0  501    0  0.00000000000E+00 -0.00000000000E+00 -0.28864944471E+04  0.28864944471E+04  0.25500000000E-02 0.  1.
    5000001    1    1    2    0    0 -0.17843967049E+03 -0.21760815921E+02 -0.17210966884E+04  0.17383075275E+04  0.16500000000E+03 0.  0.
   -5000001    1    1    2    0    0  0.17843967049E+03  0.21760815921E+02 -0.11439250235E+04  0.11696596550E+04  0.16500000000E+03 0.  0.
<mgrwt>
<rscale>  0 0.49791940E+03</rscale>
<asrwt>0</asrwt>
<pdfrwt beam="1">  1        2 0.41235611E+00 0.49791940E+03</pdfrwt>
<pdfrwt beam="2">  1       -2 0.30675354E-02 0.49791940E+03</pdfrwt>
<totfact> 0.12719717E+03</totfact>
</mgrwt>
</event>
<event>
 4    1  0.5280257E-005  0.6755397E+03  0.7818608E-02  0.9760002E-01
          2   -1    0    0  501    0  0.00000000000E+00  0.00000000000E+00  0.48399440983E+03  0.48399440984E+03  0.25500000000E-02 0.  1.
         -2   -1    0    0    0  501 -0.00000000000E+00 -0.00000000000E+00 -0.23572271801E+03  0.23572271803E+03  0.25500000000E-02 0. -1.
    5000001    1    1    2    0    0  0.87014829599E+01 -0.23335882861E+03  0.31570400830E+03  0.42594140389E+03  0.16500000000E+03 0.  0.
   -5000001    1    1    2    0    0 -0.87014829599E+01  0.23335882861E+03 -0.67432316473E+02  0.29377572398E+03  0.16500000000E+03 0.  0.
<mgrwt>
<rscale>  0 0.67553972E+03</rscale>
<asrwt>0</asrwt>
<pdfrwt beam="1">  1        2 0.69142058E-01 0.67553972E+03</pdfrwt>
<pdfrwt beam="2">  1       -2 0.33674674E-01 0.67553972E+03</pdfrwt>
<totfact> 0.57775293E+02</totfact>
</mgrwt>
</event>
<event>
 4    1  0.5280257E-005  0.6000160E+03  0.7818608E-02  0.9905373E-01
          2   -1    0    0  501    0  0.00000000000E+00  0.00000000000E+00  0.13702008267E+04  0.13702008267E+04  0.25500000000E-02 0.  1.
         -2   -1    0    0    0  501 -0.00000000000E+00 -0.00000000000E+00 -0.65687305217E+02  0.65687305267E+02  0.25500000000E-02 0. -1.
    5000001    1    1    2    0    0 -0.55464432541E+02 -0.22609919509E+03  0.87395818975E+03  0.91936122755E+03  0.16500000000E+03 0.  0.
   -5000001    1    1    2    0    0  0.55464432541E+02  0.22609919509E+03  0.43055533169E+03  0.51652690437E+03  0.16500000000E+03 0.  0.
<mgrwt>
<rscale>  0 0.60001600E+03</rscale>
<asrwt>0</asrwt>
<pdfrwt beam="1">  1        2 0.19574297E+00 0.60001600E+03</pdfrwt>
<pdfrwt beam="2">  1       -2 0.93839010E-02 0.60001600E+03</pdfrwt>
<totfact> 0.13221521E+03</totfact>
</mgrwt>
</event>
<event>
 4    1  0.5280257E-005  0.5468590E+03  0.7818608E-02  0.1002224E+00
          2   -1    0    0  501    0  0.00000000000E+00  0.00000000000E+00  0.78511814518E+03  0.78511814519E+03  0.25500000000E-02 0.  1.
         -2   -1    0    0    0  501 -0.00000000000E+00 -0.00000000000E+00 -0.95226033037E+02  0.95226033072E+02  0.25500000000E-02 0. -1.
    5000001    1    1    2    0    0 -0.11810953385E+02 -0.21394408389E+03  0.40988220237E+03  0.49106006707E+03  0.16500000000E+03 0.  0.
   -5000001    1    1    2    0    0  0.11810953385E+02  0.21394408389E+03  0.28000990978E+03  0.38928411119E+03  0.16500000000E+03 0.  0.
<mgrwt>
<rscale>  0 0.54685898E+03</rscale>
<asrwt>0</asrwt>
<pdfrwt beam="1">  1        2 0.11215973E+00 0.54685898E+03</pdfrwt>
<pdfrwt beam="2">  1       -2 0.13603719E-01 0.54685898E+03</pdfrwt>
<totfact> 0.16094896E+03</totfact>
</mgrwt>
</event>
<event>
 4    1  0.5280257E-005  0.4909030E+03  0.7818608E-02  0.1016181E+00
          2   -1    0    0  501    0  0.00000000000E+00  0.00000000000E+00  0.26852696178E+03  0.26852696179E+03  0.25500000000E-02 0.  1.
         -2   -1    0    0    0  501 -0.00000000000E+00 -0.00000000000E+00 -0.22435900055E+03  0.22435900057E+03  0.25500000000E-02 0. -1.
    5000001    1    1    2    0    0 -0.32069687667E+02 -0.17882812201E+03  0.18397817960E+02  0.24611266078E+03  0.16500000000E+03 0.  0.
   -5000001    1    1    2    0    0  0.32069687667E+02  0.17882812201E+03  0.25770143267E+02  0.24677330158E+03  0.16500000000E+03 0.  0.
<mgrwt>
<rscale>  0 0.49090301E+03</rscale>
<asrwt>0</asrwt>
<pdfrwt beam="1">  1        2 0.38360995E-01 0.49090301E+03</pdfrwt>
<pdfrwt beam="2">  1       -2 0.32051286E-01 0.49090301E+03</pdfrwt>
<totfact> 0.12206042E+03</totfact>
</mgrwt>
</event>
<event>
 4    1  0.5280257E-005  0.4574255E+03  0.7818608E-02  0.1025531E+00
          2   -1    0    0  501    0  0.00000000000E+00  0.00000000000E+00  0.26475150562E+03  0.26475150563E+03  0.25500000000E-02 0.  1.
         -2   -1    0    0    0  501 -0.00000000000E+00 -0.00000000000E+00 -0.19757971037E+03  0.19757971039E+03  0.25500000000E-02 0. -1.
    5000001    1    1    2    0    0  0.22139895388E+02 -0.14460818053E+03  0.94923016079E+02  0.24007723721E+03  0.16500000000E+03 0.  0.
   -5000001    1    1    2    0    0 -0.22139895388E+02  0.14460818053E+03 -0.27751220831E+02  0.22225397882E+03  0.16500000000E+03 0.  0.
<mgrwt>
<rscale>  0 0.45742552E+03</rscale>
<asrwt>0</asrwt>
<pdfrwt beam="1">  1        2 0.37821644E-01 0.45742552E+03</pdfrwt>
<pdfrwt beam="2">  1       -2 0.28225673E-01 0.45742552E+03</pdfrwt>
<totfact> 0.15656470E+03</totfact>
</mgrwt>
</event>
<event>
 4    1  0.5280257E-005  0.6616074E+03  0.7818608E-02  0.9785239E-01
          2   -1    0    0  501    0  0.00000000000E+00  0.00000000000E+00  0.71426367449E+03  0.71426367450E+03  0.25500000000E-02 0.  1.
         -2   -1    0    0    0  501 -0.00000000000E+00 -0.00000000000E+00 -0.15320825761E+03  0.15320825763E+03  0.25500000000E-02 0. -1.
    5000001    1    1    2    0    0  0.14956443783E+03 -0.63468091345E+02  0.59027302587E+03  0.63407015759E+03  0.16500000000E+03 0.  0.
   -5000001    1    1    2    0    0 -0.14956443783E+03  0.63468091345E+02 -0.29217608988E+02  0.23340177454E+03  0.16500000000E+03 0.  0.
<mgrwt>
<rscale>  0 0.66160742E+03</rscale>
<asrwt>0</asrwt>
<pdfrwt beam="1">  1        2 0.10203767E+00 0.66160742E+03</pdfrwt>
<pdfrwt beam="2">  1       -2 0.21886894E-01 0.66160742E+03</pdfrwt>
<totfact> 0.80125622E+02</totfact>
</mgrwt>
</event>
<event>
 4    1  0.5280257E-005  0.6004176E+03  0.7818608E-02  0.9904540E-01
         -2   -1    0    0    0  501 -0.00000000000E+00  0.00000000000E+00  0.81869758278E+02  0.81869758318E+02  0.25500000000E-02 0. -1.
          2   -1    0    0  501    0  0.00000000000E+00 -0.00000000000E+00 -0.11008377916E+04  0.11008377916E+04  0.25500000000E-02 0.  1.
    5000001    1    1    2    0    0 -0.16541114473E+03 -0.18820420545E+03 -0.48802719158E+03  0.57286753222E+03  0.16500000000E+03 0.  0.
   -5000001    1    1    2    0    0  0.16541114473E+03  0.18820420545E+03 -0.53094084172E+03  0.60984001767E+03  0.16500000000E+03 0.  0.
<mgrwt>
<rscale>  0 0.60041760E+03</rscale>
<asrwt>0</asrwt>
<pdfrwt beam="1">  1        2 0.15726253E+00 0.60041760E+03</pdfrwt>
<pdfrwt beam="2">  1       -2 0.11695680E-01 0.60041760E+03</pdfrwt>
<totfact> 0.13039212E+03</totfact>
</mgrwt>
</event>
<event>
 4    1  0.5280257E-005  0.3946832E+03  0.7818608E-02  0.1045636E+00
          2   -1    0    0  501    0  0.00000000000E+00  0.00000000000E+00  0.40457267275E+03  0.40457267276E+03  0.25500000000E-02 0.  1.
         -2   -1    0    0    0  501 -0.00000000000E+00 -0.00000000000E+00 -0.96258886797E+02  0.96258886831E+02  0.25500000000E-02 0. -1.
    5000001    1    1    2    0    0 -0.21973873589E+02  0.52031737138E+02  0.36969493670E+02  0.17827477739E+03  0.16500000000E+03 0.  0.
   -5000001    1    1    2    0    0  0.21973873589E+02 -0.52031737138E+02  0.27134429228E+03  0.32255678220E+03  0.16500000000E+03 0.  0.
<mgrwt>
<rscale>  0 0.39468324E+03</rscale>
<asrwt>0</asrwt>
<pdfrwt beam="1">  1        2 0.57796095E-01 0.39468324E+03</pdfrwt>
<pdfrwt beam="2">  1       -2 0.13751270E-01 0.39468324E+03</pdfrwt>
<totfact> 0.34047693E+03</totfact>
</mgrwt>
</event>
<event>
 4    1  0.5280257E-005  0.3405690E+03  0.7818608E-02  0.1066554E+00
         -2   -1    0    0    0  501 -0.00000000000E+00  0.00000000000E+00  0.41458338392E+02  0.41458338471E+02  0.25500000000E-02 0. -1.
          2   -1    0    0  501    0  0.00000000000E+00 -0.00000000000E+00 -0.69942066801E+03  0.69942066802E+03  0.25500000000E-02 0.  1.
    5000001    1    1    2    0    0  0.33445027177E+02  0.95464348769E+01 -0.38055797877E+03  0.41624401433E+03  0.16500000000E+03 0.  0.
   -5000001    1    1    2    0    0 -0.33445027177E+02 -0.95464348769E+01 -0.27740435085E+03  0.32463499216E+03  0.16500000000E+03 0.  0.
<mgrwt>
<rscale>  0 0.34056905E+03</rscale>
<asrwt>0</asrwt>
<pdfrwt beam="1">  1        2 0.99917231E-01 0.34056905E+03</pdfrwt>
<pdfrwt beam="2">  1       -2 0.59226202E-02 0.34056905E+03</pdfrwt>
<totfact> 0.69651151E+03</totfact>
</mgrwt>
</event>
<event>
 4    1  0.5280257E-005  0.6598400E+03  0.7818608E-02  0.9788488E-01
          2   -1    0    0  501    0  0.00000000000E+00  0.00000000000E+00  0.31493877012E+04  0.31493877012E+04  0.25500000000E-02 0.  1.
         -2   -1    0    0    0  501 -0.00000000000E+00 -0.00000000000E+00 -0.34561384391E+02  0.34561384485E+02  0.25500000000E-02 0. -1.
    5000001    1    1    2    0    0 -0.98405692009E+02  0.21431821767E+03  0.77925816360E+03  0.83071310582E+03  0.16500000000E+03 0.  0.
   -5000001    1    1    2    0    0  0.98405692009E+02 -0.21431821767E+03  0.23355681532E+04  0.23532359798E+04  0.16500000000E+03 0.  0.
<mgrwt>
<rscale>  0 0.65983998E+03</rscale>
<asrwt>0</asrwt>
<pdfrwt beam="1">  1        2 0.44991224E+00 0.65983998E+03</pdfrwt>
<pdfrwt beam="2">  1       -2 0.49373438E-02 0.65983998E+03</pdfrwt>
<totfact> 0.43408696E+02</totfact>
</mgrwt>
</event>
<event>
 4    1  0.5280257E-005  0.7324843E+03  0.7818608E-02  0.9663238E-01
          2   -1    0    0  501    0  0.00000000000E+00  0.00000000000E+00  0.94540900801E+03  0.94540900802E+03  0.25500000000E-02 0.  1.
         -2   -1    0    0    0  501 -0.00000000000E+00 -0.00000000000E+00 -0.14187860241E+03  0.14187860243E+03  0.25500000000E-02 0. -1.
    5000001    1    1    2    0    0  0.26433970224E+03  0.10113295554E+03  0.64479172571E+03  0.72324596260E+03  0.16500000000E+03 0.  0.
   -5000001    1    1    2    0    0 -0.26433970224E+03 -0.10113295554E+03  0.15873867989E+03  0.36404164785E+03  0.16500000000E+03 0.  0.
<mgrwt>
<rscale>  0 0.73248429E+03</rscale>
<asrwt>0</asrwt>
<pdfrwt beam="1">  1        2 0.13505843E+00 0.73248429E+03</pdfrwt>
<pdfrwt beam="2">  1       -2 0.20268372E-01 0.73248429E+03</pdfrwt>
<totfact> 0.63580142E+02</totfact>
</mgrwt>
</event>
<event>
 4    1  0.5280257E-005  0.3966669E+03  0.7818608E-02  0.1044940E+00
         -2   -1    0    0    0  501 -0.00000000000E+00  0.00000000000E+00  0.26376236281E+02  0.26376236405E+02  0.25500000000E-02 0. -1.
          2   -1    0    0  501    0  0.00000000000E+00 -0.00000000000E+00 -0.14913482015E+04  0.14913482015E+04  0.25500000000E-02 0.  1.
    5000001    1    1    2    0    0  0.66998376384E+02 -0.12175902432E+02 -0.40170010897E+03  0.43957367140E+03  0.16500000000E+03 0.  0.
   -5000001    1    1    2    0    0 -0.66998376384E+02  0.12175902432E+02 -0.10632718563E+04  0.10781507665E+04  0.16500000000E+03 0.  0.
<mgrwt>
<rscale>  0 0.39666688E+03</rscale>
<asrwt>0</asrwt>
<pdfrwt beam="1">  1        2 0.21304969E+00 0.39666688E+03</pdfrwt>
<pdfrwt beam="2">  1       -2 0.37680347E-02 0.39666688E+03</pdfrwt>
<totfact> 0.47564950E+03</totfact>
</mgrwt>
</event>
<event>
 4    1  0.5280257E-005  0.3996806E+03  0.7818608E-02  0.1043890E+00
          2   -1    0    0  501    0  0.00000000000E+00  0.00000000000E+00  0.51796319027E+03  0.51796319027E+03  0.25500000000E-02 0.  1.
         -2   -1    0    0    0  501 -0.00000000000E+00 -0.00000000000E+00 -0.77102289113E+02  0.77102289155E+02  0.25500000000E-02 0. -1.
    5000001    1    1    2    0    0 -0.53520890027E+02  0.63301344370E+02  0.33420452030E+03  0.38182352895E+03  0.16500000000E+03 0.  0.
   -5000001    1    1    2    0    0  0.53520890027E+02 -0.63301344370E+02  0.10665638085E+03  0.21324195048E+03  0.16500000000E+03 0.  0.
<mgrwt>
<rscale>  0 0.39968061E+03</rscale>
<asrwt>0</asrwt>
<pdfrwt beam="1">  1        2 0.73994738E-01 0.39968061E+03</pdfrwt>
<pdfrwt beam="2">  1       -2 0.11014613E-01 0.39968061E+03</pdfrwt>
<totfact> 0.37203039E+03</totfact>
</mgrwt>
</event>
<event>
 4    1  0.5280257E-005  0.6573822E+03  0.7818608E-02  0.9793025E-01
         -2   -1    0    0    0  501 -0.00000000000E+00  0.00000000000E+00  0.16834873936E+03  0.16834873938E+03  0.25500000000E-02 0. -1.
          2   -1    0    0  501    0  0.00000000000E+00 -0.00000000000E+00 -0.64175015244E+03  0.64175015245E+03  0.25500000000E-02 0.  1.
    5000001    1    1    2    0    0  0.37978686379E+02 -0.27977864307E+03 -0.19593451798E+03  0.38122671086E+03  0.16500000000E+03 0.  0.
   -5000001    1    1    2    0    0 -0.37978686379E+02  0.27977864307E+03 -0.27746689510E+03  0.42887218097E+03  0.16500000000E+03 0.  0.
<mgrwt>
<rscale>  0 0.65738217E+03</rscale>
<asrwt>0</asrwt>
<pdfrwt beam="1">  1        2 0.91678592E-01 0.65738217E+03</pdfrwt>
<pdfrwt beam="2">  1       -2 0.24049820E-01 0.65738217E+03</pdfrwt>
<totfact> 0.77203156E+02</totfact>
</mgrwt>
</event>
<event>
 4    1  0.5280257E-005  0.8927958E+03  0.7818608E-02  0.9434632E-01
         -2   -1    0    0    0  501 -0.00000000000E+00  0.00000000000E+00  0.17305478805E+03  0.17305478807E+03  0.25500000000E-02 0. -1.
          2   -1    0    0  501    0  0.00000000000E+00 -0.00000000000E+00 -0.11514914310E+04  0.11514914310E+04  0.25500000000E-02 0.  1.
    5000001    1    1    2    0    0  0.37153992621E+03 -0.18411154816E+03 -0.47386283284E+03  0.65093007557E+03  0.16500000000E+03 0.  0.
   -5000001    1    1    2    0    0 -0.37153992621E+03  0.18411154816E+03 -0.50457381007E+03  0.67361614347E+03  0.16500000000E+03 0.  0.
<mgrwt>
<rscale>  0 0.89279585E+03</rscale>
<asrwt>0</asrwt>
<pdfrwt beam="1">  1        2 0.16449877E+00 0.89279585E+03</pdfrwt>
<pdfrwt beam="2">  1       -2 0.24722113E-01 0.89279585E+03</pdfrwt>
<totfact> 0.33340704E+02</totfact>
</mgrwt>
</event>
<event>
 4    1  0.5280257E-005  0.3549837E+03  0.7818608E-02  0.1060588E+00
          2   -1    0    0  501    0  0.00000000000E+00  0.00000000000E+00  0.79196749827E+03  0.79196749827E+03  0.25500000000E-02 0.  1.
         -2   -1    0    0    0  501 -0.00000000000E+00 -0.00000000000E+00 -0.39778594588E+02  0.39778594670E+02  0.25500000000E-02 0. -1.
    5000001    1    1    2    0    0 -0.62522091432E+02 -0.18954646117E+02  0.36866155715E+03  0.40915111419E+03  0.16500000000E+03 0.  0.
   -5000001    1    1    2    0    0  0.62522091432E+02  0.18954646117E+02  0.38352734653E+03  0.42259497875E+03  0.16500000000E+03 0.  0.
<mgrwt>
<rscale>  0 0.35498368E+03</rscale>
<asrwt>0</asrwt>
<pdfrwt beam="1">  1        2 0.11313821E+00 0.35498368E+03</pdfrwt>
<pdfrwt beam="2">  1       -2 0.56826564E-02 0.35498368E+03</pdfrwt>
<totfact> 0.63846916E+03</totfact>
</mgrwt>
</event>
<event>
 4    1  0.5280257E-005  0.1265032E+04  0.7818608E-02  0.9057764E-01
          2   -1    0    0  501    0  0.00000000000E+00  0.00000000000E+00  0.16546684996E+04  0.16546684997E+04  0.25500000000E-02 0.  1.
         -2   -1    0    0    0  501 -0.00000000000E+00 -0.00000000000E+00 -0.24178641696E+03  0.24178641697E+03  0.25500000000E-02 0. -1.
    5000001    1    1    2    0    0  0.15548592718E+03  0.56390697547E+03  0.96904424371E+03  0.11438700524E+04  0.16500000000E+03 0.  0.
   -5000001    1    1    2    0    0 -0.15548592718E+03 -0.56390697547E+03  0.44383783898E+03  0.75258486422E+03  0.16500000000E+03 0.  0.
<mgrwt>
<rscale>  0 0.12650318E+04</rscale>
<asrwt>0</asrwt>
<pdfrwt beam="1">  1        2 0.23638121E+00 0.12650318E+04</pdfrwt>
<pdfrwt beam="2">  1       -2 0.34540917E-01 0.12650318E+04</pdfrwt>
<totfact> 0.93475450E+01</totfact>
</mgrwt>
</event>
<event>
 4    1  0.5280257E-005  0.5918044E+03  0.7818608E-02  0.9922557E-01
         -2   -1    0    0    0  501 -0.00000000000E+00  0.00000000000E+00  0.35943985390E+02  0.35943985480E+02  0.25500000000E-02 0. -1.
          2   -1    0    0  501    0  0.00000000000E+00 -0.00000000000E+00 -0.24359596428E+04  0.24359596428E+04  0.25500000000E-02 0.  1.
    5000001    1    1    2    0    0 -0.26570509338E+02 -0.21942907443E+03 -0.75251482575E+03  0.80147281529E+03  0.16500000000E+03 0.  0.
   -5000001    1    1    2    0    0  0.26570509338E+02  0.21942907443E+03 -0.16475008316E+04  0.16704308130E+04  0.16500000000E+03 0.  0.
<mgrwt>
<rscale>  0 0.59180435E+03</rscale>
<asrwt>0</asrwt>
<pdfrwt beam="1">  1        2 0.34799413E+00 0.59180435E+03</pdfrwt>
<pdfrwt beam="2">  1       -2 0.51348566E-02 0.59180435E+03</pdfrwt>
<totfact> 0.98327103E+02</totfact>
</mgrwt>
</event>
<event>
 4    1  0.5280257E-005  0.4902575E+03  0.7818608E-02  0.1016354E+00
         -2   -1    0    0    0  501 -0.00000000000E+00  0.00000000000E+00  0.79330816899E+02  0.79330816940E+02  0.25500000000E-02 0. -1.
          2   -1    0    0  501    0  0.00000000000E+00 -0.00000000000E+00 -0.75743708086E+03  0.75743708087E+03  0.25500000000E-02 0.  1.
    5000001    1    1    2    0    0  0.17699421890E+03 -0.37469421728E+02 -0.31942937239E+03  0.40248109897E+03  0.16500000000E+03 0.  0.
   -5000001    1    1    2    0    0 -0.17699421890E+03  0.37469421728E+02 -0.35867689158E+03  0.43428679883E+03  0.16500000000E+03 0.  0.
<mgrwt>
<rscale>  0 0.49025749E+03</rscale>
<asrwt>0</asrwt>
<pdfrwt beam="1">  1        2 0.10820529E+00 0.49025749E+03</pdfrwt>
<pdfrwt beam="2">  1       -2 0.11332974E-01 0.49025749E+03</pdfrwt>
<totfact> 0.22742491E+03</totfact>
</mgrwt>
</event>
<event>
 4    1  0.5280257E-005  0.4263254E+03  0.7818608E-02  0.1035027E+00
         -2   -1    0    0    0  501 -0.00000000000E+00  0.00000000000E+00  0.88254732105E+02  0.88254732142E+02  0.25500000000E-02 0. -1.
          2   -1    0    0  501    0  0.00000000000E+00 -0.00000000000E+00 -0.51485433057E+03  0.51485433058E+03  0.25500000000E-02 0.  1.
    5000001    1    1    2    0    0  0.13438858173E+03 -0.49923407286E+01 -0.22931223823E+03  0.31288067528E+03  0.16500000000E+03 0.  0.
   -5000001    1    1    2    0    0 -0.13438858173E+03  0.49923407286E+01 -0.19728736024E+03  0.29022838744E+03  0.16500000000E+03 0.  0.
<mgrwt>
<rscale>  0 0.42632537E+03</rscale>
<asrwt>0</asrwt>
<pdfrwt beam="1">  1        2 0.73550617E-01 0.42632537E+03</pdfrwt>
<pdfrwt beam="2">  1       -2 0.12607819E-01 0.42632537E+03</pdfrwt>
<totfact> 0.30087637E+03</totfact>
</mgrwt>
</event>
<event>
 4    1  0.5280257E-005  0.8181228E+03  0.7818608E-02  0.9534149E-01
          2   -1    0    0  501    0  0.00000000000E+00  0.00000000000E+00  0.12915113858E+04  0.12915113858E+04  0.25500000000E-02 0. -1.
         -2   -1    0    0    0  501 -0.00000000000E+00 -0.00000000000E+00 -0.12956233423E+03  0.12956233426E+03  0.25500000000E-02 0.  1.
    5000001    1    1    2    0    0 -0.86063498087E+02 -0.36301491394E+03  0.52830390894E+03  0.66747042904E+03  0.16500000000E+03 0.  0.
   -5000001    1    1    2    0    0  0.86063498087E+02  0.36301491394E+03  0.63364514261E+03  0.75360329100E+03  0.16500000000E+03 0.  0.
<mgrwt>
<rscale>  0 0.81812280E+03</rscale>
<asrwt>0</asrwt>
<pdfrwt beam="1">  1        2 0.18450163E+00 0.81812280E+03</pdfrwt>
<pdfrwt beam="2">  1       -2 0.18508904E-01 0.81812280E+03</pdfrwt>
<totfact> 0.46548011E+02</totfact>
</mgrwt>
</event>
<event>
 4    1  0.5280257E-005  0.8148434E+03  0.7818608E-02  0.9538777E-01
          2   -1    0    0  501    0  0.00000000000E+00  0.00000000000E+00  0.62044518290E+03  0.62044518290E+03  0.25500000000E-02 0.  1.
         -2   -1    0    0    0  501 -0.00000000000E+00 -0.00000000000E+00 -0.26753761851E+03  0.26753761852E+03  0.25500000000E-02 0. -1.
    5000001    1    1    2    0    0 -0.22915223103E+03 -0.16381358855E+03 -0.89192221192E+02  0.33841673880E+03  0.16500000000E+03 0.  0.
   -5000001    1    1    2    0    0  0.22915223103E+03  0.16381358855E+03  0.44209978558E+03  0.54956606263E+03  0.16500000000E+03 0.  0.
<mgrwt>
<rscale>  0 0.81484336E+03</rscale>
<asrwt>0</asrwt>
<pdfrwt beam="1">  1        2 0.88635027E-01 0.81484336E+03</pdfrwt>
<pdfrwt beam="2">  1       -2 0.38219659E-01 0.81484336E+03</pdfrwt>
<totfact> 0.33834472E+02</totfact>
</mgrwt>
</event>
<event>
 4    1  0.5280257E-005  0.5180954E+03  0.7818608E-02  0.1009161E+00
          2   -1    0    0  501    0  0.00000000000E+00  0.00000000000E+00  0.49621829240E+03  0.49621829240E+03  0.25500000000E-02 0.  1.
         -2   -1    0    0    0  501 -0.00000000000E+00 -0.00000000000E+00 -0.13523427391E+03  0.13523427393E+03  0.25500000000E-02 0. -1.
    5000001    1    1    2    0    0  0.14682939279E+03  0.18463945504E+02  0.34392400039E+03  0.40915584551E+03  0.16500000000E+03 0.  0.
   -5000001    1    1    2    0    0 -0.14682939279E+03 -0.18463945504E+02  0.17060018097E+02  0.22229672082E+03  0.16500000000E+03 0.  0.
<mgrwt>
<rscale>  0 0.51809544E+03</rscale>
<asrwt>0</asrwt>
<pdfrwt beam="1">  1        2 0.70888328E-01 0.51809544E+03</pdfrwt>
<pdfrwt beam="2">  1       -2 0.19319182E-01 0.51809544E+03</pdfrwt>
<totfact> 0.15321803E+03</totfact>
</mgrwt>
</event>
<event>
 4    1  0.5280257E-005  0.4492188E+03  0.7818608E-02  0.1027955E+00
         -2   -1    0    0    0  501 -0.00000000000E+00  0.00000000000E+00  0.15354632528E+02  0.15354632739E+02  0.25500000000E-02 0. -1.
          2   -1    0    0  501    0  0.00000000000E+00 -0.00000000000E+00 -0.32856127438E+04  0.32856127438E+04  0.25500000000E-02 0.  1.
    5000001    1    1    2    0    0 -0.45514064385E+02 -0.58283405792E+02 -0.26142911037E+04  0.26205364833E+04  0.16500000000E+03 0.  0.
   -5000001    1    1    2    0    0  0.45514064385E+02  0.58283405792E+02 -0.65596700761E+03  0.68043089327E+03  0.16500000000E+03 0.  0.
<mgrwt>
<rscale>  0 0.44921877E+03</rscale>
<asrwt>0</asrwt>
<pdfrwt beam="1">  1        2 0.46937280E+00 0.44921877E+03</pdfrwt>
<pdfrwt beam="2">  1       -2 0.21935210E-02 0.44921877E+03</pdfrwt>
<totfact> 0.12797822E+03</totfact>
</mgrwt>
</event>
<event>
 4    1  0.5280257E-005  0.6190534E+03  0.7818608E-02  0.9866646E-01
          2   -1    0    0  501    0  0.00000000000E+00  0.00000000000E+00  0.18262149512E+04  0.18262149512E+04  0.25500000000E-02 0.  1.
         -2   -1    0    0    0  501 -0.00000000000E+00 -0.00000000000E+00 -0.52461935064E+02  0.52461935126E+02  0.25500000000E-02 0. -1.
    5000001    1    1    2    0    0  0.25174453074E+03  0.63849166219E+02  0.98887982604E+03  0.10356448885E+04  0.16500000000E+03 0.  0.
   -5000001    1    1    2    0    0 -0.25174453074E+03 -0.63849166219E+02  0.78487319012E+03  0.84303199783E+03  0.16500000000E+03 0.  0.
<mgrwt>
<rscale>  0 0.61905337E+03</rscale>
<asrwt>0</asrwt>
<pdfrwt beam="1">  1        2 0.26088779E+00 0.61905337E+03</pdfrwt>
<pdfrwt beam="2">  1       -2 0.74945638E-02 0.61905337E+03</pdfrwt>
<totfact> 0.11010265E+03</totfact>
</mgrwt>
</event>
<event>
 4    1  0.5280257E-005  0.1118419E+04  0.7818608E-02  0.9187423E-01
         -2   -1    0    0    0  501 -0.00000000000E+00  0.00000000000E+00  0.20875055346E+03  0.20875055348E+03  0.25500000000E-02 0. -1.
          2   -1    0    0  501    0  0.00000000000E+00 -0.00000000000E+00 -0.14980342181E+04  0.14980342181E+04  0.25500000000E-02 0.  1.
    5000001    1    1    2    0    0 -0.75165401800E+02  0.49017220927E+03 -0.94821766851E+03  0.10827097391E+04  0.16500000000E+03 0.  0.
   -5000001    1    1    2    0    0  0.75165401800E+02 -0.49017220927E+03 -0.34106599609E+03  0.62407503239E+03  0.16500000000E+03 0.  0.
<mgrwt>
<rscale>  0 0.11184194E+04</rscale>
<asrwt>0</asrwt>
<pdfrwt beam="1">  1        2 0.21400488E+00 0.11184194E+04</pdfrwt>
<pdfrwt beam="2">  1       -2 0.29821508E-01 0.11184194E+04</pdfrwt>
<totfact> 0.15045932E+02</totfact>
</mgrwt>
</event>
<event>
 4    1  0.5280257E-005  0.9506850E+03  0.7818608E-02  0.9364350E-01
          2   -1    0    0  501    0  0.00000000000E+00  0.00000000000E+00  0.22491881956E+03  0.22491881957E+03  0.25500000000E-02 0.  1.
         -2   -1    0    0    0  501 -0.00000000000E+00 -0.00000000000E+00 -0.10045869541E+04  0.10045869541E+04  0.25500000000E-02 0. -1.
    5000001    1    1    2    0    0 -0.29311857624E+03 -0.28298797183E+03 -0.15587895218E+03  0.46639461797E+03  0.16500000000E+03 0.  0.
   -5000001    1    1    2    0    0  0.29311857624E+03  0.28298797183E+03 -0.62378918239E+03  0.76311115573E+03  0.16500000000E+03 0.  0.
<mgrwt>
<rscale>  0 0.95068504E+03</rscale>
<asrwt>0</asrwt>
<pdfrwt beam="1">  1        2 0.32131260E-01 0.95068504E+03</pdfrwt>
<pdfrwt beam="2">  1       -2 0.14351242E+00 0.95068504E+03</pdfrwt>
<totfact> 0.55491577E+01</totfact>
</mgrwt>
</event>
<event>
 4    1  0.5280257E-005  0.5809512E+03  0.7818608E-02  0.9945734E-01
         -2   -1    0    0    0  501 -0.00000000000E+00  0.00000000000E+00  0.18253352608E+03  0.18253352610E+03  0.25500000000E-02 0. -1.
          2   -1    0    0  501    0  0.00000000000E+00 -0.00000000000E+00 -0.46224967861E+03  0.46224967862E+03  0.25500000000E-02 0.  1.
    5000001    1    1    2    0    0  0.20193244768E+03 -0.12794302968E+03 -0.13739337821E+03  0.32132238118E+03  0.16500000000E+03 0.  0.
   -5000001    1    1    2    0    0 -0.20193244768E+03  0.12794302968E+03 -0.14232277433E+03  0.32346082354E+03  0.16500000000E+03 0.  0.
<mgrwt>
<rscale>  0 0.58095116E+03</rscale>
<asrwt>0</asrwt>
<pdfrwt beam="1">  1        2 0.66035668E-01 0.58095116E+03</pdfrwt>
<pdfrwt beam="2">  1       -2 0.26076218E-01 0.58095116E+03</pdfrwt>
<totfact> 0.97713396E+02</totfact>
</mgrwt>
</event>
<event>
 4    1  0.5280257E-005  0.5122854E+03  0.7818608E-02  0.1010621E+00
         -2   -1    0    0    0  501 -0.00000000000E+00  0.00000000000E+00  0.69008990070E+02  0.69008990117E+02  0.25500000000E-02 0. -1.
          2   -1    0    0  501    0  0.00000000000E+00 -0.00000000000E+00 -0.95073246771E+03  0.95073246772E+03  0.25500000000E-02 0.  1.
    5000001    1    1    2    0    0 -0.19290931437E+03 -0.34119154486E+02 -0.44572427138E+03  0.51407513689E+03  0.16500000000E+03 0.  0.
   -5000001    1    1    2    0    0  0.19290931437E+03  0.34119154486E+02 -0.43599920627E+03  0.50566632094E+03  0.16500000000E+03 0.  0.
<mgrwt>
<rscale>  0 0.51228542E+03</rscale>
<asrwt>0</asrwt>
<pdfrwt beam="1">  1        2 0.13581892E+00 0.51228542E+03</pdfrwt>
<pdfrwt beam="2">  1       -2 0.98584277E-02 0.51228542E+03</pdfrwt>
<totfact> 0.21219649E+03</totfact>
</mgrwt>
</event>
<event>
 4    1  0.5280257E-005  0.5970394E+03  0.7818608E-02  0.9911568E-01
         -2   -1    0    0    0  501 -0.00000000000E+00  0.00000000000E+00  0.29705217354E+03  0.29705217355E+03  0.25500000000E-02 0. -1.
          2   -1    0    0  501    0  0.00000000000E+00 -0.00000000000E+00 -0.29999443008E+03  0.29999443009E+03  0.25500000000E-02 0.  1.
    5000001    1    1    2    0    0  0.19642104738E+03 -0.10047350698E+03 -0.11641965997E+03  0.29908977028E+03  0.16500000000E+03 0.  0.
   -5000001    1    1    2    0    0 -0.19642104738E+03  0.10047350698E+03  0.11347740344E+03  0.29795683336E+03  0.16500000000E+03 0.  0.
<mgrwt>
<rscale>  0 0.59703935E+03</rscale>
<asrwt>0</asrwt>
<pdfrwt beam="1">  1        2 0.42856347E-01 0.59703935E+03</pdfrwt>
<pdfrwt beam="2">  1       -2 0.42436025E-01 0.59703935E+03</pdfrwt>
<totfact> 0.63174534E+02</totfact>
</mgrwt>
</event>
<event>
 4    1  0.5280257E-005  0.7613302E+03  0.7818608E-02  0.9617741E-01
          2   -1    0    0  501    0  0.00000000000E+00  0.00000000000E+00  0.47571071968E+03  0.47571071969E+03  0.25500000000E-02 0.  1.
         -2   -1    0    0    0  501 -0.00000000000E+00 -0.00000000000E+00 -0.30460933427E+03  0.30460933428E+03  0.25500000000E-02 0. -1.
    5000001    1    1    2    0    0 -0.27293478823E+03 -0.20436314792E+03  0.12421741537E+03  0.39863850935E+03  0.16500000000E+03 0.  0.
   -5000001    1    1    2    0    0  0.27293478823E+03  0.20436314792E+03  0.46883970039E+02  0.38168154462E+03  0.16500000000E+03 0.  0.
<mgrwt>
<rscale>  0 0.76133022E+03</rscale>
<asrwt>0</asrwt>
<pdfrwt beam="1">  1        2 0.67958673E-01 0.76133022E+03</pdfrwt>
<pdfrwt beam="2">  1       -2 0.43515620E-01 0.76133022E+03</pdfrwt>
<totfact> 0.35821891E+02</totfact>
</mgrwt>
</event>
<event>
 4    1  0.5280257E-005  0.6001926E+03  0.7818608E-02  0.9905007E-01
          2   -1    0    0  501    0  0.00000000000E+00  0.00000000000E+00  0.88548398116E+03  0.88548398117E+03  0.25500000000E-02 0.  1.
         -2   -1    0    0    0  501 -0.00000000000E+00 -0.00000000000E+00 -0.10170459033E+03  0.10170459037E+03  0.25500000000E-02 0. -1.
    5000001    1    1    2    0    0  0.14887710230E+03 -0.14166988582E+03  0.15582968993E+03  0.30617419944E+03  0.16500000000E+03 0.  0.
   -5000001    1    1    2    0    0 -0.14887710230E+03  0.14166988582E+03  0.62794970090E+03  0.68101437210E+03  0.16500000000E+03 0.  0.
<mgrwt>
<rscale>  0 0.60019259E+03</rscale>
<asrwt>0</asrwt>
<pdfrwt beam="1">  1        2 0.12649771E+00 0.60019259E+03</pdfrwt>
<pdfrwt beam="2">  1       -2 0.14529227E-01 0.60019259E+03</pdfrwt>
<totfact> 0.12329857E+03</totfact>
</mgrwt>
</event>
<event>
 4    1  0.5280257E-005  0.4852920E+03  0.7818608E-02  0.1017691E+00
          2   -1    0    0  501    0  0.00000000000E+00  0.00000000000E+00  0.88550158857E+03  0.88550158857E+03  0.25500000000E-02 0.  1.
         -2   -1    0    0    0  501 -0.00000000000E+00 -0.00000000000E+00 -0.66490103497E+02  0.66490103546E+02  0.25500000000E-02 0. -1.
    5000001    1    1    2    0    0  0.16559437247E+03 -0.43337898418E+02  0.31436037172E+03  0.39414098104E+03  0.16500000000E+03 0.  0.
   -5000001    1    1    2    0    0 -0.16559437247E+03  0.43337898418E+02  0.50465111336E+03  0.55785071108E+03  0.16500000000E+03 0.  0.
<mgrwt>
<rscale>  0 0.48529205E+03</rscale>
<asrwt>0</asrwt>
<pdfrwt beam="1">  1        2 0.12650023E+00 0.48529205E+03</pdfrwt>
<pdfrwt beam="2">  1       -2 0.94985863E-02 0.48529205E+03</pdfrwt>
<totfact> 0.24779274E+03</totfact>
</mgrwt>
</event>
<event>
 4    1  0.5280257E-005  0.3957426E+03  0.7818608E-02  0.1045264E+00
         -2   -1    0    0    0  501 -0.00000000000E+00  0.00000000000E+00  0.25550317982E+03  0.25550317984E+03  0.25500000000E-02 0. -1.
          2   -1    0    0  501    0  0.00000000000E+00 -0.00000000000E+00 -0.15323901636E+03  0.15323901638E+03  0.25500000000E-02 0.  1.
    5000001    1    1    2    0    0 -0.76498440886E+02 -0.75953247762E+02  0.69233431331E+02  0.20889991699E+03  0.16500000000E+03 0.  0.
   -5000001    1    1    2    0    0  0.76498440886E+02  0.75953247762E+02  0.33030732130E+02  0.19984227923E+03  0.16500000000E+03 0.  0.
<mgrwt>
<rscale>  0 0.39574262E+03</rscale>
<asrwt>0</asrwt>
<pdfrwt beam="1">  1        2 0.21891288E-01 0.39574262E+03</pdfrwt>
<pdfrwt beam="2">  1       -2 0.36500454E-01 0.39574262E+03</pdfrwt>
<totfact> 0.17893110E+03</totfact>
</mgrwt>
</event>
<event>
 4    1  0.5280257E-005  0.5281408E+03  0.7818608E-02  0.1006684E+00
         -2   -1    0    0    0  501 -0.00000000000E+00  0.00000000000E+00  0.40926425070E+02  0.40926425150E+02  0.25500000000E-02 0.  1.
          2   -1    0    0  501    0  0.00000000000E+00 -0.00000000000E+00 -0.17038670295E+04  0.17038670295E+04  0.25500000000E-02 0. -1.
    5000001    1    1    2    0    0  0.18943780287E+03 -0.32975911963E+02 -0.10772339000E+04  0.11066309083E+04  0.16500000000E+03 0.  0.
   -5000001    1    1    2    0    0 -0.18943780287E+03  0.32975911963E+02 -0.58570670436E+03  0.63816254627E+03  0.16500000000E+03 0.  0.
<mgrwt>
<rscale>  0 0.52814084E+03</rscale>
<asrwt>0</asrwt>
<pdfrwt beam="1">  1        2 0.24340953E+00 0.52814084E+03</pdfrwt>
<pdfrwt beam="2">  1       -2 0.58466332E-02 0.52814084E+03</pdfrwt>
<totfact> 0.18835366E+03</totfact>
</mgrwt>
</event>
<event>
 4    1  0.5280257E-005  0.4382811E+03  0.7818608E-02  0.1031275E+00
          2   -1    0    0  501    0  0.00000000000E+00  0.00000000000E+00  0.54374210433E+03  0.54374210433E+03  0.25500000000E-02 0.  1.
         -2   -1    0    0    0  501 -0.00000000000E+00 -0.00000000000E+00 -0.88318684897E+02  0.88318684934E+02  0.25500000000E-02 0. -1.
    5000001    1    1    2    0    0 -0.13514541325E+02  0.77871004507E+02  0.53750162149E+02  0.19068459849E+03  0.16500000000E+03 0.  0.
   -5000001    1    1    2    0    0  0.13514541325E+02 -0.77871004507E+02  0.40167325728E+03  0.44137619078E+03  0.16500000000E+03 0.  0.
<mgrwt>
<rscale>  0 0.43828113E+03</rscale>
<asrwt>0</asrwt>
<pdfrwt beam="1">  1        2 0.77677444E-01 0.43828113E+03</pdfrwt>
<pdfrwt beam="2">  1       -2 0.12616955E-01 0.43828113E+03</pdfrwt>
<totfact> 0.28255388E+03</totfact>
</mgrwt>
</event>
<event>
 4    1  0.5280257E-005  0.3910985E+03  0.7818608E-02  0.1046906E+00
          2   -1    0    0  501    0  0.00000000000E+00  0.00000000000E+00  0.48177735008E+02  0.48177735076E+02  0.25500000000E-02 0.  1.
         -2   -1    0    0    0  501 -0.00000000000E+00 -0.00000000000E+00 -0.79371728430E+03  0.79371728430E+03  0.25500000000E-02 0. -1.
    5000001    1    1    2    0    0  0.24868670754E+02  0.68311788860E+02 -0.53571141472E+03  0.56524036581E+03  0.16500000000E+03 0.  0.
   -5000001    1    1    2    0    0 -0.24868670754E+02 -0.68311788860E+02 -0.20982813457E+03  0.27665465356E+03  0.16500000000E+03 0.  0.
<mgrwt>
<rscale>  0 0.39109846E+03</rscale>
<asrwt>0</asrwt>
<pdfrwt beam="1">  1        2 0.68825341E-02 0.39109846E+03</pdfrwt>
<pdfrwt beam="2">  1       -2 0.11338818E+00 0.39109846E+03</pdfrwt>
<totfact> 0.66207663E+02</totfact>
</mgrwt>
</event>
<event>
 4    1  0.5280257E-005  0.4946925E+03  0.7818608E-02  0.1015174E+00
          2   -1    0    0  501    0  0.00000000000E+00  0.00000000000E+00  0.15791942351E+04  0.15791942351E+04  0.25500000000E-02 0.  1.
         -2   -1    0    0    0  501 -0.00000000000E+00 -0.00000000000E+00 -0.38741387718E+02  0.38741387802E+02  0.25500000000E-02 0. -1.
    5000001    1    1    2    0    0  0.96588598965E+02  0.11639722654E+03  0.11144549406E+04  0.11367112590E+04  0.16500000000E+03 0.  0.
   -5000001    1    1    2    0    0 -0.96588598965E+02 -0.11639722654E+03  0.42599790680E+03  0.48122436388E+03  0.16500000000E+03 0.  0.
<mgrwt>
<rscale>  0 0.49469254E+03</rscale>
<asrwt>0</asrwt>
<pdfrwt beam="1">  1        2 0.22559916E+00 0.49469254E+03</pdfrwt>
<pdfrwt beam="2">  1       -2 0.55344845E-02 0.49469254E+03</pdfrwt>
<totfact> 0.23760826E+03</totfact>
</mgrwt>
</event>
<event>
 4    1  0.5280257E-005  0.4350389E+03  0.7818608E-02  0.1032280E+00
          2   -1    0    0  501    0  0.00000000000E+00  0.00000000000E+00  0.10144556600E+04  0.10144556600E+04  0.25500000000E-02 0.  1.
         -2   -1    0    0    0  501 -0.00000000000E+00 -0.00000000000E+00 -0.46640487912E+02  0.46640487982E+02  0.25500000000E-02 0. -1.
    5000001    1    1    2    0    0 -0.83520402337E+02 -0.11242251646E+03  0.43073628388E+03  0.48205106168E+03  0.16500000000E+03 0.  0.
   -5000001    1    1    2    0    0  0.83520402337E+02  0.11242251646E+03  0.53707888816E+03  0.57904508626E+03  0.16500000000E+03 0.  0.
<mgrwt>
<rscale>  0 0.43503888E+03</rscale>
<asrwt>0</asrwt>
<pdfrwt beam="1">  1        2 0.14492224E+00 0.43503888E+03</pdfrwt>
<pdfrwt beam="2">  1       -2 0.66629267E-02 0.43503888E+03</pdfrwt>
<totfact> 0.36117292E+03</totfact>
</mgrwt>
</event>
<event>
 4    1  0.5280257E-005  0.6500794E+03  0.7818608E-02  0.9806630E-01
          2   -1    0    0  501    0  0.00000000000E+00  0.00000000000E+00  0.28972921352E+03  0.28972921353E+03  0.25500000000E-02 0.  1.
         -2   -1    0    0    0  501 -0.00000000000E+00 -0.00000000000E+00 -0.36465361730E+03  0.36465361731E+03  0.25500000000E-02 0. -1.
    5000001    1    1    2    0    0 -0.10283646791E+03  0.63392734407E+02  0.21685991749E+03  0.29807247729E+03  0.16500000000E+03 0.  0.
   -5000001    1    1    2    0    0  0.10283646791E+03 -0.63392734407E+02 -0.29178432127E+03  0.35631035355E+03  0.16500000000E+03 0.  0.
<mgrwt>
<rscale>  0 0.65007940E+03</rscale>
<asrwt>0</asrwt>
<pdfrwt beam="1">  1        2 0.41389888E-01 0.65007940E+03</pdfrwt>
<pdfrwt beam="2">  1       -2 0.52093374E-01 0.65007940E+03</pdfrwt>
<totfact> 0.43493767E+02</totfact>
</mgrwt>
</event>
<event>
 4    1  0.5280257E-005  0.5269211E+03  0.7818608E-02  0.1006982E+00
          2   -1    0    0  501    0  0.00000000000E+00  0.00000000000E+00  0.61048298236E+03  0.61048298237E+03  0.25500000000E-02 0.  1.
         -2   -1    0    0    0  501 -0.00000000000E+00 -0.00000000000E+00 -0.11369925533E+03  0.11369925536E+03  0.25500000000E-02 0. -1.
    5000001    1    1    2    0    0  0.69654702843E+02  0.15393394590E+03  0.87884886572E+02  0.25198450472E+03  0.16500000000E+03 0.  0.
   -5000001    1    1    2    0    0 -0.69654702843E+02 -0.15393394590E+03  0.40889884046E+03  0.47219773301E+03  0.16500000000E+03 0.  0.
<mgrwt>
<rscale>  0 0.52692110E+03</rscale>
<asrwt>0</asrwt>
<pdfrwt beam="1">  1        2 0.87211855E-01 0.52692110E+03</pdfrwt>
<pdfrwt beam="2">  1       -2 0.16242751E-01 0.52692110E+03</pdfrwt>
<totfact> 0.16235748E+03</totfact>
</mgrwt>
</event>
<event>
 4    1  0.5280257E-005  0.4008876E+03  0.7818608E-02  0.1043473E+00
          2   -1    0    0  501    0  0.00000000000E+00  0.00000000000E+00  0.77819701395E+03  0.77819701396E+03  0.25500000000E-02 0.  1.
         -2   -1    0    0    0  501 -0.00000000000E+00 -0.00000000000E+00 -0.51629247010E+02  0.51629247073E+02  0.25500000000E-02 0. -1.
    5000001    1    1    2    0    0  0.41565186731E+02 -0.96037441080E+02  0.27066862302E+03  0.33382234545E+03  0.16500000000E+03 0.  0.
   -5000001    1    1    2    0    0 -0.41565186731E+02  0.96037441080E+02  0.45589914393E+03  0.49600391558E+03  0.16500000000E+03 0.  0.
<mgrwt>
<rscale>  0 0.40088764E+03</rscale>
<asrwt>0</asrwt>
<pdfrwt beam="1">  1        2 0.11117100E+00 0.40088764E+03</pdfrwt>
<pdfrwt beam="2">  1       -2 0.73756069E-02 0.40088764E+03</pdfrwt>
<totfact> 0.43610662E+03</totfact>
</mgrwt>
</event>
<event>
 4    1  0.5280257E-005  0.5352993E+03  0.7818608E-02  0.1004955E+00
         -2   -1    0    0    0  501 -0.00000000000E+00  0.00000000000E+00  0.89519612074E+02  0.89519612110E+02  0.25500000000E-02 0.  1.
          2   -1    0    0  501    0  0.00000000000E+00 -0.00000000000E+00 -0.80023051986E+03  0.80023051986E+03  0.25500000000E-02 0. -1.
    5000001    1    1    2    0    0 -0.11220057967E+03 -0.13483786004E+03 -0.16122385820E+03  0.28980743785E+03  0.16500000000E+03 0.  0.
   -5000001    1    1    2    0    0  0.11220057967E+03  0.13483786004E+03 -0.54948704958E+03  0.59994269413E+03  0.16500000000E+03 0.  0.
<mgrwt>
<rscale>  0 0.53529926E+03</rscale>
<asrwt>0</asrwt>
<pdfrwt beam="1">  1        2 0.11431864E+00 0.53529926E+03</pdfrwt>
<pdfrwt beam="2">  1       -2 0.12788516E-01 0.53529926E+03</pdfrwt>
<totfact> 0.17406110E+03</totfact>
</mgrwt>
</event>
<event>
 4    1  0.5280257E-005  0.3979992E+03  0.7818608E-02  0.1044475E+00
         -2   -1    0    0    0  501 -0.00000000000E+00  0.00000000000E+00  0.10873336723E+03  0.10873336726E+03  0.25500000000E-02 0. -1.
          2   -1    0    0  501    0  0.00000000000E+00 -0.00000000000E+00 -0.36420132269E+03  0.36420132270E+03  0.25500000000E-02 0.  1.
    5000001    1    1    2    0    0  0.53389014479E+02 -0.83961307925E+02 -0.18686151137E+03  0.26840661789E+03  0.16500000000E+03 0.  0.
   -5000001    1    1    2    0    0 -0.53389014479E+02  0.83961307925E+02 -0.68606444097E+02  0.20452807208E+03  0.16500000000E+03 0.  0.
<mgrwt>
<rscale>  0 0.39799918E+03</rscale>
<asrwt>0</asrwt>
<pdfrwt beam="1">  1        2 0.52028760E-01 0.39799918E+03</pdfrwt>
<pdfrwt beam="2">  1       -2 0.15533338E-01 0.39799918E+03</pdfrwt>
<totfact> 0.31199344E+03</totfact>
</mgrwt>
</event>
<event>
 4    1  0.5280257E-005  0.8765756E+03  0.7818608E-02  0.9455346E-01
         -2   -1    0    0    0  501 -0.00000000000E+00  0.00000000000E+00  0.40833793708E+03  0.40833793709E+03  0.25500000000E-02 0. -1.
          2   -1    0    0  501    0  0.00000000000E+00 -0.00000000000E+00 -0.47043433906E+03  0.47043433907E+03  0.25500000000E-02 0.  1.
    5000001    1    1    2    0    0 -0.23932395136E+03  0.70436901187E+01  0.29771510807E+03  0.41615484238E+03  0.16500000000E+03 0.  0.
   -5000001    1    1    2    0    0  0.23932395136E+03 -0.70436901187E+01 -0.35981151005E+03  0.46261743377E+03  0.16500000000E+03 0.  0.
<mgrwt>
<rscale>  0 0.87657558E+03</rscale>
<asrwt>0</asrwt>
<pdfrwt beam="1">  1        2 0.67204905E-01 0.87657558E+03</pdfrwt>
<pdfrwt beam="2">  1       -2 0.58333991E-01 0.87657558E+03</pdfrwt>
<totfact> 0.19875704E+02</totfact>
</mgrwt>
</event>
<event>
 4    1  0.5280257E-005  0.7881744E+03  0.7818608E-02  0.9577294E-01
          2   -1    0    0  501    0  0.00000000000E+00  0.00000000000E+00  0.32825833107E+03  0.32825833108E+03  0.25500000000E-02 0.  1.
         -2   -1    0    0    0  501 -0.00000000000E+00 -0.00000000000E+00 -0.47311743221E+03  0.47311743222E+03  0.25500000000E-02 0. -1.
    5000001    1    1    2    0    0  0.34398194062E+03 -0.97958632007E+02 -0.85301356849E+02  0.40301462819E+03  0.16500000000E+03 0.  0.
   -5000001    1    1    2    0    0 -0.34398194062E+03  0.97958632007E+02 -0.59557744296E+02  0.39836113510E+03  0.16500000000E+03 0.  0.
<mgrwt>
<rscale>  0 0.78817444E+03</rscale>
<asrwt>0</asrwt>
<pdfrwt beam="1">  1        2 0.46894048E-01 0.78817444E+03</pdfrwt>
<pdfrwt beam="2">  1       -2 0.67588204E-01 0.78817444E+03</pdfrwt>
<totfact> 0.21808520E+02</totfact>
</mgrwt>
</event>
<event>
 4    1  0.5280257E-005  0.6094018E+03  0.7818608E-02  0.9886090E-01
          2   -1    0    0  501    0  0.00000000000E+00  0.00000000000E+00  0.11243839508E+04  0.11243839508E+04  0.25500000000E-02 0.  1.
         -2   -1    0    0    0  501 -0.00000000000E+00 -0.00000000000E+00 -0.82572013790E+02  0.82572013829E+02  0.25500000000E-02 0. -1.
    5000001    1    1    2    0    0 -0.10542734855E+03 -0.23344744694E+03  0.51647252191E+03  0.59965115042E+03  0.16500000000E+03 0.  0.
   -5000001    1    1    2    0    0  0.10542734855E+03  0.23344744694E+03  0.52533941507E+03  0.60730481419E+03  0.16500000000E+03 0.  0.
<mgrwt>
<rscale>  0 0.60940183E+03</rscale>
<asrwt>0</asrwt>
<pdfrwt beam="1">  1        2 0.16062628E+00 0.60940183E+03</pdfrwt>
<pdfrwt beam="2">  1       -2 0.11796002E-01 0.60940183E+03</pdfrwt>
<totfact> 0.12457358E+03</totfact>
</mgrwt>
</event>
<event>
 4    1  0.5280257E-005  0.6754478E+03  0.7818608E-02  0.9760166E-01
         -2   -1    0    0    0  501 -0.00000000000E+00  0.00000000000E+00  0.20407981289E+03  0.20407981290E+03  0.25500000000E-02 0. -1.
          2   -1    0    0  501    0  0.00000000000E+00 -0.00000000000E+00 -0.55888635102E+03  0.55888635102E+03  0.25500000000E-02 0.  1.
    5000001    1    1    2    0    0 -0.17968549372E+03  0.21186119644E+03 -0.66380876080E+02  0.32985370078E+03  0.16500000000E+03 0.  0.
   -5000001    1    1    2    0    0  0.17968549372E+03 -0.21186119644E+03 -0.28842566205E+03  0.43311246315E+03  0.16500000000E+03 0.  0.
<mgrwt>
<rscale>  0 0.67544777E+03</rscale>
<asrwt>0</asrwt>
<pdfrwt beam="1">  1        2 0.79840907E-01 0.67544777E+03</pdfrwt>
<pdfrwt beam="2">  1       -2 0.29154259E-01 0.67544777E+03</pdfrwt>
<totfact> 0.64066422E+02</totfact>
</mgrwt>
</event>
<event>
 4    1  0.5280257E-005  0.3557726E+03  0.7818608E-02  0.1060270E+00
         -2   -1    0    0    0  501 -0.00000000000E+00  0.00000000000E+00  0.24982056468E+03  0.24982056469E+03  0.25500000000E-02 0.  1.
          2   -1    0    0  501    0  0.00000000000E+00 -0.00000000000E+00 -0.12666504265E+03  0.12666504268E+03  0.25500000000E-02 0. -1.
    5000001    1    1    2    0    0 -0.30392284814E+01  0.61789974186E+02  0.87310018269E+02  0.19666030893E+03  0.16500000000E+03 0.  0.
   -5000001    1    1    2    0    0  0.30392284814E+01 -0.61789974186E+02  0.35845503759E+02  0.17982529844E+03  0.16500000000E+03 0.  0.
<mgrwt>
<rscale>  0 0.35577258E+03</rscale>
<asrwt>0</asrwt>
<pdfrwt beam="1">  1        2 0.18095006E-01 0.35577258E+03</pdfrwt>
<pdfrwt beam="2">  1       -2 0.35688652E-01 0.35577258E+03</pdfrwt>
<totfact> 0.23229802E+03</totfact>
</mgrwt>
</event>
<event>
 4    1  0.5280257E-005  0.5167654E+03  0.7818608E-02  0.1009493E+00
         -2   -1    0    0    0  501 -0.00000000000E+00  0.00000000000E+00  0.43006176039E+03  0.43006176039E+03  0.25500000000E-02 0. -1.
          2   -1    0    0  501    0  0.00000000000E+00 -0.00000000000E+00 -0.15523730207E+03  0.15523730209E+03  0.25500000000E-02 0.  1.
    5000001    1    1    2    0    0  0.19067603326E+03 -0.40832056048E+01  0.20110745252E+03  0.32255732775E+03  0.16500000000E+03 0.  0.
   -5000001    1    1    2    0    0 -0.19067603326E+03  0.40832056048E+01  0.73717005792E+02  0.26274173474E+03  0.16500000000E+03 0.  0.
<mgrwt>
<rscale>  0 0.51676543E+03</rscale>
<asrwt>0</asrwt>
<pdfrwt beam="1">  1        2 0.22176757E-01 0.51676543E+03</pdfrwt>
<pdfrwt beam="2">  1       -2 0.61437396E-01 0.51676543E+03</pdfrwt>
<totfact> 0.62434729E+02</totfact>
</mgrwt>
</event>
<event>
 4    1  0.5280257E-005  0.5352095E+03  0.7818608E-02  0.1004977E+00
         -2   -1    0    0    0  501 -0.00000000000E+00  0.00000000000E+00  0.16627991367E+03  0.16627991369E+03  0.25500000000E-02 0. -1.
          2   -1    0    0  501    0  0.00000000000E+00 -0.00000000000E+00 -0.43067315681E+03  0.43067315682E+03  0.25500000000E-02 0.  1.
    5000001    1    1    2    0    0 -0.99392583561E+02 -0.17900576440E+03 -0.76816317506E+02  0.27394834548E+03  0.16500000000E+03 0.  0.
   -5000001    1    1    2    0    0  0.99392583561E+02  0.17900576440E+03 -0.18757692564E+03  0.32300472502E+03  0.16500000000E+03 0.  0.
<mgrwt>
<rscale>  0 0.53520947E+03</rscale>
<asrwt>0</asrwt>
<pdfrwt beam="1">  1        2 0.61524736E-01 0.53520947E+03</pdfrwt>
<pdfrwt beam="2">  1       -2 0.23754274E-01 0.53520947E+03</pdfrwt>
<totfact> 0.12502885E+03</totfact>
</mgrwt>
</event>
<event>
 4    1  0.5280257E-005  0.6761603E+03  0.7818608E-02  0.9758893E-01
         -2   -1    0    0    0  501 -0.00000000000E+00  0.00000000000E+00  0.13164591796E+03  0.13164591798E+03  0.25500000000E-02 0. -1.
          2   -1    0    0  501    0  0.00000000000E+00 -0.00000000000E+00 -0.86822422672E+03  0.86822422673E+03  0.25500000000E-02 0.  1.
    5000001    1    1    2    0    0  0.24463988031E+03 -0.15256057373E+03 -0.46122433986E+03  0.56839800437E+03  0.16500000000E+03 0.  0.
   -5000001    1    1    2    0    0 -0.24463988031E+03  0.15256057373E+03 -0.27535396891E+03  0.43147214034E+03  0.16500000000E+03 0.  0.
<mgrwt>
<rscale>  0 0.67616026E+03</rscale>
<asrwt>0</asrwt>
<pdfrwt beam="1">  1        2 0.12403203E+00 0.67616026E+03</pdfrwt>
<pdfrwt beam="2">  1       -2 0.18806560E-01 0.67616026E+03</pdfrwt>
<totfact> 0.81394177E+02</totfact>
</mgrwt>
</event>
<event>
 4    1  0.5280257E-005  0.4162821E+03  0.7818608E-02  0.1038283E+00
         -2   -1    0    0    0  501 -0.00000000000E+00  0.00000000000E+00  0.46305707467E+02  0.46305707538E+02  0.25500000000E-02 0. -1.
          2   -1    0    0  501    0  0.00000000000E+00 -0.00000000000E+00 -0.93558018165E+03  0.93558018165E+03  0.25500000000E-02 0.  1.
    5000001    1    1    2    0    0  0.29866144485E+02  0.12142692789E+03 -0.39398182754E+03  0.44506535007E+03  0.16500000000E+03 0.  0.
   -5000001    1    1    2    0    0 -0.29866144485E+02 -0.12142692789E+03 -0.49529264664E+03  0.53682053912E+03  0.16500000000E+03 0.  0.
<mgrwt>
<rscale>  0 0.41628213E+03</rscale>
<asrwt>0</asrwt>
<pdfrwt beam="1">  1        2 0.13365430E+00 0.41628213E+03</pdfrwt>
<pdfrwt beam="2">  1       -2 0.66151017E-02 0.41628213E+03</pdfrwt>
<totfact> 0.40786319E+03</totfact>
</mgrwt>
</event>
<event>
 4    1  0.5280257E-005  0.5351246E+03  0.7818608E-02  0.1004997E+00
         -2   -1    0    0    0  501 -0.00000000000E+00  0.00000000000E+00  0.94472208576E+03  0.94472208577E+03  0.25500000000E-02 0. -1.
          2   -1    0    0  501    0  0.00000000000E+00 -0.00000000000E+00 -0.75778448701E+02  0.75778448744E+02  0.25500000000E-02 0.  1.
    5000001    1    1    2    0    0  0.11712261983E+03  0.52799384570E+02  0.75277561806E+03  0.78128203245E+03  0.16500000000E+03 0.  0.
   -5000001    1    1    2    0    0 -0.11712261983E+03 -0.52799384570E+02  0.11616801900E+03  0.23921850206E+03  0.16500000000E+03 0.  0.
<mgrwt>
<rscale>  0 0.53512456E+03</rscale>
<asrwt>0</asrwt>
<pdfrwt beam="1">  1        2 0.10825492E-01 0.53512456E+03</pdfrwt>
<pdfrwt beam="2">  1       -2 0.13496030E+00 0.53512456E+03</pdfrwt>
<totfact> 0.24081642E+02</totfact>
</mgrwt>
</event>
<event>
 4    1  0.5280257E-005  0.5985362E+03  0.7818608E-02  0.9908448E-01
          2   -1    0    0  501    0  0.00000000000E+00  0.00000000000E+00  0.72060562734E+03  0.72060562735E+03  0.25500000000E-02 0.  1.
         -2   -1    0    0    0  501 -0.00000000000E+00 -0.00000000000E+00 -0.12428628702E+03  0.12428628704E+03  0.25500000000E-02 0. -1.
    5000001    1    1    2    0    0  0.20389833515E+03  0.11873338219E+03  0.18292414370E+03  0.34111345543E+03  0.16500000000E+03 0.  0.
   -5000001    1    1    2    0    0 -0.20389833515E+03 -0.11873338219E+03  0.41339519662E+03  0.50377845896E+03  0.16500000000E+03 0.  0.
<mgrwt>
<rscale>  0 0.59853621E+03</rscale>
<asrwt>0</asrwt>
<pdfrwt beam="1">  1        2 0.10294366E+00 0.59853621E+03</pdfrwt>
<pdfrwt beam="2">  1       -2 0.17755184E-01 0.59853621E+03</pdfrwt>
<totfact> 0.11420140E+03</totfact>
</mgrwt>
</event>
<event>
 4    1  0.5280257E-005  0.5598102E+03  0.7818608E-02  0.9992484E-01
         -2   -1    0    0    0  501 -0.00000000000E+00  0.00000000000E+00  0.24862625753E+02  0.24862625884E+02  0.25500000000E-02 0. -1.
          2   -1    0    0  501    0  0.00000000000E+00 -0.00000000000E+00 -0.31511900991E+04  0.31511900991E+04  0.25500000000E-02 0.  1.
    5000001    1    1    2    0    0 -0.10795261627E+03  0.18941601606E+03 -0.19030815460E+04  0.19226223148E+04  0.16500000000E+03 0.  0.
   -5000001    1    1    2    0    0  0.10795261627E+03 -0.18941601606E+03 -0.12232459273E+04  0.12534304102E+04  0.16500000000E+03 0.  0.
<mgrwt>
<rscale>  0 0.55981018E+03</rscale>
<asrwt>0</asrwt>
<pdfrwt beam="1">  1        2 0.45016976E+00 0.55981018E+03</pdfrwt>
<pdfrwt beam="2">  1       -2 0.35518057E-02 0.55981018E+03</pdfrwt>
<totfact> 0.72654391E+02</totfact>
</mgrwt>
</event>
<event>
 4    1  0.5280257E-005  0.5065089E+03  0.7818608E-02  0.1012094E+00
          2   -1    0    0  501    0  0.00000000000E+00  0.00000000000E+00  0.79464777424E+03  0.79464777424E+03  0.25500000000E-02 0.  1.
         -2   -1    0    0    0  501 -0.00000000000E+00 -0.00000000000E+00 -0.80712248335E+02  0.80712248375E+02  0.25500000000E-02 0. -1.
    5000001    1    1    2    0    0  0.15437649729E+03 -0.54930575984E+02  0.53033645469E+03  0.57907791036E+03  0.16500000000E+03 0.  0.
   -5000001    1    1    2    0    0 -0.15437649729E+03  0.54930575984E+02  0.18359907121E+03  0.29628211225E+03  0.16500000000E+03 0.  0.
<mgrwt>
<rscale>  0 0.50650887E+03</rscale>
<asrwt>0</asrwt>
<pdfrwt beam="1">  1        2 0.11352110E+00 0.50650887E+03</pdfrwt>
<pdfrwt beam="2">  1       -2 0.11530322E-01 0.50650887E+03</pdfrwt>
<totfact> 0.20819833E+03</totfact>
</mgrwt>
</event>
<event>
 4    1  0.5280257E-005  0.7158367E+03  0.7818608E-02  0.9690526E-01
          2   -1    0    0  501    0  0.00000000000E+00  0.00000000000E+00  0.92825135468E+03  0.92825135468E+03  0.25500000000E-02 0.  1.
         -2   -1    0    0    0  501 -0.00000000000E+00 -0.00000000000E+00 -0.13800738512E+03  0.13800738514E+03  0.25500000000E-02 0. -1.
    5000001    1    1    2    0    0 -0.27512690873E+03 -0.49435472034E+02  0.17049514686E+03  0.36665007419E+03  0.16500000000E+03 0.  0.
   -5000001    1    1    2    0    0  0.27512690873E+03  0.49435472034E+02  0.61974882270E+03  0.69960866564E+03  0.16500000000E+03 0.  0.
<mgrwt>
<rscale>  0 0.71583669E+03</rscale>
<asrwt>0</asrwt>
<pdfrwt beam="1">  1        2 0.13260734E+00 0.71583669E+03</pdfrwt>
<pdfrwt beam="2">  1       -2 0.19715340E-01 0.71583669E+03</pdfrwt>
<totfact> 0.68463349E+02</totfact>
</mgrwt>
</event>
<event>
 4    1  0.5280257E-005  0.4807432E+03  0.7818608E-02  0.1018931E+00
         -2   -1    0    0    0  501 -0.00000000000E+00  0.00000000000E+00  0.21762847756E+03  0.21762847758E+03  0.25500000000E-02 0. -1.
          2   -1    0    0  501    0  0.00000000000E+00 -0.00000000000E+00 -0.26549151644E+03  0.26549151645E+03  0.25500000000E-02 0.  1.
    5000001    1    1    2    0    0  0.12800299229E+03 -0.10320144481E+03 -0.83539269123E+02  0.24746537885E+03  0.16500000000E+03 0.  0.
   -5000001    1    1    2    0    0 -0.12800299229E+03  0.10320144481E+03  0.35676230248E+02  0.23565461517E+03  0.16500000000E+03 0.  0.
<mgrwt>
<rscale>  0 0.48074324E+03</rscale>
<asrwt>0</asrwt>
<pdfrwt beam="1">  1        2 0.37927359E-01 0.48074324E+03</pdfrwt>
<pdfrwt beam="2">  1       -2 0.31089783E-01 0.48074324E+03</pdfrwt>
<totfact> 0.13076947E+03</totfact>
</mgrwt>
</event>
<event>
 4    1  0.5280257E-005  0.4954429E+03  0.7818608E-02  0.1014975E+00
         -2   -1    0    0    0  501 -0.00000000000E+00  0.00000000000E+00  0.82664170135E+02  0.82664170174E+02  0.25500000000E-02 0. -1.
          2   -1    0    0  501    0  0.00000000000E+00 -0.00000000000E+00 -0.74235207745E+03  0.74235207746E+03  0.25500000000E-02 0.  1.
    5000001    1    1    2    0    0  0.18264326213E+03 -0.21376222694E+02 -0.35988307587E+03  0.43652758491E+03  0.16500000000E+03 0.  0.
   -5000001    1    1    2    0    0 -0.18264326213E+03  0.21376222694E+02 -0.29980483145E+03  0.38848866271E+03  0.16500000000E+03 0.  0.
<mgrwt>
<rscale>  0 0.49544291E+03</rscale>
<asrwt>0</asrwt>
<pdfrwt beam="1">  1        2 0.10605029E+00 0.49544291E+03</pdfrwt>
<pdfrwt beam="2">  1       -2 0.11809168E-01 0.49544291E+03</pdfrwt>
<totfact> 0.21802053E+03</totfact>
</mgrwt>
</event>
<event>
 4    1  0.5280257E-005  0.4362765E+03  0.7818608E-02  0.1031895E+00
         -2   -1    0    0    0  501 -0.00000000000E+00  0.00000000000E+00  0.30706086458E+02  0.30706086564E+02  0.25500000000E-02 0. -1.
          2   -1    0    0  501    0  0.00000000000E+00 -0.00000000000E+00 -0.15496699394E+04  0.15496699394E+04  0.25500000000E-02 0.  1.
    5000001    1    1    2    0    0 -0.74469482512E+02 -0.11051672232E+03 -0.94417729122E+03  0.96770626070E+03  0.16500000000E+03 0.  0.
   -5000001    1    1    2    0    0  0.74469482512E+02  0.11051672232E+03 -0.57478656175E+03  0.61266976529E+03  0.16500000000E+03 0.  0.
<mgrwt>
<rscale>  0 0.43627651E+03</rscale>
<asrwt>0</asrwt>
<pdfrwt beam="1">  1        2 0.22138137E+00 0.43627651E+03</pdfrwt>
<pdfrwt beam="2">  1       -2 0.43865848E-02 0.43627651E+03</pdfrwt>
<totfact> 0.35228531E+03</totfact>
</mgrwt>
</event>
<event>
 4    1  0.5280257E-005  0.6190616E+03  0.7818608E-02  0.9866630E-01
          2   -1    0    0  501    0  0.00000000000E+00  0.00000000000E+00  0.52881901699E+03  0.52881901699E+03  0.25500000000E-02 0.  1.
         -2   -1    0    0    0  501 -0.00000000000E+00 -0.00000000000E+00 -0.18117598338E+03  0.18117598340E+03  0.25500000000E-02 0. -1.
    5000001    1    1    2    0    0 -0.11853255045E+03 -0.13665724020E+03  0.39100229030E+03  0.46133822499E+03  0.16500000000E+03 0.  0.
   -5000001    1    1    2    0    0  0.11853255045E+03  0.13665724020E+03 -0.43359256697E+02  0.24865677541E+03  0.16500000000E+03 0.  0.
<mgrwt>
<rscale>  0 0.61906157E+03</rscale>
<asrwt>0</asrwt>
<pdfrwt beam="1">  1        2 0.75545576E-01 0.61906157E+03</pdfrwt>
<pdfrwt beam="2">  1       -2 0.25882283E-01 0.61906157E+03</pdfrwt>
<totfact> 0.84955211E+02</totfact>
</mgrwt>
</event>
<event>
 4    1  0.5280257E-005  0.5330694E+03  0.7818608E-02  0.1005490E+00
         -2   -1    0    0    0  501 -0.00000000000E+00  0.00000000000E+00  0.55580491675E+02  0.55580491734E+02  0.25500000000E-02 0. -1.
          2   -1    0    0  501    0  0.00000000000E+00 -0.00000000000E+00 -0.12781596610E+04  0.12781596610E+04  0.25500000000E-02 0.  1.
    5000001    1    1    2    0    0  0.54434777819E+02 -0.99620659838E+02 -0.10513027394E+04  0.10702101993E+04  0.16500000000E+03 0.  0.
   -5000001    1    1    2    0    0 -0.54434777819E+02  0.99620659838E+02 -0.17127643000E+03  0.26352995347E+03  0.16500000000E+03 0.  0.
<mgrwt>
<rscale>  0 0.53306939E+03</rscale>
<asrwt>0</asrwt>
<pdfrwt beam="1">  1        2 0.18259422E+00 0.53306939E+03</pdfrwt>
<pdfrwt beam="2">  1       -2 0.79400710E-02 0.53306939E+03</pdfrwt>
<totfact> 0.19399819E+03</totfact>
</mgrwt>
</event>
<event>
 4    1  0.5280257E-005  0.4227065E+03  0.7818608E-02  0.1036189E+00
         -2   -1    0    0    0  501 -0.00000000000E+00  0.00000000000E+00  0.74515825588E+02  0.74515825631E+02  0.25500000000E-02 0.  1.
          2   -1    0    0  501    0  0.00000000000E+00 -0.00000000000E+00 -0.59947250606E+03  0.59947250607E+03  0.25500000000E-02 0. -1.
    5000001    1    1    2    0    0  0.10246264526E+02 -0.94502046668E+02 -0.40869615173E+03  0.45088043559E+03  0.16500000000E+03 0.  0.
   -5000001    1    1    2    0    0 -0.10246264526E+02  0.94502046668E+02 -0.11626052874E+03  0.22310789611E+03  0.16500000000E+03 0.  0.
<mgrwt>
<rscale>  0 0.42270646E+03</rscale>
<asrwt>0</asrwt>
<pdfrwt beam="1">  1        2 0.85638927E-01 0.42270646E+03</pdfrwt>
<pdfrwt beam="2">  1       -2 0.10645118E-01 0.42270646E+03</pdfrwt>
<totfact> 0.33289643E+03</totfact>
</mgrwt>
</event>
<event>
 4    1  0.5280257E-005  0.5549892E+03  0.7818608E-02  0.1000346E+00
         -2   -1    0    0    0  501 -0.00000000000E+00  0.00000000000E+00  0.63868596432E+02  0.63868596482E+02  0.25500000000E-02 0. -1.
          2   -1    0    0  501    0  0.00000000000E+00 -0.00000000000E+00 -0.12056514199E+04  0.12056514199E+04  0.25500000000E-02 0.  1.
    5000001    1    1    2    0    0  0.68223709548E+02  0.19916118293E+03 -0.73989507938E+03  0.78675878122E+03  0.16500000000E+03 0.  0.
   -5000001    1    1    2    0    0 -0.68223709548E+02 -0.19916118293E+03 -0.40188774406E+03  0.48276123514E+03  0.16500000000E+03 0.  0.
<mgrwt>
<rscale>  0 0.55498924E+03</rscale>
<asrwt>0</asrwt>
<pdfrwt beam="1">  1        2 0.17223590E+00 0.55498924E+03</pdfrwt>
<pdfrwt beam="2">  1       -2 0.91240859E-02 0.55498924E+03</pdfrwt>
<totfact> 0.17027246E+03</totfact>
</mgrwt>
</event>
<event>
 4    1  0.5280257E-005  0.8282771E+03  0.7818608E-02  0.9519966E-01
          2   -1    0    0  501    0  0.00000000000E+00  0.00000000000E+00  0.18868869808E+04  0.18868869808E+04  0.25500000000E-02 0.  1.
         -2   -1    0    0    0  501 -0.00000000000E+00 -0.00000000000E+00 -0.90896140082E+02  0.90896140118E+02  0.25500000000E-02 0. -1.
    5000001    1    1    2    0    0 -0.31770463981E+03 -0.19418521422E+03  0.10773466881E+04  0.11517573625E+04  0.16500000000E+03 0.  0.
   -5000001    1    1    2    0    0  0.31770463981E+03  0.19418521422E+03  0.71864415261E+03  0.82602575848E+03  0.16500000000E+03 0.  0.
<mgrwt>
<rscale>  0 0.82827711E+03</rscale>
<asrwt>0</asrwt>
<pdfrwt beam="1">  1        2 0.26955526E+00 0.82827711E+03</pdfrwt>
<pdfrwt beam="2">  1       -2 0.12985164E-01 0.82827711E+03</pdfrwt>
<totfact> 0.41474146E+02</totfact>
</mgrwt>
</event>
<event>
 4    1  0.5280257E-005  0.3687835E+03  0.7818608E-02  0.1055159E+00
          2   -1    0    0  501    0  0.00000000000E+00  0.00000000000E+00  0.27442485497E+02  0.27442485616E+02  0.25500000000E-02 0.  1.
         -2   -1    0    0    0  501 -0.00000000000E+00 -0.00000000000E+00 -0.12389662560E+04  0.12389662560E+04  0.25500000000E-02 0. -1.
    5000001    1    1    2    0    0 -0.51871854009E+02  0.52597524897E+02 -0.73043726396E+03  0.75247643514E+03  0.16500000000E+03 0.  0.
   -5000001    1    1    2    0    0  0.51871854009E+02 -0.52597524897E+02 -0.48108650656E+03  0.51393230650E+03  0.16500000000E+03 0.  0.
<mgrwt>
<rscale>  0 0.36878348E+03</rscale>
<asrwt>0</asrwt>
<pdfrwt beam="1">  1        2 0.39203559E-02 0.36878348E+03</pdfrwt>
<pdfrwt beam="2">  1       -2 0.17699514E+00 0.36878348E+03</pdfrwt>
<totfact> 0.44578668E+02</totfact>
</mgrwt>
</event>
<event>
 4    1  0.5280257E-005  0.4193542E+03  0.7818608E-02  0.1037277E+00
          2   -1    0    0  501    0  0.00000000000E+00  0.00000000000E+00  0.11985372610E+04  0.11985372610E+04  0.25500000000E-02 0.  1.
         -2   -1    0    0    0  501 -0.00000000000E+00 -0.00000000000E+00 -0.36681787809E+02  0.36681787898E+02  0.25500000000E-02 0. -1.
    5000001    1    1    2    0    0  0.23390893219E+02  0.26403137169E+02  0.21426904793E+03  0.27272785783E+03  0.16500000000E+03 0.  0.
   -5000001    1    1    2    0    0 -0.23390893219E+02 -0.26403137169E+02  0.94758642522E+03  0.96249119103E+03  0.16500000000E+03 0.  0.
<mgrwt>
<rscale>  0 0.41935422E+03</rscale>
<asrwt>0</asrwt>
<pdfrwt beam="1">  1        2 0.17121960E+00 0.41935422E+03</pdfrwt>
<pdfrwt beam="2">  1       -2 0.52402557E-02 0.41935422E+03</pdfrwt>
<totfact> 0.41108063E+03</totfact>
</mgrwt>
</event>
<event>
 4    1  0.5280257E-005  0.6272472E+03  0.7818608E-02  0.9850435E-01
          2   -1    0    0  501    0  0.00000000000E+00  0.00000000000E+00  0.26898392952E+04  0.26898392952E+04  0.25500000000E-02 0.  1.
         -2   -1    0    0    0  501 -0.00000000000E+00 -0.00000000000E+00 -0.36567156777E+02  0.36567156866E+02  0.25500000000E-02 0. -1.
    5000001    1    1    2    0    0  0.26370420575E+03  0.25356211436E+02  0.11925281915E+04  0.12326927165E+04  0.16500000000E+03 0.  0.
   -5000001    1    1    2    0    0 -0.26370420575E+03 -0.25356211436E+02  0.14607439469E+04  0.14937137356E+04  0.16500000000E+03 0.  0.
<mgrwt>
<rscale>  0 0.62724724E+03</rscale>
<asrwt>0</asrwt>
<pdfrwt beam="1">  1        2 0.38426286E+00 0.62724724E+03</pdfrwt>
<pdfrwt beam="2">  1       -2 0.52238781E-02 0.62724724E+03</pdfrwt>
<totfact> 0.70594226E+02</totfact>
</mgrwt>
</event>
<event>
 4    1  0.5280257E-005  0.5478119E+03  0.7818608E-02  0.1002002E+00
         -2   -1    0    0    0  501 -0.00000000000E+00  0.00000000000E+00  0.11492952452E+03  0.11492952454E+03  0.25500000000E-02 0.  1.
          2   -1    0    0  501    0  0.00000000000E+00 -0.00000000000E+00 -0.65278682775E+03  0.65278682775E+03  0.25500000000E-02 0. -1.
    5000001    1    1    2    0    0 -0.17550573797E+03  0.41547075897E+02 -0.95746218710E+02  0.26252764040E+03  0.16500000000E+03 0.  0.
   -5000001    1    1    2    0    0  0.17550573797E+03 -0.41547075897E+02 -0.44211108452E+03  0.50518871190E+03  0.16500000000E+03 0.  0.
<mgrwt>
<rscale>  0 0.54781194E+03</rscale>
<asrwt>0</asrwt>
<pdfrwt beam="1">  1        2 0.93255259E-01 0.54781194E+03</pdfrwt>
<pdfrwt beam="2">  1       -2 0.16418504E-01 0.54781194E+03</pdfrwt>
<totfact> 0.14723713E+03</totfact>
</mgrwt>
</event>
<event>
 4    1  0.5280257E-005  0.1609605E+04  0.7818608E-02  0.8814669E-01
         -2   -1    0    0    0  501 -0.00000000000E+00  0.00000000000E+00  0.28417533155E+03  0.28417533156E+03  0.25500000000E-02 0. -1.
          2   -1    0    0  501    0  0.00000000000E+00 -0.00000000000E+00 -0.22792510333E+04  0.22792510333E+04  0.25500000000E-02 0.  1.
    5000001    1    1    2    0    0 -0.17019449157E+03  0.75437297026E+03 -0.75898441853E+03  0.10960506789E+04  0.16500000000E+03 0.  0.
   -5000001    1    1    2    0    0  0.17019449157E+03 -0.75437297026E+03 -0.12360912833E+04  0.14673756860E+04  0.16500000000E+03 0.  0.
<mgrwt>
<rscale>  0 0.16096048E+04</rscale>
<asrwt>0</asrwt>
<pdfrwt beam="1">  1        2 0.32560728E+00 0.16096048E+04</pdfrwt>
<pdfrwt beam="2">  1       -2 0.40596477E-01 0.16096048E+04</pdfrwt>
<totfact> 0.31743580E+01</totfact>
</mgrwt>
</event>
<event>
 4    1  0.5280257E-005  0.3983945E+03  0.7818608E-02  0.1044337E+00
          2   -1    0    0  501    0  0.00000000000E+00  0.00000000000E+00  0.14639502688E+03  0.14639502690E+03  0.25500000000E-02 0.  1.
         -2   -1    0    0    0  501 -0.00000000000E+00 -0.00000000000E+00 -0.27104427914E+03  0.27104427915E+03  0.25500000000E-02 0. -1.
    5000001    1    1    2    0    0 -0.59821365714E+02  0.91669164415E+02 -0.85105703332E+02  0.21552218503E+03  0.16500000000E+03 0.  0.
   -5000001    1    1    2    0    0  0.59821365714E+02 -0.91669164415E+02 -0.39543548923E+02  0.20191712102E+03  0.16500000000E+03 0.  0.
<mgrwt>
<rscale>  0 0.39839445E+03</rscale>
<asrwt>0</asrwt>
<pdfrwt beam="1">  1        2 0.20913575E-01 0.39839445E+03</pdfrwt>
<pdfrwt beam="2">  1       -2 0.38720611E-01 0.39839445E+03</pdfrwt>
<totfact> 0.16854565E+03</totfact>
</mgrwt>
</event>
<event>
 4    1  0.5280257E-005  0.1072048E+04  0.7818608E-02  0.9232873E-01
          2   -1    0    0  501    0  0.00000000000E+00  0.00000000000E+00  0.23212211786E+04  0.23212211786E+04  0.25500000000E-02 0. -1.
         -2   -1    0    0    0  501 -0.00000000000E+00 -0.00000000000E+00 -0.12378035007E+03  0.12378035010E+03  0.25500000000E-02 0.  1.
    5000001    1    1    2    0    0  0.35154695652E+03  0.29526094592E+03  0.59216072895E+03  0.76723113710E+03  0.16500000000E+03 0.  0.
   -5000001    1    1    2    0    0 -0.35154695652E+03 -0.29526094592E+03  0.16052800996E+04  0.16777703916E+04  0.16500000000E+03 0.  0.
<mgrwt>
<rscale>  0 0.10720477E+04</rscale>
<asrwt>0</asrwt>
<pdfrwt beam="1">  1        2 0.33160298E+00 0.10720477E+04</pdfrwt>
<pdfrwt beam="2">  1       -2 0.17682909E-01 0.10720477E+04</pdfrwt>
<totfact> 0.14482385E+02</totfact>
</mgrwt>
</event>
<event>
 4    1  0.5280257E-005  0.5821560E+03  0.7818608E-02  0.9943134E-01
         -2   -1    0    0    0  501 -0.00000000000E+00  0.00000000000E+00  0.11989731803E+03  0.11989731806E+03  0.25500000000E-02 0. -1.
          2   -1    0    0  501    0  0.00000000000E+00 -0.00000000000E+00 -0.70665792302E+03  0.70665792303E+03  0.25500000000E-02 0.  1.
    5000001    1    1    2    0    0  0.19125166009E+03 -0.12799383666E+03 -0.38906557727E+03  0.48120332826E+03  0.16500000000E+03 0.  0.
   -5000001    1    1    2    0    0 -0.19125166009E+03  0.12799383666E+03 -0.19769502772E+03  0.34535191283E+03  0.16500000000E+03 0.  0.
<mgrwt>
<rscale>  0 0.58215596E+03</rscale>
<asrwt>0</asrwt>
<pdfrwt beam="1">  1        2 0.10095113E+00 0.58215596E+03</pdfrwt>
<pdfrwt beam="2">  1       -2 0.17128189E-01 0.58215596E+03</pdfrwt>
<totfact> 0.12442867E+03</totfact>
</mgrwt>
</event>
<event>
 4    1  0.5280257E-005  0.1287720E+04  0.7818608E-02  0.9039360E-01
         -2   -1    0    0    0  501 -0.00000000000E+00  0.00000000000E+00  0.20383428357E+03  0.20383428359E+03  0.25500000000E-02 0. -1.
          2   -1    0    0  501    0  0.00000000000E+00 -0.00000000000E+00 -0.20337880002E+04  0.20337880002E+04  0.25500000000E-02 0.  1.
    5000001    1    1    2    0    0  0.48726964809E+03  0.37290605164E+03 -0.73405888918E+03  0.97085430734E+03  0.16500000000E+03 0.  0.
   -5000001    1    1    2    0    0 -0.48726964809E+03 -0.37290605164E+03 -0.10958948274E+04  0.12667679764E+04  0.16500000000E+03 0.  0.
<mgrwt>
<rscale>  0 0.12877200E+04</rscale>
<asrwt>0</asrwt>
<pdfrwt beam="1">  1        2 0.29054113E+00 0.12877200E+04</pdfrwt>
<pdfrwt beam="2">  1       -2 0.29119185E-01 0.12877200E+04</pdfrwt>
<totfact> 0.82025402E+01</totfact>
</mgrwt>
</event>
<event>
 4    1  0.5280257E-005  0.4623165E+03  0.7818608E-02  0.1024112E+00
          2   -1    0    0  501    0  0.00000000000E+00  0.00000000000E+00  0.54428708948E+03  0.54428708948E+03  0.25500000000E-02 0.  1.
         -2   -1    0    0    0  501 -0.00000000000E+00 -0.00000000000E+00 -0.98172709228E+02  0.98172709261E+02  0.25500000000E-02 0. -1.
    5000001    1    1    2    0    0  0.79589602469E+02 -0.65320459115E+02  0.49445729743E+02  0.20067672359E+03  0.16500000000E+03 0.  0.
   -5000001    1    1    2    0    0 -0.79589602469E+02  0.65320459115E+02  0.39666865051E+03  0.44178307516E+03  0.16500000000E+03 0.  0.
<mgrwt>
<rscale>  0 0.46231651E+03</rscale>
<asrwt>0</asrwt>
<pdfrwt beam="1">  1        2 0.77755302E-01 0.46231651E+03</pdfrwt>
<pdfrwt beam="2">  1       -2 0.14024672E-01 0.46231651E+03</pdfrwt>
<totfact> 0.23711424E+03</totfact>
</mgrwt>
</event>
<event>
 4    1  0.5280257E-005  0.4707111E+03  0.7818608E-02  0.1021720E+00
         -2   -1    0    0    0  501 -0.00000000000E+00  0.00000000000E+00  0.22015350600E+03  0.22015350602E+03  0.25500000000E-02 0. -1.
          2   -1    0    0  501    0  0.00000000000E+00 -0.00000000000E+00 -0.25160735568E+03  0.25160735570E+03  0.25500000000E-02 0.  1.
    5000001    1    1    2    0    0 -0.14185971447E+03  0.76270435768E+01 -0.10528442071E+03  0.24185152393E+03  0.16500000000E+03 0.  0.
   -5000001    1    1    2    0    0  0.14185971447E+03 -0.76270435768E+01  0.73830571024E+02  0.22990933779E+03  0.16500000000E+03 0.  0.
<mgrwt>
<rscale>  0 0.47071113E+03</rscale>
<asrwt>0</asrwt>
<pdfrwt beam="1">  1        2 0.35943908E-01 0.47071113E+03</pdfrwt>
<pdfrwt beam="2">  1       -2 0.31450501E-01 0.47071113E+03</pdfrwt>
<totfact> 0.13580063E+03</totfact>
</mgrwt>
</event>
<event>
 4    1  0.5280257E-005  0.5148014E+03  0.7818608E-02  0.1009986E+00
          2   -1    0    0  501    0  0.00000000000E+00  0.00000000000E+00  0.19333636341E+04  0.19333636341E+04  0.25500000000E-02 0.  1.
         -2   -1    0    0    0  501 -0.00000000000E+00 -0.00000000000E+00 -0.34269352099E+02  0.34269352194E+02  0.25500000000E-02 0. -1.
    5000001    1    1    2    0    0 -0.52021485893E+02 -0.15179262189E+03  0.13900518665E+04  0.14089770852E+04  0.16500000000E+03 0.  0.
   -5000001    1    1    2    0    0  0.52021485893E+02  0.15179262189E+03  0.50904241552E+03  0.55865590112E+03  0.16500000000E+03 0.  0.
<mgrwt>
<rscale>  0 0.51480140E+03</rscale>
<asrwt>0</asrwt>
<pdfrwt beam="1">  1        2 0.27619483E+00 0.51480140E+03</pdfrwt>
<pdfrwt beam="2">  1       -2 0.48956213E-02 0.51480140E+03</pdfrwt>
<totfact> 0.19034146E+03</totfact>
</mgrwt>
</event>
<event>
 4    1  0.5280257E-005  0.4401540E+03  0.7818608E-02  0.1030700E+00
          2   -1    0    0  501    0  0.00000000000E+00  0.00000000000E+00  0.97619635594E+03  0.97619635594E+03  0.25500000000E-02 0.  1.
         -2   -1    0    0    0  501 -0.00000000000E+00 -0.00000000000E+00 -0.49614898480E+02  0.49614898546E+02  0.25500000000E-02 0. -1.
    5000001    1    1    2    0    0  0.14506438420E+03 -0.48388807589E+00  0.43335638021E+03  0.48586691797E+03  0.16500000000E+03 0.  0.
   -5000001    1    1    2    0    0 -0.14506438420E+03  0.48388807589E+00  0.49322507725E+03  0.53994433652E+03  0.16500000000E+03 0.  0.
<mgrwt>
<rscale>  0 0.44015399E+03</rscale>
<asrwt>0</asrwt>
<pdfrwt beam="1">  1        2 0.13945662E+00 0.44015399E+03</pdfrwt>
<pdfrwt beam="2">  1       -2 0.70878428E-02 0.44015399E+03</pdfrwt>
<totfact> 0.34576645E+03</totfact>
</mgrwt>
</event>
<event>
 4    1  0.5280257E-005  0.4397344E+03  0.7818608E-02  0.1030828E+00
         -2   -1    0    0    0  501 -0.00000000000E+00  0.00000000000E+00  0.64553791894E+02  0.64553791945E+02  0.25500000000E-02 0. -1.
          2   -1    0    0  501    0  0.00000000000E+00 -0.00000000000E+00 -0.74885744996E+03  0.74885744996E+03  0.25500000000E-02 0.  1.
    5000001    1    1    2    0    0  0.13175125324E+03 -0.46570483061E+01 -0.45522319240E+03  0.50182988724E+03  0.16500000000E+03 0.  0.
   -5000001    1    1    2    0    0 -0.13175125324E+03  0.46570483061E+01 -0.22908046567E+03  0.31158135467E+03  0.16500000000E+03 0.  0.
<mgrwt>
<rscale>  0 0.43973441E+03</rscale>
<asrwt>0</asrwt>
<pdfrwt beam="1">  1        2 0.10697963E+00 0.43973441E+03</pdfrwt>
<pdfrwt beam="2">  1       -2 0.92219707E-02 0.43973441E+03</pdfrwt>
<totfact> 0.32147247E+03</totfact>
</mgrwt>
</event>
<event>
 4    1  0.5280257E-005  0.3939148E+03  0.7818608E-02  0.1045907E+00
          2   -1    0    0  501    0  0.00000000000E+00  0.00000000000E+00  0.12515408143E+04  0.12515408143E+04  0.25500000000E-02 0.  1.
         -2   -1    0    0    0  501 -0.00000000000E+00 -0.00000000000E+00 -0.30995561606E+02  0.30995561711E+02  0.25500000000E-02 0. -1.
    5000001    1    1    2    0    0  0.63876393569E+02  0.72549281769E+02  0.76380415550E+03  0.78737880331E+03  0.16500000000E+03 0.  0.
   -5000001    1    1    2    0    0 -0.63876393569E+02 -0.72549281769E+02  0.45674109720E+03  0.49515757271E+03  0.16500000000E+03 0.  0.
<mgrwt>
<rscale>  0 0.39391476E+03</rscale>
<asrwt>0</asrwt>
<pdfrwt beam="1">  1        2 0.17879152E+00 0.39391476E+03</pdfrwt>
<pdfrwt beam="2">  1       -2 0.44279380E-02 0.39391476E+03</pdfrwt>
<totfact> 0.49760542E+03</totfact>
</mgrwt>
</event>
<event>
 4    1  0.5280257E-005  0.3834272E+03  0.7818608E-02  0.1049674E+00
          2   -1    0    0  501    0  0.00000000000E+00  0.00000000000E+00  0.10281863939E+04  0.10281863939E+04  0.25500000000E-02 0.  1.
         -2   -1    0    0    0  501 -0.00000000000E+00 -0.00000000000E+00 -0.35746534823E+02  0.35746534913E+02  0.25500000000E-02 0. -1.
    5000001    1    1    2    0    0  0.59499446504E+02  0.47731073594E+02  0.66524728979E+03  0.68963569810E+03  0.16500000000E+03 0.  0.
   -5000001    1    1    2    0    0 -0.59499446504E+02 -0.47731073594E+02  0.32719256924E+03  0.37429723067E+03  0.16500000000E+03 0.  0.
<mgrwt>
<rscale>  0 0.38342718E+03</rscale>
<asrwt>0</asrwt>
<pdfrwt beam="1">  1        2 0.14688378E+00 0.38342718E+03</pdfrwt>
<pdfrwt beam="2">  1       -2 0.51066474E-02 0.38342718E+03</pdfrwt>
<totfact> 0.53443151E+03</totfact>
</mgrwt>
</event>
<event>
 4    1  0.5280257E-005  0.4779050E+03  0.7818608E-02  0.1019713E+00
          2   -1    0    0  501    0  0.00000000000E+00  0.00000000000E+00  0.13836160373E+03  0.13836160375E+03  0.25500000000E-02 0.  1.
         -2   -1    0    0    0  501 -0.00000000000E+00 -0.00000000000E+00 -0.41267442961E+03  0.41267442962E+03  0.25500000000E-02 0. -1.
    5000001    1    1    2    0    0 -0.12860574356E+03 -0.11523153353E+03 -0.14575029706E+03  0.27979616275E+03  0.16500000000E+03 0.  0.
   -5000001    1    1    2    0    0  0.12860574356E+03  0.11523153353E+03 -0.12856252883E+03  0.27123987062E+03  0.16500000000E+03 0.  0.
<mgrwt>
<rscale>  0 0.47790499E+03</rscale>
<asrwt>0</asrwt>
<pdfrwt beam="1">  1        2 0.19765944E-01 0.47790499E+03</pdfrwt>
<pdfrwt beam="2">  1       -2 0.58953489E-01 0.47790499E+03</pdfrwt>
<totfact> 0.77803441E+02</totfact>
</mgrwt>
</event>
<event>
 4    1  0.5280257E-005  0.4109921E+03  0.7818608E-02  0.1040039E+00
         -2   -1    0    0    0  501 -0.00000000000E+00  0.00000000000E+00  0.17773209729E+02  0.17773209912E+02  0.25500000000E-02 0. -1.
          2   -1    0    0  501    0  0.00000000000E+00 -0.00000000000E+00 -0.23759705139E+04  0.23759705139E+04  0.25500000000E-02 0.  1.
    5000001    1    1    2    0    0 -0.32375624355E+02  0.11781370273E+03 -0.11285334525E+04  0.11470575413E+04  0.16500000000E+03 0.  0.
   -5000001    1    1    2    0    0  0.32375624355E+02 -0.11781370273E+03 -0.12296638517E+04  0.12466861825E+04  0.16500000000E+03 0.  0.
<mgrwt>
<rscale>  0 0.41099208E+03</rscale>
<asrwt>0</asrwt>
<pdfrwt beam="1">  1        2 0.33942416E+00 0.41099208E+03</pdfrwt>
<pdfrwt beam="2">  1       -2 0.25390315E-02 0.41099208E+03</pdfrwt>
<totfact> 0.31177533E+03</totfact>
</mgrwt>
</event>
<event>
 4    1  0.5280257E-005  0.4440830E+03  0.7818608E-02  0.1029501E+00
          2   -1    0    0  501    0  0.00000000000E+00  0.00000000000E+00  0.10289023920E+04  0.10289023920E+04  0.25500000000E-02 0.  1.
         -2   -1    0    0    0  501 -0.00000000000E+00 -0.00000000000E+00 -0.47917501961E+02  0.47917502029E+02  0.25500000000E-02 0. -1.
    5000001    1    1    2    0    0  0.83982320999E+02  0.11477982444E+03  0.38619730501E+03  0.44339688399E+03  0.16500000000E+03 0.  0.
   -5000001    1    1    2    0    0 -0.83982320999E+02 -0.11477982444E+03  0.59478758502E+03  0.63342301003E+03  0.16500000000E+03 0.  0.
<mgrwt>
<rscale>  0 0.44408302E+03</rscale>
<asrwt>0</asrwt>
<pdfrwt beam="1">  1        2 0.14698604E+00 0.44408302E+03</pdfrwt>
<pdfrwt beam="2">  1       -2 0.68453583E-02 0.44408302E+03</pdfrwt>
<totfact> 0.33947587E+03</totfact>
</mgrwt>
</event>
<event>
 4    1  0.5280257E-005  0.3752255E+03  0.7818608E-02  0.1052713E+00
         -2   -1    0    0    0  501 -0.00000000000E+00  0.00000000000E+00  0.43747698772E+02  0.43747698847E+02  0.25500000000E-02 0. -1.
          2   -1    0    0  501    0  0.00000000000E+00 -0.00000000000E+00 -0.80458065775E+03  0.80458065775E+03  0.25500000000E-02 0.  1.
    5000001    1    1    2    0    0 -0.49585750416E+02 -0.71289438809E+02 -0.33339181933E+03  0.38198957568E+03  0.16500000000E+03 0.  0.
   -5000001    1    1    2    0    0  0.49585750416E+02  0.71289438809E+02 -0.42744113964E+03  0.46633878092E+03  0.16500000000E+03 0.  0.
<mgrwt>
<rscale>  0 0.37522554E+03</rscale>
<asrwt>0</asrwt>
<pdfrwt beam="1">  1        2 0.11494008E+00 0.37522554E+03</pdfrwt>
<pdfrwt beam="2">  1       -2 0.62496717E-02 0.37522554E+03</pdfrwt>
<totfact> 0.54101622E+03</totfact>
</mgrwt>
</event>
<event>
 4    1  0.5280257E-005  0.4123474E+03  0.7818608E-02  0.1039586E+00
          2   -1    0    0  501    0  0.00000000000E+00  0.00000000000E+00  0.22048848524E+03  0.22048848525E+03  0.25500000000E-02 0.  1.
         -2   -1    0    0    0  501 -0.00000000000E+00 -0.00000000000E+00 -0.19278825179E+03  0.19278825181E+03  0.25500000000E-02 0. -1.
    5000001    1    1    2    0    0  0.96520939109E+02 -0.70200693186E+02  0.46143236040E+02  0.20880284299E+03  0.16500000000E+03 0.  0.
   -5000001    1    1    2    0    0 -0.96520939109E+02  0.70200693186E+02 -0.18443002597E+02  0.20447389407E+03  0.16500000000E+03 0.  0.
<mgrwt>
<rscale>  0 0.41234738E+03</rscale>
<asrwt>0</asrwt>
<pdfrwt beam="1">  1        2 0.31498355E-01 0.41234738E+03</pdfrwt>
<pdfrwt beam="2">  1       -2 0.27541179E-01 0.41234738E+03</pdfrwt>
<totfact> 0.20010467E+03</totfact>
</mgrwt>
</event>
<event>
 4    1  0.5280257E-005  0.5396995E+03  0.7818608E-02  0.1003907E+00
          2   -1    0    0  501    0  0.00000000000E+00  0.00000000000E+00  0.20410342875E+04  0.20410342875E+04  0.25500000000E-02 0.  1.
         -2   -1    0    0    0  501 -0.00000000000E+00 -0.00000000000E+00 -0.35677444601E+02  0.35677444692E+02  0.25500000000E-02 0. -1.
    5000001    1    1    2    0    0 -0.68051480733E+02 -0.55323927510E+02  0.25355029219E+03  0.31496744539E+03  0.16500000000E+03 0.  0.
   -5000001    1    1    2    0    0  0.68051480733E+02  0.55323927510E+02  0.17518065507E+04  0.17617442868E+04  0.16500000000E+03 0.  0.
<mgrwt>
<rscale>  0 0.53969950E+03</rscale>
<asrwt>0</asrwt>
<pdfrwt beam="1">  1        2 0.29157631E+00 0.53969950E+03</pdfrwt>
<pdfrwt beam="2">  1       -2 0.50967782E-02 0.53969950E+03</pdfrwt>
<totfact> 0.15782155E+03</totfact>
</mgrwt>
</event>
<event>
 4    1  0.5280257E-005  0.4352166E+03  0.7818608E-02  0.1032225E+00
         -2   -1    0    0    0  501 -0.00000000000E+00  0.00000000000E+00  0.27567594611E+02  0.27567594729E+02  0.25500000000E-02 0. -1.
          2   -1    0    0  501    0  0.00000000000E+00 -0.00000000000E+00 -0.17177187419E+04  0.17177187419E+04  0.25500000000E-02 0.  1.
    5000001    1    1    2    0    0  0.87230502848E+02  0.83491333885E+02 -0.11437826589E+04  0.11619138239E+04  0.16500000000E+03 0.  0.
   -5000001    1    1    2    0    0 -0.87230502848E+02 -0.83491333885E+02 -0.54636848841E+03  0.58337251271E+03  0.16500000000E+03 0.  0.
<mgrwt>
<rscale>  0 0.43521661E+03</rscale>
<asrwt>0</asrwt>
<pdfrwt beam="1">  1        2 0.24538832E+00 0.43521661E+03</pdfrwt>
<pdfrwt beam="2">  1       -2 0.39382289E-02 0.43521661E+03</pdfrwt>
<totfact> 0.34146931E+03</totfact>
</mgrwt>
</event>
<event>
 4    1  0.5280257E-005  0.4799808E+03  0.7818608E-02  0.1019140E+00
         -2   -1    0    0    0  501 -0.00000000000E+00  0.00000000000E+00  0.20848925639E+02  0.20848925795E+02  0.25500000000E-02 0. -1.
          2   -1    0    0  501    0  0.00000000000E+00 -0.00000000000E+00 -0.27625108310E+04  0.27625108310E+04  0.25500000000E-02 0.  1.
    5000001    1    1    2    0    0  0.12647797196E+02 -0.13129044957E+03 -0.20313261154E+04  0.20422800826E+04  0.16500000000E+03 0.  0.
   -5000001    1    1    2    0    0 -0.12647797196E+02  0.13129044957E+03 -0.71033579002E+03  0.74107967419E+03  0.16500000000E+03 0.  0.
<mgrwt>
<rscale>  0 0.47998076E+03</rscale>
<asrwt>0</asrwt>
<pdfrwt beam="1">  1        2 0.39464417E+00 0.47998076E+03</pdfrwt>
<pdfrwt beam="2">  1       -2 0.29784197E-02 0.47998076E+03</pdfrwt>
<totfact> 0.15485580E+03</totfact>
</mgrwt>
</event>
<event>
 4    1  0.5280257E-005  0.6309425E+03  0.7818608E-02  0.9843211E-01
         -2   -1    0    0    0  501 -0.00000000000E+00  0.00000000000E+00  0.10106124340E+03  0.10106124343E+03  0.25500000000E-02 0. -1.
          2   -1    0    0  501    0  0.00000000000E+00 -0.00000000000E+00 -0.98477041036E+03  0.98477041036E+03  0.25500000000E-02 0.  1.
    5000001    1    1    2    0    0  0.11704136071E+03 -0.24185165268E+03 -0.45959141736E+03  0.55735103205E+03  0.16500000000E+03 0.  0.
   -5000001    1    1    2    0    0 -0.11704136071E+03  0.24185165268E+03 -0.42411774960E+03  0.52848062173E+03  0.16500000000E+03 0.  0.
<mgrwt>
<rscale>  0 0.63094254E+03</rscale>
<asrwt>0</asrwt>
<pdfrwt beam="1">  1        2 0.14068148E+00 0.63094254E+03</pdfrwt>
<pdfrwt beam="2">  1       -2 0.14437321E-01 0.63094254E+03</pdfrwt>
<totfact> 0.10776368E+03</totfact>
</mgrwt>
</event>
<event>
 4    1  0.5280257E-005  0.5053728E+03  0.7818608E-02  0.1012386E+00
          2   -1    0    0  501    0  0.00000000000E+00  0.00000000000E+00  0.48316165564E+03  0.48316165565E+03  0.25500000000E-02 0.  1.
         -2   -1    0    0    0  501 -0.00000000000E+00 -0.00000000000E+00 -0.13215124770E+03  0.13215124772E+03  0.25500000000E-02 0. -1.
    5000001    1    1    2    0    0 -0.18620820735E+03  0.43106733939E+02  0.16371774104E+03  0.30093219457E+03  0.16500000000E+03 0.  0.
   -5000001    1    1    2    0    0  0.18620820735E+03 -0.43106733939E+02  0.18729266690E+03  0.31438070880E+03  0.16500000000E+03 0.  0.
<mgrwt>
<rscale>  0 0.50537280E+03</rscale>
<asrwt>0</asrwt>
<pdfrwt beam="1">  1        2 0.69023092E-01 0.50537280E+03</pdfrwt>
<pdfrwt beam="2">  1       -2 0.18878750E-01 0.50537280E+03</pdfrwt>
<totfact> 0.16430242E+03</totfact>
</mgrwt>
</event>
<event>
 4    1  0.5280257E-005  0.3810194E+03  0.7818608E-02  0.1050558E+00
         -2   -1    0    0    0  501 -0.00000000000E+00  0.00000000000E+00  0.23943198323E+02  0.23943198459E+02  0.25500000000E-02 0. -1.
          2   -1    0    0  501    0  0.00000000000E+00 -0.00000000000E+00 -0.15158356472E+04  0.15158356472E+04  0.25500000000E-02 0.  1.
    5000001    1    1    2    0    0 -0.65583480229E+02  0.58178992901E+02 -0.59566078965E+03  0.62427779427E+03  0.16500000000E+03 0.  0.
   -5000001    1    1    2    0    0  0.65583480229E+02 -0.58178992901E+02 -0.89623165921E+03  0.91550105137E+03  0.16500000000E+03 0.  0.
<mgrwt>
<rscale>  0 0.38101944E+03</rscale>
<asrwt>0</asrwt>
<pdfrwt beam="1">  1        2 0.21654789E+00 0.38101944E+03</pdfrwt>
<pdfrwt beam="2">  1       -2 0.34204579E-02 0.38101944E+03</pdfrwt>
<totfact> 0.53485657E+03</totfact>
</mgrwt>
</event>
<event>
 4    1  0.5280257E-005  0.1180019E+04  0.7818608E-02  0.9130528E-01
         -2   -1    0    0    0  501 -0.00000000000E+00  0.00000000000E+00  0.27287347985E+03  0.27287347986E+03  0.25500000000E-02 0. -1.
          2   -1    0    0  501    0  0.00000000000E+00 -0.00000000000E+00 -0.12757237718E+04  0.12757237718E+04  0.25500000000E-02 0.  1.
    5000001    1    1    2    0    0 -0.67954997171E+02 -0.48917938839E+03 -0.86552072339E+03  0.10100819166E+04  0.16500000000E+03 0.  0.
   -5000001    1    1    2    0    0  0.67954997171E+02  0.48917938839E+03 -0.13732956855E+03  0.53851533504E+03  0.16500000000E+03 0.  0.
<mgrwt>
<rscale>  0 0.11800190E+04</rscale>
<asrwt>0</asrwt>
<pdfrwt beam="1">  1        2 0.18224625E+00 0.11800190E+04</pdfrwt>
<pdfrwt beam="2">  1       -2 0.38981926E-01 0.11800190E+04</pdfrwt>
<totfact> 0.11891254E+02</totfact>
</mgrwt>
</event>
<event>
 4    1  0.5280257E-005  0.6668923E+03  0.7818608E-02  0.9775588E-01
          2   -1    0    0  501    0  0.00000000000E+00  0.00000000000E+00  0.24324289147E+04  0.24324289147E+04  0.25500000000E-02 0.  1.
         -2   -1    0    0    0  501 -0.00000000000E+00 -0.00000000000E+00 -0.45710010310E+02  0.45710010381E+02  0.25500000000E-02 0. -1.
    5000001    1    1    2    0    0 -0.27959980171E+03  0.74449689612E+02  0.12512311854E+04  0.12948062730E+04  0.16500000000E+03 0.  0.
   -5000001    1    1    2    0    0  0.27959980171E+03 -0.74449689612E+02  0.11354877190E+04  0.11833326520E+04  0.16500000000E+03 0.  0.
<mgrwt>
<rscale>  0 0.66689235E+03</rscale>
<asrwt>0</asrwt>
<pdfrwt beam="1">  1        2 0.34748984E+00 0.66689235E+03</pdfrwt>
<pdfrwt beam="2">  1       -2 0.65300016E-02 0.66689235E+03</pdfrwt>
<totfact> 0.67420303E+02</totfact>
</mgrwt>
</event>
<event>
 4    1  0.5280257E-005  0.5703630E+03  0.7818608E-02  0.9968876E-01
         -2   -1    0    0    0  501 -0.00000000000E+00  0.00000000000E+00  0.29258612192E+03  0.29258612193E+03  0.25500000000E-02 0.  1.
          2   -1    0    0  501    0  0.00000000000E+00 -0.00000000000E+00 -0.27796423523E+03  0.27796423524E+03  0.25500000000E-02 0. -1.
    5000001    1    1    2    0    0 -0.21297176790E+03 -0.92582227124E+02 -0.59234798539E+01  0.28493601091E+03  0.16500000000E+03 0.  0.
   -5000001    1    1    2    0    0  0.21297176790E+03  0.92582227124E+02  0.20545366540E+02  0.28561434626E+03  0.16500000000E+03 0.  0.
<mgrwt>
<rscale>  0 0.57036296E+03</rscale>
<asrwt>0</asrwt>
<pdfrwt beam="1">  1        2 0.39709176E-01 0.57036296E+03</pdfrwt>
<pdfrwt beam="2">  1       -2 0.41798017E-01 0.57036296E+03</pdfrwt>
<totfact> 0.70813543E+02</totfact>
</mgrwt>
</event>
<event>
 4    1  0.5280257E-005  0.3939685E+03  0.7818608E-02  0.1045888E+00
         -2   -1    0    0    0  501 -0.00000000000E+00  0.00000000000E+00  0.13695481917E+03  0.13695481920E+03  0.25500000000E-02 0. -1.
          2   -1    0    0  501    0  0.00000000000E+00 -0.00000000000E+00 -0.28332551788E+03  0.28332551789E+03  0.25500000000E-02 0.  1.
    5000001    1    1    2    0    0  0.49112140768E+02 -0.95586008191E+02 -0.67429865536E+02  0.20813571077E+03  0.16500000000E+03 0.  0.
   -5000001    1    1    2    0    0 -0.49112140768E+02  0.95586008191E+02 -0.78940833164E+02  0.21214462631E+03  0.16500000000E+03 0.  0.
<mgrwt>
<rscale>  0 0.39396850E+03</rscale>
<asrwt>0</asrwt>
<pdfrwt beam="1">  1        2 0.40475074E-01 0.39396850E+03</pdfrwt>
<pdfrwt beam="2">  1       -2 0.19564974E-01 0.39396850E+03</pdfrwt>
<totfact> 0.27730611E+03</totfact>
</mgrwt>
</event>
<event>
 4    1  0.5280257E-005  0.4715483E+03  0.7818608E-02  0.1021484E+00
          2   -1    0    0  501    0  0.00000000000E+00  0.00000000000E+00  0.26195635868E+03  0.26195635869E+03  0.25500000000E-02 0.  1.
         -2   -1    0    0    0  501 -0.00000000000E+00 -0.00000000000E+00 -0.21220883337E+03  0.21220883338E+03  0.25500000000E-02 0. -1.
    5000001    1    1    2    0    0 -0.12940104577E+03 -0.83800451253E+01  0.13293922029E+03  0.24842039388E+03  0.16500000000E+03 0.  0.
   -5000001    1    1    2    0    0  0.12940104577E+03  0.83800451253E+01 -0.83191694973E+02  0.22574479820E+03  0.16500000000E+03 0.  0.
<mgrwt>
<rscale>  0 0.47154831E+03</rscale>
<asrwt>0</asrwt>
<pdfrwt beam="1">  1        2 0.37422337E-01 0.47154831E+03</pdfrwt>
<pdfrwt beam="2">  1       -2 0.30315548E-01 0.47154831E+03</pdfrwt>
<totfact> 0.13902237E+03</totfact>
</mgrwt>
</event>
<event>
 4    1  0.5280257E-005  0.7370228E+03  0.7818608E-02  0.9655932E-01
          2   -1    0    0  501    0  0.00000000000E+00  0.00000000000E+00  0.31545899484E+03  0.31545899485E+03  0.25500000000E-02 0.  1.
         -2   -1    0    0    0  501 -0.00000000000E+00 -0.00000000000E+00 -0.43048593607E+03  0.43048593608E+03  0.25500000000E-02 0. -1.
    5000001    1    1    2    0    0 -0.13072290896E+03  0.14529792380E+03  0.21098213285E+03  0.33156963970E+03  0.16500000000E+03 0.  0.
   -5000001    1    1    2    0    0  0.13072290896E+03 -0.14529792380E+03 -0.32600907409E+03  0.41437529122E+03  0.16500000000E+03 0.  0.
<mgrwt>
<rscale>  0 0.73702282E+03</rscale>
<asrwt>0</asrwt>
<pdfrwt beam="1">  1        2 0.45065571E-01 0.73702282E+03</pdfrwt>
<pdfrwt beam="2">  1       -2 0.61497991E-01 0.73702282E+03</pdfrwt>
<totfact> 0.27951044E+02</totfact>
</mgrwt>
</event>
<event>
 4    1  0.5280257E-005  0.5944739E+03  0.7818608E-02  0.9916938E-01
         -2   -1    0    0    0  501 -0.00000000000E+00  0.00000000000E+00  0.70817882165E+02  0.70817882211E+02  0.25500000000E-02 0. -1.
          2   -1    0    0  501    0  0.00000000000E+00 -0.00000000000E+00 -0.12475633188E+04  0.12475633188E+04  0.25500000000E-02 0.  1.
    5000001    1    1    2    0    0  0.19233169075E+03  0.11055166806E+03 -0.83041656601E+03  0.87523129725E+03  0.16500000000E+03 0.  0.
   -5000001    1    1    2    0    0 -0.19233169075E+03 -0.11055166806E+03 -0.34632887063E+03  0.44314990377E+03  0.16500000000E+03 0.  0.
<mgrwt>
<rscale>  0 0.59447386E+03</rscale>
<asrwt>0</asrwt>
<pdfrwt beam="1">  1        2 0.17822332E+00 0.59447386E+03</pdfrwt>
<pdfrwt beam="2">  1       -2 0.10116841E-01 0.59447386E+03</pdfrwt>
<totfact> 0.13648521E+03</totfact>
</mgrwt>
</event>
<event>
 4    1  0.5280257E-005  0.4657625E+03  0.7818608E-02  0.1023123E+00
          2   -1    0    0  501    0  0.00000000000E+00  0.00000000000E+00  0.12894670107E+04  0.12894670107E+04  0.25500000000E-02 0.  1.
         -2   -1    0    0    0  501 -0.00000000000E+00 -0.00000000000E+00 -0.42058986754E+02  0.42058986832E+02  0.25500000000E-02 0. -1.
    5000001    1    1    2    0    0 -0.45169295065E+02  0.15761927259E+03  0.59179585305E+03  0.63587060947E+03  0.16500000000E+03 0.  0.
   -5000001    1    1    2    0    0  0.45169295065E+02 -0.15761927259E+03  0.65561217093E+03  0.69565538810E+03  0.16500000000E+03 0.  0.
<mgrwt>
<rscale>  0 0.46576250E+03</rscale>
<asrwt>0</asrwt>
<pdfrwt beam="1">  1        2 0.18420951E+00 0.46576250E+03</pdfrwt>
<pdfrwt beam="2">  1       -2 0.60084287E-02 0.46576250E+03</pdfrwt>
<totfact> 0.29672719E+03</totfact>
</mgrwt>
</event>
<event>
 4    1  0.5280257E-005  0.4901358E+03  0.7818608E-02  0.1016386E+00
         -2   -1    0    0    0  501 -0.00000000000E+00  0.00000000000E+00  0.41379482474E+02  0.41379482553E+02  0.25500000000E-02 0. -1.
          2   -1    0    0  501    0  0.00000000000E+00 -0.00000000000E+00 -0.14514024261E+04  0.14514024261E+04  0.25500000000E-02 0.  1.
    5000001    1    1    2    0    0 -0.14872430906E+03 -0.10302167238E+03 -0.67441880200E+03  0.71749432442E+03  0.16500000000E+03 0.  0.
   -5000001    1    1    2    0    0  0.14872430906E+03  0.10302167238E+03 -0.73560414160E+03  0.77528758421E+03  0.16500000000E+03 0.  0.
<mgrwt>
<rscale>  0 0.49013582E+03</rscale>
<asrwt>0</asrwt>
<pdfrwt beam="1">  1        2 0.20734317E+00 0.49013582E+03</pdfrwt>
<pdfrwt beam="2">  1       -2 0.59113555E-02 0.49013582E+03</pdfrwt>
<totfact> 0.24969147E+03</totfact>
</mgrwt>
</event>
<event>
 4    1  0.5280257E-005  0.4038233E+03  0.7818608E-02  0.1042464E+00
          2   -1    0    0  501    0  0.00000000000E+00  0.00000000000E+00  0.16112525637E+03  0.16112525639E+03  0.25500000000E-02 0.  1.
         -2   -1    0    0    0  501 -0.00000000000E+00 -0.00000000000E+00 -0.25302246829E+03  0.25302246830E+03  0.25500000000E-02 0. -1.
    5000001    1    1    2    0    0  0.28794341517E+02  0.10241898183E+03 -0.94319580007E+02  0.21780712825E+03  0.16500000000E+03 0.  0.
   -5000001    1    1    2    0    0 -0.28794341517E+02 -0.10241898183E+03  0.24223680871E+01  0.19634059644E+03  0.16500000000E+03 0.  0.
<mgrwt>
<rscale>  0 0.40382328E+03</rscale>
<asrwt>0</asrwt>
<pdfrwt beam="1">  1        2 0.23017894E-01 0.40382328E+03</pdfrwt>
<pdfrwt beam="2">  1       -2 0.36146067E-01 0.40382328E+03</pdfrwt>
<totfact> 0.17214934E+03</totfact>
</mgrwt>
</event>
<event>
 4    1  0.5280257E-005  0.4070647E+03  0.7818608E-02  0.1041361E+00
          2   -1    0    0  501    0  0.00000000000E+00  0.00000000000E+00  0.24847374690E+03  0.24847374691E+03  0.25500000000E-02 0.  1.
         -2   -1    0    0    0  501 -0.00000000000E+00 -0.00000000000E+00 -0.16671951983E+03  0.16671951985E+03  0.25500000000E-02 0. -1.
    5000001    1    1    2    0    0  0.10887034151E+03  0.10456582949E+02 -0.73786416169E+01  0.19809476454E+03  0.16500000000E+03 0.  0.
   -5000001    1    1    2    0    0 -0.10887034151E+03 -0.10456582949E+02  0.89132868685E+02  0.21709850222E+03  0.16500000000E+03 0.  0.
<mgrwt>
<rscale>  0 0.40706473E+03</rscale>
<asrwt>0</asrwt>
<pdfrwt beam="1">  1        2 0.35496249E-01 0.40706473E+03</pdfrwt>
<pdfrwt beam="2">  1       -2 0.23817075E-01 0.40706473E+03</pdfrwt>
<totfact> 0.22735013E+03</totfact>
</mgrwt>
</event>
<event>
 4    1  0.5280257E-005  0.3954484E+03  0.7818608E-02  0.1045367E+00
         -2   -1    0    0    0  501 -0.00000000000E+00  0.00000000000E+00  0.50084259667E+02  0.50084259731E+02  0.25500000000E-02 0. -1.
          2   -1    0    0  501    0  0.00000000000E+00 -0.00000000000E+00 -0.78058158453E+03  0.78058158453E+03  0.25500000000E-02 0.  1.
    5000001    1    1    2    0    0  0.92596726874E+02  0.46847689197E+02 -0.29554935549E+03  0.35403853087E+03  0.16500000000E+03 0.  0.
   -5000001    1    1    2    0    0 -0.92596726874E+02 -0.46847689197E+02 -0.43494796937E+03  0.47662731339E+03  0.16500000000E+03 0.  0.
<mgrwt>
<rscale>  0 0.39544836E+03</rscale>
<asrwt>0</asrwt>
<pdfrwt beam="1">  1        2 0.11151165E+00 0.39544836E+03</pdfrwt>
<pdfrwt beam="2">  1       -2 0.71548947E-02 0.39544836E+03</pdfrwt>
<totfact> 0.45553963E+03</totfact>
</mgrwt>
</event>
<event>
 4    1  0.5280257E-005  0.1138003E+04  0.7818608E-02  0.9168923E-01
          2   -1    0    0  501    0  0.00000000000E+00  0.00000000000E+00  0.15177156189E+04  0.15177156189E+04  0.25500000000E-02 0.  1.
         -2   -1    0    0    0  501 -0.00000000000E+00 -0.00000000000E+00 -0.21332239921E+03  0.21332239922E+03  0.25500000000E-02 0. -1.
    5000001    1    1    2    0    0 -0.16373100138E+03 -0.51917561558E+03  0.67297403288E+03  0.88117547036E+03  0.16500000000E+03 0.  0.
   -5000001    1    1    2    0    0  0.16373100138E+03  0.51917561558E+03  0.63141918681E+03  0.84986254777E+03  0.16500000000E+03 0.  0.
<mgrwt>
<rscale>  0 0.11380031E+04</rscale>
<asrwt>0</asrwt>
<pdfrwt beam="1">  1        2 0.21681651E+00 0.11380031E+04</pdfrwt>
<pdfrwt beam="2">  1       -2 0.30474629E-01 0.11380031E+04</pdfrwt>
<totfact> 0.14089952E+02</totfact>
</mgrwt>
</event>
<event>
 4    1  0.5280257E-005  0.7385051E+03  0.7818608E-02  0.9653559E-01
         -2   -1    0    0    0  501 -0.00000000000E+00  0.00000000000E+00  0.31233398023E+03  0.31233398024E+03  0.25500000000E-02 0. -1.
          2   -1    0    0  501    0  0.00000000000E+00 -0.00000000000E+00 -0.43654379507E+03  0.43654379507E+03  0.25500000000E-02 0.  1.
    5000001    1    1    2    0    0 -0.32802002861E+03 -0.32867321834E+02 -0.40712128071E+02  0.37089065422E+03  0.16500000000E+03 0.  0.
   -5000001    1    1    2    0    0  0.32802002861E+03  0.32867321834E+02 -0.83497686766E+02  0.37798712109E+03  0.16500000000E+03 0.  0.
<mgrwt>
<rscale>  0 0.73850514E+03</rscale>
<asrwt>0</asrwt>
<pdfrwt beam="1">  1        2 0.62363399E-01 0.73850514E+03</pdfrwt>
<pdfrwt beam="2">  1       -2 0.44619140E-01 0.73850514E+03</pdfrwt>
<totfact> 0.37591766E+02</totfact>
</mgrwt>
</event>
<event>
 4    1  0.5280257E-005  0.4840232E+03  0.7818608E-02  0.1018035E+00
         -2   -1    0    0    0  501 -0.00000000000E+00  0.00000000000E+00  0.32676849857E+02  0.32676849957E+02  0.25500000000E-02 0. -1.
          2   -1    0    0  501    0  0.00000000000E+00 -0.00000000000E+00 -0.17923888351E+04  0.17923888351E+04  0.25500000000E-02 0.  1.
    5000001    1    1    2    0    0  0.75682884164E+02 -0.17968938434E+02 -0.14795361436E+04  0.14907390723E+04  0.16500000000E+03 0.  0.
   -5000001    1    1    2    0    0 -0.75682884164E+02  0.17968938434E+02 -0.28017584164E+03  0.33432661268E+03  0.16500000000E+03 0.  0.
<mgrwt>
<rscale>  0 0.48402323E+03</rscale>
<asrwt>0</asrwt>
<pdfrwt beam="1">  1        2 0.25605549E+00 0.48402323E+03</pdfrwt>
<pdfrwt beam="2">  1       -2 0.46681226E-02 0.48402323E+03</pdfrwt>
<totfact> 0.24121349E+03</totfact>
</mgrwt>
</event>
<event>
 4    1  0.5280257E-005  0.4364089E+03  0.7818608E-02  0.1031854E+00
         -2   -1    0    0    0  501 -0.00000000000E+00  0.00000000000E+00  0.35133067788E+02  0.35133067880E+02  0.25500000000E-02 0. -1.
          2   -1    0    0  501    0  0.00000000000E+00 -0.00000000000E+00 -0.13552241117E+04  0.13552241117E+04  0.25500000000E-02 0.  1.
    5000001    1    1    2    0    0 -0.40366524777E+02  0.13212978753E+03 -0.77493454799E+03  0.80426133237E+03  0.16500000000E+03 0.  0.
   -5000001    1    1    2    0    0  0.40366524777E+02 -0.13212978753E+03 -0.54515649595E+03  0.58609584724E+03  0.16500000000E+03 0.  0.
<mgrwt>
<rscale>  0 0.43640889E+03</rscale>
<asrwt>0</asrwt>
<pdfrwt beam="1">  1        2 0.19360341E+00 0.43640889E+03</pdfrwt>
<pdfrwt beam="2">  1       -2 0.50190105E-02 0.43640889E+03</pdfrwt>
<totfact> 0.36153380E+03</totfact>
</mgrwt>
</event>
<event>
 4    1  0.5280257E-005  0.3686078E+03  0.7818608E-02  0.1055227E+00
         -2   -1    0    0    0  501 -0.00000000000E+00  0.00000000000E+00  0.22740971522E+02  0.22740971665E+02  0.25500000000E-02 0. -1.
          2   -1    0    0  501    0  0.00000000000E+00 -0.00000000000E+00 -0.14936888658E+04  0.14936888658E+04  0.25500000000E-02 0.  1.
    5000001    1    1    2    0    0 -0.17253666889E+02  0.66642685333E+02 -0.55130917734E+03  0.57957376196E+03  0.16500000000E+03 0.  0.
   -5000001    1    1    2    0    0  0.17253666889E+02 -0.66642685333E+02 -0.91963871698E+03  0.93685607555E+03  0.16500000000E+03 0.  0.
<mgrwt>
<rscale>  0 0.36860785E+03</rscale>
<asrwt>0</asrwt>
<pdfrwt beam="1">  1        2 0.21338406E+00 0.36860785E+03</pdfrwt>
<pdfrwt beam="2">  1       -2 0.32487112E-02 0.36860785E+03</pdfrwt>
<totfact> 0.59316198E+03</totfact>
</mgrwt>
</event>
<event>
 4    1  0.5280257E-005  0.5327263E+03  0.7818608E-02  0.1005573E+00
         -2   -1    0    0    0  501 -0.00000000000E+00  0.00000000000E+00  0.84937302841E+02  0.84937302879E+02  0.25500000000E-02 0. -1.
          2   -1    0    0  501    0  0.00000000000E+00 -0.00000000000E+00 -0.83531425720E+03  0.83531425720E+03  0.25500000000E-02 0.  1.
    5000001    1    1    2    0    0  0.11144413754E+03 -0.17391622010E+03 -0.43136852813E+03  0.50593522754E+03  0.16500000000E+03 0.  0.
   -5000001    1    1    2    0    0 -0.11144413754E+03  0.17391622010E+03 -0.31900842623E+03  0.41431633254E+03  0.16500000000E+03 0.  0.
<mgrwt>
<rscale>  0 0.53272635E+03</rscale>
<asrwt>0</asrwt>
<pdfrwt beam="1">  1        2 0.11933060E+00 0.53272635E+03</pdfrwt>
<pdfrwt beam="2">  1       -2 0.12133901E-01 0.53272635E+03</pdfrwt>
<totfact> 0.17964221E+03</totfact>
</mgrwt>
</event>
<event>
 4    1  0.5280257E-005  0.5302370E+03  0.7818608E-02  0.1006175E+00
          2   -1    0    0  501    0  0.00000000000E+00  0.00000000000E+00  0.23810800281E+03  0.23810800282E+03  0.25500000000E-02 0.  1.
         -2   -1    0    0    0  501 -0.00000000000E+00 -0.00000000000E+00 -0.29519299898E+03  0.29519299899E+03  0.25500000000E-02 0. -1.
    5000001    1    1    2    0    0  0.17987299526E+03  0.10017803307E+03 -0.24526192010E+01  0.26385781792E+03  0.16500000000E+03 0.  0.
   -5000001    1    1    2    0    0 -0.17987299526E+03 -0.10017803307E+03 -0.54632376964E+02  0.26944318389E+03  0.16500000000E+03 0.  0.
<mgrwt>
<rscale>  0 0.53023699E+03</rscale>
<asrwt>0</asrwt>
<pdfrwt beam="1">  1        2 0.34015429E-01 0.53023699E+03</pdfrwt>
<pdfrwt beam="2">  1       -2 0.42170429E-01 0.53023699E+03</pdfrwt>
<totfact> 0.82633605E+02</totfact>
</mgrwt>
</event>
<event>
 4    1  0.5280257E-005  0.4045733E+03  0.7818608E-02  0.1042208E+00
         -2   -1    0    0    0  501 -0.00000000000E+00  0.00000000000E+00  0.29321296193E+03  0.29321296194E+03  0.25500000000E-02 0.  1.
          2   -1    0    0  501    0  0.00000000000E+00 -0.00000000000E+00 -0.13955689483E+03  0.13955689485E+03  0.25500000000E-02 0. -1.
    5000001    1    1    2    0    0 -0.62307067244E+02 -0.98636060598E+02  0.67044718332E+02  0.21291133679E+03  0.16500000000E+03 0.  0.
   -5000001    1    1    2    0    0  0.62307067244E+02  0.98636060598E+02  0.86611348766E+02  0.21985851999E+03  0.16500000000E+03 0.  0.
<mgrwt>
<rscale>  0 0.40457331E+03</rscale>
<asrwt>0</asrwt>
<pdfrwt beam="1">  1        2 0.19936699E-01 0.40457331E+03</pdfrwt>
<pdfrwt beam="2">  1       -2 0.41887566E-01 0.40457331E+03</pdfrwt>
<totfact> 0.15310066E+03</totfact>
</mgrwt>
</event>
<event>
 4    1  0.5280257E-005  0.5163511E+03  0.7818608E-02  0.1009597E+00
         -2   -1    0    0    0  501 -0.00000000000E+00  0.00000000000E+00  0.12168221729E+03  0.12168221732E+03  0.25500000000E-02 0. -1.
          2   -1    0    0  501    0  0.00000000000E+00 -0.00000000000E+00 -0.54777620287E+03  0.54777620288E+03  0.25500000000E-02 0.  1.
    5000001    1    1    2    0    0 -0.29029401161E+01 -0.13215869932E+03 -0.20937906601E+02  0.21245645389E+03  0.16500000000E+03 0.  0.
   -5000001    1    1    2    0    0  0.29029401161E+01  0.13215869932E+03 -0.40515607899E+03  0.45700196630E+03  0.16500000000E+03 0.  0.
<mgrwt>
<rscale>  0 0.51635113E+03</rscale>
<asrwt>0</asrwt>
<pdfrwt beam="1">  1        2 0.78253742E-01 0.51635113E+03</pdfrwt>
<pdfrwt beam="2">  1       -2 0.17383174E-01 0.51635113E+03</pdfrwt>
<totfact> 0.16409396E+03</totfact>
</mgrwt>
</event>
<event>
 4    1  0.5280257E-005  0.4025880E+03  0.7818608E-02  0.1042887E+00
          2   -1    0    0  501    0  0.00000000000E+00  0.00000000000E+00  0.16176642059E+03  0.16176642061E+03  0.25500000000E-02 0.  1.
         -2   -1    0    0    0  501 -0.00000000000E+00 -0.00000000000E+00 -0.25048019295E+03  0.25048019296E+03  0.25500000000E-02 0. -1.
    5000001    1    1    2    0    0  0.10551406501E+03  0.12950686166E+02 -0.90074922642E+02  0.21596163982E+03  0.16500000000E+03 0.  0.
   -5000001    1    1    2    0    0 -0.10551406501E+03 -0.12950686166E+02  0.13611502793E+01  0.19628497374E+03  0.16500000000E+03 0.  0.
<mgrwt>
<rscale>  0 0.40258805E+03</rscale>
<asrwt>0</asrwt>
<pdfrwt beam="1">  1        2 0.23109489E-01 0.40258805E+03</pdfrwt>
<pdfrwt beam="2">  1       -2 0.35782885E-01 0.40258805E+03</pdfrwt>
<totfact> 0.17466472E+03</totfact>
</mgrwt>
</event>
<event>
 4    1  0.5280257E-005  0.6443099E+03  0.7818608E-02  0.9817515E-01
          2   -1    0    0  501    0  0.00000000000E+00  0.00000000000E+00  0.17174960683E+04  0.17174960683E+04  0.25500000000E-02 0.  1.
         -2   -1    0    0    0  501 -0.00000000000E+00 -0.00000000000E+00 -0.60427399563E+02  0.60427399617E+02  0.25500000000E-02 0. -1.
    5000001    1    1    2    0    0 -0.65520063113E+02 -0.26726844850E+03  0.90820087993E+03  0.96321292586E+03  0.16500000000E+03 0.  0.
   -5000001    1    1    2    0    0  0.65520063113E+02  0.26726844850E+03  0.74886778877E+03  0.81471054202E+03  0.16500000000E+03 0.  0.
<mgrwt>
<rscale>  0 0.64430993E+03</rscale>
<asrwt>0</asrwt>
<pdfrwt beam="1">  1        2 0.24535658E+00 0.64430993E+03</pdfrwt>
<pdfrwt beam="2">  1       -2 0.86324858E-02 0.64430993E+03</pdfrwt>
<totfact> 0.99627459E+02</totfact>
</mgrwt>
</event>
<event>
 4    1  0.5280257E-005  0.3959013E+03  0.7818608E-02  0.1045208E+00
          2   -1    0    0  501    0  0.00000000000E+00  0.00000000000E+00  0.23082067196E+04  0.23082067196E+04  0.25500000000E-02 0.  1.
         -2   -1    0    0    0  501 -0.00000000000E+00 -0.00000000000E+00 -0.16976151672E+02  0.16976151864E+02  0.25500000000E-02 0. -1.
    5000001    1    1    2    0    0  0.66007914425E+02  0.76747846916E+02  0.90259292867E+03  0.92311769112E+03  0.16500000000E+03 0.  0.
   -5000001    1    1    2    0    0 -0.66007914425E+02 -0.76747846916E+02  0.13886376392E+04  0.14020651803E+04  0.16500000000E+03 0.  0.
<mgrwt>
<rscale>  0 0.39590134E+03</rscale>
<asrwt>0</asrwt>
<pdfrwt beam="1">  1        2 0.32974365E+00 0.39590134E+03</pdfrwt>
<pdfrwt beam="2">  1       -2 0.24251657E-02 0.39590134E+03</pdfrwt>
<totfact> 0.36126569E+03</totfact>
</mgrwt>
</event>
<event>
 4    1  0.5280257E-005  0.8761294E+03  0.7818608E-02  0.9455923E-01
         -2   -1    0    0    0  501 -0.00000000000E+00  0.00000000000E+00  0.94484158330E+02  0.94484158364E+02  0.25500000000E-02 0. -1.
          2   -1    0    0  501    0  0.00000000000E+00 -0.00000000000E+00 -0.20310357235E+04  0.20310357235E+04  0.25500000000E-02 0.  1.
    5000001    1    1    2    0    0 -0.13581358846E+03 -0.37391201586E+03 -0.11626641676E+04  0.12398663206E+04  0.16500000000E+03 0.  0.
   -5000001    1    1    2    0    0  0.13581358846E+03  0.37391201586E+03 -0.77388739758E+03  0.88565356124E+03  0.16500000000E+03 0.  0.
<mgrwt>
<rscale>  0 0.87612944E+03</rscale>
<asrwt>0</asrwt>
<pdfrwt beam="1">  1        2 0.29014793E+00 0.87612944E+03</pdfrwt>
<pdfrwt beam="2">  1       -2 0.13497738E-01 0.87612944E+03</pdfrwt>
<totfact> 0.32737134E+02</totfact>
</mgrwt>
</event>
<event>
 4    1  0.5280257E-005  0.4527185E+03  0.7818608E-02  0.1026914E+00
         -2   -1    0    0    0  501 -0.00000000000E+00  0.00000000000E+00  0.20674662399E+03  0.20674662401E+03  0.25500000000E-02 0. -1.
          2   -1    0    0  501    0  0.00000000000E+00 -0.00000000000E+00 -0.24783241435E+03  0.24783241436E+03  0.25500000000E-02 0.  1.
    5000001    1    1    2    0    0 -0.12786053142E+03 -0.70725236455E+02  0.31274810047E+02  0.22260612819E+03  0.16500000000E+03 0.  0.
   -5000001    1    1    2    0    0  0.12786053142E+03  0.70725236455E+02 -0.72360600401E+02  0.23197291018E+03  0.16500000000E+03 0.  0.
<mgrwt>
<rscale>  0 0.45271852E+03</rscale>
<asrwt>0</asrwt>
<pdfrwt beam="1">  1        2 0.35404631E-01 0.45271852E+03</pdfrwt>
<pdfrwt beam="2">  1       -2 0.29535232E-01 0.45271852E+03</pdfrwt>
<totfact> 0.15498644E+03</totfact>
</mgrwt>
</event>
<event>
 4    1  0.5280257E-005  0.4654774E+03  0.7818608E-02  0.1023205E+00
          2   -1    0    0  501    0  0.00000000000E+00  0.00000000000E+00  0.21727924566E+04  0.21727924566E+04  0.25500000000E-02 0.  1.
         -2   -1    0    0    0  501 -0.00000000000E+00 -0.00000000000E+00 -0.24929804746E+02  0.24929804876E+02  0.25500000000E-02 0. -1.
    5000001    1    1    2    0    0  0.34212744125E+02 -0.14602702722E+03  0.75904693158E+03  0.79112050213E+03  0.16500000000E+03 0.  0.
   -5000001    1    1    2    0    0 -0.34212744125E+02  0.14602702722E+03  0.13888157202E+04  0.14066017593E+04  0.16500000000E+03 0.  0.
<mgrwt>
<rscale>  0 0.46547735E+03</rscale>
<asrwt>0</asrwt>
<pdfrwt beam="1">  1        2 0.31039907E+00 0.46547735E+03</pdfrwt>
<pdfrwt beam="2">  1       -2 0.35613990E-02 0.46547735E+03</pdfrwt>
<totfact> 0.23587889E+03</totfact>
</mgrwt>
</event>
<event>
 4    1  0.5280257E-005  0.6111786E+03  0.7818608E-02  0.9882482E-01
          2   -1    0    0  501    0  0.00000000000E+00  0.00000000000E+00  0.24607213486E+04  0.24607213486E+04  0.25500000000E-02 0.  1.
         -2   -1    0    0    0  501 -0.00000000000E+00 -0.00000000000E+00 -0.37950178655E+02  0.37950178740E+02  0.25500000000E-02 0. -1.
    5000001    1    1    2    0    0  0.59647748405E+02  0.24125161034E+03  0.94021117718E+03  0.98639862686E+03  0.16500000000E+03 0.  0.
   -5000001    1    1    2    0    0 -0.59647748405E+02 -0.24125161034E+03  0.14825599928E+04  0.15122729005E+04  0.16500000000E+03 0.  0.
<mgrwt>
<rscale>  0 0.61117858E+03</rscale>
<asrwt>0</asrwt>
<pdfrwt beam="1">  1        2 0.35153166E+00 0.61117858E+03</pdfrwt>
<pdfrwt beam="2">  1       -2 0.54214534E-02 0.61117858E+03</pdfrwt>
<totfact> 0.87644766E+02</totfact>
</mgrwt>
</event>
<event>
 4    1  0.5280257E-005  0.4965771E+03  0.7818608E-02  0.1014676E+00
          2   -1    0    0  501    0  0.00000000000E+00  0.00000000000E+00  0.71956885137E+02  0.71956885182E+02  0.25500000000E-02 0.  1.
         -2   -1    0    0    0  501 -0.00000000000E+00 -0.00000000000E+00 -0.85672432182E+03  0.85672432183E+03  0.25500000000E-02 0. -1.
    5000001    1    1    2    0    0  0.18103837153E+03 -0.12095889127E+02 -0.46483930771E+03  0.52556805886E+03  0.16500000000E+03 0.  0.
   -5000001    1    1    2    0    0 -0.18103837153E+03  0.12095889127E+02 -0.31992812897E+03  0.40311314815E+03  0.16500000000E+03 0.  0.
<mgrwt>
<rscale>  0 0.49657714E+03</rscale>
<asrwt>0</asrwt>
<pdfrwt beam="1">  1        2 0.10279556E-01 0.49657714E+03</pdfrwt>
<pdfrwt beam="2">  1       -2 0.12238918E+00 0.49657714E+03</pdfrwt>
<totfact> 0.32855268E+02</totfact>
</mgrwt>
</event>
<event>
 4    1  0.5280257E-005  0.5254225E+03  0.7818608E-02  0.1007348E+00
         -2   -1    0    0    0  501 -0.00000000000E+00  0.00000000000E+00  0.21477279619E+03  0.21477279621E+03  0.25500000000E-02 0. -1.
          2   -1    0    0  501    0  0.00000000000E+00 -0.00000000000E+00 -0.32134979284E+03  0.32134979285E+03  0.25500000000E-02 0.  1.
    5000001    1    1    2    0    0 -0.19412363805E+03  0.44331571365E+02 -0.10052288600E+03  0.27745112305E+03  0.16500000000E+03 0.  0.
   -5000001    1    1    2    0    0  0.19412363805E+03 -0.44331571365E+02 -0.60541106486E+01  0.25867146601E+03  0.16500000000E+03 0.  0.
<mgrwt>
<rscale>  0 0.52542247E+03</rscale>
<asrwt>0</asrwt>
<pdfrwt beam="1">  1        2 0.45907113E-01 0.52542247E+03</pdfrwt>
<pdfrwt beam="2">  1       -2 0.30681828E-01 0.52542247E+03</pdfrwt>
<totfact> 0.10865316E+03</totfact>
</mgrwt>
</event>
<event>
 4    1  0.5280257E-005  0.6722766E+03  0.7818608E-02  0.9765854E-01
          2   -1    0    0  501    0  0.00000000000E+00  0.00000000000E+00  0.76126793594E+03  0.76126793594E+03  0.25500000000E-02 0.  1.
         -2   -1    0    0    0  501 -0.00000000000E+00 -0.00000000000E+00 -0.14842204100E+03  0.14842204102E+03  0.25500000000E-02 0. -1.
    5000001    1    1    2    0    0  0.14470325791E+03 -0.25340940065E+03  0.33980442649E+03  0.47733364165E+03  0.16500000000E+03 0.  0.
   -5000001    1    1    2    0    0 -0.14470325791E+03  0.25340940065E+03  0.27304146845E+03  0.43235633531E+03  0.16500000000E+03 0.  0.
<mgrwt>
<rscale>  0 0.67227655E+03</rscale>
<asrwt>0</asrwt>
<pdfrwt beam="1">  1        2 0.10875256E+00 0.67227655E+03</pdfrwt>
<pdfrwt beam="2">  1       -2 0.21203149E-01 0.67227655E+03</pdfrwt>
<totfact> 0.78237779E+02</totfact>
</mgrwt>
</event>
<event>
 4    1  0.5280257E-005  0.4820054E+03  0.7818608E-02  0.1018585E+00
          2   -1    0    0  501    0  0.00000000000E+00  0.00000000000E+00  0.18330731035E+04  0.18330731035E+04  0.25500000000E-02 0.  1.
         -2   -1    0    0    0  501 -0.00000000000E+00 -0.00000000000E+00 -0.31685751141E+02  0.31685751244E+02  0.25500000000E-02 0. -1.
    5000001    1    1    2    0    0  0.14238736406E+03 -0.96243225333E+02  0.10412725286E+04  0.10681808829E+04  0.16500000000E+03 0.  0.
   -5000001    1    1    2    0    0 -0.14238736406E+03  0.96243225333E+02  0.76011482378E+03  0.79657797183E+03  0.16500000000E+03 0.  0.
<mgrwt>
<rscale>  0 0.48200539E+03</rscale>
<asrwt>0</asrwt>
<pdfrwt beam="1">  1        2 0.26186766E+00 0.48200539E+03</pdfrwt>
<pdfrwt beam="2">  1       -2 0.45265346E-02 0.48200539E+03</pdfrwt>
<totfact> 0.24133614E+03</totfact>
</mgrwt>
</event>
<event>
 4    1  0.5280257E-005  0.1561865E+04  0.7818608E-02  0.8844324E-01
         -2   -1    0    0    0  501 -0.00000000000E+00  0.00000000000E+00  0.77241343766E+03  0.77241343766E+03  0.25500000000E-02 0. -1.
          2   -1    0    0  501    0  0.00000000000E+00 -0.00000000000E+00 -0.78954591636E+03  0.78954591637E+03  0.25500000000E-02 0.  1.
    5000001    1    1    2    0    0  0.61502884038E+03 -0.74773198163E+02  0.43730738374E+03  0.77608907577E+03  0.16500000000E+03 0.  0.
   -5000001    1    1    2    0    0 -0.61502884038E+03  0.74773198163E+02 -0.45443986245E+03  0.78587027825E+03  0.16500000000E+03 0.  0.
<mgrwt>
<rscale>  0 0.15618654E+04</rscale>
<asrwt>0</asrwt>
<pdfrwt beam="1">  1        2 0.11279227E+00 0.15618654E+04</pdfrwt>
<pdfrwt beam="2">  1       -2 0.11034478E+00 0.15618654E+04</pdfrwt>
<totfact> 0.24300539E+01</totfact>
</mgrwt>
</event>
<event>
 4    1  0.5280257E-005  0.4897730E+03  0.7818608E-02  0.1016483E+00
          2   -1    0    0  501    0  0.00000000000E+00  0.00000000000E+00  0.69866861566E+03  0.69866861566E+03  0.25500000000E-02 0.  1.
         -2   -1    0    0    0  501 -0.00000000000E+00 -0.00000000000E+00 -0.85833816810E+02  0.85833816847E+02  0.25500000000E-02 0. -1.
    5000001    1    1    2    0    0  0.17188400339E+03 -0.55907878372E+02  0.29258342263E+03  0.38144443984E+03  0.16500000000E+03 0.  0.
   -5000001    1    1    2    0    0 -0.17188400339E+03  0.55907878372E+02  0.32025137621E+03  0.40305799267E+03  0.16500000000E+03 0.  0.
<mgrwt>
<rscale>  0 0.48977298E+03</rscale>
<asrwt>0</asrwt>
<pdfrwt beam="1">  1        2 0.99809801E-01 0.48977298E+03</pdfrwt>
<pdfrwt beam="2">  1       -2 0.12261974E-01 0.48977298E+03</pdfrwt>
<totfact> 0.22078565E+03</totfact>
</mgrwt>
</event>
<event>
 4    1  0.5280257E-005  0.6993418E+03  0.7818608E-02  0.9718359E-01
          2   -1    0    0  501    0  0.00000000000E+00  0.00000000000E+00  0.67055500160E+03  0.67055500160E+03  0.25500000000E-02 0. -1.
         -2   -1    0    0    0  501 -0.00000000000E+00 -0.00000000000E+00 -0.18234107713E+03  0.18234107715E+03  0.25500000000E-02 0.  1.
    5000001    1    1    2    0    0 -0.18761398175E+03 -0.16864929875E+03  0.27987875485E+02  0.30273736685E+03  0.16500000000E+03 0.  0.
   -5000001    1    1    2    0    0  0.18761398175E+03  0.16864929875E+03  0.46022604898E+03  0.55015871190E+03  0.16500000000E+03 0.  0.
<mgrwt>
<rscale>  0 0.69934175E+03</rscale>
<asrwt>0</asrwt>
<pdfrwt beam="1">  1        2 0.95793571E-01 0.69934175E+03</pdfrwt>
<pdfrwt beam="2">  1       -2 0.26048725E-01 0.69934175E+03</pdfrwt>
<totfact> 0.63354508E+02</totfact>
</mgrwt>
</event>
<event>
 4    1  0.5280257E-005  0.6123065E+03  0.7818608E-02  0.9880198E-01
          2   -1    0    0  501    0  0.00000000000E+00  0.00000000000E+00  0.94751572369E+02  0.94751572404E+02  0.25500000000E-02 0.  1.
         -2   -1    0    0    0  501 -0.00000000000E+00 -0.00000000000E+00 -0.98921639596E+03  0.98921639596E+03  0.25500000000E-02 0. -1.
    5000001    1    1    2    0    0 -0.21751216340E+03 -0.13591267439E+03 -0.49476801777E+03  0.58120924605E+03  0.16500000000E+03 0.  0.
   -5000001    1    1    2    0    0  0.21751216340E+03  0.13591267439E+03 -0.39969680582E+03  0.50275872232E+03  0.16500000000E+03 0.  0.
<mgrwt>
<rscale>  0 0.61230649E+03</rscale>
<asrwt>0</asrwt>
<pdfrwt beam="1">  1        2 0.13535939E-01 0.61230649E+03</pdfrwt>
<pdfrwt beam="2">  1       -2 0.14131662E+00 0.61230649E+03</pdfrwt>
<totfact> 0.16178836E+02</totfact>
</mgrwt>
</event>
<event>
 4    1  0.5280257E-005  0.1028660E+04  0.7818608E-02  0.9277657E-01
         -2   -1    0    0    0  501 -0.00000000000E+00  0.00000000000E+00  0.41046902728E+03  0.41046902729E+03  0.25500000000E-02 0.  1.
          2   -1    0    0  501    0  0.00000000000E+00 -0.00000000000E+00 -0.64447136181E+03  0.64447136182E+03  0.25500000000E-02 0. -1.
    5000001    1    1    2    0    0 -0.20536967474E+03 -0.27154452572E+03  0.24032153489E+03  0.44821041139E+03  0.16500000000E+03 0.  0.
   -5000001    1    1    2    0    0  0.20536967474E+03  0.27154452572E+03 -0.47432386942E+03  0.60672997771E+03  0.16500000000E+03 0.  0.
<mgrwt>
<rscale>  0 0.10286604E+04</rscale>
<asrwt>0</asrwt>
<pdfrwt beam="1">  1        2 0.92067337E-01 0.10286604E+04</pdfrwt>
<pdfrwt beam="2">  1       -2 0.58638433E-01 0.10286604E+04</pdfrwt>
<totfact> 0.13503164E+02</totfact>
</mgrwt>
</event>
<event>
 4    1  0.5280257E-005  0.4477396E+03  0.7818608E-02  0.1028398E+00
         -2   -1    0    0    0  501 -0.00000000000E+00  0.00000000000E+00  0.14078578104E+02  0.14078578335E+02  0.25500000000E-02 0.  1.
          2   -1    0    0  501    0  0.00000000000E+00 -0.00000000000E+00 -0.35598538391E+04  0.35598538391E+04  0.25500000000E-02 0. -1.
    5000001    1    1    2    0    0 -0.11553927611E+03 -0.97373043904E+02 -0.18356615444E+04  0.18492455596E+04  0.16500000000E+03 0.  0.
   -5000001    1    1    2    0    0  0.11553927611E+03  0.97373043904E+02 -0.17101137165E+04  0.17246868578E+04  0.16500000000E+03 0.  0.
<mgrwt>
<rscale>  0 0.44773957E+03</rscale>
<asrwt>0</asrwt>
<pdfrwt beam="1">  1        2 0.50854997E+00 0.44773957E+03</pdfrwt>
<pdfrwt beam="2">  1       -2 0.20112277E-02 0.44773957E+03</pdfrwt>
<totfact> 0.10103410E+03</totfact>
</mgrwt>
</event>
<event>
 4    1  0.5280257E-005  0.7662602E+03  0.7818608E-02  0.9610180E-01
          2   -1    0    0  501    0  0.00000000000E+00  0.00000000000E+00  0.17999144237E+04  0.17999144237E+04  0.25500000000E-02 0.  1.
         -2   -1    0    0    0  501 -0.00000000000E+00 -0.00000000000E+00 -0.81553142942E+02  0.81553142982E+02  0.25500000000E-02 0. -1.
    5000001    1    1    2    0    0 -0.17915634829E+03  0.13918250979E+03  0.21844661674E+03  0.35554562651E+03  0.16500000000E+03 0.  0.
   -5000001    1    1    2    0    0  0.17915634829E+03 -0.13918250979E+03  0.14999146640E+04  0.15259219401E+04  0.16500000000E+03 0.  0.
<mgrwt>
<rscale>  0 0.76626021E+03</rscale>
<asrwt>0</asrwt>
<pdfrwt beam="1">  1        2 0.25713060E+00 0.76626021E+03</pdfrwt>
<pdfrwt beam="2">  1       -2 0.11650451E-01 0.76626021E+03</pdfrwt>
<totfact> 0.55180805E+02</totfact>
</mgrwt>
</event>
<event>
 4    1  0.5280257E-005  0.4494760E+03  0.7818608E-02  0.1027878E+00
         -2   -1    0    0    0  501 -0.00000000000E+00  0.00000000000E+00  0.16830030225E+02  0.16830030418E+02  0.25500000000E-02 0. -1.
          2   -1    0    0  501    0  0.00000000000E+00 -0.00000000000E+00 -0.30010148829E+04  0.30010148829E+04  0.25500000000E-02 0.  1.
    5000001    1    1    2    0    0  0.15164523861E+03  0.15434849466E+02 -0.14457412656E+04  0.14630882817E+04  0.16500000000E+03 0.  0.
   -5000001    1    1    2    0    0 -0.15164523861E+03 -0.15434849466E+02 -0.15384435871E+04  0.15547566317E+04  0.16500000000E+03 0.  0.
<mgrwt>
<rscale>  0 0.44947601E+03</rscale>
<asrwt>0</asrwt>
<pdfrwt beam="1">  1        2 0.42871607E+00 0.44947601E+03</pdfrwt>
<pdfrwt beam="2">  1       -2 0.24042920E-02 0.44947601E+03</pdfrwt>
<totfact> 0.16011050E+03</totfact>
</mgrwt>
</event>
<event>
 4    1  0.5280257E-005  0.3822185E+03  0.7818608E-02  0.1050117E+00
          2   -1    0    0  501    0  0.00000000000E+00  0.00000000000E+00  0.31099587651E+03  0.31099587652E+03  0.25500000000E-02 0.  1.
         -2   -1    0    0    0  501 -0.00000000000E+00 -0.00000000000E+00 -0.11743801316E+03  0.11743801319E+03  0.25500000000E-02 0. -1.
    5000001    1    1    2    0    0 -0.44139042554E+02 -0.77013826191E+02  0.13899369673E+03  0.23328873147E+03  0.16500000000E+03 0.  0.
   -5000001    1    1    2    0    0  0.44139042554E+02  0.77013826191E+02  0.54564166624E+02  0.19514515823E+03  0.16500000000E+03 0.  0.
<mgrwt>
<rscale>  0 0.38221846E+03</rscale>
<asrwt>0</asrwt>
<pdfrwt beam="1">  1        2 0.44427983E-01 0.38221846E+03</pdfrwt>
<pdfrwt beam="2">  1       -2 0.16776859E-01 0.38221846E+03</pdfrwt>
<totfact> 0.32534426E+03</totfact>
</mgrwt>
</event>
<event>
 4    1  0.5280257E-005  0.8878493E+03  0.7818608E-02  0.9440899E-01
          2   -1    0    0  501    0  0.00000000000E+00  0.00000000000E+00  0.58961327727E+03  0.58961327727E+03  0.25500000000E-02 0.  1.
         -2   -1    0    0    0  501 -0.00000000000E+00 -0.00000000000E+00 -0.33423450968E+03  0.33423450969E+03  0.25500000000E-02 0. -1.
    5000001    1    1    2    0    0 -0.34755448117E+03 -0.20426365072E+03  0.38624822135E+02  0.43730382261E+03  0.16500000000E+03 0.  0.
   -5000001    1    1    2    0    0  0.34755448117E+03  0.20426365072E+03  0.21675394545E+03  0.48654396436E+03  0.16500000000E+03 0.  0.
<mgrwt>
<rscale>  0 0.88784932E+03</rscale>
<asrwt>0</asrwt>
<pdfrwt beam="1">  1        2 0.84230468E-01 0.88784932E+03</pdfrwt>
<pdfrwt beam="2">  1       -2 0.47747787E-01 0.88784932E+03</pdfrwt>
<totfact> 0.23093927E+02</totfact>
</mgrwt>
</event>
<event>
 4    1  0.5280257E-005  0.5948886E+03  0.7818608E-02  0.9916068E-01
         -2   -1    0    0    0  501 -0.00000000000E+00  0.00000000000E+00  0.42823624000E+02  0.42823624076E+02  0.25500000000E-02 0. -1.
          2   -1    0    0  501    0  0.00000000000E+00 -0.00000000000E+00 -0.20659887113E+04  0.20659887113E+04  0.25500000000E-02 0.  1.
    5000001    1    1    2    0    0  0.41622751559E+01 -0.24581295037E+03 -0.91089326073E+03  0.95780627663E+03  0.16500000000E+03 0.  0.
   -5000001    1    1    2    0    0 -0.41622751559E+01  0.24581295037E+03 -0.11122718266E+04  0.11510060588E+04  0.16500000000E+03 0.  0.
<mgrwt>
<rscale>  0 0.59488864E+03</rscale>
<asrwt>0</asrwt>
<pdfrwt beam="1">  1        2 0.29514118E+00 0.59488864E+03</pdfrwt>
<pdfrwt beam="2">  1       -2 0.61176619E-02 0.59488864E+03</pdfrwt>
<totfact> 0.11503949E+03</totfact>
</mgrwt>
</event>
<event>
 4    1  0.5280257E-005  0.7320597E+03  0.7818608E-02  0.9663924E-01
         -2   -1    0    0    0  501 -0.00000000000E+00  0.00000000000E+00  0.10817682705E+03  0.10817682708E+03  0.25500000000E-02 0. -1.
          2   -1    0    0  501    0  0.00000000000E+00 -0.00000000000E+00 -0.12385078991E+04  0.12385078991E+04  0.25500000000E-02 0.  1.
    5000001    1    1    2    0    0  0.28697371435E+03  0.46269260710E+02 -0.29071540009E+03  0.44298442531E+03  0.16500000000E+03 0.  0.
   -5000001    1    1    2    0    0 -0.28697371435E+03 -0.46269260710E+02 -0.83961567193E+03  0.90370030085E+03  0.16500000000E+03 0.  0.
<mgrwt>
<rscale>  0 0.73205971E+03</rscale>
<asrwt>0</asrwt>
<pdfrwt beam="1">  1        2 0.17692969E+00 0.73205971E+03</pdfrwt>
<pdfrwt beam="2">  1       -2 0.15453833E-01 0.73205971E+03</pdfrwt>
<totfact> 0.68108209E+02</totfact>
</mgrwt>
</event>
<event>
 4    1  0.5280257E-005  0.4417668E+03  0.7818608E-02  0.1030206E+00
          2   -1    0    0  501    0  0.00000000000E+00  0.00000000000E+00  0.18101465445E+04  0.18101465445E+04  0.25500000000E-02 0.  1.
         -2   -1    0    0    0  501 -0.00000000000E+00 -0.00000000000E+00 -0.26953332559E+02  0.26953332680E+02  0.25500000000E-02 0. -1.
    5000001    1    1    2    0    0 -0.14125461386E+03 -0.39983730796E+02  0.87665061908E+03  0.90404251703E+03  0.16500000000E+03 0.  0.
   -5000001    1    1    2    0    0  0.14125461386E+03  0.39983730796E+02  0.90654259291E+03  0.93305736020E+03  0.16500000000E+03 0.  0.
<mgrwt>
<rscale>  0 0.44176682E+03</rscale>
<asrwt>0</asrwt>
<pdfrwt beam="1">  1        2 0.25859237E+00 0.44176682E+03</pdfrwt>
<pdfrwt beam="2">  1       -2 0.38504760E-02 0.44176682E+03</pdfrwt>
<totfact> 0.31765980E+03</totfact>
</mgrwt>
</event>
<event>
 4    1  0.5280257E-005  0.3720952E+03  0.7818608E-02  0.1053895E+00
         -2   -1    0    0    0  501 -0.00000000000E+00  0.00000000000E+00  0.50495845014E+02  0.50495845078E+02  0.25500000000E-02 0. -1.
          2   -1    0    0  501    0  0.00000000000E+00 -0.00000000000E+00 -0.68547649137E+03  0.68547649138E+03  0.25500000000E-02 0.  1.
    5000001    1    1    2    0    0 -0.82615032103E+01  0.85299288915E+02 -0.30429694489E+03  0.35660321338E+03  0.16500000000E+03 0.  0.
   -5000001    1    1    2    0    0  0.82615032103E+01 -0.85299288915E+02 -0.33068370147E+03  0.37936912307E+03  0.16500000000E+03 0.  0.
<mgrwt>
<rscale>  0 0.37209523E+03</rscale>
<asrwt>0</asrwt>
<pdfrwt beam="1">  1        2 0.97925207E-01 0.37209523E+03</pdfrwt>
<pdfrwt beam="2">  1       -2 0.72136926E-02 0.37209523E+03</pdfrwt>
<totfact> 0.52635149E+03</totfact>
</mgrwt>
</event>
<event>
 4    1  0.5280257E-005  0.5529100E+03  0.7818608E-02  0.1000823E+00
         -2   -1    0    0    0  501 -0.00000000000E+00  0.00000000000E+00  0.19737394401E+04  0.19737394401E+04  0.25500000000E-02 0. -1.
          2   -1    0    0  501    0  0.00000000000E+00 -0.00000000000E+00 -0.38722119909E+02  0.38722119993E+02  0.25500000000E-02 0.  1.
    5000001    1    1    2    0    0  0.21140212892E+03  0.18328837698E+02  0.12027052145E+04  0.12323764195E+04  0.16500000000E+03 0.  0.
   -5000001    1    1    2    0    0 -0.21140212892E+03 -0.18328837698E+02  0.73231210569E+03  0.78008514058E+03  0.16500000000E+03 0.  0.
<mgrwt>
<rscale>  0 0.55291003E+03</rscale>
<asrwt>0</asrwt>
<pdfrwt beam="1">  1        2 0.55317314E-02 0.55291003E+03</pdfrwt>
<pdfrwt beam="2">  1       -2 0.28196278E+00 0.55291003E+03</pdfrwt>
<totfact> 0.62322447E+01</totfact>
</mgrwt>
</event>
<event>
 4    1  0.5280257E-005  0.3867062E+03  0.7818608E-02  0.1048483E+00
         -2   -1    0    0    0  501 -0.00000000000E+00  0.00000000000E+00  0.18056997986E+02  0.18056998166E+02  0.25500000000E-02 0. -1.
          2   -1    0    0  501    0  0.00000000000E+00 -0.00000000000E+00 -0.20704119727E+04  0.20704119727E+04  0.25500000000E-02 0.  1.
    5000001    1    1    2    0    0 -0.28215690367E+02 -0.96049163545E+02 -0.10898178049E+04  0.11067743288E+04  0.16500000000E+03 0.  0.
   -5000001    1    1    2    0    0  0.28215690367E+02  0.96049163545E+02 -0.96253716977E+03  0.98169464203E+03  0.16500000000E+03 0.  0.
<mgrwt>
<rscale>  0 0.38670622E+03</rscale>
<asrwt>0</asrwt>
<pdfrwt beam="1">  1        2 0.29577299E+00 0.38670622E+03</pdfrwt>
<pdfrwt beam="2">  1       -2 0.25795725E-02 0.38670622E+03</pdfrwt>
<totfact> 0.43233758E+03</totfact>
</mgrwt>
</event>
<event>
 4    1  0.5280257E-005  0.3697655E+03  0.7818608E-02  0.1054783E+00
         -2   -1    0    0    0  501 -0.00000000000E+00  0.00000000000E+00  0.34755583340E+02  0.34755583433E+02  0.25500000000E-02 0. -1.
          2   -1    0    0  501    0  0.00000000000E+00 -0.00000000000E+00 -0.98348593532E+03  0.98348593533E+03  0.25500000000E-02 0.  1.
    5000001    1    1    2    0    0  0.73499925347E+02  0.39215657580E+02 -0.46317240772E+03  0.49869207543E+03  0.16500000000E+03 0.  0.
   -5000001    1    1    2    0    0 -0.73499925347E+02 -0.39215657580E+02 -0.48555794426E+03  0.51954944333E+03  0.16500000000E+03 0.  0.
<mgrwt>
<rscale>  0 0.36976548E+03</rscale>
<asrwt>0</asrwt>
<pdfrwt beam="1">  1        2 0.14049797E+00 0.36976548E+03</pdfrwt>
<pdfrwt beam="2">  1       -2 0.49650839E-02 0.36976548E+03</pdfrwt>
<totfact> 0.59295439E+03</totfact>
</mgrwt>
</event>
<event>
 4    1  0.5280257E-005  0.4526506E+03  0.7818608E-02  0.1026935E+00
         -2   -1    0    0    0  501 -0.00000000000E+00  0.00000000000E+00  0.44524987018E+03  0.44524987019E+03  0.25500000000E-02 0. -1.
          2   -1    0    0  501    0  0.00000000000E+00 -0.00000000000E+00 -0.11504360125E+03  0.11504360128E+03  0.25500000000E-02 0.  1.
    5000001    1    1    2    0    0 -0.13859662120E+03 -0.62507104883E+02  0.20186381265E+03  0.30181146503E+03  0.16500000000E+03 0.  0.
   -5000001    1    1    2    0    0  0.13859662120E+03  0.62507104883E+02  0.12834245628E+03  0.25848200644E+03  0.16500000000E+03 0.  0.
<mgrwt>
<rscale>  0 0.45265063E+03</rscale>
<asrwt>0</asrwt>
<pdfrwt beam="1">  1        2 0.16434800E-01 0.45265063E+03</pdfrwt>
<pdfrwt beam="2">  1       -2 0.63607123E-01 0.45265063E+03</pdfrwt>
<totfact> 0.82415630E+02</totfact>
</mgrwt>
</event>
<event>
 4    1  0.5280257E-005  0.4012194E+03  0.7818608E-02  0.1043358E+00
         -2   -1    0    0    0  501 -0.00000000000E+00  0.00000000000E+00  0.59687863604E+03  0.59687863604E+03  0.25500000000E-02 0. -1.
          2   -1    0    0  501    0  0.00000000000E+00 -0.00000000000E+00 -0.67424527632E+02  0.67424527680E+02  0.25500000000E-02 0.  1.
    5000001    1    1    2    0    0 -0.61858992275E+02  0.64151353782E+02  0.14674878955E+03  0.23812210807E+03  0.16500000000E+03 0.  0.
   -5000001    1    1    2    0    0  0.61858992275E+02 -0.64151353782E+02  0.38270531885E+03  0.42618105565E+03  0.16500000000E+03 0.  0.
<mgrwt>
<rscale>  0 0.40121944E+03</rscale>
<asrwt>0</asrwt>
<pdfrwt beam="1">  1        2 0.96320746E-02 0.40121944E+03</pdfrwt>
<pdfrwt beam="2">  1       -2 0.85268384E-01 0.40121944E+03</pdfrwt>
<totfact> 0.83598193E+02</totfact>
</mgrwt>
</event>
<event>
 4    1  0.5280257E-005  0.9127035E+03  0.7818608E-02  0.9409839E-01
         -2   -1    0    0    0  501 -0.00000000000E+00  0.00000000000E+00  0.98519784657E+02  0.98519784690E+02  0.25500000000E-02 0. -1.
          2   -1    0    0  501    0  0.00000000000E+00 -0.00000000000E+00 -0.21138587831E+04  0.21138587831E+04  0.25500000000E-02 0.  1.
    5000001    1    1    2    0    0  0.14112498725E+03  0.33398772703E+03 -0.15473413528E+04  0.15977967098E+04  0.16500000000E+03 0.  0.
   -5000001    1    1    2    0    0 -0.14112498725E+03 -0.33398772703E+03 -0.46799764569E+03  0.61458185802E+03  0.16500000000E+03 0.  0.
<mgrwt>
<rscale>  0 0.91270348E+03</rscale>
<asrwt>0</asrwt>
<pdfrwt beam="1">  1        2 0.30197980E+00 0.91270348E+03</pdfrwt>
<pdfrwt beam="2">  1       -2 0.14074256E-01 0.91270348E+03</pdfrwt>
<totfact> 0.27624538E+02</totfact>
</mgrwt>
</event>
<event>
 4    1  0.5280257E-005  0.9998193E+03  0.7818608E-02  0.9308743E-01
         -2   -1    0    0    0  501 -0.00000000000E+00  0.00000000000E+00  0.82039870136E+03  0.82039870136E+03  0.25500000000E-02 0. -1.
          2   -1    0    0  501    0  0.00000000000E+00 -0.00000000000E+00 -0.30461978905E+03  0.30461978907E+03  0.25500000000E-02 0.  1.
    5000001    1    1    2    0    0  0.14326268742E+02 -0.35980932019E+03  0.60106676781E+03  0.71984321087E+03  0.16500000000E+03 0.  0.
   -5000001    1    1    2    0    0 -0.14326268742E+02  0.35980932019E+03 -0.85287855507E+02  0.40517527956E+03  0.16500000000E+03 0.  0.
<mgrwt>
<rscale>  0 0.99981934E+03</rscale>
<asrwt>0</asrwt>
<pdfrwt beam="1">  1        2 0.43517114E-01 0.99981934E+03</pdfrwt>
<pdfrwt beam="2">  1       -2 0.11719981E+00 0.99981934E+03</pdfrwt>
<totfact> 0.65906424E+01</totfact>
</mgrwt>
</event>
<event>
 4    1  0.5280257E-005  0.4968628E+03  0.7818608E-02  0.1014601E+00
         -2   -1    0    0    0  501 -0.00000000000E+00  0.00000000000E+00  0.19350351127E+02  0.19350351295E+02  0.25500000000E-02 0. -1.
          2   -1    0    0  501    0  0.00000000000E+00 -0.00000000000E+00 -0.31895109398E+04  0.31895109398E+04  0.25500000000E-02 0.  1.
    5000001    1    1    2    0    0 -0.13069842572E+03 -0.75189250605E+02 -0.22853653054E+04  0.22962698188E+04  0.16500000000E+03 0.  0.
   -5000001    1    1    2    0    0  0.13069842572E+03  0.75189250605E+02 -0.88479528329E+03  0.91259147225E+03  0.16500000000E+03 0.  0.
<mgrwt>
<rscale>  0 0.49686279E+03</rscale>
<asrwt>0</asrwt>
<pdfrwt beam="1">  1        2 0.45564409E+00 0.49686279E+03</pdfrwt>
<pdfrwt beam="2">  1       -2 0.27643379E-02 0.49686279E+03</pdfrwt>
<totfact> 0.10184616E+03</totfact>
</mgrwt>
</event>
<event>
 4    1  0.5280257E-005  0.4671534E+03  0.7818608E-02  0.1022727E+00
         -2   -1    0    0    0  501 -0.00000000000E+00  0.00000000000E+00  0.65907467486E+02  0.65907467535E+02  0.25500000000E-02 0. -1.
          2   -1    0    0  501    0  0.00000000000E+00 -0.00000000000E+00 -0.82779792034E+03  0.82779792035E+03  0.25500000000E-02 0.  1.
    5000001    1    1    2    0    0 -0.41979107156E+02 -0.13946108901E+03 -0.23126613949E+03  0.31925016533E+03  0.16500000000E+03 0.  0.
   -5000001    1    1    2    0    0  0.41979107156E+02  0.13946108901E+03 -0.53062431337E+03  0.57445522256E+03  0.16500000000E+03 0.  0.
<mgrwt>
<rscale>  0 0.46715336E+03</rscale>
<asrwt>0</asrwt>
<pdfrwt beam="1">  1        2 0.11825684E+00 0.46715336E+03</pdfrwt>
<pdfrwt beam="2">  1       -2 0.94153530E-02 0.46715336E+03</pdfrwt>
<totfact> 0.27427540E+03</totfact>
</mgrwt>
</event>
<event>
 4    1  0.5280257E-005  0.6686783E+03  0.7818608E-02  0.9772348E-01
         -2   -1    0    0    0  501 -0.00000000000E+00  0.00000000000E+00  0.17529182440E+03  0.17529182441E+03  0.25500000000E-02 0. -1.
          2   -1    0    0  501    0  0.00000000000E+00 -0.00000000000E+00 -0.63769464821E+03  0.63769464822E+03  0.25500000000E-02 0.  1.
    5000001    1    1    2    0    0 -0.15387419439E+03  0.37194441745E+01  0.68753150908E+02  0.23588789228E+03  0.16500000000E+03 0.  0.
   -5000001    1    1    2    0    0  0.15387419439E+03 -0.37194441745E+01 -0.53115597472E+03  0.57709858035E+03  0.16500000000E+03 0.  0.
<mgrwt>
<rscale>  0 0.66867827E+03</rscale>
<asrwt>0</asrwt>
<pdfrwt beam="1">  1        2 0.91099234E-01 0.66867827E+03</pdfrwt>
<pdfrwt beam="2">  1       -2 0.25041690E-01 0.66867827E+03</pdfrwt>
<totfact> 0.72333157E+02</totfact>
</mgrwt>
</event>
<event>
 4    1  0.5280257E-005  0.5096826E+03  0.7818608E-02  0.1011282E+00
          2   -1    0    0  501    0  0.00000000000E+00  0.00000000000E+00  0.25192652942E+04  0.25192652942E+04  0.25500000000E-02 0.  1.
         -2   -1    0    0    0  501 -0.00000000000E+00 -0.00000000000E+00 -0.25778983306E+02  0.25778983432E+02  0.25500000000E-02 0. -1.
    5000001    1    1    2    0    0 -0.13997407602E+03 -0.12812237337E+03  0.10401945659E+04  0.10701578479E+04  0.16500000000E+03 0.  0.
   -5000001    1    1    2    0    0  0.13997407602E+03  0.12812237337E+03  0.14532917451E+04  0.14748864298E+04  0.16500000000E+03 0.  0.
<mgrwt>
<rscale>  0 0.50968264E+03</rscale>
<asrwt>0</asrwt>
<pdfrwt beam="1">  1        2 0.35989500E+00 0.50968264E+03</pdfrwt>
<pdfrwt beam="2">  1       -2 0.36827123E-02 0.50968264E+03</pdfrwt>
<totfact> 0.14953675E+03</totfact>
</mgrwt>
</event>
<event>
 4    1  0.5280257E-005  0.5156528E+03  0.7818608E-02  0.1009772E+00
         -2   -1    0    0    0  501 -0.00000000000E+00  0.00000000000E+00  0.72479266434E+02  0.72479266479E+02  0.25500000000E-02 0. -1.
          2   -1    0    0  501    0  0.00000000000E+00 -0.00000000000E+00 -0.91715115959E+03  0.91715115960E+03  0.25500000000E-02 0.  1.
    5000001    1    1    2    0    0  0.10401988402E+03 -0.13289585452E+03 -0.22318462648E+03  0.32483506880E+03  0.16500000000E+03 0.  0.
   -5000001    1    1    2    0    0 -0.10401988402E+03  0.13289585452E+03 -0.62148726668E+03  0.66479535728E+03  0.16500000000E+03 0.  0.
<mgrwt>
<rscale>  0 0.51565276E+03</rscale>
<asrwt>0</asrwt>
<pdfrwt beam="1">  1        2 0.13102159E+00 0.51565276E+03</pdfrwt>
<pdfrwt beam="2">  1       -2 0.10354181E-01 0.51565276E+03</pdfrwt>
<totfact> 0.20577598E+03</totfact>
</mgrwt>
</event>
<event>
 4    1  0.5280257E-005  0.5793893E+03  0.7818608E-02  0.9949114E-01
         -2   -1    0    0    0  501 -0.00000000000E+00  0.00000000000E+00  0.56589537229E+02  0.56589537286E+02  0.25500000000E-02 0. -1.
          2   -1    0    0  501    0  0.00000000000E+00 -0.00000000000E+00 -0.14830123225E+04  0.14830123225E+04  0.25500000000E-02 0.  1.
    5000001    1    1    2    0    0 -0.12975359066E+03 -0.18026763357E+03 -0.48515561738E+03  0.55850997043E+03  0.16500000000E+03 0.  0.
   -5000001    1    1    2    0    0  0.12975359066E+03  0.18026763357E+03 -0.94126716786E+03  0.98109188932E+03  0.16500000000E+03 0.  0.
<mgrwt>
<rscale>  0 0.57938927E+03</rscale>
<asrwt>0</asrwt>
<pdfrwt beam="1">  1        2 0.21185888E+00 0.57938927E+03</pdfrwt>
<pdfrwt beam="2">  1       -2 0.80842205E-02 0.57938927E+03</pdfrwt>
<totfact> 0.14648554E+03</totfact>
</mgrwt>
</event>
<event>
 4    1  0.5280257E-005  0.5011711E+03  0.7818608E-02  0.1013474E+00
          2   -1    0    0  501    0  0.00000000000E+00  0.00000000000E+00  0.20057256078E+03  0.20057256080E+03  0.25500000000E-02 0.  1.
         -2   -1    0    0    0  501 -0.00000000000E+00 -0.00000000000E+00 -0.31306938166E+03  0.31306938167E+03  0.25500000000E-02 0. -1.
    5000001    1    1    2    0    0 -0.14553954707E+03 -0.11939992827E+03 -0.67934999894E+02  0.25938054446E+03  0.16500000000E+03 0.  0.
   -5000001    1    1    2    0    0  0.14553954707E+03  0.11939992827E+03 -0.44561820984E+02  0.25426139802E+03  0.16500000000E+03 0.  0.
<mgrwt>
<rscale>  0 0.50117114E+03</rscale>
<asrwt>0</asrwt>
<pdfrwt beam="1">  1        2 0.28653223E-01 0.50117114E+03</pdfrwt>
<pdfrwt beam="2">  1       -2 0.44724197E-01 0.50117114E+03</pdfrwt>
<totfact> 0.89158572E+02</totfact>
</mgrwt>
</event>
<event>
 4    1  0.5280257E-005  0.5569200E+03  0.7818608E-02  0.9999048E-01
          2   -1    0    0  501    0  0.00000000000E+00  0.00000000000E+00  0.91163430395E+03  0.91163430395E+03  0.25500000000E-02 0.  1.
         -2   -1    0    0    0  501 -0.00000000000E+00 -0.00000000000E+00 -0.85055997849E+02  0.85055997887E+02  0.25500000000E-02 0. -1.
    5000001    1    1    2    0    0  0.15610259673E+03  0.47082180350E+02  0.13760090500E+03  0.26971051420E+03  0.16500000000E+03 0.  0.
   -5000001    1    1    2    0    0 -0.15610259673E+03 -0.47082180350E+02  0.68897740109E+03  0.72697978763E+03  0.16500000000E+03 0.  0.
<mgrwt>
<rscale>  0 0.55691998E+03</rscale>
<asrwt>0</asrwt>
<pdfrwt beam="1">  1        2 0.13023347E+00 0.55691998E+03</pdfrwt>
<pdfrwt beam="2">  1       -2 0.12150857E-01 0.55691998E+03</pdfrwt>
<totfact> 0.15971116E+03</totfact>
</mgrwt>
</event>
<event>
 4    1  0.5280257E-005  0.4748173E+03  0.7818608E-02  0.1020569E+00
          2   -1    0    0  501    0  0.00000000000E+00  0.00000000000E+00  0.34423630078E+04  0.34423630078E+04  0.25500000000E-02 0.  1.
         -2   -1    0    0    0  501 -0.00000000000E+00 -0.00000000000E+00 -0.16373307016E+02  0.16373307215E+02  0.25500000000E-02 0. -1.
    5000001    1    1    2    0    0 -0.16831625611E+03  0.23115919557E+02  0.15926025761E+04  0.16101157328E+04  0.16500000000E+03 0.  0.
   -5000001    1    1    2    0    0  0.16831625611E+03 -0.23115919557E+02  0.18333871247E+04  0.18486205822E+04  0.16500000000E+03 0.  0.
<mgrwt>
<rscale>  0 0.47481730E+03</rscale>
<asrwt>0</asrwt>
<pdfrwt beam="1">  1        2 0.49176643E+00 0.47481730E+03</pdfrwt>
<pdfrwt beam="2">  1       -2 0.23390425E-02 0.47481730E+03</pdfrwt>
<totfact> 0.94220386E+02</totfact>
</mgrwt>
</event>
<event>
 4    1  0.5280257E-005  0.5754718E+03  0.7818608E-02  0.9957643E-01
         -2   -1    0    0    0  501 -0.00000000000E+00  0.00000000000E+00  0.38283829305E+02  0.38283829390E+02  0.25500000000E-02 0. -1.
          2   -1    0    0  501    0  0.00000000000E+00 -0.00000000000E+00 -0.21625830688E+04  0.21625830688E+04  0.25500000000E-02 0.  1.
    5000001    1    1    2    0    0  0.12174179153E+03 -0.19247931250E+03 -0.12947071163E+04  0.13249003233E+04  0.16500000000E+03 0.  0.
   -5000001    1    1    2    0    0 -0.12174179153E+03  0.19247931250E+03 -0.82959212314E+03  0.87596657489E+03  0.16500000000E+03 0.  0.
<mgrwt>
<rscale>  0 0.57547185E+03</rscale>
<asrwt>0</asrwt>
<pdfrwt beam="1">  1        2 0.30894036E+00 0.57547185E+03</pdfrwt>
<pdfrwt beam="2">  1       -2 0.54691198E-02 0.57547185E+03</pdfrwt>
<totfact> 0.12269935E+03</totfact>
</mgrwt>
</event>
<event>
 4    1  0.5280257E-005  0.8527154E+03  0.7818608E-02  0.9486700E-01
         -2   -1    0    0    0  501 -0.00000000000E+00  0.00000000000E+00  0.14728243847E+03  0.14728243850E+03  0.25500000000E-02 0. -1.
          2   -1    0    0  501    0  0.00000000000E+00 -0.00000000000E+00 -0.12342332489E+04  0.12342332489E+04  0.25500000000E-02 0.  1.
    5000001    1    1    2    0    0  0.12770801179E+03 -0.32031245427E+03 -0.23758909974E+03  0.45009219606E+03  0.16500000000E+03 0.  0.
   -5000001    1    1    2    0    0 -0.12770801179E+03  0.32031245427E+03 -0.84936171068E+03  0.93142349133E+03  0.16500000000E+03 0.  0.
<mgrwt>
<rscale>  0 0.85271539E+03</rscale>
<asrwt>0</asrwt>
<pdfrwt beam="1">  1        2 0.17631903E+00 0.85271539E+03</pdfrwt>
<pdfrwt beam="2">  1       -2 0.21040349E-01 0.85271539E+03</pdfrwt>
<totfact> 0.39962656E+02</totfact>
</mgrwt>
</event>
<event>
 4    1  0.5280257E-005  0.4244893E+03  0.7818608E-02  0.1035615E+00
         -2   -1    0    0    0  501 -0.00000000000E+00  0.00000000000E+00  0.23882960164E+02  0.23882960300E+02  0.25500000000E-02 0. -1.
          2   -1    0    0  501    0  0.00000000000E+00 -0.00000000000E+00 -0.18861893782E+04  0.18861893782E+04  0.25500000000E-02 0.  1.
    5000001    1    1    2    0    0 -0.13136797877E+03  0.14044353467E+02 -0.84483453449E+03  0.87087609933E+03  0.16500000000E+03 0.  0.
   -5000001    1    1    2    0    0  0.13136797877E+03 -0.14044353467E+02 -0.10174718835E+04  0.10391962391E+04  0.16500000000E+03 0.  0.
<mgrwt>
<rscale>  0 0.42448927E+03</rscale>
<asrwt>0</asrwt>
<pdfrwt beam="1">  1        2 0.26945553E+00 0.42448927E+03</pdfrwt>
<pdfrwt beam="2">  1       -2 0.34118527E-02 0.42448927E+03</pdfrwt>
<totfact> 0.34993484E+03</totfact>
</mgrwt>
</event>
<event>
 4    1  0.5280257E-005  0.5581750E+03  0.7818608E-02  0.9996193E-01
          2   -1    0    0  501    0  0.00000000000E+00  0.00000000000E+00  0.80112875733E+03  0.80112875733E+03  0.25500000000E-02 0.  1.
         -2   -1    0    0    0  501 -0.00000000000E+00 -0.00000000000E+00 -0.97225115781E+02  0.97225115815E+02  0.25500000000E-02 0. -1.
    5000001    1    1    2    0    0  0.22174509443E+03 -0.38549321122E+02  0.35647524174E+03  0.45272125534E+03  0.16500000000E+03 0.  0.
   -5000001    1    1    2    0    0 -0.22174509443E+03  0.38549321122E+02  0.34742839981E+03  0.44563261781E+03  0.16500000000E+03 0.  0.
<mgrwt>
<rscale>  0 0.55817501E+03</rscale>
<asrwt>0</asrwt>
<pdfrwt beam="1">  1        2 0.11444697E+00 0.55817501E+03</pdfrwt>
<pdfrwt beam="2">  1       -2 0.13889302E-01 0.55817501E+03</pdfrwt>
<totfact> 0.15152706E+03</totfact>
</mgrwt>
</event>
<event>
 4    1  0.5280257E-005  0.1294506E+04  0.7818608E-02  0.9033933E-01
         -2   -1    0    0    0  501 -0.00000000000E+00  0.00000000000E+00  0.13433409642E+03  0.13433409644E+03  0.25500000000E-02 0. -1.
          2   -1    0    0  501    0  0.00000000000E+00 -0.00000000000E+00 -0.31186164951E+04  0.31186164952E+04  0.25500000000E-02 0.  1.
    5000001    1    1    2    0    0 -0.55055125063E+03 -0.19787667085E+03 -0.93334291217E+03  0.11138293622E+04  0.16500000000E+03 0.  0.
   -5000001    1    1    2    0    0  0.55055125063E+03  0.19787667085E+03 -0.20509394866E+04  0.21391212294E+04  0.16500000000E+03 0.  0.
<mgrwt>
<rscale>  0 0.12945061E+04</rscale>
<asrwt>0</asrwt>
<pdfrwt beam="1">  1        2 0.44551660E+00 0.12945061E+04</pdfrwt>
<pdfrwt beam="2">  1       -2 0.19190587E-01 0.12945061E+04</pdfrwt>
<totfact> 0.46038614E+01</totfact>
</mgrwt>
</event>
<event>
 4    1  0.5280257E-005  0.4895874E+03  0.7818608E-02  0.1016533E+00
         -2   -1    0    0    0  501 -0.00000000000E+00  0.00000000000E+00  0.13040031521E+03  0.13040031523E+03  0.25500000000E-02 0. -1.
          2   -1    0    0  501    0  0.00000000000E+00 -0.00000000000E+00 -0.45953837099E+03  0.45953837100E+03  0.25500000000E-02 0.  1.
    5000001    1    1    2    0    0 -0.13186535939E+03 -0.83497210677E+02 -0.27460270257E+03  0.35635923091E+03  0.16500000000E+03 0.  0.
   -5000001    1    1    2    0    0  0.13186535939E+03  0.83497210677E+02 -0.54535353214E+02  0.23357945532E+03  0.16500000000E+03 0.  0.
<mgrwt>
<rscale>  0 0.48958737E+03</rscale>
<asrwt>0</asrwt>
<pdfrwt beam="1">  1        2 0.65648338E-01 0.48958737E+03</pdfrwt>
<pdfrwt beam="2">  1       -2 0.18628617E-01 0.48958737E+03</pdfrwt>
<totfact> 0.17782008E+03</totfact>
</mgrwt>
</event>
<event>
 4    1  0.5280257E-005  0.5296135E+03  0.7818608E-02  0.1006326E+00
          2   -1    0    0  501    0  0.00000000000E+00  0.00000000000E+00  0.48743498423E+03  0.48743498423E+03  0.25500000000E-02 0.  1.
         -2   -1    0    0    0  501 -0.00000000000E+00 -0.00000000000E+00 -0.14386045826E+03  0.14386045828E+03  0.25500000000E-02 0. -1.
    5000001    1    1    2    0    0 -0.15927552410E+03 -0.62339096597E+02  0.32559840056E+02  0.23987496478E+03  0.16500000000E+03 0.  0.
   -5000001    1    1    2    0    0  0.15927552410E+03  0.62339096597E+02  0.31101468591E+03  0.39142047774E+03  0.16500000000E+03 0.  0.
<mgrwt>
<rscale>  0 0.52961352E+03</rscale>
<asrwt>0</asrwt>
<pdfrwt beam="1">  1        2 0.69633569E-01 0.52961352E+03</pdfrwt>
<pdfrwt beam="2">  1       -2 0.20551494E-01 0.52961352E+03</pdfrwt>
<totfact> 0.14043209E+03</totfact>
</mgrwt>
</event>
<event>
 4    1  0.5280257E-005  0.5270952E+03  0.7818608E-02  0.1006939E+00
          2   -1    0    0  501    0  0.00000000000E+00  0.00000000000E+00  0.13005299537E+04  0.13005299537E+04  0.25500000000E-02 0.  1.
         -2   -1    0    0    0  501 -0.00000000000E+00 -0.00000000000E+00 -0.53406951620E+02  0.53406951681E+02  0.25500000000E-02 0. -1.
    5000001    1    1    2    0    0  0.18912048245E+03  0.53564337103E+02  0.77761024407E+03  0.81886408321E+03  0.16500000000E+03 0.  0.
   -5000001    1    1    2    0    0 -0.18912048245E+03 -0.53564337103E+02  0.46951275799E+03  0.53507282215E+03  0.16500000000E+03 0.  0.
<mgrwt>
<rscale>  0 0.52709521E+03</rscale>
<asrwt>0</asrwt>
<pdfrwt beam="1">  1        2 0.18578995E+00 0.52709521E+03</pdfrwt>
<pdfrwt beam="2">  1       -2 0.76295664E-02 0.52709521E+03</pdfrwt>
<totfact> 0.20099511E+03</totfact>
</mgrwt>
</event>
<event>
 4    1  0.5280257E-005  0.4480896E+03  0.7818608E-02  0.1028293E+00
         -2   -1    0    0    0  501 -0.00000000000E+00  0.00000000000E+00  0.33464087889E+03  0.33464087889E+03  0.25500000000E-02 0. -1.
          2   -1    0    0  501    0  0.00000000000E+00 -0.00000000000E+00 -0.14999979754E+03  0.14999979756E+03  0.25500000000E-02 0.  1.
    5000001    1    1    2    0    0  0.12461948522E+03  0.81775986145E+02  0.12201426600E+03  0.25363321769E+03  0.16500000000E+03 0.  0.
   -5000001    1    1    2    0    0 -0.12461948522E+03 -0.81775986145E+02  0.62626815340E+02  0.23100745877E+03  0.16500000000E+03 0.  0.
<mgrwt>
<rscale>  0 0.44808956E+03</rscale>
<asrwt>0</asrwt>
<pdfrwt beam="1">  1        2 0.21428543E-01 0.44808956E+03</pdfrwt>
<pdfrwt beam="2">  1       -2 0.47805839E-01 0.44808956E+03</pdfrwt>
<totfact> 0.10865677E+03</totfact>
</mgrwt>
</event>
<event>
 4    1  0.5280257E-005  0.6623113E+03  0.7818608E-02  0.9783948E-01
          2   -1    0    0  501    0  0.00000000000E+00  0.00000000000E+00  0.36967650002E+03  0.36967650003E+03  0.25500000000E-02 0. -1.
         -2   -1    0    0    0  501 -0.00000000000E+00 -0.00000000000E+00 -0.29664869539E+03  0.29664869540E+03  0.25500000000E-02 0.  1.
    5000001    1    1    2    0    0 -0.22874171058E+02  0.28419163207E+03  0.23827901104E+01  0.32942190141E+03  0.16500000000E+03 0.  0.
   -5000001    1    1    2    0    0  0.22874171058E+02 -0.28419163207E+03  0.70645014528E+02  0.33690329402E+03  0.16500000000E+03 0.  0.
<mgrwt>
<rscale>  0 0.66231126E+03</rscale>
<asrwt>0</asrwt>
<pdfrwt beam="1">  1        2 0.52810929E-01 0.66231126E+03</pdfrwt>
<pdfrwt beam="2">  1       -2 0.42378385E-01 0.66231126E+03</pdfrwt>
<totfact> 0.50216270E+02</totfact>
</mgrwt>
</event>
<event>
 4    1  0.5280257E-005  0.5087748E+03  0.7818608E-02  0.1011514E+00
         -2   -1    0    0    0  501 -0.00000000000E+00  0.00000000000E+00  0.37615905345E+03  0.37615905346E+03  0.25500000000E-02 0. -1.
          2   -1    0    0  501    0  0.00000000000E+00 -0.00000000000E+00 -0.17203616069E+03  0.17203616071E+03  0.25500000000E-02 0.  1.
    5000001    1    1    2    0    0 -0.11460917129E+02 -0.19146939515E+03  0.13048892903E+03  0.28468270495E+03  0.16500000000E+03 0.  0.
   -5000001    1    1    2    0    0  0.11460917129E+02  0.19146939515E+03  0.73633963733E+02  0.26351250922E+03  0.16500000000E+03 0.  0.
<mgrwt>
<rscale>  0 0.50877484E+03</rscale>
<asrwt>0</asrwt>
<pdfrwt beam="1">  1        2 0.24576595E-01 0.50877484E+03</pdfrwt>
<pdfrwt beam="2">  1       -2 0.53737006E-01 0.50877484E+03</pdfrwt>
<totfact> 0.73306310E+02</totfact>
</mgrwt>
</event>
<event>
 4    1  0.5280257E-005  0.5049524E+03  0.7818608E-02  0.1012494E+00
          2   -1    0    0  501    0  0.00000000000E+00  0.00000000000E+00  0.40237901087E+03  0.40237901088E+03  0.25500000000E-02 0.  1.
         -2   -1    0    0    0  501 -0.00000000000E+00 -0.00000000000E+00 -0.15841840528E+03  0.15841840530E+03  0.25500000000E-02 0. -1.
    5000001    1    1    2    0    0  0.53152101198E+02 -0.18292309004E+03  0.13894146664E+03  0.28777722961E+03  0.16500000000E+03 0.  0.
   -5000001    1    1    2    0    0 -0.53152101198E+02  0.18292309004E+03  0.10501913894E+03  0.27302018657E+03  0.16500000000E+03 0.  0.
<mgrwt>
<rscale>  0 0.50495244E+03</rscale>
<asrwt>0</asrwt>
<pdfrwt beam="1">  1        2 0.57482715E-01 0.50495244E+03</pdfrwt>
<pdfrwt beam="2">  1       -2 0.22631201E-01 0.50495244E+03</pdfrwt>
<totfact> 0.14688606E+03</totfact>
</mgrwt>
</event>
<event>
 4    1  0.5280257E-005  0.4173126E+03  0.7818608E-02  0.1037945E+00
         -2   -1    0    0    0  501 -0.00000000000E+00  0.00000000000E+00  0.11997192421E+03  0.11997192424E+03  0.25500000000E-02 0. -1.
          2   -1    0    0  501    0  0.00000000000E+00 -0.00000000000E+00 -0.36289695582E+03  0.36289695582E+03  0.25500000000E-02 0.  1.
    5000001    1    1    2    0    0 -0.10843152458E+03 -0.51450478895E+02 -0.17200369986E+03  0.26686105011E+03  0.16500000000E+03 0.  0.
   -5000001    1    1    2    0    0  0.10843152458E+03  0.51450478895E+02 -0.70921331748E+02  0.21600782995E+03  0.16500000000E+03 0.  0.
<mgrwt>
<rscale>  0 0.41731257E+03</rscale>
<asrwt>0</asrwt>
<pdfrwt beam="1">  1        2 0.51842422E-01 0.41731257E+03</pdfrwt>
<pdfrwt beam="2">  1       -2 0.17138846E-01 0.41731257E+03</pdfrwt>
<totfact> 0.26561526E+03</totfact>
</mgrwt>
</event>
<event>
 4    1  0.5280257E-005  0.4666945E+03  0.7818608E-02  0.1022857E+00
         -2   -1    0    0    0  501 -0.00000000000E+00  0.00000000000E+00  0.31631517677E+02  0.31631517780E+02  0.25500000000E-02 0. -1.
          2   -1    0    0  501    0  0.00000000000E+00 -0.00000000000E+00 -0.17214141879E+04  0.17214141879E+04  0.25500000000E-02 0.  1.
    5000001    1    1    2    0    0  0.14808706997E+03 -0.71085700264E+02 -0.90344464643E+03  0.93296312159E+03  0.16500000000E+03 0.  0.
   -5000001    1    1    2    0    0 -0.14808706997E+03  0.71085700264E+02 -0.78633802375E+03  0.82008258405E+03  0.16500000000E+03 0.  0.
<mgrwt>
<rscale>  0 0.46669452E+03</rscale>
<asrwt>0</asrwt>
<pdfrwt beam="1">  1        2 0.24591625E+00 0.46669452E+03</pdfrwt>
<pdfrwt beam="2">  1       -2 0.45187893E-02 0.46669452E+03</pdfrwt>
<totfact> 0.27538136E+03</totfact>
</mgrwt>
</event>
<event>
 4    1  0.5280257E-005  0.5981981E+03  0.7818608E-02  0.9909152E-01
         -2   -1    0    0    0  501 -0.00000000000E+00  0.00000000000E+00  0.69404185119E+03  0.69404185119E+03  0.25500000000E-02 0. -1.
          2   -1    0    0  501    0  0.00000000000E+00 -0.00000000000E+00 -0.12889745400E+03  0.12889745403E+03  0.25500000000E-02 0.  1.
    5000001    1    1    2    0    0 -0.61043094257E+02 -0.21404989166E+03  0.12759021822E+03  0.30503750468E+03  0.16500000000E+03 0.  0.
   -5000001    1    1    2    0    0  0.61043094257E+02  0.21404989166E+03  0.43755417897E+03  0.51790180054E+03  0.16500000000E+03 0.  0.
<mgrwt>
<rscale>  0 0.59819805E+03</rscale>
<asrwt>0</asrwt>
<pdfrwt beam="1">  1        2 0.18413922E-01 0.59819805E+03</pdfrwt>
<pdfrwt beam="2">  1       -2 0.99148838E-01 0.59819805E+03</pdfrwt>
<totfact> 0.26715495E+02</totfact>
</mgrwt>
</event>
<event>
 4    1  0.5280257E-005  0.5056826E+03  0.7818608E-02  0.1012306E+00
         -2   -1    0    0    0  501 -0.00000000000E+00  0.00000000000E+00  0.39945058086E+02  0.39945058167E+02  0.25500000000E-02 0. -1.
          2   -1    0    0  501    0  0.00000000000E+00 -0.00000000000E+00 -0.16004164886E+04  0.16004164886E+04  0.25500000000E-02 0.  1.
    5000001    1    1    2    0    0  0.15596687562E+03 -0.82989383827E+02 -0.53986565632E+03  0.59151739703E+03  0.16500000000E+03 0.  0.
   -5000001    1    1    2    0    0 -0.15596687562E+03  0.82989383827E+02 -0.10206057742E+04  0.10488441498E+04  0.16500000000E+03 0.  0.
<mgrwt>
<rscale>  0 0.50568263E+03</rscale>
<asrwt>0</asrwt>
<pdfrwt beam="1">  1        2 0.22863089E+00 0.50568263E+03</pdfrwt>
<pdfrwt beam="2">  1       -2 0.57064379E-02 0.50568263E+03</pdfrwt>
<totfact> 0.22092911E+03</totfact>
</mgrwt>
</event>
<event>
 4    1  0.5280257E-005  0.5244039E+03  0.7818608E-02  0.1007598E+00
          2   -1    0    0  501    0  0.00000000000E+00  0.00000000000E+00  0.23190956792E+04  0.23190956792E+04  0.25500000000E-02 0.  1.
         -2   -1    0    0    0  501 -0.00000000000E+00 -0.00000000000E+00 -0.29645115462E+02  0.29645115572E+02  0.25500000000E-02 0. -1.
    5000001    1    1    2    0    0 -0.17202465894E+03 -0.10333180263E+03  0.98606205871E+03  0.10197123753E+04  0.16500000000E+03 0.  0.
   -5000001    1    1    2    0    0  0.17202465894E+03  0.10333180263E+03  0.13033885050E+04  0.13290284195E+04  0.16500000000E+03 0.  0.
<mgrwt>
<rscale>  0 0.52440389E+03</rscale>
<asrwt>0</asrwt>
<pdfrwt beam="1">  1        2 0.33129938E+00 0.52440389E+03</pdfrwt>
<pdfrwt beam="2">  1       -2 0.42350166E-02 0.52440389E+03</pdfrwt>
<totfact> 0.15243183E+03</totfact>
</mgrwt>
</event>
<event>
 4    1  0.5280257E-005  0.5449536E+03  0.7818608E-02  0.1002669E+00
         -2   -1    0    0    0  501 -0.00000000000E+00  0.00000000000E+00  0.28554921418E+03  0.28554921419E+03  0.25500000000E-02 0. -1.
          2   -1    0    0  501    0  0.00000000000E+00 -0.00000000000E+00 -0.26000282066E+03  0.26000282067E+03  0.25500000000E-02 0.  1.
    5000001    1    1    2    0    0  0.13883703382E+03 -0.47806869009E+02  0.17250211243E+03  0.28025559312E+03  0.16500000000E+03 0.  0.
   -5000001    1    1    2    0    0 -0.13883703382E+03  0.47806869009E+02 -0.14695571891E+03  0.26529644175E+03  0.16500000000E+03 0.  0.
<mgrwt>
<rscale>  0 0.54495358E+03</rscale>
<asrwt>0</asrwt>
<pdfrwt beam="1">  1        2 0.37143260E-01 0.54495358E+03</pdfrwt>
<pdfrwt beam="2">  1       -2 0.40792745E-01 0.54495358E+03</pdfrwt>
<totfact> 0.79965415E+02</totfact>
</mgrwt>
</event>
<event>
 4    1  0.5280257E-005  0.4444950E+03  0.7818608E-02  0.1029377E+00
          2   -1    0    0  501    0  0.00000000000E+00  0.00000000000E+00  0.21030603688E+04  0.21030603688E+04  0.25500000000E-02 0.  1.
         -2   -1    0    0    0  501 -0.00000000000E+00 -0.00000000000E+00 -0.23486697439E+02  0.23486697578E+02  0.25500000000E-02 0. -1.
    5000001    1    1    2    0    0  0.12889710694E+03  0.72326635374E+02  0.95375970620E+03  0.97914666089E+03  0.16500000000E+03 0.  0.
   -5000001    1    1    2    0    0 -0.12889710694E+03 -0.72326635374E+02  0.11258139651E+04  0.11474004055E+04  0.16500000000E+03 0.  0.
<mgrwt>
<rscale>  0 0.44449496E+03</rscale>
<asrwt>0</asrwt>
<pdfrwt beam="1">  1        2 0.30043719E+00 0.44449496E+03</pdfrwt>
<pdfrwt beam="2">  1       -2 0.33552425E-02 0.44449496E+03</pdfrwt>
<totfact> 0.27994694E+03</totfact>
</mgrwt>
</event>
<event>
 4    1  0.5280257E-005  0.8696514E+03  0.7818608E-02  0.9464335E-01
         -2   -1    0    0    0  501 -0.00000000000E+00  0.00000000000E+00  0.10042675056E+03  0.10042675059E+03  0.25500000000E-02 0. -1.
          2   -1    0    0  501    0  0.00000000000E+00 -0.00000000000E+00 -0.18826995259E+04  0.18826995259E+04  0.25500000000E-02 0.  1.
    5000001    1    1    2    0    0 -0.20081423749E+03  0.33764637583E+03 -0.69342742565E+03  0.81387838633E+03  0.16500000000E+03 0.  0.
   -5000001    1    1    2    0    0  0.20081423749E+03 -0.33764637583E+03 -0.10888453497E+04  0.11692478901E+04  0.16500000000E+03 0.  0.
<mgrwt>
<rscale>  0 0.86965141E+03</rscale>
<asrwt>0</asrwt>
<pdfrwt beam="1">  1        2 0.26895705E+00 0.86965141E+03</pdfrwt>
<pdfrwt beam="2">  1       -2 0.14346680E-01 0.86965141E+03</pdfrwt>
<totfact> 0.35165553E+02</totfact>
</mgrwt>
</event>
<event>
 4    1  0.5280257E-005  0.4612290E+03  0.7818608E-02  0.1024425E+00
          2   -1    0    0  501    0  0.00000000000E+00  0.00000000000E+00  0.12113887991E+04  0.12113887991E+04  0.25500000000E-02 0.  1.
         -2   -1    0    0    0  501 -0.00000000000E+00 -0.00000000000E+00 -0.43902539052E+02  0.43902539126E+02  0.25500000000E-02 0. -1.
    5000001    1    1    2    0    0 -0.25250456363E+02  0.13385467358E+03  0.81791951936E+03  0.84544189590E+03  0.16500000000E+03 0.  0.
   -5000001    1    1    2    0    0  0.25250456363E+02 -0.13385467358E+03  0.34956674069E+03  0.40984944233E+03  0.16500000000E+03 0.  0.
<mgrwt>
<rscale>  0 0.46122898E+03</rscale>
<asrwt>0</asrwt>
<pdfrwt beam="1">  1        2 0.17305556E+00 0.46122898E+03</pdfrwt>
<pdfrwt beam="2">  1       -2 0.62717908E-02 0.46122898E+03</pdfrwt>
<totfact> 0.30617658E+03</totfact>
</mgrwt>
</event>
<event>
 4    1  0.5280257E-005  0.4834892E+03  0.7818608E-02  0.1018181E+00
          2   -1    0    0  501    0  0.00000000000E+00  0.00000000000E+00  0.11332530176E+04  0.11332530176E+04  0.25500000000E-02 0.  1.
         -2   -1    0    0    0  501 -0.00000000000E+00 -0.00000000000E+00 -0.51568751730E+02  0.51568751793E+02  0.25500000000E-02 0. -1.
    5000001    1    1    2    0    0  0.24000021555E+02 -0.15560751282E+03  0.73728126350E+03  0.77175019312E+03  0.16500000000E+03 0.  0.
   -5000001    1    1    2    0    0 -0.24000021555E+02  0.15560751282E+03  0.34440300236E+03  0.41307157626E+03  0.16500000000E+03 0.  0.
<mgrwt>
<rscale>  0 0.48348917E+03</rscale>
<asrwt>0</asrwt>
<pdfrwt beam="1">  1        2 0.16189331E+00 0.48348917E+03</pdfrwt>
<pdfrwt beam="2">  1       -2 0.73669637E-02 0.48348917E+03</pdfrwt>
<totfact> 0.26311341E+03</totfact>
</mgrwt>
</event>
<event>
 4    1  0.5280257E-005  0.4149416E+03  0.7818608E-02  0.1038725E+00
         -2   -1    0    0    0  501 -0.00000000000E+00  0.00000000000E+00  0.79088928947E+02  0.79088928989E+02  0.25500000000E-02 0. -1.
          2   -1    0    0  501    0  0.00000000000E+00 -0.00000000000E+00 -0.54424978055E+03  0.54424978056E+03  0.25500000000E-02 0.  1.
    5000001    1    1    2    0    0  0.78726139801E+02 -0.43249632974E+02 -0.10032597762E+03  0.21297567379E+03  0.16500000000E+03 0.  0.
   -5000001    1    1    2    0    0 -0.78726139801E+02  0.43249632974E+02 -0.36483487398E+03  0.41036303576E+03  0.16500000000E+03 0.  0.
<mgrwt>
<rscale>  0 0.41494160E+03</rscale>
<asrwt>0</asrwt>
<pdfrwt beam="1">  1        2 0.77749967E-01 0.41494160E+03</pdfrwt>
<pdfrwt beam="2">  1       -2 0.11298419E-01 0.41494160E+03</pdfrwt>
<totfact> 0.33773523E+03</totfact>
</mgrwt>
</event>
<event>
 4    1  0.5280257E-005  0.4671407E+03  0.7818608E-02  0.1022730E+00
         -2   -1    0    0    0  501 -0.00000000000E+00  0.00000000000E+00  0.64099032236E+02  0.64099032287E+02  0.25500000000E-02 0. -1.
          2   -1    0    0  501    0  0.00000000000E+00 -0.00000000000E+00 -0.85110658920E+03  0.85110658920E+03  0.25500000000E-02 0.  1.
    5000001    1    1    2    0    0 -0.12914427897E+03  0.65736455645E+02 -0.23762291560E+03  0.32355706824E+03  0.16500000000E+03 0.  0.
   -5000001    1    1    2    0    0  0.12914427897E+03 -0.65736455645E+02 -0.54938464136E+03  0.59164855324E+03  0.16500000000E+03 0.  0.
<mgrwt>
<rscale>  0 0.46714070E+03</rscale>
<asrwt>0</asrwt>
<pdfrwt beam="1">  1        2 0.12158665E+00 0.46714070E+03</pdfrwt>
<pdfrwt beam="2">  1       -2 0.91570051E-02 0.46714070E+03</pdfrwt>
<totfact> 0.27669719E+03</totfact>
</mgrwt>
</event>
<event>
 4    1  0.5280257E-005  0.4825636E+03  0.7818608E-02  0.1018433E+00
         -2   -1    0    0    0  501 -0.00000000000E+00  0.00000000000E+00  0.49711650168E+02  0.49711650234E+02  0.25500000000E-02 0.  1.
          2   -1    0    0  501    0  0.00000000000E+00 -0.00000000000E+00 -0.11710917202E+04  0.11710917202E+04  0.25500000000E-02 0. -1.
    5000001    1    1    2    0    0 -0.78673465104E+02 -0.14402947690E+03 -0.39953580045E+03  0.46237199328E+03  0.16500000000E+03 0.  0.
   -5000001    1    1    2    0    0  0.78673465104E+02  0.14402947690E+03 -0.72184426959E+03  0.75843137716E+03  0.16500000000E+03 0.  0.
<mgrwt>
<rscale>  0 0.48256358E+03</rscale>
<asrwt>0</asrwt>
<pdfrwt beam="1">  1        2 0.16729880E+00 0.48256358E+03</pdfrwt>
<pdfrwt beam="2">  1       -2 0.71016650E-02 0.48256358E+03</pdfrwt>
<totfact> 0.26536766E+03</totfact>
</mgrwt>
</event>
<event>
 4    1  0.5280257E-005  0.9811115E+03  0.7818608E-02  0.9329507E-01
          2   -1    0    0  501    0  0.00000000000E+00  0.00000000000E+00  0.13582233189E+04  0.13582233189E+04  0.25500000000E-02 0.  1.
         -2   -1    0    0    0  501 -0.00000000000E+00 -0.00000000000E+00 -0.17717628650E+03  0.17717628651E+03  0.25500000000E-02 0. -1.
    5000001    1    1    2    0    0 -0.20048296925E+03 -0.39060969487E+03  0.81541316925E+03  0.94068750990E+03  0.16500000000E+03 0.  0.
   -5000001    1    1    2    0    0  0.20048296925E+03  0.39060969487E+03  0.36563386319E+03  0.59471209556E+03  0.16500000000E+03 0.  0.
<mgrwt>
<rscale>  0 0.98111154E+03</rscale>
<asrwt>0</asrwt>
<pdfrwt beam="1">  1        2 0.19403190E+00 0.98111154E+03</pdfrwt>
<pdfrwt beam="2">  1       -2 0.25310898E-01 0.98111154E+03</pdfrwt>
<totfact> 0.24369141E+02</totfact>
</mgrwt>
</event>
<event>
 4    1  0.5280257E-005  0.4851855E+03  0.7818608E-02  0.1017720E+00
          2   -1    0    0  501    0  0.00000000000E+00  0.00000000000E+00  0.21910426106E+04  0.21910426106E+04  0.25500000000E-02 0.  1.
         -2   -1    0    0    0  501 -0.00000000000E+00 -0.00000000000E+00 -0.26859928519E+02  0.26859928640E+02  0.25500000000E-02 0. -1.
    5000001    1    1    2    0    0  0.40904221249E+02 -0.10316287338E+03  0.44686054595E+03  0.48910641101E+03  0.16500000000E+03 0.  0.
   -5000001    1    1    2    0    0 -0.40904221249E+02  0.10316287338E+03  0.17173221361E+04  0.17287961282E+04  0.16500000000E+03 0.  0.
<mgrwt>
<rscale>  0 0.48518552E+03</rscale>
<asrwt>0</asrwt>
<pdfrwt beam="1">  1        2 0.31300603E+00 0.48518552E+03</pdfrwt>
<pdfrwt beam="2">  1       -2 0.38371334E-02 0.48518552E+03</pdfrwt>
<totfact> 0.20599265E+03</totfact>
</mgrwt>
</event>
<event>
 4    1  0.5280257E-005  0.5227924E+03  0.7818608E-02  0.1007995E+00
          2   -1    0    0  501    0  0.00000000000E+00  0.00000000000E+00  0.20360434125E+03  0.20360434127E+03  0.25500000000E-02 0.  1.
         -2   -1    0    0    0  501 -0.00000000000E+00 -0.00000000000E+00 -0.33559189237E+03  0.33559189238E+03  0.25500000000E-02 0. -1.
    5000001    1    1    2    0    0 -0.12835762266E+03 -0.32019710924E+02  0.92456223275E+02  0.23081181600E+03  0.16500000000E+03 0.  0.
   -5000001    1    1    2    0    0  0.12835762266E+03  0.32019710924E+02 -0.22444377439E+03  0.30838441764E+03  0.16500000000E+03 0.  0.
<mgrwt>
<rscale>  0 0.52279237E+03</rscale>
<asrwt>0</asrwt>
<pdfrwt beam="1">  1        2 0.29086335E-01 0.52279237E+03</pdfrwt>
<pdfrwt beam="2">  1       -2 0.47941699E-01 0.52279237E+03</pdfrwt>
<totfact> 0.76345370E+02</totfact>
</mgrwt>
</event>
<event>
 4    1  0.5280257E-005  0.5379367E+03  0.7818608E-02  0.1004325E+00
          2   -1    0    0  501    0  0.00000000000E+00  0.00000000000E+00  0.40428502571E+03  0.40428502572E+03  0.25500000000E-02 0.  1.
         -2   -1    0    0    0  501 -0.00000000000E+00 -0.00000000000E+00 -0.17894300946E+03  0.17894300948E+03  0.25500000000E-02 0. -1.
    5000001    1    1    2    0    0  0.88927161309E+02 -0.95949649144E+02 -0.68764346428E+02  0.22151277735E+03  0.16500000000E+03 0.  0.
   -5000001    1    1    2    0    0 -0.88927161309E+02  0.95949649144E+02  0.29410636268E+03  0.36171525785E+03  0.16500000000E+03 0.  0.
<mgrwt>
<rscale>  0 0.53793672E+03</rscale>
<asrwt>0</asrwt>
<pdfrwt beam="1">  1        2 0.57755003E-01 0.53793672E+03</pdfrwt>
<pdfrwt beam="2">  1       -2 0.25563287E-01 0.53793672E+03</pdfrwt>
<totfact> 0.11763260E+03</totfact>
</mgrwt>
</event>
<event>
 4    1  0.5280257E-005  0.4344611E+03  0.7818608E-02  0.1032460E+00
          2   -1    0    0  501    0  0.00000000000E+00  0.00000000000E+00  0.26491971135E+04  0.26491971135E+04  0.25500000000E-02 0.  1.
         -2   -1    0    0    0  501 -0.00000000000E+00 -0.00000000000E+00 -0.17812611492E+02  0.17812611675E+02  0.25500000000E-02 0. -1.
    5000001    1    1    2    0    0 -0.58358847274E+02 -0.12864467941E+03  0.12973679637E+04  0.13154253463E+04  0.16500000000E+03 0.  0.
   -5000001    1    1    2    0    0  0.58358847274E+02  0.12864467941E+03  0.13340165383E+04  0.13515843788E+04  0.16500000000E+03 0.  0.
<mgrwt>
<rscale>  0 0.43446113E+03</rscale>
<asrwt>0</asrwt>
<pdfrwt beam="1">  1        2 0.37845634E+00 0.43446113E+03</pdfrwt>
<pdfrwt beam="2">  1       -2 0.25446614E-02 0.43446113E+03</pdfrwt>
<totfact> 0.22547944E+03</totfact>
</mgrwt>
</event>
<event>
 4    1  0.5280257E-005  0.4261200E+03  0.7818608E-02  0.1035093E+00
         -2   -1    0    0    0  501 -0.00000000000E+00  0.00000000000E+00  0.16728285511E+02  0.16728285705E+02  0.25500000000E-02 0. -1.
          2   -1    0    0  501    0  0.00000000000E+00 -0.00000000000E+00 -0.27136417093E+04  0.27136417093E+04  0.25500000000E-02 0.  1.
    5000001    1    1    2    0    0 -0.28233957932E+02 -0.91079013261E+02 -0.73799077708E+03  0.76219940311E+03  0.16500000000E+03 0.  0.
   -5000001    1    1    2    0    0  0.28233957932E+02  0.91079013261E+02 -0.19589226467E+04  0.19681705919E+04  0.16500000000E+03 0.  0.
<mgrwt>
<rscale>  0 0.42612005E+03</rscale>
<asrwt>0</asrwt>
<pdfrwt beam="1">  1        2 0.38766282E+00 0.42612005E+03</pdfrwt>
<pdfrwt beam="2">  1       -2 0.23897568E-02 0.42612005E+03</pdfrwt>
<totfact> 0.22958090E+03</totfact>
</mgrwt>
</event>
<event>
 4    1  0.5280257E-005  0.4183061E+03  0.7818608E-02  0.1037619E+00
          2   -1    0    0  501    0  0.00000000000E+00  0.00000000000E+00  0.25771870389E+04  0.25771870389E+04  0.25500000000E-02 0.  1.
         -2   -1    0    0    0  501 -0.00000000000E+00 -0.00000000000E+00 -0.16973934546E+02  0.16973934738E+02  0.25500000000E-02 0. -1.
    5000001    1    1    2    0    0 -0.35390748569E+02  0.12262248830E+03  0.13744083020E+04  0.13901481793E+04  0.16500000000E+03 0.  0.
   -5000001    1    1    2    0    0  0.35390748569E+02 -0.12262248830E+03  0.11858048024E+04  0.12040127944E+04  0.16500000000E+03 0.  0.
<mgrwt>
<rscale>  0 0.41830613E+03</rscale>
<asrwt>0</asrwt>
<pdfrwt beam="1">  1        2 0.36816949E+00 0.41830613E+03</pdfrwt>
<pdfrwt beam="2">  1       -2 0.24248484E-02 0.41830613E+03</pdfrwt>
<totfact> 0.26413825E+03</totfact>
</mgrwt>
</event>
<event>
 4    1  0.5280257E-005  0.6527542E+03  0.7818608E-02  0.9801625E-01
          2   -1    0    0  501    0  0.00000000000E+00  0.00000000000E+00  0.54223640753E+03  0.54223640754E+03  0.25500000000E-02 0.  1.
         -2   -1    0    0    0  501 -0.00000000000E+00 -0.00000000000E+00 -0.19644939772E+03  0.19644939773E+03  0.25500000000E-02 0. -1.
    5000001    1    1    2    0    0  0.26769832639E+02 -0.28003423468E+03  0.15852477478E+03  0.36261674086E+03  0.16500000000E+03 0.  0.
   -5000001    1    1    2    0    0 -0.26769832639E+02  0.28003423468E+03  0.18726223504E+03  0.37606906441E+03  0.16500000000E+03 0.  0.
<mgrwt>
<rscale>  0 0.65275421E+03</rscale>
<asrwt>0</asrwt>
<pdfrwt beam="1">  1        2 0.77462344E-01 0.65275421E+03</pdfrwt>
<pdfrwt beam="2">  1       -2 0.28064200E-01 0.65275421E+03</pdfrwt>
<totfact> 0.71199441E+02</totfact>
</mgrwt>
</event>
<event>
 4    1  0.5280257E-005  0.5910185E+03  0.7818608E-02  0.9924217E-01
         -2   -1    0    0    0  501 -0.00000000000E+00  0.00000000000E+00  0.52915732566E+02  0.52915732627E+02  0.25500000000E-02 0. -1.
          2   -1    0    0  501    0  0.00000000000E+00 -0.00000000000E+00 -0.16502789232E+04  0.16502789232E+04  0.25500000000E-02 0.  1.
    5000001    1    1    2    0    0 -0.15077409562E+03  0.13936126689E+03 -0.41262497665E+03  0.48952912271E+03  0.16500000000E+03 0.  0.
   -5000001    1    1    2    0    0  0.15077409562E+03 -0.13936126689E+03 -0.11847382140E+04  0.12136655331E+04  0.16500000000E+03 0.  0.
<mgrwt>
<rscale>  0 0.59101850E+03</rscale>
<asrwt>0</asrwt>
<pdfrwt beam="1">  1        2 0.23575410E+00 0.59101850E+03</pdfrwt>
<pdfrwt beam="2">  1       -2 0.75593914E-02 0.59101850E+03</pdfrwt>
<totfact> 0.13356166E+03</totfact>
</mgrwt>
</event>
<event>
 4    1  0.5280257E-005  0.5847031E+03  0.7818608E-02  0.9937661E-01
         -2   -1    0    0    0  501 -0.00000000000E+00  0.00000000000E+00  0.57599118205E+02  0.57599118261E+02  0.25500000000E-02 0. -1.
          2   -1    0    0  501    0  0.00000000000E+00 -0.00000000000E+00 -0.14838667721E+04  0.14838667721E+04  0.25500000000E-02 0.  1.
    5000001    1    1    2    0    0 -0.29865574928E+02  0.23592435418E+03 -0.82158139103E+03  0.87107590688E+03  0.16500000000E+03 0.  0.
   -5000001    1    1    2    0    0  0.29865574928E+02 -0.23592435418E+03 -0.60468626289E+03  0.67038998351E+03  0.16500000000E+03 0.  0.
<mgrwt>
<rscale>  0 0.58470306E+03</rscale>
<asrwt>0</asrwt>
<pdfrwt beam="1">  1        2 0.21198094E+00 0.58470306E+03</pdfrwt>
<pdfrwt beam="2">  1       -2 0.82284464E-02 0.58470306E+03</pdfrwt>
<totfact> 0.14224063E+03</totfact>
</mgrwt>
</event>
<event>
 4    1  0.5280257E-005  0.4940766E+03  0.7818608E-02  0.1015337E+00
         -2   -1    0    0    0  501 -0.00000000000E+00  0.00000000000E+00  0.18043472550E+03  0.18043472552E+03  0.25500000000E-02 0. -1.
          2   -1    0    0  501    0  0.00000000000E+00 -0.00000000000E+00 -0.33822708578E+03  0.33822708579E+03  0.25500000000E-02 0.  1.
    5000001    1    1    2    0    0  0.18224168085E+03  0.21602198077E+02 -0.90596469369E+02  0.26289048188E+03  0.16500000000E+03 0.  0.
   -5000001    1    1    2    0    0 -0.18224168085E+03 -0.21602198077E+02 -0.67195890911E+02  0.25577132943E+03  0.16500000000E+03 0.  0.
<mgrwt>
<rscale>  0 0.49407656E+03</rscale>
<asrwt>0</asrwt>
<pdfrwt beam="1">  1        2 0.48318155E-01 0.49407656E+03</pdfrwt>
<pdfrwt beam="2">  1       -2 0.25776389E-01 0.49407656E+03</pdfrwt>
<totfact> 0.14108013E+03</totfact>
</mgrwt>
</event>
<event>
 4    1  0.5280257E-005  0.1743956E+04  0.7818608E-02  0.8736684E-01
          2   -1    0    0  501    0  0.00000000000E+00  0.00000000000E+00  0.24904257475E+04  0.24904257475E+04  0.25500000000E-02 0.  1.
         -2   -1    0    0    0  501 -0.00000000000E+00 -0.00000000000E+00 -0.30530755170E+03  0.30530755171E+03  0.25500000000E-02 0. -1.
    5000001    1    1    2    0    0  0.11565999480E+03 -0.78185333506E+03  0.56463342933E+03  0.98524503625E+03  0.16500000000E+03 0.  0.
   -5000001    1    1    2    0    0 -0.11565999480E+03  0.78185333506E+03  0.16204847665E+04  0.18104882629E+04  0.16500000000E+03 0.  0.
<mgrwt>
<rscale>  0 0.17439562E+04</rscale>
<asrwt>0</asrwt>
<pdfrwt beam="1">  1        2 0.35577510E+00 0.17439562E+04</pdfrwt>
<pdfrwt beam="2">  1       -2 0.43615365E-01 0.17439562E+04</pdfrwt>
<totfact> 0.21146682E+01</totfact>
</mgrwt>
</event>
<event>
 4    1  0.5280257E-005  0.5388893E+03  0.7818608E-02  0.1004099E+00
          2   -1    0    0  501    0  0.00000000000E+00  0.00000000000E+00  0.35631758425E+04  0.35631758425E+04  0.25500000000E-02 0.  1.
         -2   -1    0    0    0  501 -0.00000000000E+00 -0.00000000000E+00 -0.20375202770E+02  0.20375202930E+02  0.25500000000E-02 0. -1.
    5000001    1    1    2    0    0 -0.17374036011E+03 -0.10292941510E+03  0.13206160718E+04  0.13461173746E+04  0.16500000000E+03 0.  0.
   -5000001    1    1    2    0    0  0.17374036011E+03  0.10292941510E+03  0.22221845680E+04  0.22374336708E+04  0.16500000000E+03 0.  0.
<mgrwt>
<rscale>  0 0.53888934E+03</rscale>
<asrwt>0</asrwt>
<pdfrwt beam="1">  1        2 0.50902474E+00 0.53888934E+03</pdfrwt>
<pdfrwt beam="2">  1       -2 0.29107455E-02 0.53888934E+03</pdfrwt>
<totfact> 0.57044400E+02</totfact>
</mgrwt>
</event>
<event>
 4    1  0.5280257E-005  0.4987483E+03  0.7818608E-02  0.1014106E+00
         -2   -1    0    0    0  501 -0.00000000000E+00  0.00000000000E+00  0.65112366656E+02  0.65112366706E+02  0.25500000000E-02 0. -1.
          2   -1    0    0  501    0  0.00000000000E+00 -0.00000000000E+00 -0.95507914999E+03  0.95507914999E+03  0.25500000000E-02 0.  1.
    5000001    1    1    2    0    0  0.24136963588E+02 -0.14154563649E+03 -0.68997210627E+03  0.72381231521E+03  0.16500000000E+03 0.  0.
   -5000001    1    1    2    0    0 -0.24136963588E+02  0.14154563649E+03 -0.19999467706E+03  0.29637920149E+03  0.16500000000E+03 0.  0.
<mgrwt>
<rscale>  0 0.49874829E+03</rscale>
<asrwt>0</asrwt>
<pdfrwt beam="1">  1        2 0.13643987E+00 0.49874829E+03</pdfrwt>
<pdfrwt beam="2">  1       -2 0.93017672E-02 0.49874829E+03</pdfrwt>
<totfact> 0.23156412E+03</totfact>
</mgrwt>
</event>
<event>
 4    1  0.5280257E-005  0.4636134E+03  0.7818608E-02  0.1023738E+00
          2   -1    0    0  501    0  0.00000000000E+00  0.00000000000E+00  0.11210216780E+04  0.11210216780E+04  0.25500000000E-02 0.  1.
         -2   -1    0    0    0  501 -0.00000000000E+00 -0.00000000000E+00 -0.47933377980E+02  0.47933378048E+02  0.25500000000E-02 0. -1.
    5000001    1    1    2    0    0 -0.15772008865E+03  0.40416835927E+02  0.53769647692E+03  0.58553535186E+03  0.16500000000E+03 0.  0.
   -5000001    1    1    2    0    0  0.15772008865E+03 -0.40416835927E+02  0.53539182311E+03  0.58341970420E+03  0.16500000000E+03 0.  0.
<mgrwt>
<rscale>  0 0.46361344E+03</rscale>
<asrwt>0</asrwt>
<pdfrwt beam="1">  1        2 0.16014593E+00 0.46361344E+03</pdfrwt>
<pdfrwt beam="2">  1       -2 0.68476263E-02 0.46361344E+03</pdfrwt>
<totfact> 0.29994709E+03</totfact>
</mgrwt>
</event>
<event>
 4    1  0.5280257E-005  0.5619904E+03  0.7818608E-02  0.9987561E-01
          2   -1    0    0  501    0  0.00000000000E+00  0.00000000000E+00  0.23166306526E+03  0.23166306527E+03  0.25500000000E-02 0.  1.
         -2   -1    0    0    0  501 -0.00000000000E+00 -0.00000000000E+00 -0.34083251358E+03  0.34083251359E+03  0.25500000000E-02 0. -1.
    5000001    1    1    2    0    0  0.15532631630E+03 -0.16599385465E+03 -0.47162896744E+02  0.28483251771E+03  0.16500000000E+03 0.  0.
   -5000001    1    1    2    0    0 -0.15532631630E+03  0.16599385465E+03 -0.62006551578E+02  0.28766306115E+03  0.16500000000E+03 0.  0.
<mgrwt>
<rscale>  0 0.56199041E+03</rscale>
<asrwt>0</asrwt>
<pdfrwt beam="1">  1        2 0.33094724E-01 0.56199041E+03</pdfrwt>
<pdfrwt beam="2">  1       -2 0.48690359E-01 0.56199041E+03</pdfrwt>
<totfact> 0.64037567E+02</totfact>
</mgrwt>
</event>
<event>
 4    1  0.5280257E-005  0.4884672E+03  0.7818608E-02  0.1016834E+00
          2   -1    0    0  501    0  0.00000000000E+00  0.00000000000E+00  0.28894919582E+04  0.28894919582E+04  0.25500000000E-02 0.  1.
         -2   -1    0    0    0  501 -0.00000000000E+00 -0.00000000000E+00 -0.20643788844E+02  0.20643789001E+02  0.25500000000E-02 0. -1.
    5000001    1    1    2    0    0 -0.13693223176E+03  0.77812053977E+02  0.91436494896E+03  0.94238708169E+03  0.16500000000E+03 0.  0.
   -5000001    1    1    2    0    0  0.13693223176E+03 -0.77812053977E+02  0.19544832204E+04  0.19677486655E+04  0.16500000000E+03 0.  0.
<mgrwt>
<rscale>  0 0.48846724E+03</rscale>
<asrwt>0</asrwt>
<pdfrwt beam="1">  1        2 0.41278451E+00 0.48846724E+03</pdfrwt>
<pdfrwt beam="2">  1       -2 0.29491131E-02 0.48846724E+03</pdfrwt>
<totfact> 0.13462063E+03</totfact>
</mgrwt>
</event>
<event>
 4    1  0.5280257E-005  0.4171442E+03  0.7818608E-02  0.1038000E+00
         -2   -1    0    0    0  501 -0.00000000000E+00  0.00000000000E+00  0.11681512452E+04  0.11681512452E+04  0.25500000000E-02 0. -1.
          2   -1    0    0  501    0  0.00000000000E+00 -0.00000000000E+00 -0.37240318096E+02  0.37240318184E+02  0.25500000000E-02 0.  1.
    5000001    1    1    2    0    0  0.74149471421E+02 -0.63288543867E+02  0.32763118525E+03  0.37956656524E+03  0.16500000000E+03 0.  0.
   -5000001    1    1    2    0    0 -0.74149471421E+02  0.63288543867E+02  0.80327974181E+03  0.82582499811E+03  0.16500000000E+03 0.  0.
<mgrwt>
<rscale>  0 0.41714421E+03</rscale>
<asrwt>0</asrwt>
<pdfrwt beam="1">  1        2 0.53200446E-02 0.41714421E+03</pdfrwt>
<pdfrwt beam="2">  1       -2 0.16687878E+00 0.41714421E+03</pdfrwt>
<totfact> 0.34746417E+02</totfact>
</mgrwt>
</event>
<event>
 4    1  0.5280257E-005  0.4081927E+03  0.7818608E-02  0.1040979E+00
         -2   -1    0    0    0  501 -0.00000000000E+00  0.00000000000E+00  0.57231163570E+02  0.57231163627E+02  0.25500000000E-02 0. -1.
          2   -1    0    0  501    0  0.00000000000E+00 -0.00000000000E+00 -0.72784343394E+03  0.72784343395E+03  0.25500000000E-02 0.  1.
    5000001    1    1    2    0    0  0.46549329772E+02 -0.24210611413E+02 -0.12747170892E+03  0.21500472177E+03  0.16500000000E+03 0.  0.
   -5000001    1    1    2    0    0 -0.46549329772E+02  0.24210611413E+02 -0.54314056146E+03  0.57006987581E+03  0.16500000000E+03 0.  0.
<mgrwt>
<rscale>  0 0.40819273E+03</rscale>
<asrwt>0</asrwt>
<pdfrwt beam="1">  1        2 0.10397763E+00 0.40819273E+03</pdfrwt>
<pdfrwt beam="2">  1       -2 0.81758809E-02 0.40819273E+03</pdfrwt>
<totfact> 0.40276991E+03</totfact>
</mgrwt>
</event>
<event>
 4    1  0.5280257E-005  0.7032068E+03  0.7818608E-02  0.9711764E-01
          2   -1    0    0  501    0  0.00000000000E+00  0.00000000000E+00  0.22593475634E+03  0.22593475635E+03  0.25500000000E-02 0.  1.
         -2   -1    0    0    0  501 -0.00000000000E+00 -0.00000000000E+00 -0.54717101528E+03  0.54717101529E+03  0.25500000000E-02 0. -1.
    5000001    1    1    2    0    0 -0.20855409429E+03  0.16717365721E+03  0.13066619839E+02  0.31438444374E+03  0.16500000000E+03 0.  0.
   -5000001    1    1    2    0    0  0.20855409429E+03 -0.16717365721E+03 -0.33430287878E+03  0.45872132790E+03  0.16500000000E+03 0.  0.
<mgrwt>
<rscale>  0 0.70320680E+03</rscale>
<asrwt>0</asrwt>
<pdfrwt beam="1">  1        2 0.32276394E-01 0.70320680E+03</pdfrwt>
<pdfrwt beam="2">  1       -2 0.78167288E-01 0.70320680E+03</pdfrwt>
<totfact> 0.24083052E+02</totfact>
</mgrwt>
</event>
<event>
 4    1  0.5280257E-005  0.3538865E+03  0.7818608E-02  0.1061031E+00
         -2   -1    0    0    0  501 -0.00000000000E+00  0.00000000000E+00  0.12892040747E+02  0.12892040999E+02  0.25500000000E-02 0. -1.
          2   -1    0    0  501    0  0.00000000000E+00 -0.00000000000E+00 -0.24285460168E+04  0.24285460168E+04  0.25500000000E-02 0.  1.
    5000001    1    1    2    0    0  0.45783421959E+02  0.21275930544E+02 -0.93752207186E+03  0.95326880898E+03  0.16500000000E+03 0.  0.
   -5000001    1    1    2    0    0 -0.45783421959E+02 -0.21275930544E+02 -0.14781319042E+04  0.14881692489E+04  0.16500000000E+03 0.  0.
<mgrwt>
<rscale>  0 0.35388650E+03</rscale>
<asrwt>0</asrwt>
<pdfrwt beam="1">  1        2 0.34693485E+00 0.35388650E+03</pdfrwt>
<pdfrwt beam="2">  1       -2 0.18417217E-02 0.35388650E+03</pdfrwt>
<totfact> 0.47421719E+03</totfact>
</mgrwt>
</event>
<event>
 4    1  0.5280257E-005  0.6018867E+03  0.7818608E-02  0.9901499E-01
          2   -1    0    0  501    0  0.00000000000E+00  0.00000000000E+00  0.24432757027E+03  0.24432757029E+03  0.25500000000E-02 0.  1.
         -2   -1    0    0    0  501 -0.00000000000E+00 -0.00000000000E+00 -0.37067824068E+03  0.37067824068E+03  0.25500000000E-02 0. -1.
    5000001    1    1    2    0    0  0.19173477667E+03 -0.49360346273E+02  0.95592405448E+02  0.27488466008E+03  0.16500000000E+03 0.  0.
   -5000001    1    1    2    0    0 -0.19173477667E+03  0.49360346273E+02 -0.22194307585E+03  0.34012115089E+03  0.16500000000E+03 0.  0.
<mgrwt>
<rscale>  0 0.60188675E+03</rscale>
<asrwt>0</asrwt>
<pdfrwt beam="1">  1        2 0.34903939E-01 0.60188675E+03</pdfrwt>
<pdfrwt beam="2">  1       -2 0.52954034E-01 0.60188675E+03</pdfrwt>
<totfact> 0.50863399E+02</totfact>
</mgrwt>
</event>
<event>
 4    1  0.5280257E-005  0.5451918E+03  0.7818608E-02  0.1002613E+00
          2   -1    0    0  501    0  0.00000000000E+00  0.00000000000E+00  0.92961872232E+03  0.92961872232E+03  0.25500000000E-02 0.  1.
         -2   -1    0    0    0  501 -0.00000000000E+00 -0.00000000000E+00 -0.79934405898E+02  0.79934405938E+02  0.25500000000E-02 0. -1.
    5000001    1    1    2    0    0 -0.20629316438E+03 -0.66397284320E+02  0.44496156643E+03  0.52170994301E+03  0.16500000000E+03 0.  0.
   -5000001    1    1    2    0    0  0.20629316438E+03  0.66397284320E+02  0.40472274999E+03  0.48784318525E+03  0.16500000000E+03 0.  0.
<mgrwt>
<rscale>  0 0.54519178E+03</rscale>
<asrwt>0</asrwt>
<pdfrwt beam="1">  1        2 0.13280268E+00 0.54519178E+03</pdfrwt>
<pdfrwt beam="2">  1       -2 0.11419201E-01 0.54519178E+03</pdfrwt>
<totfact> 0.17226857E+03</totfact>
</mgrwt>
</event>
<event>
 4    1  0.5280257E-005  0.4269244E+03  0.7818608E-02  0.1034836E+00
         -2   -1    0    0    0  501 -0.00000000000E+00  0.00000000000E+00  0.14255793447E+04  0.14255793447E+04  0.25500000000E-02 0. -1.
          2   -1    0    0  501    0  0.00000000000E+00 -0.00000000000E+00 -0.31963226615E+02  0.31963226716E+02  0.25500000000E-02 0.  1.
    5000001    1    1    2    0    0 -0.78584708804E+02 -0.85260934746E+02  0.45791869215E+03  0.50035938292E+03  0.16500000000E+03 0.  0.
   -5000001    1    1    2    0    0  0.78584708804E+02  0.85260934746E+02  0.93569742597E+03  0.95718318854E+03  0.16500000000E+03 0.  0.
<mgrwt>
<rscale>  0 0.42692442E+03</rscale>
<asrwt>0</asrwt>
<pdfrwt beam="1">  1        2 0.45661755E-02 0.42692442E+03</pdfrwt>
<pdfrwt beam="2">  1       -2 0.20365418E+00 0.42692442E+03</pdfrwt>
<totfact> 0.24232199E+02</totfact>
</mgrwt>
</event>
<event>
 4    1  0.5280257E-005  0.5921543E+03  0.7818608E-02  0.9921818E-01
          2   -1    0    0  501    0  0.00000000000E+00  0.00000000000E+00  0.11327481508E+04  0.11327481508E+04  0.25500000000E-02 0.  1.
         -2   -1    0    0    0  501 -0.00000000000E+00 -0.00000000000E+00 -0.77388489900E+02  0.77388489942E+02  0.25500000000E-02 0. -1.
    5000001    1    1    2    0    0  0.67094609792E+02  0.15329200642E+03  0.15962135002E+03  0.28408467272E+03  0.16500000000E+03 0.  0.
   -5000001    1    1    2    0    0 -0.67094609792E+02 -0.15329200642E+03  0.89573831086E+03  0.92605196800E+03  0.16500000000E+03 0.  0.
<mgrwt>
<rscale>  0 0.59215427E+03</rscale>
<asrwt>0</asrwt>
<pdfrwt beam="1">  1        2 0.16182116E+00 0.59215427E+03</pdfrwt>
<pdfrwt beam="2">  1       -2 0.11055499E-01 0.59215427E+03</pdfrwt>
<totfact> 0.13707171E+03</totfact>
</mgrwt>
</event>
<event>
 4    1  0.5280257E-005  0.6665555E+03  0.7818608E-02  0.9776201E-01
         -2   -1    0    0    0  501 -0.00000000000E+00  0.00000000000E+00  0.21010199789E+03  0.21010199791E+03  0.25500000000E-02 0.  1.
          2   -1    0    0  501    0  0.00000000000E+00 -0.00000000000E+00 -0.52866723544E+03  0.52866723545E+03  0.25500000000E-02 0. -1.
    5000001    1    1    2    0    0  0.16751491243E+03  0.23049545866E+03 -0.10212370753E+03  0.34473707951E+03  0.16500000000E+03 0.  0.
   -5000001    1    1    2    0    0 -0.16751491243E+03 -0.23049545866E+03 -0.21644153002E+03  0.39403215385E+03  0.16500000000E+03 0.  0.
<mgrwt>
<rscale>  0 0.66655545E+03</rscale>
<asrwt>0</asrwt>
<pdfrwt beam="1">  1        2 0.75523890E-01 0.66655545E+03</pdfrwt>
<pdfrwt beam="2">  1       -2 0.30014571E-01 0.66655545E+03</pdfrwt>
<totfact> 0.64765152E+02</totfact>
</mgrwt>
</event>
<event>
 4    1  0.5280257E-005  0.4390039E+03  0.7818608E-02  0.1031053E+00
         -2   -1    0    0    0  501 -0.00000000000E+00  0.00000000000E+00  0.27164850231E+02  0.27164850351E+02  0.25500000000E-02 0. -1.
          2   -1    0    0  501    0  0.00000000000E+00 -0.00000000000E+00 -0.17736565012E+04  0.17736565012E+04  0.25500000000E-02 0.  1.
    5000001    1    1    2    0    0 -0.13043617763E+03 -0.37813744291E+02 -0.66762497547E+03  0.70099328354E+03  0.16500000000E+03 0.  0.
   -5000001    1    1    2    0    0  0.13043617763E+03  0.37813744291E+02 -0.10788666755E+04  0.10998280680E+04  0.16500000000E+03 0.  0.
<mgrwt>
<rscale>  0 0.43900393E+03</rscale>
<asrwt>0</asrwt>
<pdfrwt beam="1">  1        2 0.25337943E+00 0.43900393E+03</pdfrwt>
<pdfrwt beam="2">  1       -2 0.38806940E-02 0.43900393E+03</pdfrwt>
<totfact> 0.32737356E+03</totfact>
</mgrwt>
</event>
<event>
 4    1  0.5280257E-005  0.6118181E+03  0.7818608E-02  0.9881186E-01
         -2   -1    0    0    0  501 -0.00000000000E+00  0.00000000000E+00  0.16521690549E+03  0.16521690551E+03  0.25500000000E-02 0. -1.
          2   -1    0    0  501    0  0.00000000000E+00 -0.00000000000E+00 -0.56640902794E+03  0.56640902795E+03  0.25500000000E-02 0.  1.
    5000001    1    1    2    0    0 -0.66132620493E+02  0.11650203811E+03  0.62509645326E+02  0.22153713941E+03  0.16500000000E+03 0.  0.
   -5000001    1    1    2    0    0  0.66132620493E+02 -0.11650203811E+03 -0.46370176778E+03  0.51008879405E+03  0.16500000000E+03 0.  0.
<mgrwt>
<rscale>  0 0.61181810E+03</rscale>
<asrwt>0</asrwt>
<pdfrwt beam="1">  1        2 0.80915574E-01 0.61181810E+03</pdfrwt>
<pdfrwt beam="2">  1       -2 0.23602415E-01 0.61181810E+03</pdfrwt>
<totfact> 0.92592420E+02</totfact>
</mgrwt>
</event>
<event>
 4    1  0.5280257E-005  0.4054889E+03  0.7818608E-02  0.1041895E+00
         -2   -1    0    0    0  501 -0.00000000000E+00  0.00000000000E+00  0.34500110647E+02  0.34500110741E+02  0.25500000000E-02 0. -1.
          2   -1    0    0  501    0  0.00000000000E+00 -0.00000000000E+00 -0.11914546021E+04  0.11914546021E+04  0.25500000000E-02 0.  1.
    5000001    1    1    2    0    0 -0.11459766451E+03 -0.20832142373E+02 -0.52492698938E+03  0.56244106095E+03  0.16500000000E+03 0.  0.
   -5000001    1    1    2    0    0  0.11459766451E+03  0.20832142373E+02 -0.63202750204E+03  0.66351365186E+03  0.16500000000E+03 0.  0.
<mgrwt>
<rscale>  0 0.40548892E+03</rscale>
<asrwt>0</asrwt>
<pdfrwt beam="1">  1        2 0.17020777E+00 0.40548892E+03</pdfrwt>
<pdfrwt beam="2">  1       -2 0.49285880E-02 0.40548892E+03</pdfrwt>
<totfact> 0.45571991E+03</totfact>
</mgrwt>
</event>
<event>
 4    1  0.5280257E-005  0.3672223E+03  0.7818608E-02  0.1055760E+00
          2   -1    0    0  501    0  0.00000000000E+00  0.00000000000E+00  0.43571383485E+03  0.43571383486E+03  0.25500000000E-02 0.  1.
         -2   -1    0    0    0  501 -0.00000000000E+00 -0.00000000000E+00 -0.77374311458E+02  0.77374311500E+02  0.25500000000E-02 0. -1.
    5000001    1    1    2    0    0  0.47088937204E+02 -0.53607676321E+02  0.12694858417E+03  0.22007292880E+03  0.16500000000E+03 0.  0.
   -5000001    1    1    2    0    0 -0.47088937204E+02  0.53607676321E+02  0.23139093922E+03  0.29301521756E+03  0.16500000000E+03 0.  0.
<mgrwt>
<rscale>  0 0.36722232E+03</rscale>
<asrwt>0</asrwt>
<pdfrwt beam="1">  1        2 0.62244835E-01 0.36722232E+03</pdfrwt>
<pdfrwt beam="2">  1       -2 0.11053473E-01 0.36722232E+03</pdfrwt>
<totfact> 0.44764089E+03</totfact>
</mgrwt>
</event>
<event>
 4    1  0.5280257E-005  0.4272396E+03  0.7818608E-02  0.1034736E+00
         -2   -1    0    0    0  501 -0.00000000000E+00  0.00000000000E+00  0.39726392683E+02  0.39726392764E+02  0.25500000000E-02 0. -1.
          2   -1    0    0  501    0  0.00000000000E+00 -0.00000000000E+00 -0.11486926464E+04  0.11486926464E+04  0.25500000000E-02 0.  1.
    5000001    1    1    2    0    0 -0.43372305066E+02 -0.11943848313E+03 -0.42219639144E+03  0.47076692858E+03  0.16500000000E+03 0.  0.
   -5000001    1    1    2    0    0  0.43372305066E+02  0.11943848313E+03 -0.68676986232E+03  0.71765211063E+03  0.16500000000E+03 0.  0.
<mgrwt>
<rscale>  0 0.42723958E+03</rscale>
<asrwt>0</asrwt>
<pdfrwt beam="1">  1        2 0.16409893E+00 0.42723958E+03</pdfrwt>
<pdfrwt beam="2">  1       -2 0.56751997E-02 0.42723958E+03</pdfrwt>
<totfact> 0.38752301E+03</totfact>
</mgrwt>
</event>
<event>
 4    1  0.5280257E-005  0.5161253E+03  0.7818608E-02  0.1009654E+00
         -2   -1    0    0    0  501 -0.00000000000E+00  0.00000000000E+00  0.98289735005E+03  0.98289735005E+03  0.25500000000E-02 0. -1.
          2   -1    0    0  501    0  0.00000000000E+00 -0.00000000000E+00 -0.67755118956E+02  0.67755119004E+02  0.25500000000E-02 0.  1.
    5000001    1    1    2    0    0  0.13160372475E+03  0.10068161668E+03  0.67977464316E+03  0.71887056817E+03  0.16500000000E+03 0.  0.
   -5000001    1    1    2    0    0 -0.13160372475E+03 -0.10068161668E+03  0.23536758794E+03  0.33178190089E+03  0.16500000000E+03 0.  0.
<mgrwt>
<rscale>  0 0.51612528E+03</rscale>
<asrwt>0</asrwt>
<pdfrwt beam="1">  1        2 0.96793031E-02 0.51612528E+03</pdfrwt>
<pdfrwt beam="2">  1       -2 0.14041390E+00 0.51612528E+03</pdfrwt>
<totfact> 0.25077680E+02</totfact>
</mgrwt>
</event>
<event>
 4    1  0.5280257E-005  0.4907343E+03  0.7818608E-02  0.1016226E+00
         -2   -1    0    0    0  501 -0.00000000000E+00  0.00000000000E+00  0.29651024257E+03  0.29651024258E+03  0.25500000000E-02 0. -1.
          2   -1    0    0  501    0  0.00000000000E+00 -0.00000000000E+00 -0.20304538262E+03  0.20304538264E+03  0.25500000000E-02 0.  1.
    5000001    1    1    2    0    0 -0.17263456659E+03  0.40353287682E+02  0.86796654814E+02  0.25727366887E+03  0.16500000000E+03 0.  0.
   -5000001    1    1    2    0    0  0.17263456659E+03 -0.40353287682E+02  0.66682051282E+01  0.24228195634E+03  0.16500000000E+03 0.  0.
<mgrwt>
<rscale>  0 0.49073429E+03</rscale>
<asrwt>0</asrwt>
<pdfrwt beam="1">  1        2 0.29006483E-01 0.49073429E+03</pdfrwt>
<pdfrwt beam="2">  1       -2 0.42358606E-01 0.49073429E+03</pdfrwt>
<totfact> 0.97850798E+02</totfact>
</mgrwt>
</event>
<event>
 4    1  0.5280257E-005  0.5205655E+03  0.7818608E-02  0.1008546E+00
          2   -1    0    0  501    0  0.00000000000E+00  0.00000000000E+00  0.59228943254E+03  0.59228943254E+03  0.25500000000E-02 0.  1.
         -2   -1    0    0    0  501 -0.00000000000E+00 -0.00000000000E+00 -0.11438176289E+03  0.11438176292E+03  0.25500000000E-02 0. -1.
    5000001    1    1    2    0    0 -0.24537006390E+02 -0.19978559712E+03  0.23569583337E+03  0.35113227617E+03  0.16500000000E+03 0.  0.
   -5000001    1    1    2    0    0  0.24537006390E+02  0.19978559712E+03  0.24221183628E+03  0.35553891930E+03  0.16500000000E+03 0.  0.
<mgrwt>
<rscale>  0 0.52056550E+03</rscale>
<asrwt>0</asrwt>
<pdfrwt beam="1">  1        2 0.84612775E-01 0.52056550E+03</pdfrwt>
<pdfrwt beam="2">  1       -2 0.16340252E-01 0.52056550E+03</pdfrwt>
<totfact> 0.16651862E+03</totfact>
</mgrwt>
</event>
<event>
 4    1  0.5280257E-005  0.7542622E+03  0.7818608E-02  0.9628687E-01
          2   -1    0    0  501    0  0.00000000000E+00  0.00000000000E+00  0.22561368382E+03  0.22561368384E+03  0.25500000000E-02 0.  1.
         -2   -1    0    0    0  501 -0.00000000000E+00 -0.00000000000E+00 -0.63040448912E+03  0.63040448913E+03  0.25500000000E-02 0. -1.
    5000001    1    1    2    0    0  0.29495441786E+03 -0.26799722896E+02 -0.14924055884E+02  0.33935830800E+03  0.16500000000E+03 0.  0.
   -5000001    1    1    2    0    0 -0.29495441786E+03  0.26799722896E+02 -0.38986674942E+03  0.51665986497E+03  0.16500000000E+03 0.  0.
<mgrwt>
<rscale>  0 0.75426223E+03</rscale>
<asrwt>0</asrwt>
<pdfrwt beam="1">  1        2 0.32230526E-01 0.75426223E+03</pdfrwt>
<pdfrwt beam="2">  1       -2 0.90057784E-01 0.75426223E+03</pdfrwt>
<totfact> 0.17465584E+02</totfact>
</mgrwt>
</event>
<event>
 4    1  0.5280257E-005  0.6690259E+03  0.7818608E-02  0.9771719E-01
          2   -1    0    0  501    0  0.00000000000E+00  0.00000000000E+00  0.28323001511E+04  0.28323001511E+04  0.25500000000E-02 0.  1.
         -2   -1    0    0    0  501 -0.00000000000E+00 -0.00000000000E+00 -0.39508146110E+02  0.39508146193E+02  0.25500000000E-02 0. -1.
    5000001    1    1    2    0    0 -0.28699599336E+03  0.45440009077E+02  0.14632317748E+04  0.15009009699E+04  0.16500000000E+03 0.  0.
   -5000001    1    1    2    0    0  0.28699599336E+03 -0.45440009077E+02  0.13295602303E+04  0.13709073275E+04  0.16500000000E+03 0.  0.
<mgrwt>
<rscale>  0 0.66902594E+03</rscale>
<asrwt>0</asrwt>
<pdfrwt beam="1">  1        2 0.40461432E+00 0.66902594E+03</pdfrwt>
<pdfrwt beam="2">  1       -2 0.56440206E-02 0.66902594E+03</pdfrwt>
<totfact> 0.52423697E+02</totfact>
</mgrwt>
</event>
<event>
 4    1  0.5280257E-005  0.8618339E+03  0.7818608E-02  0.9474590E-01
         -2   -1    0    0    0  501 -0.00000000000E+00  0.00000000000E+00  0.30703103148E+03  0.30703103149E+03  0.25500000000E-02 0. -1.
          2   -1    0    0  501    0  0.00000000000E+00 -0.00000000000E+00 -0.60479032192E+03  0.60479032193E+03  0.25500000000E-02 0.  1.
    5000001    1    1    2    0    0 -0.13654670604E+03  0.32740282424E+03 -0.33998521524E+03  0.51831704471E+03  0.16500000000E+03 0.  0.
   -5000001    1    1    2    0    0  0.13654670604E+03 -0.32740282424E+03  0.42225924803E+02  0.39350430871E+03  0.16500000000E+03 0.  0.
<mgrwt>
<rscale>  0 0.86183385E+03</rscale>
<asrwt>0</asrwt>
<pdfrwt beam="1">  1        2 0.86398617E-01 0.86183385E+03</pdfrwt>
<pdfrwt beam="2">  1       -2 0.43861576E-01 0.86183385E+03</pdfrwt>
<totfact> 0.26586451E+02</totfact>
</mgrwt>
</event>
<event>
 4    1  0.5280257E-005  0.3939887E+03  0.7818608E-02  0.1045881E+00
         -2   -1    0    0    0  501 -0.00000000000E+00  0.00000000000E+00  0.12871490701E+03  0.12871490703E+03  0.25500000000E-02 0. -1.
          2   -1    0    0  501    0  0.00000000000E+00 -0.00000000000E+00 -0.30149400266E+03  0.30149400267E+03  0.25500000000E-02 0.  1.
    5000001    1    1    2    0    0  0.69049106488E+02 -0.66603424119E+02 -0.13963708137E+03  0.23648955517E+03  0.16500000000E+03 0.  0.
   -5000001    1    1    2    0    0 -0.69049106488E+02  0.66603424119E+02 -0.33142014290E+02  0.19371935454E+03  0.16500000000E+03 0.  0.
<mgrwt>
<rscale>  0 0.39398869E+03</rscale>
<asrwt>0</asrwt>
<pdfrwt beam="1">  1        2 0.43070572E-01 0.39398869E+03</pdfrwt>
<pdfrwt beam="2">  1       -2 0.18387844E-01 0.39398869E+03</pdfrwt>
<totfact> 0.28821576E+03</totfact>
</mgrwt>
</event>
<event>
 4    1  0.5280257E-005  0.3820379E+03  0.7818608E-02  0.1050183E+00
         -2   -1    0    0    0  501 -0.00000000000E+00  0.00000000000E+00  0.21903207518E+02  0.21903207667E+02  0.25500000000E-02 0. -1.
          2   -1    0    0  501    0  0.00000000000E+00 -0.00000000000E+00 -0.16658860540E+04  0.16658860540E+04  0.25500000000E-02 0.  1.
    5000001    1    1    2    0    0  0.15650358651E+02  0.86194990821E+02 -0.64590014503E+03  0.67237378557E+03  0.16500000000E+03 0.  0.
   -5000001    1    1    2    0    0 -0.15650358651E+02 -0.86194990821E+02 -0.99808270142E+03  0.10154154761E+04  0.16500000000E+03 0.  0.
<mgrwt>
<rscale>  0 0.38203795E+03</rscale>
<asrwt>0</asrwt>
<pdfrwt beam="1">  1        2 0.23798364E+00 0.38203795E+03</pdfrwt>
<pdfrwt beam="2">  1       -2 0.31290307E-02 0.38203795E+03</pdfrwt>
<totfact> 0.51362776E+03</totfact>
</mgrwt>
</event>
<event>
 4    1  0.5280257E-005  0.6471257E+03  0.7818608E-02  0.9812188E-01
         -2   -1    0    0    0  501 -0.00000000000E+00  0.00000000000E+00  0.52711636462E+02  0.52711636523E+02  0.25500000000E-02 0. -1.
          2   -1    0    0  501    0  0.00000000000E+00 -0.00000000000E+00 -0.19861443793E+04  0.19861443793E+04  0.25500000000E-02 0.  1.
    5000001    1    1    2    0    0 -0.63538345383E+02  0.24934576265E+03 -0.63242998859E+03  0.70242659486E+03  0.16500000000E+03 0.  0.
   -5000001    1    1    2    0    0  0.63538345383E+02 -0.24934576265E+03 -0.13010027543E+04  0.13364294210E+04  0.16500000000E+03 0.  0.
<mgrwt>
<rscale>  0 0.64712571E+03</rscale>
<asrwt>0</asrwt>
<pdfrwt beam="1">  1        2 0.28373487E+00 0.64712571E+03</pdfrwt>
<pdfrwt beam="2">  1       -2 0.75302350E-02 0.64712571E+03</pdfrwt>
<totfact> 0.90630898E+02</totfact>
</mgrwt>
</event>
<event>
 4    1  0.5280257E-005  0.3719245E+03  0.7818608E-02  0.1053960E+00
          2   -1    0    0  501    0  0.00000000000E+00  0.00000000000E+00  0.34870497024E+03  0.34870497025E+03  0.25500000000E-02 0.  1.
         -2   -1    0    0    0  501 -0.00000000000E+00 -0.00000000000E+00 -0.99172557440E+02  0.99172557473E+02  0.25500000000E-02 0. -1.
    5000001    1    1    2    0    0 -0.13323650182E+02 -0.72943701265E+02  0.72849816538E+02  0.19501384304E+03  0.16500000000E+03 0.  0.
   -5000001    1    1    2    0    0  0.13323650182E+02  0.72943701265E+02  0.17668259626E+03  0.25286368468E+03  0.16500000000E+03 0.  0.
<mgrwt>
<rscale>  0 0.37192453E+03</rscale>
<asrwt>0</asrwt>
<pdfrwt beam="1">  1        2 0.49814996E-01 0.37192453E+03</pdfrwt>
<pdfrwt beam="2">  1       -2 0.14167508E-01 0.37192453E+03</pdfrwt>
<totfact> 0.38076598E+03</totfact>
</mgrwt>
</event>
<event>
 4    1  0.5280257E-005  0.4997629E+03  0.7818608E-02  0.1013841E+00
          2   -1    0    0  501    0  0.00000000000E+00  0.00000000000E+00  0.31909010386E+03  0.31909010387E+03  0.25500000000E-02 0.  1.
         -2   -1    0    0    0  501 -0.00000000000E+00 -0.00000000000E+00 -0.19568368794E+03  0.19568368795E+03  0.25500000000E-02 0. -1.
    5000001    1    1    2    0    0 -0.17310841015E+03  0.54648041376E+02  0.11070087100E+03  0.26913307662E+03  0.16500000000E+03 0.  0.
   -5000001    1    1    2    0    0  0.17310841015E+03 -0.54648041376E+02  0.12705544922E+02  0.24564071520E+03  0.16500000000E+03 0.  0.
<mgrwt>
<rscale>  0 0.49976286E+03</rscale>
<asrwt>0</asrwt>
<pdfrwt beam="1">  1        2 0.45584300E-01 0.49976286E+03</pdfrwt>
<pdfrwt beam="2">  1       -2 0.27954813E-01 0.49976286E+03</pdfrwt>
<totfact> 0.12988088E+03</totfact>
</mgrwt>
</event>
<event>
 4    1  0.5280257E-005  0.7383210E+03  0.7818608E-02  0.9653853E-01
         -2   -1    0    0    0  501 -0.00000000000E+00  0.00000000000E+00  0.96211252673E+02  0.96211252707E+02  0.25500000000E-02 0. -1.
          2   -1    0    0  501    0  0.00000000000E+00 -0.00000000000E+00 -0.14164609464E+04  0.14164609464E+04  0.25500000000E-02 0.  1.
    5000001    1    1    2    0    0 -0.31016314740E+03  0.93796906861E+02 -0.79059729549E+03  0.87021153829E+03  0.16500000000E+03 0.  0.
   -5000001    1    1    2    0    0  0.31016314740E+03 -0.93796906861E+02 -0.52965239825E+03  0.64246066083E+03  0.16500000000E+03 0.  0.
<mgrwt>
<rscale>  0 0.73832102E+03</rscale>
<asrwt>0</asrwt>
<pdfrwt beam="1">  1        2 0.20235155E+00 0.73832102E+03</pdfrwt>
<pdfrwt beam="2">  1       -2 0.13744465E-01 0.73832102E+03</pdfrwt>
<totfact> 0.66374494E+02</totfact>
</mgrwt>
</event>
<event>
 4    1  0.5280257E-005  0.4768434E+03  0.7818608E-02  0.1020006E+00
          2   -1    0    0  501    0  0.00000000000E+00  0.00000000000E+00  0.82338129038E+03  0.82338129039E+03  0.25500000000E-02 0.  1.
         -2   -1    0    0    0  501 -0.00000000000E+00 -0.00000000000E+00 -0.69038381608E+02  0.69038381655E+02  0.25500000000E-02 0. -1.
    5000001    1    1    2    0    0  0.85420724828E+02  0.14512212780E+03  0.31066602354E+03  0.38999424405E+03  0.16500000000E+03 0.  0.
   -5000001    1    1    2    0    0 -0.85420724828E+02 -0.14512212780E+03  0.44367688523E+03  0.50242542799E+03  0.16500000000E+03 0.  0.
<mgrwt>
<rscale>  0 0.47684342E+03</rscale>
<asrwt>0</asrwt>
<pdfrwt beam="1">  1        2 0.11762589E+00 0.47684342E+03</pdfrwt>
<pdfrwt beam="2">  1       -2 0.98626269E-02 0.47684342E+03</pdfrwt>
<totfact> 0.25634019E+03</totfact>
</mgrwt>
</event>
<event>
 4    1  0.5280257E-005  0.7535468E+03  0.7818608E-02  0.9629802E-01
         -2   -1    0    0    0  501 -0.00000000000E+00  0.00000000000E+00  0.15192956410E+03  0.15192956412E+03  0.25500000000E-02 0. -1.
          2   -1    0    0  501    0  0.00000000000E+00 -0.00000000000E+00 -0.93436843530E+03  0.93436843531E+03  0.25500000000E-02 0.  1.
    5000001    1    1    2    0    0 -0.25894040554E+03  0.61391081823E+02 -0.69331280964E+03  0.76074085637E+03  0.16500000000E+03 0.  0.
   -5000001    1    1    2    0    0  0.25894040554E+03 -0.61391081823E+02 -0.89126061565E+02  0.32555714306E+03  0.16500000000E+03 0.  0.
<mgrwt>
<rscale>  0 0.75354678E+03</rscale>
<asrwt>0</asrwt>
<pdfrwt beam="1">  1        2 0.13348120E+00 0.75354678E+03</pdfrwt>
<pdfrwt beam="2">  1       -2 0.21704224E-01 0.75354678E+03</pdfrwt>
<totfact> 0.57240839E+02</totfact>
</mgrwt>
</event>
<event>
 4    1  0.5280257E-005  0.5395873E+03  0.7818608E-02  0.1003933E+00
          2   -1    0    0  501    0  0.00000000000E+00  0.00000000000E+00  0.11652471645E+04  0.11652471645E+04  0.25500000000E-02 0.  1.
         -2   -1    0    0    0  501 -0.00000000000E+00 -0.00000000000E+00 -0.62466246352E+02  0.62466246404E+02  0.25500000000E-02 0. -1.
    5000001    1    1    2    0    0 -0.13749223437E+03  0.15957361230E+03  0.63006931721E+03  0.68452917889E+03  0.16500000000E+03 0.  0.
   -5000001    1    1    2    0    0  0.13749223437E+03 -0.15957361230E+03  0.47271160090E+03  0.54318423199E+03  0.16500000000E+03 0.  0.
<mgrwt>
<rscale>  0 0.53958731E+03</rscale>
<asrwt>0</asrwt>
<pdfrwt beam="1">  1        2 0.16646389E+00 0.53958731E+03</pdfrwt>
<pdfrwt beam="2">  1       -2 0.89237489E-02 0.53958731E+03</pdfrwt>
<totfact> 0.18595867E+03</totfact>
</mgrwt>
</event>
<event>
 4    1  0.5280257E-005  0.6588298E+03  0.7818608E-02  0.9790350E-01
         -2   -1    0    0    0  501 -0.00000000000E+00  0.00000000000E+00  0.18823244987E+03  0.18823244989E+03  0.25500000000E-02 0. -1.
          2   -1    0    0  501    0  0.00000000000E+00 -0.00000000000E+00 -0.57649035445E+03  0.57649035445E+03  0.25500000000E-02 0.  1.
    5000001    1    1    2    0    0 -0.19098441109E+03 -0.43213682341E+02  0.46415750159E+02  0.26023429729E+03  0.16500000000E+03 0.  0.
   -5000001    1    1    2    0    0  0.19098441109E+03  0.43213682341E+02 -0.43467365474E+03  0.50448850705E+03  0.16500000000E+03 0.  0.
<mgrwt>
<rscale>  0 0.65882985E+03</rscale>
<asrwt>0</asrwt>
<pdfrwt beam="1">  1        2 0.82355764E-01 0.65882985E+03</pdfrwt>
<pdfrwt beam="2">  1       -2 0.26890350E-01 0.65882985E+03</pdfrwt>
<totfact> 0.71669743E+02</totfact>
</mgrwt>
</event>
<event>
 4    1  0.5280257E-005  0.4611438E+03  0.7818608E-02  0.1024450E+00
          2   -1    0    0  501    0  0.00000000000E+00  0.00000000000E+00  0.11144921087E+04  0.11144921087E+04  0.25500000000E-02 0.  1.
         -2   -1    0    0    0  501 -0.00000000000E+00 -0.00000000000E+00 -0.47701906217E+02  0.47701906285E+02  0.25500000000E-02 0. -1.
    5000001    1    1    2    0    0  0.12447336885E+03 -0.10115502712E+03  0.57012835704E+03  0.61481485227E+03  0.16500000000E+03 0.  0.
   -5000001    1    1    2    0    0 -0.12447336885E+03  0.10115502712E+03  0.49666184545E+03  0.54737916273E+03  0.16500000000E+03 0.  0.
<mgrwt>
<rscale>  0 0.46114379E+03</rscale>
<asrwt>0</asrwt>
<pdfrwt beam="1">  1        2 0.15921316E+00 0.46114379E+03</pdfrwt>
<pdfrwt beam="2">  1       -2 0.68145578E-02 0.46114379E+03</pdfrwt>
<totfact> 0.30483888E+03</totfact>
</mgrwt>
</event>
<event>
 4    1  0.5280257E-005  0.4069649E+03  0.7818608E-02  0.1041394E+00
          2   -1    0    0  501    0  0.00000000000E+00  0.00000000000E+00  0.11777051336E+03  0.11777051339E+03  0.25500000000E-02 0.  1.
         -2   -1    0    0    0  501 -0.00000000000E+00 -0.00000000000E+00 -0.35157442607E+03  0.35157442608E+03  0.25500000000E-02 0. -1.
    5000001    1    1    2    0    0 -0.59048299665E+02 -0.10303900679E+03 -0.12697994753E+03  0.23969281526E+03  0.16500000000E+03 0.  0.
   -5000001    1    1    2    0    0  0.59048299665E+02  0.10303900679E+03 -0.10682396518E+03  0.22965212420E+03  0.16500000000E+03 0.  0.
<mgrwt>
<rscale>  0 0.40696487E+03</rscale>
<asrwt>0</asrwt>
<pdfrwt beam="1">  1        2 0.16824359E-01 0.40696487E+03</pdfrwt>
<pdfrwt beam="2">  1       -2 0.50224918E-01 0.40696487E+03</pdfrwt>
<totfact> 0.13045237E+03</totfact>
</mgrwt>
</event>
<event>
 4    1  0.5280257E-005  0.4893834E+03  0.7818608E-02  0.1016588E+00
          2   -1    0    0  501    0  0.00000000000E+00  0.00000000000E+00  0.17899883541E+03  0.17899883542E+03  0.25500000000E-02 0.  1.
         -2   -1    0    0    0  501 -0.00000000000E+00 -0.00000000000E+00 -0.33449394373E+03  0.33449394374E+03  0.25500000000E-02 0. -1.
    5000001    1    1    2    0    0 -0.31699607232E+02  0.83824487848E+02  0.86882118289E+02  0.20689348066E+03  0.16500000000E+03 0.  0.
   -5000001    1    1    2    0    0  0.31699607232E+02 -0.83824487848E+02 -0.24237722662E+03  0.30659929850E+03  0.16500000000E+03 0.  0.
<mgrwt>
<rscale>  0 0.48938339E+03</rscale>
<asrwt>0</asrwt>
<pdfrwt beam="1">  1        2 0.25571262E-01 0.48938339E+03</pdfrwt>
<pdfrwt beam="2">  1       -2 0.47784849E-01 0.48938339E+03</pdfrwt>
<totfact> 0.88876569E+02</totfact>
</mgrwt>
</event>
<event>
 4    1  0.5280257E-005  0.4738149E+03  0.7818608E-02  0.1020849E+00
          2   -1    0    0  501    0  0.00000000000E+00  0.00000000000E+00  0.20622096915E+03  0.20622096917E+03  0.25500000000E-02 0.  1.
         -2   -1    0    0    0  501 -0.00000000000E+00 -0.00000000000E+00 -0.27216022477E+03  0.27216022478E+03  0.25500000000E-02 0. -1.
    5000001    1    1    2    0    0  0.16049175863E+03 -0.20937160680E+02  0.19533217923E+02  0.23195369341E+03  0.16500000000E+03 0.  0.
   -5000001    1    1    2    0    0 -0.16049175863E+03  0.20937160680E+02 -0.85472473544E+02  0.24642750054E+03  0.16500000000E+03 0.  0.
<mgrwt>
<rscale>  0 0.47381492E+03</rscale>
<asrwt>0</asrwt>
<pdfrwt beam="1">  1        2 0.29460138E-01 0.47381492E+03</pdfrwt>
<pdfrwt beam="2">  1       -2 0.38880032E-01 0.47381492E+03</pdfrwt>
<totfact> 0.11352657E+03</totfact>
</mgrwt>
</event>
<event>
 4    1  0.5280257E-005  0.8496545E+03  0.7818608E-02  0.9490801E-01
          2   -1    0    0  501    0  0.00000000000E+00  0.00000000000E+00  0.37251626778E+04  0.37251626778E+04  0.25500000000E-02 0.  1.
         -2   -1    0    0    0  501 -0.00000000000E+00 -0.00000000000E+00 -0.48448406168E+02  0.48448406236E+02  0.25500000000E-02 0. -1.
    5000001    1    1    2    0    0  0.12208210085E+03 -0.22697886494E+03  0.31470840983E+04  0.31619276978E+04  0.16500000000E+03 0.  0.
   -5000001    1    1    2    0    0 -0.12208210085E+03  0.22697886494E+03  0.52963017340E+03  0.61168338628E+03  0.16500000000E+03 0.  0.
<mgrwt>
<rscale>  0 0.84965451E+03</rscale>
<asrwt>0</asrwt>
<pdfrwt beam="1">  1        2 0.53216614E+00 0.84965451E+03</pdfrwt>
<pdfrwt beam="2">  1       -2 0.69212003E-02 0.84965451E+03</pdfrwt>
<totfact> 0.11414204E+02</totfact>
</mgrwt>
</event>
<event>
 4    1  0.5280257E-005  0.3759343E+03  0.7818608E-02  0.1052447E+00
         -2   -1    0    0    0  501 -0.00000000000E+00  0.00000000000E+00  0.19213700584E+02  0.19213700754E+02  0.25500000000E-02 0. -1.
          2   -1    0    0  501    0  0.00000000000E+00 -0.00000000000E+00 -0.18388777289E+04  0.18388777289E+04  0.25500000000E-02 0.  1.
    5000001    1    1    2    0    0  0.68140347944E+02  0.56565193902E+02 -0.99012723823E+03  0.10076803442E+04  0.16500000000E+03 0.  0.
   -5000001    1    1    2    0    0 -0.68140347944E+02 -0.56565193902E+02 -0.82953679008E+03  0.85041108547E+03  0.16500000000E+03 0.  0.
<mgrwt>
<rscale>  0 0.37593428E+03</rscale>
<asrwt>0</asrwt>
<pdfrwt beam="1">  1        2 0.26269671E+00 0.37593428E+03</pdfrwt>
<pdfrwt beam="2">  1       -2 0.27448155E-02 0.37593428E+03</pdfrwt>
<totfact> 0.51276344E+03</totfact>
</mgrwt>
</event>
<event>
 4    1  0.5280257E-005  0.1081702E+04  0.7818608E-02  0.9223212E-01
         -2   -1    0    0    0  501 -0.00000000000E+00  0.00000000000E+00  0.19973526426E+03  0.19973526428E+03  0.25500000000E-02 0. -1.
          2   -1    0    0  501    0  0.00000000000E+00 -0.00000000000E+00 -0.14645371760E+04  0.14645371760E+04  0.25500000000E-02 0.  1.
    5000001    1    1    2    0    0 -0.42594748230E+03  0.24721278972E+03 -0.86446126103E+03  0.10084957575E+04  0.16500000000E+03 0.  0.
   -5000001    1    1    2    0    0  0.42594748230E+03 -0.24721278972E+03 -0.40034065074E+03  0.65577668281E+03  0.16500000000E+03 0.  0.
<mgrwt>
<rscale>  0 0.10817018E+04</rscale>
<asrwt>0</asrwt>
<pdfrwt beam="1">  1        2 0.20921959E+00 0.10817018E+04</pdfrwt>
<pdfrwt beam="2">  1       -2 0.28533610E-01 0.10817018E+04</pdfrwt>
<totfact> 0.17052241E+02</totfact>
</mgrwt>
</event>
<event>
 4    1  0.5280257E-005  0.5954574E+03  0.7818608E-02  0.9914876E-01
         -2   -1    0    0    0  501 -0.00000000000E+00  0.00000000000E+00  0.98286388166E+02  0.98286388200E+02  0.25500000000E-02 0. -1.
          2   -1    0    0  501    0  0.00000000000E+00 -0.00000000000E+00 -0.90187851278E+03  0.90187851278E+03  0.25500000000E-02 0.  1.
    5000001    1    1    2    0    0  0.12070825041E+03 -0.14536811978E+03 -0.67114437032E+03  0.71649294329E+03  0.16500000000E+03 0.  0.
   -5000001    1    1    2    0    0 -0.12070825041E+03  0.14536811978E+03 -0.13244775429E+03  0.28367195769E+03  0.16500000000E+03 0.  0.
<mgrwt>
<rscale>  0 0.59545741E+03</rscale>
<asrwt>0</asrwt>
<pdfrwt beam="1">  1        2 0.12883978E+00 0.59545741E+03</pdfrwt>
<pdfrwt beam="2">  1       -2 0.14040913E-01 0.59545741E+03</pdfrwt>
<totfact> 0.12741928E+03</totfact>
</mgrwt>
</event>
<event>
 4    1  0.5280257E-005  0.3859392E+03  0.7818608E-02  0.1048760E+00
          2   -1    0    0  501    0  0.00000000000E+00  0.00000000000E+00  0.80822194260E+03  0.80822194261E+03  0.25500000000E-02 0.  1.
         -2   -1    0    0    0  501 -0.00000000000E+00 -0.00000000000E+00 -0.46073071586E+02  0.46073071656E+02  0.25500000000E-02 0. -1.
    5000001    1    1    2    0    0  0.81895875475E+02 -0.36849484895E+02  0.47875810470E+03  0.51429480046E+03  0.16500000000E+03 0.  0.
   -5000001    1    1    2    0    0 -0.81895875475E+02  0.36849484895E+02  0.28339076631E+03  0.34000021381E+03  0.16500000000E+03 0.  0.
<mgrwt>
<rscale>  0 0.38593920E+03</rscale>
<asrwt>0</asrwt>
<pdfrwt beam="1">  1        2 0.11546028E+00 0.38593920E+03</pdfrwt>
<pdfrwt beam="2">  1       -2 0.65818674E-02 0.38593920E+03</pdfrwt>
<totfact> 0.49660739E+03</totfact>
</mgrwt>
</event>
<event>
 4    1  0.5280257E-005  0.5897342E+03  0.7818608E-02  0.9926936E-01
          2   -1    0    0  501    0  0.00000000000E+00  0.00000000000E+00  0.10967172567E+04  0.10967172567E+04  0.25500000000E-02 0.  1.
         -2   -1    0    0    0  501 -0.00000000000E+00 -0.00000000000E+00 -0.79278966756E+02  0.79278966797E+02  0.25500000000E-02 0. -1.
    5000001    1    1    2    0    0  0.20432413069E+03 -0.73730292949E+02  0.28543996693E+03  0.39482335443E+03  0.16500000000E+03 0.  0.
   -5000001    1    1    2    0    0 -0.20432413069E+03  0.73730292949E+02  0.73199832305E+03  0.78117286911E+03  0.16500000000E+03 0.  0.
<mgrwt>
<rscale>  0 0.58973421E+03</rscale>
<asrwt>0</asrwt>
<pdfrwt beam="1">  1        2 0.15667390E+00 0.58973421E+03</pdfrwt>
<pdfrwt beam="2">  1       -2 0.11325566E-01 0.58973421E+03</pdfrwt>
<totfact> 0.13824644E+03</totfact>
</mgrwt>
</event>
<event>
 4    1  0.5280257E-005  0.7517509E+03  0.7818608E-02  0.9632607E-01
          2   -1    0    0  501    0  0.00000000000E+00  0.00000000000E+00  0.39344658374E+04  0.39344658374E+04  0.25500000000E-02 0.  1.
         -2   -1    0    0    0  501 -0.00000000000E+00 -0.00000000000E+00 -0.35908903893E+02  0.35908903983E+02  0.25500000000E-02 0. -1.
    5000001    1    1    2    0    0 -0.25577233140E+03  0.18141833853E+03  0.26115809937E+04  0.26355098910E+04  0.16500000000E+03 0.  0.
   -5000001    1    1    2    0    0  0.25577233140E+03 -0.18141833853E+03  0.12869759398E+04  0.13348648503E+04  0.16500000000E+03 0.  0.
<mgrwt>
<rscale>  0 0.75175091E+03</rscale>
<asrwt>0</asrwt>
<pdfrwt beam="1">  1        2 0.56206659E+00 0.75175091E+03</pdfrwt>
<pdfrwt beam="2">  1       -2 0.51298431E-02 0.75175091E+03</pdfrwt>
<totfact> 0.13575615E+02</totfact>
</mgrwt>
</event>
<event>
 4    1  0.5280257E-005  0.5754795E+03  0.7818608E-02  0.9957626E-01
         -2   -1    0    0    0  501 -0.00000000000E+00  0.00000000000E+00  0.49883021145E+02  0.49883021210E+02  0.25500000000E-02 0. -1.
          2   -1    0    0  501    0  0.00000000000E+00 -0.00000000000E+00 -0.16597663984E+04  0.16597663984E+04  0.25500000000E-02 0.  1.
    5000001    1    1    2    0    0  0.17947100816E+03 -0.31043367642E+02 -0.36035255791E+03  0.43617943491E+03  0.16500000000E+03 0.  0.
   -5000001    1    1    2    0    0 -0.17947100816E+03  0.31043367642E+02 -0.12495308193E+04  0.12734699847E+04  0.16500000000E+03 0.  0.
<mgrwt>
<rscale>  0 0.57547950E+03</rscale>
<asrwt>0</asrwt>
<pdfrwt beam="1">  1        2 0.23710945E+00 0.57547950E+03</pdfrwt>
<pdfrwt beam="2">  1       -2 0.71261469E-02 0.57547950E+03</pdfrwt>
<totfact> 0.14511389E+03</totfact>
</mgrwt>
</event>
<event>
 4    1  0.5280257E-005  0.4420888E+03  0.7818608E-02  0.1030108E+00
          2   -1    0    0  501    0  0.00000000000E+00  0.00000000000E+00  0.48112787251E+03  0.48112787252E+03  0.25500000000E-02 0.  1.
         -2   -1    0    0    0  501 -0.00000000000E+00 -0.00000000000E+00 -0.10155434957E+03  0.10155434960E+03  0.25500000000E-02 0. -1.
    5000001    1    1    2    0    0 -0.15237275647E+02 -0.11930760344E+03  0.78188850968E+02  0.21864348887E+03  0.16500000000E+03 0.  0.
   -5000001    1    1    2    0    0  0.15237275647E+02  0.11930760344E+03  0.30138467198E+03  0.36403873326E+03  0.16500000000E+03 0.  0.
<mgrwt>
<rscale>  0 0.44208881E+03</rscale>
<asrwt>0</asrwt>
<pdfrwt beam="1">  1        2 0.68732553E-01 0.44208881E+03</pdfrwt>
<pdfrwt beam="2">  1       -2 0.14507764E-01 0.44208881E+03</pdfrwt>
<totfact> 0.25757102E+03</totfact>
</mgrwt>
</event>
<event>
 4    1  0.5280257E-005  0.4997403E+03  0.7818608E-02  0.1013847E+00
         -2   -1    0    0    0  501 -0.00000000000E+00  0.00000000000E+00  0.66803899328E+02  0.66803899377E+02  0.25500000000E-02 0. -1.
          2   -1    0    0  501    0  0.00000000000E+00 -0.00000000000E+00 -0.93460245553E+03  0.93460245553E+03  0.25500000000E-02 0.  1.
    5000001    1    1    2    0    0  0.15135016669E+03  0.46144276409E+02 -0.63601968611E+03  0.67585664776E+03  0.16500000000E+03 0.  0.
   -5000001    1    1    2    0    0 -0.15135016669E+03 -0.46144276409E+02 -0.23177887009E+03  0.32554970715E+03  0.16500000000E+03 0.  0.
<mgrwt>
<rscale>  0 0.49974029E+03</rscale>
<asrwt>0</asrwt>
<pdfrwt beam="1">  1        2 0.13351463E+00 0.49974029E+03</pdfrwt>
<pdfrwt beam="2">  1       -2 0.95434147E-02 0.49974029E+03</pdfrwt>
<totfact> 0.22884937E+03</totfact>
</mgrwt>
</event>
<event>
 4    1  0.5280257E-005  0.8162238E+03  0.7818608E-02  0.9536826E-01
          2   -1    0    0  501    0  0.00000000000E+00  0.00000000000E+00  0.16073808494E+04  0.16073808494E+04  0.25500000000E-02 0.  1.
         -2   -1    0    0    0  501 -0.00000000000E+00 -0.00000000000E+00 -0.10361907405E+03  0.10361907408E+03  0.25500000000E-02 0. -1.
    5000001    1    1    2    0    0  0.93965910361E+02 -0.30487562124E+03  0.34566692698E+03  0.49848707220E+03  0.16500000000E+03 0.  0.
   -5000001    1    1    2    0    0 -0.93965910361E+02  0.30487562124E+03  0.11580948484E+04  0.12125128513E+04  0.16500000000E+03 0.  0.
<mgrwt>
<rscale>  0 0.81622378E+03</rscale>
<asrwt>0</asrwt>
<pdfrwt beam="1">  1        2 0.22962583E+00 0.81622378E+03</pdfrwt>
<pdfrwt beam="2">  1       -2 0.14802725E-01 0.81622378E+03</pdfrwt>
<totfact> 0.46324109E+02</totfact>
</mgrwt>
</event>
<event>
 4    1  0.5280257E-005  0.3876301E+03  0.7818608E-02  0.1048149E+00
          2   -1    0    0  501    0  0.00000000000E+00  0.00000000000E+00  0.63012525370E+03  0.63012525371E+03  0.25500000000E-02 0.  1.
         -2   -1    0    0    0  501 -0.00000000000E+00 -0.00000000000E+00 -0.59613990198E+02  0.59613990252E+02  0.25500000000E-02 0. -1.
    5000001    1    1    2    0    0  0.95622868323E+02 -0.87738155922E+01  0.22574444862E+03  0.29564551217E+03  0.16500000000E+03 0.  0.
   -5000001    1    1    2    0    0 -0.95622868323E+02  0.87738155922E+01  0.34476681489E+03  0.39409373179E+03  0.16500000000E+03 0.  0.
<mgrwt>
<rscale>  0 0.38763014E+03</rscale>
<asrwt>0</asrwt>
<pdfrwt beam="1">  1        2 0.90017893E-01 0.38763014E+03</pdfrwt>
<pdfrwt beam="2">  1       -2 0.85162843E-02 0.38763014E+03</pdfrwt>
<totfact> 0.44813888E+03</totfact>
</mgrwt>
</event>
<event>
 4    1  0.5280257E-005  0.3932074E+03  0.7818608E-02  0.1046157E+00
         -2   -1    0    0    0  501 -0.00000000000E+00  0.00000000000E+00  0.26212306749E+03  0.26212306750E+03  0.25500000000E-02 0. -1.
          2   -1    0    0  501    0  0.00000000000E+00 -0.00000000000E+00 -0.14746133693E+03  0.14746133695E+03  0.25500000000E-02 0.  1.
    5000001    1    1    2    0    0  0.15637405581E+02 -0.77133622600E+02  0.13268969831E+03  0.22588864563E+03  0.16500000000E+03 0.  0.
   -5000001    1    1    2    0    0 -0.15637405581E+02  0.77133622600E+02 -0.18027967748E+02  0.18369575882E+03  0.16500000000E+03 0.  0.
<mgrwt>
<rscale>  0 0.39320742E+03</rscale>
<asrwt>0</asrwt>
<pdfrwt beam="1">  1        2 0.21065906E-01 0.39320742E+03</pdfrwt>
<pdfrwt beam="2">  1       -2 0.37446152E-01 0.39320742E+03</pdfrwt>
<totfact> 0.17812984E+03</totfact>
</mgrwt>
</event>
<event>
 4    1  0.5280257E-005  0.3624038E+03  0.7818608E-02  0.1057636E+00
          2   -1    0    0  501    0  0.00000000000E+00  0.00000000000E+00  0.11979907687E+04  0.11979907687E+04  0.25500000000E-02 0.  1.
         -2   -1    0    0    0  501 -0.00000000000E+00 -0.00000000000E+00 -0.27407668982E+02  0.27407669100E+02  0.25500000000E-02 0. -1.
    5000001    1    1    2    0    0  0.68577457780E+02 -0.11907205063E+02  0.67878239763E+03  0.70200797188E+03  0.16500000000E+03 0.  0.
   -5000001    1    1    2    0    0 -0.68577457780E+02  0.11907205063E+02  0.49180070210E+03  0.52339046594E+03  0.16500000000E+03 0.  0.
<mgrwt>
<rscale>  0 0.36240383E+03</rscale>
<asrwt>0</asrwt>
<pdfrwt beam="1">  1        2 0.17114152E+00 0.36240383E+03</pdfrwt>
<pdfrwt beam="2">  1       -2 0.39153817E-02 0.36240383E+03</pdfrwt>
<totfact> 0.64105945E+03</totfact>
</mgrwt>
</event>
<event>
 4    1  0.5280257E-005  0.5678108E+03  0.7818608E-02  0.9974535E-01
          2   -1    0    0  501    0  0.00000000000E+00  0.00000000000E+00  0.12002055101E+03  0.12002055103E+03  0.25500000000E-02 0.  1.
         -2   -1    0    0    0  501 -0.00000000000E+00 -0.00000000000E+00 -0.67157052151E+03  0.67157052151E+03  0.25500000000E-02 0. -1.
    5000001    1    1    2    0    0  0.17645467281E+03  0.13313043595E+03 -0.18207560575E+03  0.33050944123E+03  0.16500000000E+03 0.  0.
   -5000001    1    1    2    0    0 -0.17645467281E+03 -0.13313043595E+03 -0.36947436475E+03  0.46108163132E+03  0.16500000000E+03 0.  0.
<mgrwt>
<rscale>  0 0.56781076E+03</rscale>
<asrwt>0</asrwt>
<pdfrwt beam="1">  1        2 0.17145793E-01 0.56781076E+03</pdfrwt>
<pdfrwt beam="2">  1       -2 0.95938644E-01 0.56781076E+03</pdfrwt>
<totfact> 0.31426203E+02</totfact>
</mgrwt>
</event>
<event>
 4    1  0.5280257E-005  0.8425552E+03  0.7818608E-02  0.9500384E-01
          2   -1    0    0  501    0  0.00000000000E+00  0.00000000000E+00  0.37515532068E+03  0.37515532069E+03  0.25500000000E-02 0.  1.
         -2   -1    0    0    0  501 -0.00000000000E+00 -0.00000000000E+00 -0.47307023841E+03  0.47307023841E+03  0.25500000000E-02 0. -1.
    5000001    1    1    2    0    0  0.32542713209E+03  0.79715511940E+02 -0.24518572205E+03  0.44676438918E+03  0.16500000000E+03 0.  0.
   -5000001    1    1    2    0    0 -0.32542713209E+03 -0.79715511940E+02  0.14727080433E+03  0.40146116992E+03  0.16500000000E+03 0.  0.
<mgrwt>
<rscale>  0 0.84255520E+03</rscale>
<asrwt>0</asrwt>
<pdfrwt beam="1">  1        2 0.53593617E-01 0.84255520E+03</pdfrwt>
<pdfrwt beam="2">  1       -2 0.67581462E-01 0.84255520E+03</pdfrwt>
<totfact> 0.18761244E+02</totfact>
</mgrwt>
</event>
<event>
 4    1  0.5280257E-005  0.4497199E+03  0.7818608E-02  0.1027806E+00
          2   -1    0    0  501    0  0.00000000000E+00  0.00000000000E+00  0.28390314200E+03  0.28390314201E+03  0.25500000000E-02 0.  1.
         -2   -1    0    0    0  501 -0.00000000000E+00 -0.00000000000E+00 -0.17809596228E+03  0.17809596230E+03  0.25500000000E-02 0. -1.
    5000001    1    1    2    0    0 -0.30701423862E+02 -0.14892727421E+03  0.37837103445E+02  0.22754902071E+03  0.16500000000E+03 0.  0.
   -5000001    1    1    2    0    0  0.30701423862E+02  0.14892727421E+03  0.67970076273E+02  0.23445008360E+03  0.16500000000E+03 0.  0.
<mgrwt>
<rscale>  0 0.44971993E+03</rscale>
<asrwt>0</asrwt>
<pdfrwt beam="1">  1        2 0.40557591E-01 0.44971993E+03</pdfrwt>
<pdfrwt beam="2">  1       -2 0.25442281E-01 0.44971993E+03</pdfrwt>
<totfact> 0.17485090E+03</totfact>
</mgrwt>
</event>
<event>
 4    1  0.5280257E-005  0.4239664E+03  0.7818608E-02  0.1035783E+00
          2   -1    0    0  501    0  0.00000000000E+00  0.00000000000E+00  0.11479353388E+04  0.11479353388E+04  0.25500000000E-02 0.  1.
         -2   -1    0    0    0  501 -0.00000000000E+00 -0.00000000000E+00 -0.39145824048E+02  0.39145824131E+02  0.25500000000E-02 0. -1.
    5000001    1    1    2    0    0  0.69319777744E+02  0.95540643079E+02  0.38228079671E+03  0.43277806506E+03  0.16500000000E+03 0.  0.
   -5000001    1    1    2    0    0 -0.69319777744E+02 -0.95540643079E+02  0.72650871807E+03  0.75430309789E+03  0.16500000000E+03 0.  0.
<mgrwt>
<rscale>  0 0.42396639E+03</rscale>
<asrwt>0</asrwt>
<pdfrwt beam="1">  1        2 0.16399077E+00 0.42396639E+03</pdfrwt>
<pdfrwt beam="2">  1       -2 0.55922603E-02 0.42396639E+03</pdfrwt>
<totfact> 0.39682337E+03</totfact>
</mgrwt>
</event>
<event>
 4    1  0.5280257E-005  0.6066847E+03  0.7818608E-02  0.9891634E-01
          2   -1    0    0  501    0  0.00000000000E+00  0.00000000000E+00  0.14581470261E+04  0.14581470261E+04  0.25500000000E-02 0.  1.
         -2   -1    0    0    0  501 -0.00000000000E+00 -0.00000000000E+00 -0.63105156119E+02  0.63105156170E+02  0.25500000000E-02 0. -1.
    5000001    1    1    2    0    0 -0.36801302552E+02  0.23138869344E+03  0.94696872687E+03  0.98937850846E+03  0.16500000000E+03 0.  0.
   -5000001    1    1    2    0    0  0.36801302552E+02 -0.23138869344E+03  0.44807314309E+03  0.53187367379E+03  0.16500000000E+03 0.  0.
<mgrwt>
<rscale>  0 0.60668475E+03</rscale>
<asrwt>0</asrwt>
<pdfrwt beam="1">  1        2 0.20830671E+00 0.60668475E+03</pdfrwt>
<pdfrwt beam="2">  1       -2 0.90150225E-02 0.60668475E+03</pdfrwt>
<totfact> 0.12666264E+03</totfact>
</mgrwt>
</event>
<event>
 4    1  0.5280257E-005  0.3876677E+03  0.7818608E-02  0.1048136E+00
          2   -1    0    0  501    0  0.00000000000E+00  0.00000000000E+00  0.10038575896E+04  0.10038575896E+04  0.25500000000E-02 0.  1.
         -2   -1    0    0    0  501 -0.00000000000E+00 -0.00000000000E+00 -0.37427187525E+02  0.37427187612E+02  0.25500000000E-02 0. -1.
    5000001    1    1    2    0    0 -0.77485243954E+02  0.49625695111E+02  0.36675527380E+03  0.41255436430E+03  0.16500000000E+03 0.  0.
   -5000001    1    1    2    0    0  0.77485243954E+02 -0.49625695111E+02  0.59967512823E+03  0.62873041287E+03  0.16500000000E+03 0.  0.
<mgrwt>
<rscale>  0 0.38766773E+03</rscale>
<asrwt>0</asrwt>
<pdfrwt beam="1">  1        2 0.14340822E+00 0.38766773E+03</pdfrwt>
<pdfrwt beam="2">  1       -2 0.53467412E-02 0.38766773E+03</pdfrwt>
<totfact> 0.51492008E+03</totfact>
</mgrwt>
</event>
<event>
 4    1  0.5280257E-005  0.4778724E+03  0.7818608E-02  0.1019722E+00
          2   -1    0    0  501    0  0.00000000000E+00  0.00000000000E+00  0.67977212714E+03  0.67977212715E+03  0.25500000000E-02 0.  1.
         -2   -1    0    0    0  501 -0.00000000000E+00 -0.00000000000E+00 -0.83984768957E+02  0.83984768995E+02  0.25500000000E-02 0. -1.
    5000001    1    1    2    0    0 -0.49208913933E+02 -0.16479089136E+03  0.27077292710E+03  0.36072223820E+03  0.16500000000E+03 0.  0.
   -5000001    1    1    2    0    0  0.49208913933E+02  0.16479089136E+03  0.32501443109E+03  0.40303465794E+03  0.16500000000E+03 0.  0.
<mgrwt>
<rscale>  0 0.47787239E+03</rscale>
<asrwt>0</asrwt>
<pdfrwt beam="1">  1        2 0.97110305E-01 0.47787239E+03</pdfrwt>
<pdfrwt beam="2">  1       -2 0.11997824E-01 0.47787239E+03</pdfrwt>
<totfact> 0.23649159E+03</totfact>
</mgrwt>
</event>
<event>
 4    1  0.5280257E-005  0.9320477E+03  0.7818608E-02  0.9386384E-01
          2   -1    0    0  501    0  0.00000000000E+00  0.00000000000E+00  0.18935641769E+04  0.18935641769E+04  0.25500000000E-02 0.  1.
         -2   -1    0    0    0  501 -0.00000000000E+00 -0.00000000000E+00 -0.11469281934E+03  0.11469281936E+03  0.25500000000E-02 0. -1.
    5000001    1    1    2    0    0 -0.14829803694E+03  0.23642132714E+03  0.16813252184E+03  0.36521349453E+03  0.16500000000E+03 0.  0.
   -5000001    1    1    2    0    0  0.14829803694E+03 -0.23642132714E+03  0.16107388358E+04  0.16430435018E+04  0.16500000000E+03 0.  0.
<mgrwt>
<rscale>  0 0.93204767E+03</rscale>
<asrwt>0</asrwt>
<pdfrwt beam="1">  1        2 0.27050917E+00 0.93204767E+03</pdfrwt>
<pdfrwt beam="2">  1       -2 0.16384688E-01 0.93204767E+03</pdfrwt>
<totfact> 0.27593949E+02</totfact>
</mgrwt>
</event>
<event>
 4    1  0.5280257E-005  0.6264353E+03  0.7818608E-02  0.9852030E-01
          2   -1    0    0  501    0  0.00000000000E+00  0.00000000000E+00  0.63258302222E+03  0.63258302222E+03  0.25500000000E-02 0.  1.
         -2   -1    0    0    0  501 -0.00000000000E+00 -0.00000000000E+00 -0.15508684772E+03  0.15508684774E+03  0.25500000000E-02 0. -1.
    5000001    1    1    2    0    0  0.63067102957E+02  0.17565078601E+03  0.47748441318E+03  0.53856013864E+03  0.16500000000E+03 0.  0.
   -5000001    1    1    2    0    0 -0.63067102957E+02 -0.17565078601E+03  0.11761322128E-01  0.24910973132E+03  0.16500000000E+03 0.  0.
<mgrwt>
<rscale>  0 0.62643533E+03</rscale>
<asrwt>0</asrwt>
<pdfrwt beam="1">  1        2 0.90369003E-01 0.62643533E+03</pdfrwt>
<pdfrwt beam="2">  1       -2 0.22155264E-01 0.62643533E+03</pdfrwt>
<totfact> 0.90931943E+02</totfact>
</mgrwt>
</event>
<event>
 4    1  0.5280257E-005  0.5197384E+03  0.7818608E-02  0.1008752E+00
         -2   -1    0    0    0  501 -0.00000000000E+00  0.00000000000E+00  0.57587735823E+02  0.57587735880E+02  0.25500000000E-02 0. -1.
          2   -1    0    0  501    0  0.00000000000E+00 -0.00000000000E+00 -0.11726804653E+04  0.11726804653E+04  0.25500000000E-02 0.  1.
    5000001    1    1    2    0    0 -0.12753204513E+03  0.15477725644E+03 -0.57957319088E+03  0.63509881533E+03  0.16500000000E+03 0.  0.
   -5000001    1    1    2    0    0  0.12753204513E+03 -0.15477725644E+03 -0.53551953864E+03  0.59516938590E+03  0.16500000000E+03 0.  0.
<mgrwt>
<rscale>  0 0.51973845E+03</rscale>
<asrwt>0</asrwt>
<pdfrwt beam="1">  1        2 0.16752577E+00 0.51973845E+03</pdfrwt>
<pdfrwt beam="2">  1       -2 0.82268201E-02 0.51973845E+03</pdfrwt>
<totfact> 0.20977124E+03</totfact>
</mgrwt>
</event>
<event>
 4    1  0.5280257E-005  0.5218046E+03  0.7818608E-02  0.1008239E+00
         -2   -1    0    0    0  501 -0.00000000000E+00  0.00000000000E+00  0.37259412922E+02  0.37259413010E+02  0.25500000000E-02 0. -1.
          2   -1    0    0  501    0  0.00000000000E+00 -0.00000000000E+00 -0.18269210240E+04  0.18269210240E+04  0.25500000000E-02 0.  1.
    5000001    1    1    2    0    0 -0.83925162462E+02  0.10362887027E+02 -0.15506098308E+04  0.15616551059E+04  0.16500000000E+03 0.  0.
   -5000001    1    1    2    0    0  0.83925162462E+02 -0.10362887027E+02 -0.23905178023E+03  0.30252533110E+03  0.16500000000E+03 0.  0.
<mgrwt>
<rscale>  0 0.52180458E+03</rscale>
<asrwt>0</asrwt>
<pdfrwt beam="1">  1        2 0.26098866E+00 0.52180458E+03</pdfrwt>
<pdfrwt beam="2">  1       -2 0.53227744E-02 0.52180458E+03</pdfrwt>
<totfact> 0.18900723E+03</totfact>
</mgrwt>
</event>
<event>
 4    1  0.5280257E-005  0.9169009E+03  0.7818608E-02  0.9404698E-01
         -2   -1    0    0    0  501 -0.00000000000E+00  0.00000000000E+00  0.10019579002E+03  0.10019579005E+03  0.25500000000E-02 0. -1.
          2   -1    0    0  501    0  0.00000000000E+00 -0.00000000000E+00 -0.20976610964E+04  0.20976610964E+04  0.25500000000E-02 0.  1.
    5000001    1    1    2    0    0  0.18224376252E+03  0.24540712567E+03 -0.28156056022E+03  0.44714516142E+03  0.16500000000E+03 0.  0.
   -5000001    1    1    2    0    0 -0.18224376252E+03 -0.24540712567E+03 -0.17159047462E+04  0.17507117250E+04  0.16500000000E+03 0.  0.
<mgrwt>
<rscale>  0 0.91690089E+03</rscale>
<asrwt>0</asrwt>
<pdfrwt beam="1">  1        2 0.29966584E+00 0.91690089E+03</pdfrwt>
<pdfrwt beam="2">  1       -2 0.14313686E-01 0.91690089E+03</pdfrwt>
<totfact> 0.27356761E+02</totfact>
</mgrwt>
</event>
<event>
 4    1  0.5280257E-005  0.4418041E+03  0.7818608E-02  0.1030195E+00
         -2   -1    0    0    0  501 -0.00000000000E+00  0.00000000000E+00  0.13728059761E+03  0.13728059763E+03  0.25500000000E-02 0. -1.
          2   -1    0    0  501    0  0.00000000000E+00 -0.00000000000E+00 -0.35545970605E+03  0.35545970605E+03  0.25500000000E-02 0.  1.
    5000001    1    1    2    0    0 -0.58470874269E+02  0.12608661427E+03 -0.16206346687E+03  0.26982632327E+03  0.16500000000E+03 0.  0.
   -5000001    1    1    2    0    0  0.58470874269E+02 -0.12608661427E+03 -0.56115641564E+02  0.22291398042E+03  0.16500000000E+03 0.  0.
<mgrwt>
<rscale>  0 0.44180412E+03</rscale>
<asrwt>0</asrwt>
<pdfrwt beam="1">  1        2 0.50779958E-01 0.44180412E+03</pdfrwt>
<pdfrwt beam="2">  1       -2 0.19611514E-01 0.44180412E+03</pdfrwt>
<totfact> 0.21594355E+03</totfact>
</mgrwt>
</event>
<event>
 4    1  0.5280257E-005  0.5048528E+03  0.7818608E-02  0.1012520E+00
          2   -1    0    0  501    0  0.00000000000E+00  0.00000000000E+00  0.76983425633E+03  0.76983425634E+03  0.25500000000E-02 0.  1.
         -2   -1    0    0    0  501 -0.00000000000E+00 -0.00000000000E+00 -0.82769864128E+02  0.82769864167E+02  0.25500000000E-02 0. -1.
    5000001    1    1    2    0    0  0.48513837467E+01  0.18949558450E+03  0.30349745025E+03  0.39404037202E+03  0.16500000000E+03 0.  0.
   -5000001    1    1    2    0    0 -0.48513837467E+01 -0.18949558450E+03  0.38356694195E+03  0.45856374849E+03  0.16500000000E+03 0.  0.
<mgrwt>
<rscale>  0 0.50485276E+03</rscale>
<asrwt>0</asrwt>
<pdfrwt beam="1">  1        2 0.10997632E+00 0.50485276E+03</pdfrwt>
<pdfrwt beam="2">  1       -2 0.11824266E-01 0.50485276E+03</pdfrwt>
<totfact> 0.20794449E+03</totfact>
</mgrwt>
</event>
<event>
 4    1  0.5280257E-005  0.5013090E+03  0.7818608E-02  0.1013438E+00
         -2   -1    0    0    0  501 -0.00000000000E+00  0.00000000000E+00  0.32188161581E+02  0.32188161682E+02  0.25500000000E-02 0. -1.
          2   -1    0    0  501    0  0.00000000000E+00 -0.00000000000E+00 -0.19518880916E+04  0.19518880916E+04  0.25500000000E-02 0.  1.
    5000001    1    1    2    0    0 -0.84444303922E+02 -0.16854393938E+03 -0.92799296590E+03  0.96121477555E+03  0.16500000000E+03 0.  0.
   -5000001    1    1    2    0    0  0.84444303922E+02  0.16854393938E+03 -0.99170696417E+03  0.10228614778E+04  0.16500000000E+03 0.  0.
<mgrwt>
<rscale>  0 0.50130904E+03</rscale>
<asrwt>0</asrwt>
<pdfrwt beam="1">  1        2 0.27884108E+00 0.50130904E+03</pdfrwt>
<pdfrwt beam="2">  1       -2 0.45983100E-02 0.50130904E+03</pdfrwt>
<totfact> 0.20533629E+03</totfact>
</mgrwt>
</event>
<event>
 4    1  0.5280257E-005  0.3957674E+03  0.7818608E-02  0.1045255E+00
          2   -1    0    0  501    0  0.00000000000E+00  0.00000000000E+00  0.29771097777E+03  0.29771097778E+03  0.25500000000E-02 0.  1.
         -2   -1    0    0    0  501 -0.00000000000E+00 -0.00000000000E+00 -0.13153008308E+03  0.13153008310E+03  0.25500000000E-02 0. -1.
    5000001    1    1    2    0    0  0.19063507964E+02 -0.10589791543E+03  0.10353020069E+03  0.22253379133E+03  0.16500000000E+03 0.  0.
   -5000001    1    1    2    0    0 -0.19063507964E+02  0.10589791543E+03  0.62650693993E+02  0.20670726955E+03  0.16500000000E+03 0.  0.
<mgrwt>
<rscale>  0 0.39576735E+03</rscale>
<asrwt>0</asrwt>
<pdfrwt beam="1">  1        2 0.42530139E-01 0.39576735E+03</pdfrwt>
<pdfrwt beam="2">  1       -2 0.18790012E-01 0.39576735E+03</pdfrwt>
<totfact> 0.28162537E+03</totfact>
</mgrwt>
</event>
<event>
 4    1  0.5280257E-005  0.7035405E+03  0.7818608E-02  0.9711197E-01
         -2   -1    0    0    0  501 -0.00000000000E+00  0.00000000000E+00  0.56486844915E+02  0.56486844972E+02  0.25500000000E-02 0. -1.
          2   -1    0    0  501    0  0.00000000000E+00 -0.00000000000E+00 -0.21906392077E+04  0.21906392077E+04  0.25500000000E-02 0.  1.
    5000001    1    1    2    0    0 -0.18474377109E+02 -0.99882651331E+02 -0.20048337996E+04  0.20141751191E+04  0.16500000000E+03 0.  0.
   -5000001    1    1    2    0    0  0.18474377109E+02  0.99882651331E+02 -0.12931856323E+03  0.23295093355E+03  0.16500000000E+03 0.  0.
<mgrwt>
<rscale>  0 0.70354047E+03</rscale>
<asrwt>0</asrwt>
<pdfrwt beam="1">  1        2 0.31294840E+00 0.70354047E+03</pdfrwt>
<pdfrwt beam="2">  1       -2 0.80695507E-02 0.70354047E+03</pdfrwt>
<totfact> 0.63774924E+02</totfact>
</mgrwt>
</event>
<event>
 4    1  0.5280257E-005  0.5929957E+03  0.7818608E-02  0.9920045E-01
         -2   -1    0    0    0  501 -0.00000000000E+00  0.00000000000E+00  0.70939302864E+03  0.70939302864E+03  0.25500000000E-02 0. -1.
          2   -1    0    0  501    0  0.00000000000E+00 -0.00000000000E+00 -0.12392422392E+03  0.12392422395E+03  0.25500000000E-02 0.  1.
    5000001    1    1    2    0    0  0.16264247664E+02  0.23583946500E+03  0.39010633366E+03  0.48506982030E+03  0.16500000000E+03 0.  0.
   -5000001    1    1    2    0    0 -0.16264247664E+02 -0.23583946500E+03  0.19536247105E+03  0.34824743229E+03  0.16500000000E+03 0.  0.
<mgrwt>
<rscale>  0 0.59299572E+03</rscale>
<asrwt>0</asrwt>
<pdfrwt beam="1">  1        2 0.17703461E-01 0.59299572E+03</pdfrwt>
<pdfrwt beam="2">  1       -2 0.10134186E+00 0.59299572E+03</pdfrwt>
<totfact> 0.26585102E+02</totfact>
</mgrwt>
</event>
<event>
 4    1  0.5280257E-005  0.5057523E+03  0.7818608E-02  0.1012288E+00
         -2   -1    0    0    0  501 -0.00000000000E+00  0.00000000000E+00  0.52537326080E+03  0.52537326080E+03  0.25500000000E-02 0. -1.
          2   -1    0    0  501    0  0.00000000000E+00 -0.00000000000E+00 -0.12171605267E+03  0.12171605270E+03  0.25500000000E-02 0.  1.
    5000001    1    1    2    0    0  0.98966782724E+02  0.66811466740E+02  0.10066945673E+02  0.20392287651E+03  0.16500000000E+03 0.  0.
   -5000001    1    1    2    0    0 -0.98966782724E+02 -0.66811466740E+02  0.39359026246E+03  0.44316643699E+03  0.16500000000E+03 0.  0.
<mgrwt>
<rscale>  0 0.50575235E+03</rscale>
<asrwt>0</asrwt>
<pdfrwt beam="1">  1        2 0.17388008E-01 0.50575235E+03</pdfrwt>
<pdfrwt beam="2">  1       -2 0.75053323E-01 0.50575235E+03</pdfrwt>
<totfact> 0.53924032E+02</totfact>
</mgrwt>
</event>
<event>
 4    1  0.5280257E-005  0.4547107E+03  0.7818608E-02  0.1026327E+00
         -2   -1    0    0    0  501 -0.00000000000E+00  0.00000000000E+00  0.27227460018E+02  0.27227460137E+02  0.25500000000E-02 0. -1.
          2   -1    0    0  501    0  0.00000000000E+00 -0.00000000000E+00 -0.18984677086E+04  0.18984677086E+04  0.25500000000E-02 0.  1.
    5000001    1    1    2    0    0  0.13967886234E+03 -0.55829449939E+02 -0.75404117855E+03  0.78640333864E+03  0.16500000000E+03 0.  0.
   -5000001    1    1    2    0    0 -0.13967886234E+03  0.55829449939E+02 -0.11171990701E+04  0.11392918301E+04  0.16500000000E+03 0.  0.
<mgrwt>
<rscale>  0 0.45471069E+03</rscale>
<asrwt>0</asrwt>
<pdfrwt beam="1">  1        2 0.27120959E+00 0.45471069E+03</pdfrwt>
<pdfrwt beam="2">  1       -2 0.38896384E-02 0.45471069E+03</pdfrwt>
<totfact> 0.28256193E+03</totfact>
</mgrwt>
</event>
<event>
 4    1  0.5280257E-005  0.6476521E+03  0.7818608E-02  0.9811195E-01
         -2   -1    0    0    0  501 -0.00000000000E+00  0.00000000000E+00  0.61410489190E+02  0.61410489243E+02  0.25500000000E-02 0. -1.
          2   -1    0    0  501    0  0.00000000000E+00 -0.00000000000E+00 -0.17075799479E+04  0.17075799479E+04  0.25500000000E-02 0.  1.
    5000001    1    1    2    0    0  0.44116728430E+02  0.27023806175E+03 -0.68212214245E+03  0.75331966187E+03  0.16500000000E+03 0.  0.
   -5000001    1    1    2    0    0 -0.44116728430E+02 -0.27023806175E+03 -0.96404731626E+03  0.10156707753E+04  0.16500000000E+03 0.  0.
<mgrwt>
<rscale>  0 0.64765213E+03</rscale>
<asrwt>0</asrwt>
<pdfrwt beam="1">  1        2 0.24393996E+00 0.64765213E+03</pdfrwt>
<pdfrwt beam="2">  1       -2 0.87729281E-02 0.64765213E+03</pdfrwt>
<totfact> 0.98199044E+02</totfact>
</mgrwt>
</event>
<event>
 4    1  0.5280257E-005  0.4828027E+03  0.7818608E-02  0.1018368E+00
          2   -1    0    0  501    0  0.00000000000E+00  0.00000000000E+00  0.89830739546E+03  0.89830739546E+03  0.25500000000E-02 0.  1.
         -2   -1    0    0    0  501 -0.00000000000E+00 -0.00000000000E+00 -0.64871567465E+02  0.64871567515E+02  0.25500000000E-02 0. -1.
    5000001    1    1    2    0    0 -0.17443585626E+03 -0.14445206834E+02  0.37617147152E+03  0.44650476810E+03  0.16500000000E+03 0.  0.
   -5000001    1    1    2    0    0  0.17443585626E+03  0.14445206834E+02  0.45726435647E+03  0.51667419488E+03  0.16500000000E+03 0.  0.
<mgrwt>
<rscale>  0 0.48280269E+03</rscale>
<asrwt>0</asrwt>
<pdfrwt beam="1">  1        2 0.12832963E+00 0.48280269E+03</pdfrwt>
<pdfrwt beam="2">  1       -2 0.92673663E-02 0.48280269E+03</pdfrwt>
<totfact> 0.25293772E+03</totfact>
</mgrwt>
</event>
<event>
 4    1  0.5280257E-005  0.4593067E+03  0.7818608E-02  0.1024982E+00
         -2   -1    0    0    0  501 -0.00000000000E+00  0.00000000000E+00  0.58554293717E+02  0.58554293773E+02  0.25500000000E-02 0. -1.
          2   -1    0    0  501    0  0.00000000000E+00 -0.00000000000E+00 -0.90071364118E+03  0.90071364118E+03  0.25500000000E-02 0.  1.
    5000001    1    1    2    0    0 -0.15730777607E+03 -0.25311710727E+02 -0.39733740304E+03  0.45879018186E+03  0.16500000000E+03 0.  0.
   -5000001    1    1    2    0    0  0.15730777607E+03  0.25311710727E+02 -0.44482194442E+03  0.50047775310E+03  0.16500000000E+03 0.  0.
<mgrwt>
<rscale>  0 0.45930666E+03</rscale>
<asrwt>0</asrwt>
<pdfrwt beam="1">  1        2 0.12867337E+00 0.45930666E+03</pdfrwt>
<pdfrwt beam="2">  1       -2 0.83648997E-02 0.45930666E+03</pdfrwt>
<totfact> 0.29674448E+03</totfact>
</mgrwt>
</event>
<event>
 4    1  0.5280257E-005  0.4911222E+03  0.7818608E-02  0.1016122E+00
         -2   -1    0    0    0  501 -0.00000000000E+00  0.00000000000E+00  0.30829652543E+02  0.30829652649E+02  0.25500000000E-02 0. -1.
          2   -1    0    0  501    0  0.00000000000E+00 -0.00000000000E+00 -0.19559177491E+04  0.19559177491E+04  0.25500000000E-02 0.  1.
    5000001    1    1    2    0    0  0.41305525986E+02  0.17068459938E+03 -0.11538277004E+04  0.11787208071E+04  0.16500000000E+03 0.  0.
   -5000001    1    1    2    0    0 -0.41305525986E+02 -0.17068459938E+03 -0.77126039621E+03  0.80802659468E+03  0.16500000000E+03 0.  0.
<mgrwt>
<rscale>  0 0.49112224E+03</rscale>
<asrwt>0</asrwt>
<pdfrwt beam="1">  1        2 0.27941674E+00 0.49112224E+03</pdfrwt>
<pdfrwt beam="2">  1       -2 0.44042373E-02 0.49112224E+03</pdfrwt>
<totfact> 0.21848150E+03</totfact>
</mgrwt>
</event>
<event>
 4    1  0.5280257E-005  0.4615965E+03  0.7818608E-02  0.1024319E+00
          2   -1    0    0  501    0  0.00000000000E+00  0.00000000000E+00  0.39340403060E+04  0.39340403060E+04  0.25500000000E-02 0.  1.
         -2   -1    0    0    0  501 -0.00000000000E+00 -0.00000000000E+00 -0.13540237198E+02  0.13540237438E+02  0.25500000000E-02 0. -1.
    5000001    1    1    2    0    0  0.11358703359E+02 -0.16058659280E+03  0.20561567706E+04  0.20690390859E+04  0.16500000000E+03 0.  0.
   -5000001    1    1    2    0    0 -0.11358703359E+02  0.16058659280E+03  0.18643432982E+04  0.18785414575E+04  0.16500000000E+03 0.  0.
<mgrwt>
<rscale>  0 0.46159653E+03</rscale>
<asrwt>0</asrwt>
<pdfrwt beam="1">  1        2 0.56200652E+00 0.46159653E+03</pdfrwt>
<pdfrwt beam="2">  1       -2 0.19343170E-02 0.46159653E+03</pdfrwt>
<totfact> 0.62530901E+02</totfact>
</mgrwt>
</event>
<event>
 4    1  0.5280257E-005  0.4257192E+03  0.7818608E-02  0.1035221E+00
          2   -1    0    0  501    0  0.00000000000E+00  0.00000000000E+00  0.18150084359E+04  0.18150084359E+04  0.25500000000E-02 0.  1.
         -2   -1    0    0    0  501 -0.00000000000E+00 -0.00000000000E+00 -0.24963631989E+02  0.24963632119E+02  0.25500000000E-02 0. -1.
    5000001    1    1    2    0    0  0.11351086611E+03  0.72064954941E+02  0.90572178242E+03  0.93039508899E+03  0.16500000000E+03 0.  0.
   -5000001    1    1    2    0    0 -0.11351086611E+03 -0.72064954941E+02  0.88432302151E+03  0.90957697906E+03  0.16500000000E+03 0.  0.
<mgrwt>
<rscale>  0 0.42571917E+03</rscale>
<asrwt>0</asrwt>
<pdfrwt beam="1">  1        2 0.25928697E+00 0.42571917E+03</pdfrwt>
<pdfrwt beam="2">  1       -2 0.35662325E-02 0.42571917E+03</pdfrwt>
<totfact> 0.35503005E+03</totfact>
</mgrwt>
</event>
<event>
 4    1  0.5280257E-005  0.4672311E+03  0.7818608E-02  0.1022705E+00
         -2   -1    0    0    0  501 -0.00000000000E+00  0.00000000000E+00  0.17904094345E+02  0.17904094527E+02  0.25500000000E-02 0. -1.
          2   -1    0    0  501    0  0.00000000000E+00 -0.00000000000E+00 -0.30482532667E+04  0.30482532667E+04  0.25500000000E-02 0.  1.
    5000001    1    1    2    0    0 -0.16642909220E+01 -0.12851288085E+03 -0.21981967328E+04  0.22081241374E+04  0.16500000000E+03 0.  0.
   -5000001    1    1    2    0    0  0.16642909220E+01  0.12851288085E+03 -0.83215243964E+03  0.85803322384E+03  0.16500000000E+03 0.  0.
<mgrwt>
<rscale>  0 0.46723105E+03</rscale>
<asrwt>0</asrwt>
<pdfrwt beam="1">  1        2 0.43546442E+00 0.46723105E+03</pdfrwt>
<pdfrwt beam="2">  1       -2 0.25577297E-02 0.46723105E+03</pdfrwt>
<totfact> 0.13734080E+03</totfact>
</mgrwt>
</event>
<event>
 4    1  0.5280257E-005  0.5076483E+03  0.7818608E-02  0.1011802E+00
         -2   -1    0    0    0  501 -0.00000000000E+00  0.00000000000E+00  0.27181387989E+02  0.27181388108E+02  0.25500000000E-02 0. -1.
          2   -1    0    0  501    0  0.00000000000E+00 -0.00000000000E+00 -0.23702501554E+04  0.23702501554E+04  0.25500000000E-02 0.  1.
    5000001    1    1    2    0    0 -0.14426656552E+03  0.41570048685E+02 -0.17433576561E+04  0.17575727091E+04  0.16500000000E+03 0.  0.
   -5000001    1    1    2    0    0  0.14426656552E+03 -0.41570048685E+02 -0.59971111129E+03  0.63985883433E+03  0.16500000000E+03 0.  0.
<mgrwt>
<rscale>  0 0.50764826E+03</rscale>
<asrwt>0</asrwt>
<pdfrwt beam="1">  1        2 0.33860704E+00 0.50764826E+03</pdfrwt>
<pdfrwt beam="2">  1       -2 0.38830569E-02 0.50764826E+03</pdfrwt>
<totfact> 0.16420895E+03</totfact>
</mgrwt>
</event>
<event>
 4    1  0.5280257E-005  0.3735950E+03  0.7818608E-02  0.1053327E+00
         -2   -1    0    0    0  501 -0.00000000000E+00  0.00000000000E+00  0.71298517576E+02  0.71298517622E+02  0.25500000000E-02 0. -1.
          2   -1    0    0  501    0  0.00000000000E+00 -0.00000000000E+00 -0.48939725474E+03  0.48939725474E+03  0.25500000000E-02 0.  1.
    5000001    1    1    2    0    0  0.32075240159E+02 -0.70695235951E+02 -0.26985839640E+03  0.32569186591E+03  0.16500000000E+03 0.  0.
   -5000001    1    1    2    0    0 -0.32075240159E+02  0.70695235951E+02 -0.14824034077E+03  0.23500390645E+03  0.16500000000E+03 0.  0.
<mgrwt>
<rscale>  0 0.37359496E+03</rscale>
<asrwt>0</asrwt>
<pdfrwt beam="1">  1        2 0.69913892E-01 0.37359496E+03</pdfrwt>
<pdfrwt beam="2">  1       -2 0.10185503E-01 0.37359496E+03</pdfrwt>
<totfact> 0.44914134E+03</totfact>
</mgrwt>
</event>
<event>
 4    1  0.5280257E-005  0.4154093E+03  0.7818608E-02  0.1038571E+00
          2   -1    0    0  501    0  0.00000000000E+00  0.00000000000E+00  0.17857468664E+04  0.17857468664E+04  0.25500000000E-02 0.  1.
         -2   -1    0    0    0  501 -0.00000000000E+00 -0.00000000000E+00 -0.24158640251E+02  0.24158640386E+02  0.25500000000E-02 0. -1.
    5000001    1    1    2    0    0  0.10715277344E+03  0.64955692598E+02  0.94471734901E+03  0.96716949310E+03  0.16500000000E+03 0.  0.
   -5000001    1    1    2    0    0 -0.10715277344E+03 -0.64955692598E+02  0.81687087718E+03  0.84273601373E+03  0.16500000000E+03 0.  0.
<mgrwt>
<rscale>  0 0.41540927E+03</rscale>
<asrwt>0</asrwt>
<pdfrwt beam="1">  1        2 0.25510682E+00 0.41540927E+03</pdfrwt>
<pdfrwt beam="2">  1       -2 0.34512326E-02 0.41540927E+03</pdfrwt>
<totfact> 0.38590002E+03</totfact>
</mgrwt>
</event>
<event>
 4    1  0.5280257E-005  0.6442647E+03  0.7818608E-02  0.9817601E-01
         -2   -1    0    0    0  501 -0.00000000000E+00  0.00000000000E+00  0.82382843262E+03  0.82382843263E+03  0.25500000000E-02 0.  1.
          2   -1    0    0  501    0  0.00000000000E+00 -0.00000000000E+00 -0.12595979107E+03  0.12595979110E+03  0.25500000000E-02 0. -1.
    5000001    1    1    2    0    0  0.14284469951E+03 -0.23043059371E+03  0.26763282640E+03  0.41515683357E+03  0.16500000000E+03 0.  0.
   -5000001    1    1    2    0    0 -0.14284469951E+03  0.23043059371E+03  0.43023581516E+03  0.53463139015E+03  0.16500000000E+03 0.  0.
<mgrwt>
<rscale>  0 0.64426472E+03</rscale>
<asrwt>0</asrwt>
<pdfrwt beam="1">  1        2 0.17994255E-01 0.64426472E+03</pdfrwt>
<pdfrwt beam="2">  1       -2 0.11768978E+00 0.64426472E+03</pdfrwt>
<totfact> 0.18162938E+02</totfact>
</mgrwt>
</event>
<event>
 4    1  0.5280257E-005  0.4024834E+03  0.7818608E-02  0.1042923E+00
          2   -1    0    0  501    0  0.00000000000E+00  0.00000000000E+00  0.13577529538E+04  0.13577529538E+04  0.25500000000E-02 0.  1.
         -2   -1    0    0    0  501 -0.00000000000E+00 -0.00000000000E+00 -0.29827391994E+02  0.29827392103E+02  0.25500000000E-02 0. -1.
    5000001    1    1    2    0    0 -0.67599718378E+02 -0.85750504619E+02  0.79065055250E+03  0.81503139027E+03  0.16500000000E+03 0.  0.
   -5000001    1    1    2    0    0  0.67599718378E+02  0.85750504619E+02  0.53727500930E+03  0.57254895562E+03  0.16500000000E+03 0.  0.
<mgrwt>
<rscale>  0 0.40248344E+03</rscale>
<asrwt>0</asrwt>
<pdfrwt beam="1">  1        2 0.19396465E+00 0.40248344E+03</pdfrwt>
<pdfrwt beam="2">  1       -2 0.42610573E-02 0.40248344E+03</pdfrwt>
<totfact> 0.46305029E+03</totfact>
</mgrwt>
</event>
<event>
 4    1  0.5280257E-005  0.5316946E+03  0.7818608E-02  0.1005822E+00
          2   -1    0    0  501    0  0.00000000000E+00  0.00000000000E+00  0.42642048283E+03  0.42642048284E+03  0.25500000000E-02 0.  1.
         -2   -1    0    0    0  501 -0.00000000000E+00 -0.00000000000E+00 -0.16573967921E+03  0.16573967923E+03  0.25500000000E-02 0. -1.
    5000001    1    1    2    0    0  0.17863515671E+03  0.10380239884E+03  0.99549719886E+02  0.28252540407E+03  0.16500000000E+03 0.  0.
   -5000001    1    1    2    0    0 -0.17863515671E+03 -0.10380239884E+03  0.16113108373E+03  0.30963475800E+03  0.16500000000E+03 0.  0.
<mgrwt>
<rscale>  0 0.53169463E+03</rscale>
<asrwt>0</asrwt>
<pdfrwt beam="1">  1        2 0.60917211E-01 0.53169463E+03</pdfrwt>
<pdfrwt beam="2">  1       -2 0.23677097E-01 0.53169463E+03</pdfrwt>
<totfact> 0.12715121E+03</totfact>
</mgrwt>
</event>
<event>
 4    1  0.5280257E-005  0.9510815E+03  0.7818608E-02  0.9363887E-01
          2   -1    0    0  501    0  0.00000000000E+00  0.00000000000E+00  0.69168958878E+03  0.69168958879E+03  0.25500000000E-02 0.  1.
         -2   -1    0    0    0  501 -0.00000000000E+00 -0.00000000000E+00 -0.32693713535E+03  0.32693713536E+03  0.25500000000E-02 0. -1.
    5000001    1    1    2    0    0 -0.41588018509E+03  0.15930580135E+03  0.20815524297E+03  0.51854437791E+03  0.16500000000E+03 0.  0.
   -5000001    1    1    2    0    0  0.41588018509E+03 -0.15930580135E+03  0.15659721046E+03  0.50008234623E+03  0.16500000000E+03 0.  0.
<mgrwt>
<rscale>  0 0.95108152E+03</rscale>
<asrwt>0</asrwt>
<pdfrwt beam="1">  1        2 0.98812797E-01 0.95108152E+03</pdfrwt>
<pdfrwt beam="2">  1       -2 0.46705306E-01 0.95108152E+03</pdfrwt>
<totfact> 0.19853560E+02</totfact>
</mgrwt>
</event>
<event>
 4    1  0.5280257E-005  0.7147207E+03  0.7818608E-02  0.9692384E-01
          2   -1    0    0  501    0  0.00000000000E+00  0.00000000000E+00  0.10176163472E+04  0.10176163472E+04  0.25500000000E-02 0.  1.
         -2   -1    0    0    0  501 -0.00000000000E+00 -0.00000000000E+00 -0.12549564128E+03  0.12549564131E+03  0.25500000000E-02 0. -1.
    5000001    1    1    2    0    0 -0.13611165964E+03 -0.28391368103E+03  0.38733764743E+03  0.52572693985E+03  0.16500000000E+03 0.  0.
   -5000001    1    1    2    0    0  0.13611165964E+03  0.28391368103E+03  0.50478305849E+03  0.61738504866E+03  0.16500000000E+03 0.  0.
<mgrwt>
<rscale>  0 0.71472069E+03</rscale>
<asrwt>0</asrwt>
<pdfrwt beam="1">  1        2 0.14537375E+00 0.71472069E+03</pdfrwt>
<pdfrwt beam="2">  1       -2 0.17927950E-01 0.71472069E+03</pdfrwt>
<totfact> 0.71026112E+02</totfact>
</mgrwt>
</event>
<event>
 4    1  0.5280257E-005  0.5333296E+03  0.7818608E-02  0.1005428E+00
         -2   -1    0    0    0  501 -0.00000000000E+00  0.00000000000E+00  0.16344669604E+03  0.16344669606E+03  0.25500000000E-02 0. -1.
          2   -1    0    0  501    0  0.00000000000E+00 -0.00000000000E+00 -0.43506605163E+03  0.43506605164E+03  0.25500000000E-02 0.  1.
    5000001    1    1    2    0    0 -0.20478508443E+03  0.43118221058E+02 -0.12522286528E+03  0.29445182591E+03  0.16500000000E+03 0.  0.
   -5000001    1    1    2    0    0  0.20478508443E+03 -0.43118221058E+02 -0.14639649031E+03  0.30406092180E+03  0.16500000000E+03 0.  0.
<mgrwt>
<rscale>  0 0.53332957E+03</rscale>
<asrwt>0</asrwt>
<pdfrwt beam="1">  1        2 0.62152292E-01 0.53332957E+03</pdfrwt>
<pdfrwt beam="2">  1       -2 0.23349528E-01 0.53332957E+03</pdfrwt>
<totfact> 0.12745468E+03</totfact>
</mgrwt>
</event>
<event>
 4    1  0.5280257E-005  0.8169328E+03  0.7818608E-02  0.9535826E-01
          2   -1    0    0  501    0  0.00000000000E+00  0.00000000000E+00  0.47908532879E+03  0.47908532879E+03  0.25500000000E-02 0.  1.
         -2   -1    0    0    0  501 -0.00000000000E+00 -0.00000000000E+00 -0.34825696838E+03  0.34825696839E+03  0.25500000000E-02 0. -1.
    5000001    1    1    2    0    0  0.15741000524E+02 -0.24423128760E+03  0.35136476339E+03  0.45888876418E+03  0.16500000000E+03 0.  0.
   -5000001    1    1    2    0    0 -0.15741000524E+02  0.24423128760E+03 -0.22053640299E+03  0.36845353300E+03  0.16500000000E+03 0.  0.
<mgrwt>
<rscale>  0 0.81693281E+03</rscale>
<asrwt>0</asrwt>
<pdfrwt beam="1">  1        2 0.68440762E-01 0.81693281E+03</pdfrwt>
<pdfrwt beam="2">  1       -2 0.49750995E-01 0.81693281E+03</pdfrwt>
<totfact> 0.27112375E+02</totfact>
</mgrwt>
</event>
<event>
 4    1  0.5280257E-005  0.6501485E+03  0.7818608E-02  0.9806501E-01
         -2   -1    0    0    0  501 -0.00000000000E+00  0.00000000000E+00  0.10672168073E+03  0.10672168076E+03  0.25500000000E-02 0. -1.
          2   -1    0    0  501    0  0.00000000000E+00 -0.00000000000E+00 -0.99017625652E+03  0.99017625653E+03  0.25500000000E-02 0.  1.
    5000001    1    1    2    0    0  0.14808369564E+03 -0.90974254960E+02 -0.81229843172E+03  0.84691135201E+03  0.16500000000E+03 0.  0.
   -5000001    1    1    2    0    0 -0.14808369564E+03  0.90974254960E+02 -0.71156144071E+02  0.24998658528E+03  0.16500000000E+03 0.  0.
<mgrwt>
<rscale>  0 0.65014852E+03</rscale>
<asrwt>0</asrwt>
<pdfrwt beam="1">  1        2 0.14145375E+00 0.65014852E+03</pdfrwt>
<pdfrwt beam="2">  1       -2 0.15245955E-01 0.65014852E+03</pdfrwt>
<totfact> 0.97517384E+02</totfact>
</mgrwt>
</event>
<event>
 4    1  0.5280257E-005  0.5501459E+03  0.7818608E-02  0.1001460E+00
          2   -1    0    0  501    0  0.00000000000E+00  0.00000000000E+00  0.18393332899E+04  0.18393332899E+04  0.25500000000E-02 0.  1.
         -2   -1    0    0    0  501 -0.00000000000E+00 -0.00000000000E+00 -0.41137262160E+02  0.41137262239E+02  0.25500000000E-02 0. -1.
    5000001    1    1    2    0    0  0.49403727365E+02  0.11717881232E+03  0.15131119769E+04  0.15273848425E+04  0.16500000000E+03 0.  0.
   -5000001    1    1    2    0    0 -0.49403727365E+02 -0.11717881232E+03  0.28508405081E+03  0.35308570965E+03  0.16500000000E+03 0.  0.
<mgrwt>
<rscale>  0 0.55014593E+03</rscale>
<asrwt>0</asrwt>
<pdfrwt beam="1">  1        2 0.26276181E+00 0.55014593E+03</pdfrwt>
<pdfrwt beam="2">  1       -2 0.58767537E-02 0.55014593E+03</pdfrwt>
<totfact> 0.15953035E+03</totfact>
</mgrwt>
</event>
<event>
 4    1  0.5280257E-005  0.4629693E+03  0.7818608E-02  0.1023924E+00
          2   -1    0    0  501    0  0.00000000000E+00  0.00000000000E+00  0.17648053463E+04  0.17648053463E+04  0.25500000000E-02 0.  1.
         -2   -1    0    0    0  501 -0.00000000000E+00 -0.00000000000E+00 -0.30363207655E+02  0.30363207762E+02  0.25500000000E-02 0. -1.
    5000001    1    1    2    0    0 -0.13071633757E+03  0.43682423313E+02  0.11999927406E+04  0.12190990495E+04  0.16500000000E+03 0.  0.
   -5000001    1    1    2    0    0  0.13071633757E+03 -0.43682423313E+02  0.53444939809E+03  0.57606950460E+03  0.16500000000E+03 0.  0.
<mgrwt>
<rscale>  0 0.46296934E+03</rscale>
<asrwt>0</asrwt>
<pdfrwt beam="1">  1        2 0.25211512E+00 0.46296934E+03</pdfrwt>
<pdfrwt beam="2">  1       -2 0.43375999E-02 0.46296934E+03</pdfrwt>
<totfact> 0.27889351E+03</totfact>
</mgrwt>
</event>
<event>
 4    1  0.5280257E-005  0.5039961E+03  0.7818608E-02  0.1012741E+00
         -2   -1    0    0    0  501 -0.00000000000E+00  0.00000000000E+00  0.22672999329E+02  0.22672999472E+02  0.25500000000E-02 0. -1.
          2   -1    0    0  501    0  0.00000000000E+00 -0.00000000000E+00 -0.28008207554E+04  0.28008207554E+04  0.25500000000E-02 0.  1.
    5000001    1    1    2    0    0 -0.89242226337E+02 -0.16825916439E+03 -0.13982552682E+04  0.14207808122E+04  0.16500000000E+03 0.  0.
   -5000001    1    1    2    0    0  0.89242226337E+02  0.16825916439E+03 -0.13798924879E+04  0.14027129427E+04  0.16500000000E+03 0.  0.
<mgrwt>
<rscale>  0 0.50399606E+03</rscale>
<asrwt>0</asrwt>
<pdfrwt beam="1">  1        2 0.40011703E+00 0.50399606E+03</pdfrwt>
<pdfrwt beam="2">  1       -2 0.32390017E-02 0.50399606E+03</pdfrwt>
<totfact> 0.12995727E+03</totfact>
</mgrwt>
</event>
<event>
 4    1  0.5280257E-005  0.4455063E+03  0.7818608E-02  0.1029071E+00
         -2   -1    0    0    0  501 -0.00000000000E+00  0.00000000000E+00  0.11728298478E+03  0.11728298481E+03  0.25500000000E-02 0. -1.
          2   -1    0    0  501    0  0.00000000000E+00 -0.00000000000E+00 -0.42307044502E+03  0.42307044502E+03  0.25500000000E-02 0.  1.
    5000001    1    1    2    0    0 -0.51938201626E+02 -0.97795996959E+02 -0.27498335163E+03  0.33926756032E+03  0.16500000000E+03 0.  0.
   -5000001    1    1    2    0    0  0.51938201626E+02  0.97795996959E+02 -0.30804108605E+02  0.20108586951E+03  0.16500000000E+03 0.  0.
<mgrwt>
<rscale>  0 0.44550629E+03</rscale>
<asrwt>0</asrwt>
<pdfrwt beam="1">  1        2 0.60438634E-01 0.44550629E+03</pdfrwt>
<pdfrwt beam="2">  1       -2 0.16754712E-01 0.44550629E+03</pdfrwt>
<totfact> 0.23336832E+03</totfact>
</mgrwt>
</event>
<event>
 4    1  0.5280257E-005  0.5740970E+03  0.7818608E-02  0.9960653E-01
          2   -1    0    0  501    0  0.00000000000E+00  0.00000000000E+00  0.10002669026E+04  0.10002669026E+04  0.25500000000E-02 0.  1.
         -2   -1    0    0    0  501 -0.00000000000E+00 -0.00000000000E+00 -0.82374866011E+02  0.82374866050E+02  0.25500000000E-02 0. -1.
    5000001    1    1    2    0    0  0.20983272909E+03 -0.10161527401E+03  0.40506265548E+03  0.49563715859E+03  0.16500000000E+03 0.  0.
   -5000001    1    1    2    0    0 -0.20983272909E+03  0.10161527401E+03  0.51282938115E+03  0.58700461011E+03  0.16500000000E+03 0.  0.
<mgrwt>
<rscale>  0 0.57409704E+03</rscale>
<asrwt>0</asrwt>
<pdfrwt beam="1">  1        2 0.14289527E+00 0.57409704E+03</pdfrwt>
<pdfrwt beam="2">  1       -2 0.11767838E-01 0.57409704E+03</pdfrwt>
<totfact> 0.14820708E+03</totfact>
</mgrwt>
</event>
<event>
 4    1  0.5280257E-005  0.3726135E+03  0.7818608E-02  0.1053698E+00
         -2   -1    0    0    0  501 -0.00000000000E+00  0.00000000000E+00  0.74429516619E+02  0.74429516663E+02  0.25500000000E-02 0. -1.
          2   -1    0    0  501    0  0.00000000000E+00 -0.00000000000E+00 -0.46635010478E+03  0.46635010479E+03  0.25500000000E-02 0.  1.
    5000001    1    1    2    0    0  0.23759942881E+02 -0.80551172917E+02 -0.16578876619E+03  0.24852352271E+03  0.16500000000E+03 0.  0.
   -5000001    1    1    2    0    0 -0.23759942881E+02  0.80551172917E+02 -0.22613182197E+03  0.29225609874E+03  0.16500000000E+03 0.  0.
<mgrwt>
<rscale>  0 0.37261354E+03</rscale>
<asrwt>0</asrwt>
<pdfrwt beam="1">  1        2 0.66621442E-01 0.37261354E+03</pdfrwt>
<pdfrwt beam="2">  1       -2 0.10632788E-01 0.37261354E+03</pdfrwt>
<totfact> 0.44223905E+03</totfact>
</mgrwt>
</event>
<event>
 4    1  0.5280257E-005  0.4410438E+03  0.7818608E-02  0.1030427E+00
          2   -1    0    0  501    0  0.00000000000E+00  0.00000000000E+00  0.16977277176E+03  0.16977277178E+03  0.25500000000E-02 0. -1.
         -2   -1    0    0    0  501 -0.00000000000E+00 -0.00000000000E+00 -0.28644115044E+03  0.28644115045E+03  0.25500000000E-02 0.  1.
    5000001    1    1    2    0    0 -0.48750885056E+02 -0.13736812134E+03 -0.45321401449E+02  0.22477917827E+03  0.16500000000E+03 0.  0.
   -5000001    1    1    2    0    0  0.48750885056E+02  0.13736812134E+03 -0.71346977227E+02  0.23143474396E+03  0.16500000000E+03 0.  0.
<mgrwt>
<rscale>  0 0.44104380E+03</rscale>
<asrwt>0</asrwt>
<pdfrwt beam="1">  1        2 0.24253253E-01 0.44104380E+03</pdfrwt>
<pdfrwt beam="2">  1       -2 0.40920164E-01 0.44104380E+03</pdfrwt>
<totfact> 0.12802416E+03</totfact>
</mgrwt>
</event>
<event>
 4    1  0.5280257E-005  0.4648211E+03  0.7818608E-02  0.1023392E+00
         -2   -1    0    0    0  501 -0.00000000000E+00  0.00000000000E+00  0.24396723797E+02  0.24396723931E+02  0.25500000000E-02 0. -1.
          2   -1    0    0  501    0  0.00000000000E+00 -0.00000000000E+00 -0.22140128185E+04  0.22140128185E+04  0.25500000000E-02 0.  1.
    5000001    1    1    2    0    0  0.96539248443E+02 -0.10429841355E+03 -0.70383070870E+03  0.73675006079E+03  0.16500000000E+03 0.  0.
   -5000001    1    1    2    0    0 -0.96539248443E+02  0.10429841355E+03 -0.14857853860E+04  0.15016594817E+04  0.16500000000E+03 0.  0.
<mgrwt>
<rscale>  0 0.46482108E+03</rscale>
<asrwt>0</asrwt>
<pdfrwt beam="1">  1        2 0.31628742E+00 0.46482108E+03</pdfrwt>
<pdfrwt beam="2">  1       -2 0.34852477E-02 0.46482108E+03</pdfrwt>
<totfact> 0.23248127E+03</totfact>
</mgrwt>
</event>
<event>
 4    1  0.5280257E-005  0.4496620E+03  0.7818608E-02  0.1027823E+00
          2   -1    0    0  501    0  0.00000000000E+00  0.00000000000E+00  0.36517152878E+04  0.36517152878E+04  0.25500000000E-02 0.  1.
         -2   -1    0    0    0  501 -0.00000000000E+00 -0.00000000000E+00 -0.13842526857E+02  0.13842527092E+02  0.25500000000E-02 0. -1.
    5000001    1    1    2    0    0  0.59238583151E+02  0.51417951528E+02  0.28871328049E+04  0.28929075078E+04  0.16500000000E+03 0.  0.
   -5000001    1    1    2    0    0 -0.59238583151E+02 -0.51417951528E+02  0.75073995601E+03  0.77265030708E+03  0.16500000000E+03 0.  0.
<mgrwt>
<rscale>  0 0.44966195E+03</rscale>
<asrwt>0</asrwt>
<pdfrwt beam="1">  1        2 0.52167332E+00 0.44966195E+03</pdfrwt>
<pdfrwt beam="2">  1       -2 0.19775050E-02 0.44966195E+03</pdfrwt>
<totfact> 0.91205454E+02</totfact>
</mgrwt>
</event>
<event>
 4    1  0.5280257E-005  0.4635696E+03  0.7818608E-02  0.1023751E+00
          2   -1    0    0  501    0  0.00000000000E+00  0.00000000000E+00  0.98567145776E+03  0.98567145776E+03  0.25500000000E-02 0.  1.
         -2   -1    0    0    0  501 -0.00000000000E+00 -0.00000000000E+00 -0.54505181808E+02  0.54505181868E+02  0.25500000000E-02 0. -1.
    5000001    1    1    2    0    0 -0.86878019363E+02  0.13269399453E+03  0.38333126531E+03  0.44645643169E+03  0.16500000000E+03 0.  0.
   -5000001    1    1    2    0    0  0.86878019363E+02 -0.13269399453E+03  0.54783501064E+03  0.59372020794E+03  0.16500000000E+03 0.  0.
<mgrwt>
<rscale>  0 0.46356964E+03</rscale>
<asrwt>0</asrwt>
<pdfrwt beam="1">  1        2 0.14081021E+00 0.46356964E+03</pdfrwt>
<pdfrwt beam="2">  1       -2 0.77864544E-02 0.46356964E+03</pdfrwt>
<totfact> 0.29432009E+03</totfact>
</mgrwt>
</event>
<event>
 4    1  0.5280257E-005  0.5039578E+03  0.7818608E-02  0.1012751E+00
         -2   -1    0    0    0  501 -0.00000000000E+00  0.00000000000E+00  0.71826961329E+02  0.71826961374E+02  0.25500000000E-02 0. -1.
          2   -1    0    0  501    0  0.00000000000E+00 -0.00000000000E+00 -0.88397675530E+03  0.88397675530E+03  0.25500000000E-02 0.  1.
    5000001    1    1    2    0    0 -0.34284098619E+02 -0.18130636792E+03 -0.31669384068E+03  0.40195445910E+03  0.16500000000E+03 0.  0.
   -5000001    1    1    2    0    0  0.34284098619E+02  0.18130636792E+03 -0.49545595329E+03  0.55384925758E+03  0.16500000000E+03 0.  0.
<mgrwt>
<rscale>  0 0.50395779E+03</rscale>
<asrwt>0</asrwt>
<pdfrwt beam="1">  1        2 0.12628239E+00 0.50395779E+03</pdfrwt>
<pdfrwt beam="2">  1       -2 0.10260995E-01 0.50395779E+03</pdfrwt>
<totfact> 0.21930250E+03</totfact>
</mgrwt>
</event>
<event>
 4    1  0.5280257E-005  0.4214718E+03  0.7818608E-02  0.1036588E+00
         -2   -1    0    0    0  501 -0.00000000000E+00  0.00000000000E+00  0.27360410674E+02  0.27360410793E+02  0.25500000000E-02 0. -1.
          2   -1    0    0  501    0  0.00000000000E+00 -0.00000000000E+00 -0.16231339410E+04  0.16231339410E+04  0.25500000000E-02 0.  1.
    5000001    1    1    2    0    0 -0.19448261551E+02 -0.81876156333E+02 -0.40427898381E+03  0.44468914604E+03  0.16500000000E+03 0.  0.
   -5000001    1    1    2    0    0  0.19448261551E+02  0.81876156333E+02 -0.11914945465E+04  0.12058052057E+04  0.16500000000E+03 0.  0.
<mgrwt>
<rscale>  0 0.42147176E+03</rscale>
<asrwt>0</asrwt>
<pdfrwt beam="1">  1        2 0.23187622E+00 0.42147176E+03</pdfrwt>
<pdfrwt beam="2">  1       -2 0.39086311E-02 0.42147176E+03</pdfrwt>
<totfact> 0.38550292E+03</totfact>
</mgrwt>
</event>
<event>
 4    1  0.5280257E-005  0.8432667E+03  0.7818608E-02  0.9499419E-01
          2   -1    0    0  501    0  0.00000000000E+00  0.00000000000E+00  0.64406939595E+03  0.64406939596E+03  0.25500000000E-02 0.  1.
         -2   -1    0    0    0  501 -0.00000000000E+00 -0.00000000000E+00 -0.27601790160E+03  0.27601790162E+03  0.25500000000E-02 0. -1.
    5000001    1    1    2    0    0 -0.26249525859E+03 -0.24837060830E+03  0.33816817416E+03  0.52170339645E+03  0.16500000000E+03 0.  0.
   -5000001    1    1    2    0    0  0.26249525859E+03  0.24837060830E+03  0.29883320191E+02  0.39838390113E+03  0.16500000000E+03 0.  0.
<mgrwt>
<rscale>  0 0.84326670E+03</rscale>
<asrwt>0</asrwt>
<pdfrwt beam="1">  1        2 0.92009914E-01 0.84326670E+03</pdfrwt>
<pdfrwt beam="2">  1       -2 0.39431129E-01 0.84326670E+03</pdfrwt>
<totfact> 0.30415946E+02</totfact>
</mgrwt>
</event>
<event>
 4    1  0.5280257E-005  0.5656638E+03  0.7818608E-02  0.9979320E-01
          2   -1    0    0  501    0  0.00000000000E+00  0.00000000000E+00  0.26511930661E+04  0.26511930661E+04  0.25500000000E-02 0.  1.
         -2   -1    0    0    0  501 -0.00000000000E+00 -0.00000000000E+00 -0.30172784546E+02  0.30172784653E+02  0.25500000000E-02 0. -1.
    5000001    1    1    2    0    0  0.20105304010E+03  0.10874829574E+03  0.14186410591E+04  0.14463802997E+04  0.16500000000E+03 0.  0.
   -5000001    1    1    2    0    0 -0.20105304010E+03 -0.10874829574E+03  0.12023792225E+04  0.12349855511E+04  0.16500000000E+03 0.  0.
<mgrwt>
<rscale>  0 0.56566378E+03</rscale>
<asrwt>0</asrwt>
<pdfrwt beam="1">  1        2 0.37874198E+00 0.56566378E+03</pdfrwt>
<pdfrwt beam="2">  1       -2 0.43103966E-02 0.56566378E+03</pdfrwt>
<totfact> 0.10006201E+03</totfact>
</mgrwt>
</event>
<event>
 4    1  0.5280257E-005  0.4582788E+03  0.7818608E-02  0.1025282E+00
         -2   -1    0    0    0  501 -0.00000000000E+00  0.00000000000E+00  0.27111081219E+03  0.27111081220E+03  0.25500000000E-02 0. -1.
          2   -1    0    0  501    0  0.00000000000E+00 -0.00000000000E+00 -0.19366573497E+03  0.19366573498E+03  0.25500000000E-02 0.  1.
    5000001    1    1    2    0    0 -0.16456123693E+01 -0.12882974275E+03  0.13321036560E+03  0.24813265033E+03  0.16500000000E+03 0.  0.
   -5000001    1    1    2    0    0  0.16456123693E+01  0.12882974275E+03 -0.55765288374E+02  0.21664389686E+03  0.16500000000E+03 0.  0.
<mgrwt>
<rscale>  0 0.45827884E+03</rscale>
<asrwt>0</asrwt>
<pdfrwt beam="1">  1        2 0.27666533E-01 0.45827884E+03</pdfrwt>
<pdfrwt beam="2">  1       -2 0.38730116E-01 0.45827884E+03</pdfrwt>
<totfact> 0.12269226E+03</totfact>
</mgrwt>
</event>
<event>
 4    1  0.5280257E-005  0.4958748E+03  0.7818608E-02  0.1014861E+00
          2   -1    0    0  501    0  0.00000000000E+00  0.00000000000E+00  0.66100904130E+03  0.66100904130E+03  0.25500000000E-02 0.  1.
         -2   -1    0    0    0  501 -0.00000000000E+00 -0.00000000000E+00 -0.92998676744E+02  0.92998676779E+02  0.25500000000E-02 0. -1.
    5000001    1    1    2    0    0 -0.41793040866E+02 -0.11042540709E+03  0.67318439273E+02  0.21376903672E+03  0.16500000000E+03 0.  0.
   -5000001    1    1    2    0    0  0.41793040866E+02  0.11042540709E+03  0.50069192528E+03  0.54023868136E+03  0.16500000000E+03 0.  0.
<mgrwt>
<rscale>  0 0.49587485E+03</rscale>
<asrwt>0</asrwt>
<pdfrwt beam="1">  1        2 0.94429861E-01 0.49587485E+03</pdfrwt>
<pdfrwt beam="2">  1       -2 0.13285525E-01 0.49587485E+03</pdfrwt>
<totfact> 0.20682052E+03</totfact>
</mgrwt>
</event>
<event>
 4    1  0.5280257E-005  0.1354141E+04  0.7818608E-02  0.8987699E-01
         -2   -1    0    0    0  501 -0.00000000000E+00  0.00000000000E+00  0.21028144808E+03  0.21028144809E+03  0.25500000000E-02 0. -1.
          2   -1    0    0  501    0  0.00000000000E+00 -0.00000000000E+00 -0.21800531961E+04  0.21800531961E+04  0.25500000000E-02 0.  1.
    5000001    1    1    2    0    0 -0.49244572782E+03  0.37943274460E+03 -0.61156423422E+03  0.88752905029E+03  0.16500000000E+03 0.  0.
   -5000001    1    1    2    0    0  0.49244572782E+03 -0.37943274460E+03 -0.13582075138E+04  0.15028055939E+04  0.16500000000E+03 0.  0.
<mgrwt>
<rscale>  0 0.13541414E+04</rscale>
<asrwt>0</asrwt>
<pdfrwt beam="1">  1        2 0.31143616E+00 0.13541414E+04</pdfrwt>
<pdfrwt beam="2">  1       -2 0.30040208E-01 0.13541414E+04</pdfrwt>
<totfact> 0.64790429E+01</totfact>
</mgrwt>
</event>
<event>
 4    1  0.5280257E-005  0.6586068E+03  0.7818608E-02  0.9790762E-01
         -2   -1    0    0    0  501 -0.00000000000E+00  0.00000000000E+00  0.57370207747E+03  0.57370207748E+03  0.25500000000E-02 0. -1.
          2   -1    0    0  501    0  0.00000000000E+00 -0.00000000000E+00 -0.18901926613E+03  0.18901926615E+03  0.25500000000E-02 0.  1.
    5000001    1    1    2    0    0  0.38640287432E+01 -0.26342864030E+03  0.31817427702E+03  0.44482519017E+03  0.16500000000E+03 0.  0.
   -5000001    1    1    2    0    0 -0.38640287432E+01  0.26342864030E+03  0.66508534319E+02  0.31789615346E+03  0.16500000000E+03 0.  0.
<mgrwt>
<rscale>  0 0.65860685E+03</rscale>
<asrwt>0</asrwt>
<pdfrwt beam="1">  1        2 0.27002752E-01 0.65860685E+03</pdfrwt>
<pdfrwt beam="2">  1       -2 0.81957439E-01 0.65860685E+03</pdfrwt>
<totfact> 0.26522200E+02</totfact>
</mgrwt>
</event>
<event>
 4    1  0.5280257E-005  0.5437444E+03  0.7818608E-02  0.1002952E+00
          2   -1    0    0  501    0  0.00000000000E+00  0.00000000000E+00  0.93364701751E+02  0.93364701786E+02  0.25500000000E-02 0.  1.
         -2   -1    0    0    0  501 -0.00000000000E+00 -0.00000000000E+00 -0.79167480585E+03  0.79167480586E+03  0.25500000000E-02 0. -1.
    5000001    1    1    2    0    0 -0.13794375429E+03 -0.14550059277E+03 -0.21802275869E+03  0.33905431003E+03  0.16500000000E+03 0.  0.
   -5000001    1    1    2    0    0  0.13794375429E+03  0.14550059277E+03 -0.48028734542E+03  0.54598519761E+03  0.16500000000E+03 0.  0.
<mgrwt>
<rscale>  0 0.54374436E+03</rscale>
<asrwt>0</asrwt>
<pdfrwt beam="1">  1        2 0.13337815E-01 0.54374436E+03</pdfrwt>
<pdfrwt beam="2">  1       -2 0.11309640E+00 0.54374436E+03</pdfrwt>
<totfact> 0.28799488E+02</totfact>
</mgrwt>
</event>
<event>
 4    1  0.5280257E-005  0.5813413E+03  0.7818608E-02  0.9944891E-01
         -2   -1    0    0    0  501 -0.00000000000E+00  0.00000000000E+00  0.56246439909E+02  0.56246439967E+02  0.25500000000E-02 0. -1.
          2   -1    0    0  501    0  0.00000000000E+00 -0.00000000000E+00 -0.15021295722E+04  0.15021295722E+04  0.25500000000E-02 0.  1.
    5000001    1    1    2    0    0 -0.87721500772E+02  0.18191527665E+03 -0.37885341626E+03  0.45993819214E+03  0.16500000000E+03 0.  0.
   -5000001    1    1    2    0    0  0.87721500772E+02 -0.18191527665E+03 -0.10670297160E+04  0.10984378200E+04  0.16500000000E+03 0.  0.
<mgrwt>
<rscale>  0 0.58134135E+03</rscale>
<asrwt>0</asrwt>
<pdfrwt beam="1">  1        2 0.21458991E+00 0.58134135E+03</pdfrwt>
<pdfrwt beam="2">  1       -2 0.80352066E-02 0.58134135E+03</pdfrwt>
<totfact> 0.14454738E+03</totfact>
</mgrwt>
</event>
<event>
 4    1  0.5280257E-005  0.4375952E+03  0.7818608E-02  0.1031487E+00
          2   -1    0    0  501    0  0.00000000000E+00  0.00000000000E+00  0.88006126872E+02  0.88006126909E+02  0.25500000000E-02 0.  1.
         -2   -1    0    0    0  501 -0.00000000000E+00 -0.00000000000E+00 -0.54396650479E+03  0.54396650480E+03  0.25500000000E-02 0. -1.
    5000001    1    1    2    0    0 -0.12926424588E+03 -0.54375637246E+02 -0.27322360831E+03  0.34862887907E+03  0.16500000000E+03 0.  0.
   -5000001    1    1    2    0    0  0.12926424588E+03  0.54375637246E+02 -0.18273676961E+03  0.28334375263E+03  0.16500000000E+03 0.  0.
<mgrwt>
<rscale>  0 0.43759518E+03</rscale>
<asrwt>0</asrwt>
<pdfrwt beam="1">  1        2 0.12572304E-01 0.43759518E+03</pdfrwt>
<pdfrwt beam="2">  1       -2 0.77709499E-01 0.43759518E+03</pdfrwt>
<totfact> 0.73854781E+02</totfact>
</mgrwt>
</event>
<event>
 4    1  0.5280257E-005  0.4561373E+03  0.7818608E-02  0.1025907E+00
          2   -1    0    0  501    0  0.00000000000E+00  0.00000000000E+00  0.90589810809E+03  0.90589810810E+03  0.25500000000E-02 0.  1.
         -2   -1    0    0    0  501 -0.00000000000E+00 -0.00000000000E+00 -0.57418507312E+02  0.57418507369E+02  0.25500000000E-02 0. -1.
    5000001    1    1    2    0    0 -0.51414966951E+02 -0.14863016164E+03  0.44002876612E+03  0.49556507019E+03  0.16500000000E+03 0.  0.
   -5000001    1    1    2    0    0  0.51414966951E+02  0.14863016164E+03  0.40845083466E+03  0.46775154528E+03  0.16500000000E+03 0.  0.
<mgrwt>
<rscale>  0 0.45613734E+03</rscale>
<asrwt>0</asrwt>
<pdfrwt beam="1">  1        2 0.12941401E+00 0.45613734E+03</pdfrwt>
<pdfrwt beam="2">  1       -2 0.82026444E-02 0.45613734E+03</pdfrwt>
<totfact> 0.30378285E+03</totfact>
</mgrwt>
</event>
<event>
 4    1  0.5280257E-005  0.5496634E+03  0.7818608E-02  0.1001572E+00
         -2   -1    0    0    0  501 -0.00000000000E+00  0.00000000000E+00  0.54277610739E+02  0.54277610799E+02  0.25500000000E-02 0. -1.
          2   -1    0    0  501    0  0.00000000000E+00 -0.00000000000E+00 -0.13915952294E+04  0.13915952294E+04  0.25500000000E-02 0.  1.
    5000001    1    1    2    0    0 -0.17226107525E+03  0.13648999638E+03 -0.67396366151E+03  0.72784298733E+03  0.16500000000E+03 0.  0.
   -5000001    1    1    2    0    0  0.17226107525E+03 -0.13648999638E+03 -0.66335395718E+03  0.71802985291E+03  0.16500000000E+03 0.  0.
<mgrwt>
<rscale>  0 0.54966340E+03</rscale>
<asrwt>0</asrwt>
<pdfrwt beam="1">  1        2 0.19879930E+00 0.54966340E+03</pdfrwt>
<pdfrwt beam="2">  1       -2 0.77539453E-02 0.54966340E+03</pdfrwt>
<totfact> 0.17501296E+03</totfact>
</mgrwt>
</event>
<event>
 4    1  0.5280257E-005  0.4348635E+03  0.7818608E-02  0.1032335E+00
         -2   -1    0    0    0  501 -0.00000000000E+00  0.00000000000E+00  0.32196652419E+02  0.32196652520E+02  0.25500000000E-02 0. -1.
          2   -1    0    0  501    0  0.00000000000E+00 -0.00000000000E+00 -0.14683691948E+04  0.14683691948E+04  0.25500000000E-02 0.  1.
    5000001    1    1    2    0    0 -0.13250609358E+03  0.22500994533E+02 -0.56425446438E+03  0.60305245225E+03  0.16500000000E+03 0.  0.
   -5000001    1    1    2    0    0  0.13250609358E+03 -0.22500994533E+02 -0.87191807800E+03  0.89751339507E+03  0.16500000000E+03 0.  0.
<mgrwt>
<rscale>  0 0.43486353E+03</rscale>
<asrwt>0</asrwt>
<pdfrwt beam="1">  1        2 0.20976699E+00 0.43486353E+03</pdfrwt>
<pdfrwt beam="2">  1       -2 0.45995227E-02 0.43486353E+03</pdfrwt>
<totfact> 0.36071816E+03</totfact>
</mgrwt>
</event>
<event>
 4    1  0.5280257E-005  0.8690390E+03  0.7818608E-02  0.9465134E-01
         -2   -1    0    0    0  501 -0.00000000000E+00  0.00000000000E+00  0.20680174155E+03  0.20680174157E+03  0.25500000000E-02 0. -1.
          2   -1    0    0  501    0  0.00000000000E+00 -0.00000000000E+00 -0.91298644030E+03  0.91298644031E+03  0.25500000000E-02 0.  1.
    5000001    1    1    2    0    0 -0.11070497160E+03  0.31771348205E+03 -0.63652561679E+03  0.73863882124E+03  0.16500000000E+03 0.  0.
   -5000001    1    1    2    0    0  0.11070497160E+03 -0.31771348205E+03 -0.69659081954E+02  0.38114936063E+03  0.16500000000E+03 0.  0.
<mgrwt>
<rscale>  0 0.86903898E+03</rscale>
<asrwt>0</asrwt>
<pdfrwt beam="1">  1        2 0.13042663E+00 0.86903898E+03</pdfrwt>
<pdfrwt beam="2">  1       -2 0.29543106E-01 0.86903898E+03</pdfrwt>
<totfact> 0.33667716E+02</totfact>
</mgrwt>
</event>
<event>
 4    1  0.5280257E-005  0.4143578E+03  0.7818608E-02  0.1038918E+00
         -2   -1    0    0    0  501 -0.00000000000E+00  0.00000000000E+00  0.14158907000E+02  0.14158907229E+02  0.25500000000E-02 0. -1.
          2   -1    0    0  501    0  0.00000000000E+00 -0.00000000000E+00 -0.30315256045E+04  0.30315256045E+04  0.25500000000E-02 0.  1.
    5000001    1    1    2    0    0 -0.52653239108E+02 -0.11056613583E+03 -0.17032747594E+04  0.17156244170E+04  0.16500000000E+03 0.  0.
   -5000001    1    1    2    0    0  0.52653239108E+02  0.11056613583E+03 -0.13140919381E+04  0.13300600948E+04  0.16500000000E+03 0.  0.
<mgrwt>
<rscale>  0 0.41435777E+03</rscale>
<asrwt>0</asrwt>
<pdfrwt beam="1">  1        2 0.43307467E+00 0.41435777E+03</pdfrwt>
<pdfrwt beam="2">  1       -2 0.20227029E-02 0.41435777E+03</pdfrwt>
<totfact> 0.20018178E+03</totfact>
</mgrwt>
</event>
<event>
 4    1  0.5280257E-005  0.5557971E+03  0.7818608E-02  0.1000161E+00
         -2   -1    0    0    0  501 -0.00000000000E+00  0.00000000000E+00  0.60049754291E+02  0.60049754345E+02  0.25500000000E-02 0. -1.
          2   -1    0    0  501    0  0.00000000000E+00 -0.00000000000E+00 -0.12860601219E+04  0.12860601219E+04  0.25500000000E-02 0.  1.
    5000001    1    1    2    0    0 -0.18541123942E+03 -0.86018530724E+02 -0.83267010061E+03  0.87312141870E+03  0.16500000000E+03 0.  0.
   -5000001    1    1    2    0    0  0.18541123942E+03  0.86018530724E+02 -0.39334026697E+03  0.47298845753E+03  0.16500000000E+03 0.  0.
<mgrwt>
<rscale>  0 0.55579706E+03</rscale>
<asrwt>0</asrwt>
<pdfrwt beam="1">  1        2 0.18372286E+00 0.55579706E+03</pdfrwt>
<pdfrwt beam="2">  1       -2 0.85785371E-02 0.55579706E+03</pdfrwt>
<totfact> 0.16973009E+03</totfact>
</mgrwt>
</event>
<event>
 4    1  0.5280257E-005  0.3695362E+03  0.7818608E-02  0.1054870E+00
          2   -1    0    0  501    0  0.00000000000E+00  0.00000000000E+00  0.18898224668E+04  0.18898224668E+04  0.25500000000E-02 0.  1.
         -2   -1    0    0    0  501 -0.00000000000E+00 -0.00000000000E+00 -0.18064790043E+02  0.18064790223E+02  0.25500000000E-02 0. -1.
    5000001    1    1    2    0    0 -0.18623145243E+02  0.74185549070E+02  0.76747496502E+03  0.78872881218E+03  0.16500000000E+03 0.  0.
   -5000001    1    1    2    0    0  0.18623145243E+02 -0.74185549070E+02  0.11042827118E+04  0.11191584449E+04  0.16500000000E+03 0.  0.
<mgrwt>
<rscale>  0 0.36953618E+03</rscale>
<asrwt>0</asrwt>
<pdfrwt beam="1">  1        2 0.26997470E+00 0.36953618E+03</pdfrwt>
<pdfrwt beam="2">  1       -2 0.25806837E-02 0.36953618E+03</pdfrwt>
<totfact> 0.53061349E+03</totfact>
</mgrwt>
</event>
<event>
 4    1  0.5280257E-005  0.3995797E+03  0.7818608E-02  0.1043925E+00
          2   -1    0    0  501    0  0.00000000000E+00  0.00000000000E+00  0.20560831907E+04  0.20560831907E+04  0.25500000000E-02 0.  1.
         -2   -1    0    0    0  501 -0.00000000000E+00 -0.00000000000E+00 -0.19413603135E+02  0.19413603302E+02  0.25500000000E-02 0. -1.
    5000001    1    1    2    0    0 -0.64260332062E+02 -0.50242105721E+02  0.61474433613E+03  0.64170807869E+03  0.16500000000E+03 0.  0.
   -5000001    1    1    2    0    0  0.64260332062E+02  0.50242105721E+02  0.14219252515E+04  0.14337887153E+04  0.16500000000E+03 0.  0.
<mgrwt>
<rscale>  0 0.39957970E+03</rscale>
<asrwt>0</asrwt>
<pdfrwt beam="1">  1        2 0.29372607E+00 0.39957970E+03</pdfrwt>
<pdfrwt beam="2">  1       -2 0.27733728E-02 0.39957970E+03</pdfrwt>
<totfact> 0.39414390E+03</totfact>
</mgrwt>
</event>
<event>
 4    1  0.5280257E-005  0.5167827E+03  0.7818608E-02  0.1009489E+00
         -2   -1    0    0    0  501 -0.00000000000E+00  0.00000000000E+00  0.13199878368E+03  0.13199878370E+03  0.25500000000E-02 0. -1.
          2   -1    0    0  501    0  0.00000000000E+00 -0.00000000000E+00 -0.50580829584E+03  0.50580829584E+03  0.25500000000E-02 0.  1.
    5000001    1    1    2    0    0 -0.19023593514E+03 -0.54033924812E+02 -0.21254808067E+03  0.33393272174E+03  0.16500000000E+03 0.  0.
   -5000001    1    1    2    0    0  0.19023593514E+03  0.54033924812E+02 -0.16126143148E+03  0.30387435781E+03  0.16500000000E+03 0.  0.
<mgrwt>
<rscale>  0 0.51678266E+03</rscale>
<asrwt>0</asrwt>
<pdfrwt beam="1">  1        2 0.72258327E-01 0.51678266E+03</pdfrwt>
<pdfrwt beam="2">  1       -2 0.18856969E-01 0.51678266E+03</pdfrwt>
<totfact> 0.15633003E+03</totfact>
</mgrwt>
</event>
<event>
 4    1  0.5280257E-005  0.8458316E+03  0.7818608E-02  0.9495949E-01
         -2   -1    0    0    0  501 -0.00000000000E+00  0.00000000000E+00  0.45540105904E+03  0.45540105904E+03  0.25500000000E-02 0. -1.
          2   -1    0    0  501    0  0.00000000000E+00 -0.00000000000E+00 -0.39274786231E+03  0.39274786232E+03  0.25500000000E-02 0.  1.
    5000001    1    1    2    0    0 -0.91081574844E+02  0.37474179153E+03  0.85377230882E+02  0.42806720869E+03  0.16500000000E+03 0.  0.
   -5000001    1    1    2    0    0  0.91081574844E+02 -0.37474179153E+03 -0.22724034157E+02  0.42008171268E+03  0.16500000000E+03 0.  0.
<mgrwt>
<rscale>  0 0.84583164E+03</rscale>
<asrwt>0</asrwt>
<pdfrwt beam="1">  1        2 0.56106837E-01 0.84583164E+03</pdfrwt>
<pdfrwt beam="2">  1       -2 0.65057294E-01 0.84583164E+03</pdfrwt>
<totfact> 0.19346973E+02</totfact>
</mgrwt>
</event>
<event>
 4    1  0.5280257E-005  0.7565664E+03  0.7818608E-02  0.9625105E-01
         -2   -1    0    0    0  501 -0.00000000000E+00  0.00000000000E+00  0.14819687970E+03  0.14819687973E+03  0.25500000000E-02 0. -1.
          2   -1    0    0  501    0  0.00000000000E+00 -0.00000000000E+00 -0.96559502234E+03  0.96559502234E+03  0.25500000000E-02 0.  1.
    5000001    1    1    2    0    0 -0.15974380946E+03  0.15588521907E+03 -0.78706279052E+03  0.83457241891E+03  0.16500000000E+03 0.  0.
   -5000001    1    1    2    0    0  0.15974380946E+03 -0.15588521907E+03 -0.30335352109E+02  0.27921948315E+03  0.16500000000E+03 0.  0.
<mgrwt>
<rscale>  0 0.75656637E+03</rscale>
<asrwt>0</asrwt>
<pdfrwt beam="1">  1        2 0.13794214E+00 0.75656637E+03</pdfrwt>
<pdfrwt beam="2">  1       -2 0.21170983E-01 0.75656637E+03</pdfrwt>
<totfact> 0.57150243E+02</totfact>
</mgrwt>
</event>
<event>
 4    1  0.5280257E-005  0.4301433E+03  0.7818608E-02  0.1033815E+00
         -2   -1    0    0    0  501 -0.00000000000E+00  0.00000000000E+00  0.67814348410E+02  0.67814348458E+02  0.25500000000E-02 0. -1.
          2   -1    0    0  501    0  0.00000000000E+00 -0.00000000000E+00 -0.68209496026E+03  0.68209496026E+03  0.25500000000E-02 0.  1.
    5000001    1    1    2    0    0  0.12038301624E+03  0.25119034753E+02 -0.41612388686E+03  0.46422745042E+03  0.16500000000E+03 0.  0.
   -5000001    1    1    2    0    0 -0.12038301624E+03 -0.25119034753E+02 -0.19815672499E+03  0.28568185831E+03  0.16500000000E+03 0.  0.
<mgrwt>
<rscale>  0 0.43014335E+03</rscale>
<asrwt>0</asrwt>
<pdfrwt beam="1">  1        2 0.97442133E-01 0.43014335E+03</pdfrwt>
<pdfrwt beam="2">  1       -2 0.96877645E-02 0.43014335E+03</pdfrwt>
<totfact> 0.33275399E+03</totfact>
</mgrwt>
</event>
<event>
 4    1  0.5280257E-005  0.5505812E+03  0.7818608E-02  0.1001360E+00
         -2   -1    0    0    0  501 -0.00000000000E+00  0.00000000000E+00  0.83177340096E+02  0.83177340135E+02  0.25500000000E-02 0. -1.
          2   -1    0    0  501    0  0.00000000000E+00 -0.00000000000E+00 -0.91112436943E+03  0.91112436944E+03  0.25500000000E-02 0.  1.
    5000001    1    1    2    0    0  0.13455136419E+03 -0.12516595044E+03 -0.63359301605E+03  0.68002624563E+03  0.16500000000E+03 0.  0.
   -5000001    1    1    2    0    0 -0.13455136419E+03  0.12516595044E+03 -0.19435401329E+03  0.31427546394E+03  0.16500000000E+03 0.  0.
<mgrwt>
<rscale>  0 0.55058115E+03</rscale>
<asrwt>0</asrwt>
<pdfrwt beam="1">  1        2 0.13016062E+00 0.55058115E+03</pdfrwt>
<pdfrwt beam="2">  1       -2 0.11882478E-01 0.55058115E+03</pdfrwt>
<totfact> 0.16581816E+03</totfact>
</mgrwt>
</event>
<event>
 4    1  0.5280257E-005  0.8616281E+03  0.7818608E-02  0.9474862E-01
          2   -1    0    0  501    0  0.00000000000E+00  0.00000000000E+00  0.18569235404E+04  0.18569235404E+04  0.25500000000E-02 0.  1.
         -2   -1    0    0    0  501 -0.00000000000E+00 -0.00000000000E+00 -0.99950661680E+02  0.99950661713E+02  0.25500000000E-02 0. -1.
    5000001    1    1    2    0    0 -0.33059341185E+03  0.19637443568E+03  0.11114391285E+04  0.11875928845E+04  0.16500000000E+03 0.  0.
   -5000001    1    1    2    0    0  0.33059341185E+03 -0.19637443568E+03  0.64553375015E+03  0.76928131755E+03  0.16500000000E+03 0.  0.
<mgrwt>
<rscale>  0 0.86162808E+03</rscale>
<asrwt>0</asrwt>
<pdfrwt beam="1">  1        2 0.26527479E+00 0.86162808E+03</pdfrwt>
<pdfrwt beam="2">  1       -2 0.14278666E-01 0.86162808E+03</pdfrwt>
<totfact> 0.36555361E+02</totfact>
</mgrwt>
</event>
<event>
 4    1  0.5280257E-005  0.5561504E+03  0.7818608E-02  0.1000080E+00
         -2   -1    0    0    0  501 -0.00000000000E+00  0.00000000000E+00  0.31452077961E+03  0.31452077962E+03  0.25500000000E-02 0.  1.
          2   -1    0    0  501    0  0.00000000000E+00 -0.00000000000E+00 -0.24585276918E+03  0.24585276919E+03  0.25500000000E-02 0. -1.
    5000001    1    1    2    0    0  0.18756246138E+03 -0.12082987951E+03  0.16273948903E+02  0.27797370040E+03  0.16500000000E+03 0.  0.
   -5000001    1    1    2    0    0 -0.18756246138E+03  0.12082987951E+03  0.52394061532E+02  0.28239984842E+03  0.16500000000E+03 0.  0.
<mgrwt>
<rscale>  0 0.55615036E+03</rscale>
<asrwt>0</asrwt>
<pdfrwt beam="1">  1        2 0.35121824E-01 0.55615036E+03</pdfrwt>
<pdfrwt beam="2">  1       -2 0.44931540E-01 0.55615036E+03</pdfrwt>
<totfact> 0.70376121E+02</totfact>
</mgrwt>
</event>
<event>
 4    1  0.5280257E-005  0.4208389E+03  0.7818608E-02  0.1036794E+00
         -2   -1    0    0    0  501 -0.00000000000E+00  0.00000000000E+00  0.41286302094E+02  0.41286302173E+02  0.25500000000E-02 0. -1.
          2   -1    0    0  501    0  0.00000000000E+00 -0.00000000000E+00 -0.10724221620E+04  0.10724221620E+04  0.25500000000E-02 0.  1.
    5000001    1    1    2    0    0 -0.10696946872E+03  0.48267967296E+02 -0.36402637254E+03  0.41654827309E+03  0.16500000000E+03 0.  0.
   -5000001    1    1    2    0    0  0.10696946872E+03 -0.48267967296E+02 -0.66710948734E+03  0.69716019106E+03  0.16500000000E+03 0.  0.
<mgrwt>
<rscale>  0 0.42083890E+03</rscale>
<asrwt>0</asrwt>
<pdfrwt beam="1">  1        2 0.15320315E+00 0.42083890E+03</pdfrwt>
<pdfrwt beam="2">  1       -2 0.58980438E-02 0.42083890E+03</pdfrwt>
<totfact> 0.40358046E+03</totfact>
</mgrwt>
</event>
<event>
 4    1  0.5280257E-005  0.4505029E+03  0.7818608E-02  0.1027572E+00
         -2   -1    0    0    0  501 -0.00000000000E+00  0.00000000000E+00  0.30470977544E+02  0.30470977650E+02  0.25500000000E-02 0. -1.
          2   -1    0    0  501    0  0.00000000000E+00 -0.00000000000E+00 -0.16651325186E+04  0.16651325186E+04  0.25500000000E-02 0.  1.
    5000001    1    1    2    0    0  0.67693893791E+02 -0.12919452896E+03 -0.63921401436E+03  0.67608671465E+03  0.16500000000E+03 0.  0.
   -5000001    1    1    2    0    0 -0.67693893791E+02  0.12919452896E+03 -0.99544752672E+03  0.10195167816E+04  0.16500000000E+03 0.  0.
<mgrwt>
<rscale>  0 0.45050290E+03</rscale>
<asrwt>0</asrwt>
<pdfrwt beam="1">  1        2 0.23787602E+00 0.45050290E+03</pdfrwt>
<pdfrwt beam="2">  1       -2 0.43529978E-02 0.45050290E+03</pdfrwt>
<totfact> 0.31139708E+03</totfact>
</mgrwt>
</event>
<event>
 4    1  0.5280257E-005  0.5597575E+03  0.7818608E-02  0.9992603E-01
          2   -1    0    0  501    0  0.00000000000E+00  0.00000000000E+00  0.16579598158E+03  0.16579598160E+03  0.25500000000E-02 0.  1.
         -2   -1    0    0    0  501 -0.00000000000E+00 -0.00000000000E+00 -0.47246088463E+03  0.47246088464E+03  0.25500000000E-02 0. -1.
    5000001    1    1    2    0    0 -0.11068546779E+03 -0.16494884593E+03 -0.30272692351E+02  0.26000159703E+03  0.16500000000E+03 0.  0.
   -5000001    1    1    2    0    0  0.11068546779E+03  0.16494884593E+03 -0.27639221070E+03  0.37825526922E+03  0.16500000000E+03 0.  0.
<mgrwt>
<rscale>  0 0.55975751E+03</rscale>
<asrwt>0</asrwt>
<pdfrwt beam="1">  1        2 0.23685140E-01 0.55975751E+03</pdfrwt>
<pdfrwt beam="2">  1       -2 0.67494412E-01 0.55975751E+03</pdfrwt>
<totfact> 0.47354153E+02</totfact>
</mgrwt>
</event>
<event>
 4    1  0.5280257E-005  0.1011370E+04  0.7818608E-02  0.9296162E-01
         -2   -1    0    0    0  501 -0.00000000000E+00  0.00000000000E+00  0.28807380928E+03  0.28807380929E+03  0.25500000000E-02 0. -1.
          2   -1    0    0  501    0  0.00000000000E+00 -0.00000000000E+00 -0.88767903571E+03  0.88767903571E+03  0.25500000000E-02 0.  1.
    5000001    1    1    2    0    0  0.33509453205E+02 -0.38597813623E+03  0.25686686843E+02  0.42188483142E+03  0.16500000000E+03 0.  0.
   -5000001    1    1    2    0    0 -0.33509453205E+02  0.38597813623E+03 -0.62529191327E+03  0.75386801358E+03  0.16500000000E+03 0.  0.
<mgrwt>
<rscale>  0 0.10113695E+04</rscale>
<asrwt>0</asrwt>
<pdfrwt beam="1">  1        2 0.12681129E+00 0.10113695E+04</pdfrwt>
<pdfrwt beam="2">  1       -2 0.41153402E-01 0.10113695E+04</pdfrwt>
<totfact> 0.18463454E+02</totfact>
</mgrwt>
</event>
<event>
 4    1  0.5280257E-005  0.3539164E+03  0.7818608E-02  0.1061019E+00
          2   -1    0    0  501    0  0.00000000000E+00  0.00000000000E+00  0.21789256388E+02  0.21789256537E+02  0.25500000000E-02 0.  1.
         -2   -1    0    0    0  501 -0.00000000000E+00 -0.00000000000E+00 -0.14371394965E+04  0.14371394965E+04  0.25500000000E-02 0. -1.
    5000001    1    1    2    0    0  0.57758757684E+02  0.24611942173E+02 -0.75771907592E+03  0.77801350876E+03  0.16500000000E+03 0.  0.
   -5000001    1    1    2    0    0 -0.57758757684E+02 -0.24611942173E+02 -0.65763116418E+03  0.68091524428E+03  0.16500000000E+03 0.  0.
<mgrwt>
<rscale>  0 0.35391638E+03</rscale>
<asrwt>0</asrwt>
<pdfrwt beam="1">  1        2 0.31127518E-02 0.35391638E+03</pdfrwt>
<pdfrwt beam="2">  1       -2 0.20530558E+00 0.35391638E+03</pdfrwt>
<totfact> 0.39877060E+02</totfact>
</mgrwt>
</event>
<event>
 4    1  0.5280257E-005  0.5713318E+03  0.7818608E-02  0.9966736E-01
          2   -1    0    0  501    0  0.00000000000E+00  0.00000000000E+00  0.27429711354E+03  0.27429711356E+03  0.25500000000E-02 0.  1.
         -2   -1    0    0    0  501 -0.00000000000E+00 -0.00000000000E+00 -0.29750592506E+03  0.29750592507E+03  0.25500000000E-02 0. -1.
    5000001    1    1    2    0    0 -0.21194718688E+03  0.76964738034E+02 -0.71107923898E+02  0.28831669700E+03  0.16500000000E+03 0.  0.
   -5000001    1    1    2    0    0  0.21194718688E+03 -0.76964738034E+02  0.47899112380E+02  0.28348634163E+03  0.16500000000E+03 0.  0.
<mgrwt>
<rscale>  0 0.57133184E+03</rscale>
<asrwt>0</asrwt>
<pdfrwt beam="1">  1        2 0.39185302E-01 0.57133184E+03</pdfrwt>
<pdfrwt beam="2">  1       -2 0.42500846E-01 0.57133184E+03</pdfrwt>
<totfact> 0.69550887E+02</totfact>
</mgrwt>
</event>
<event>
 4    1  0.5280257E-005  0.6413609E+03  0.7818608E-02  0.9823126E-01
         -2   -1    0    0    0  501 -0.00000000000E+00  0.00000000000E+00  0.18102220684E+03  0.18102220686E+03  0.25500000000E-02 0. -1.
          2   -1    0    0  501    0  0.00000000000E+00 -0.00000000000E+00 -0.56808477287E+03  0.56808477288E+03  0.25500000000E-02 0.  1.
    5000001    1    1    2    0    0 -0.19972454180E+03  0.18851572211E+03 -0.17773571082E+03  0.36639193902E+03  0.16500000000E+03 0.  0.
   -5000001    1    1    2    0    0  0.19972454180E+03 -0.18851572211E+03 -0.20932685522E+03  0.38271504072E+03  0.16500000000E+03 0.  0.
<mgrwt>
<rscale>  0 0.64136093E+03</rscale>
<asrwt>0</asrwt>
<pdfrwt beam="1">  1        2 0.81154967E-01 0.64136093E+03</pdfrwt>
<pdfrwt beam="2">  1       -2 0.25860316E-01 0.64136093E+03</pdfrwt>
<totfact> 0.78285538E+02</totfact>
</mgrwt>
</event>
<event>
 4    1  0.5280257E-005  0.7294811E+03  0.7818608E-02  0.9668103E-01
         -2   -1    0    0    0  501 -0.00000000000E+00  0.00000000000E+00  0.68817862620E+02  0.68817862667E+02  0.25500000000E-02 0. -1.
          2   -1    0    0  501    0  0.00000000000E+00 -0.00000000000E+00 -0.19331558584E+04  0.19331558584E+04  0.25500000000E-02 0.  1.
    5000001    1    1    2    0    0  0.29478868040E+02  0.30484642003E+03 -0.63140802848E+03  0.72090321257E+03  0.16500000000E+03 0.  0.
   -5000001    1    1    2    0    0 -0.29478868040E+02 -0.30484642003E+03 -0.12329299673E+04  0.12810705085E+04  0.16500000000E+03 0.  0.
<mgrwt>
<rscale>  0 0.72948106E+03</rscale>
<asrwt>0</asrwt>
<pdfrwt beam="1">  1        2 0.27616509E+00 0.72948106E+03</pdfrwt>
<pdfrwt beam="2">  1       -2 0.98311244E-02 0.72948106E+03</pdfrwt>
<totfact> 0.62493614E+02</totfact>
</mgrwt>
</event>
<event>
 4    1  0.5280257E-005  0.6090655E+03  0.7818608E-02  0.9886775E-01
          2   -1    0    0  501    0  0.00000000000E+00  0.00000000000E+00  0.50281731738E+03  0.50281731739E+03  0.25500000000E-02 0.  1.
         -2   -1    0    0    0  501 -0.00000000000E+00 -0.00000000000E+00 -0.18444110511E+03  0.18444110513E+03  0.25500000000E-02 0. -1.
    5000001    1    1    2    0    0  0.24309369029E+03  0.81524524677E+01  0.24913491430E+03  0.38529756068E+03  0.16500000000E+03 0.  0.
   -5000001    1    1    2    0    0 -0.24309369029E+03 -0.81524524677E+01  0.69241297966E+02  0.30196086184E+03  0.16500000000E+03 0.  0.
<mgrwt>
<rscale>  0 0.60906545E+03</rscale>
<asrwt>0</asrwt>
<pdfrwt beam="1">  1        2 0.71831046E-01 0.60906545E+03</pdfrwt>
<pdfrwt beam="2">  1       -2 0.26348729E-01 0.60906545E+03</pdfrwt>
<totfact> 0.87155086E+02</totfact>
</mgrwt>
</event>
<event>
 4    1  0.5280257E-005  0.1133311E+04  0.7818608E-02  0.9173319E-01
          2   -1    0    0  501    0  0.00000000000E+00  0.00000000000E+00  0.11838543248E+04  0.11838543249E+04  0.25500000000E-02 0.  1.
         -2   -1    0    0    0  501 -0.00000000000E+00 -0.00000000000E+00 -0.27123146894E+03  0.27123146896E+03  0.25500000000E-02 0. -1.
    5000001    1    1    2    0    0 -0.84784102248E+02  0.52415720359E+03  0.59663225634E+03  0.81555144986E+03  0.16500000000E+03 0.  0.
   -5000001    1    1    2    0    0  0.84784102248E+02 -0.52415720359E+03  0.31599059957E+03  0.63953434394E+03  0.16500000000E+03 0.  0.
<mgrwt>
<rscale>  0 0.11333112E+04</rscale>
<asrwt>0</asrwt>
<pdfrwt beam="1">  1        2 0.16912205E+00 0.11333112E+04</pdfrwt>
<pdfrwt beam="2">  1       -2 0.38747353E-01 0.11333112E+04</pdfrwt>
<totfact> 0.13598667E+02</totfact>
</mgrwt>
</event>
<event>
 4    1  0.5280257E-005  0.4486318E+03  0.7818608E-02  0.1028131E+00
         -2   -1    0    0    0  501 -0.00000000000E+00  0.00000000000E+00  0.27992591244E+02  0.27992591361E+02  0.25500000000E-02 0. -1.
          2   -1    0    0  501    0  0.00000000000E+00 -0.00000000000E+00 -0.17975338053E+04  0.17975338053E+04  0.25500000000E-02 0.  1.
    5000001    1    1    2    0    0 -0.19053788874E+02 -0.13771304470E+03 -0.11344387904E+04  0.11547745662E+04  0.16500000000E+03 0.  0.
   -5000001    1    1    2    0    0  0.19053788874E+02  0.13771304470E+03 -0.63510242367E+03  0.67075183049E+03  0.16500000000E+03 0.  0.
<mgrwt>
<rscale>  0 0.44863183E+03</rscale>
<asrwt>0</asrwt>
<pdfrwt beam="1">  1        2 0.25679047E+00 0.44863183E+03</pdfrwt>
<pdfrwt beam="2">  1       -2 0.39989428E-02 0.44863183E+03</pdfrwt>
<totfact> 0.30420216E+03</totfact>
</mgrwt>
</event>
<event>
 4    1  0.5280257E-005  0.4671933E+03  0.7818608E-02  0.1022715E+00
          2   -1    0    0  501    0  0.00000000000E+00  0.00000000000E+00  0.10786349516E+04  0.10786349516E+04  0.25500000000E-02 0.  1.
         -2   -1    0    0    0  501 -0.00000000000E+00 -0.00000000000E+00 -0.50589302561E+02  0.50589302626E+02  0.25500000000E-02 0. -1.
    5000001    1    1    2    0    0  0.11817656088E+03  0.67791369340E+02  0.74051651629E+03  0.77081196164E+03  0.16500000000E+03 0.  0.
   -5000001    1    1    2    0    0 -0.11817656088E+03 -0.67791369340E+02  0.28752913270E+03  0.35841229255E+03  0.16500000000E+03 0.  0.
<mgrwt>
<rscale>  0 0.46719328E+03</rscale>
<asrwt>0</asrwt>
<pdfrwt beam="1">  1        2 0.15409070E+00 0.46719328E+03</pdfrwt>
<pdfrwt beam="2">  1       -2 0.72270438E-02 0.46719328E+03</pdfrwt>
<totfact> 0.29152439E+03</totfact>
</mgrwt>
</event>
<event>
 4    1  0.5280257E-005  0.9851773E+03  0.7818608E-02  0.9324953E-01
         -2   -1    0    0    0  501 -0.00000000000E+00  0.00000000000E+00  0.35741443586E+03  0.35741443587E+03  0.25500000000E-02 0. -1.
          2   -1    0    0  501    0  0.00000000000E+00 -0.00000000000E+00 -0.67888571279E+03  0.67888571279E+03  0.25500000000E-02 0.  1.
    5000001    1    1    2    0    0  0.78202696474E+02  0.37977082252E+03 -0.42907537964E+03  0.60139190283E+03  0.16500000000E+03 0.  0.
   -5000001    1    1    2    0    0 -0.78202696474E+02 -0.37977082252E+03  0.10760410272E+03  0.43490824583E+03  0.16500000000E+03 0.  0.
<mgrwt>
<rscale>  0 0.98517725E+03</rscale>
<asrwt>0</asrwt>
<pdfrwt beam="1">  1        2 0.96983673E-01 0.98517725E+03</pdfrwt>
<pdfrwt beam="2">  1       -2 0.51059205E-01 0.98517725E+03</pdfrwt>
<totfact> 0.16927634E+02</totfact>
</mgrwt>
</event>
<event>
 4    1  0.5280257E-005  0.7998335E+03  0.7818608E-02  0.9560258E-01
          2   -1    0    0  501    0  0.00000000000E+00  0.00000000000E+00  0.79348420104E+03  0.79348420104E+03  0.25500000000E-02 0.  1.
         -2   -1    0    0    0  501 -0.00000000000E+00 -0.00000000000E+00 -0.20155842215E+03  0.20155842217E+03  0.25500000000E-02 0. -1.
    5000001    1    1    2    0    0 -0.28836743834E+03 -0.31275932711E+02  0.21776392557E+02  0.33441467482E+03  0.16500000000E+03 0.  0.
   -5000001    1    1    2    0    0  0.28836743834E+03  0.31275932711E+02  0.57014938633E+03  0.66062794839E+03  0.16500000000E+03 0.  0.
<mgrwt>
<rscale>  0 0.79983354E+03</rscale>
<asrwt>0</asrwt>
<pdfrwt beam="1">  1        2 0.11335489E+00 0.79983354E+03</pdfrwt>
<pdfrwt beam="2">  1       -2 0.28794060E-01 0.79983354E+03</pdfrwt>
<totfact> 0.42616200E+02</totfact>
</mgrwt>
</event>
<event>
 4    1  0.5280257E-005  0.6844925E+03  0.7818608E-02  0.9744126E-01
          2   -1    0    0  501    0  0.00000000000E+00  0.00000000000E+00  0.22475720613E+04  0.22475720613E+04  0.25500000000E-02 0.  1.
         -2   -1    0    0    0  501 -0.00000000000E+00 -0.00000000000E+00 -0.52115119654E+02  0.52115119716E+02  0.25500000000E-02 0. -1.
    5000001    1    1    2    0    0  0.90646054563E+02  0.28432380595E+03  0.99973393338E+03  0.10562905241E+04  0.16500000000E+03 0.  0.
   -5000001    1    1    2    0    0 -0.90646054563E+02 -0.28432380595E+03  0.11957230082E+04  0.12433966568E+04  0.16500000000E+03 0.  0.
<mgrwt>
<rscale>  0 0.68449247E+03</rscale>
<asrwt>0</asrwt>
<pdfrwt beam="1">  1        2 0.32108164E+00 0.68449247E+03</pdfrwt>
<pdfrwt beam="2">  1       -2 0.74450190E-02 0.68449247E+03</pdfrwt>
<totfact> 0.67949040E+02</totfact>
</mgrwt>
</event>
<event>
 4    1  0.5280257E-005  0.7032348E+03  0.7818608E-02  0.9711716E-01
          2   -1    0    0  501    0  0.00000000000E+00  0.00000000000E+00  0.73227973273E+03  0.73227973273E+03  0.25500000000E-02 0. -1.
         -2   -1    0    0    0  501 -0.00000000000E+00 -0.00000000000E+00 -0.16883546557E+03  0.16883546559E+03  0.25500000000E-02 0.  1.
    5000001    1    1    2    0    0  0.11985253835E+03  0.28515310145E+03  0.24703306219E+03  0.42886741078E+03  0.16500000000E+03 0.  0.
   -5000001    1    1    2    0    0 -0.11985253835E+03 -0.28515310145E+03  0.31641120496E+03  0.47224778754E+03  0.16500000000E+03 0.  0.
<mgrwt>
<rscale>  0 0.70323478E+03</rscale>
<asrwt>0</asrwt>
<pdfrwt beam="1">  1        2 0.10461139E+00 0.70323478E+03</pdfrwt>
<pdfrwt beam="2">  1       -2 0.24119352E-01 0.70323478E+03</pdfrwt>
<totfact> 0.65294052E+02</totfact>
</mgrwt>
</event>
<event>
 4    1  0.5280257E-005  0.5054515E+03  0.7818608E-02  0.1012366E+00
         -2   -1    0    0    0  501 -0.00000000000E+00  0.00000000000E+00  0.13350846197E+03  0.13350846200E+03  0.25500000000E-02 0. -1.
          2   -1    0    0  501    0  0.00000000000E+00 -0.00000000000E+00 -0.47839886676E+03  0.47839886677E+03  0.25500000000E-02 0.  1.
    5000001    1    1    2    0    0 -0.48451959056E+02  0.18470236922E+03 -0.18881043853E+03  0.31517763123E+03  0.16500000000E+03 0.  0.
   -5000001    1    1    2    0    0  0.48451959056E+02 -0.18470236922E+03 -0.15607996626E+03  0.29672969753E+03  0.16500000000E+03 0.  0.
<mgrwt>
<rscale>  0 0.50545147E+03</rscale>
<asrwt>0</asrwt>
<pdfrwt beam="1">  1        2 0.68342695E-01 0.50545147E+03</pdfrwt>
<pdfrwt beam="2">  1       -2 0.19072638E-01 0.50545147E+03</pdfrwt>
<totfact> 0.16324378E+03</totfact>
</mgrwt>
</event>
<event>
 4    1  0.5280257E-005  0.3762636E+03  0.7818608E-02  0.1052323E+00
          2   -1    0    0  501    0  0.00000000000E+00  0.00000000000E+00  0.11389770355E+04  0.11389770355E+04  0.25500000000E-02 0.  1.
         -2   -1    0    0    0  501 -0.00000000000E+00 -0.00000000000E+00 -0.31074877365E+02  0.31074877469E+02  0.25500000000E-02 0. -1.
    5000001    1    1    2    0    0 -0.89645191105E+02  0.20436099671E+01  0.58915143444E+03  0.61835657135E+03  0.16500000000E+03 0.  0.
   -5000001    1    1    2    0    0  0.89645191105E+02 -0.20436099671E+01  0.51875072366E+03  0.55169534159E+03  0.16500000000E+03 0.  0.
<mgrwt>
<rscale>  0 0.37626359E+03</rscale>
<asrwt>0</asrwt>
<pdfrwt beam="1">  1        2 0.16271104E+00 0.37626359E+03</pdfrwt>
<pdfrwt beam="2">  1       -2 0.44392674E-02 0.37626359E+03</pdfrwt>
<totfact> 0.57155886E+03</totfact>
</mgrwt>
</event>
<event>
 4    1  0.5280257E-005  0.4594727E+03  0.7818608E-02  0.1024934E+00
         -2   -1    0    0    0  501 -0.00000000000E+00  0.00000000000E+00  0.77981588164E+02  0.77981588206E+02  0.25500000000E-02 0. -1.
          2   -1    0    0  501    0  0.00000000000E+00 -0.00000000000E+00 -0.67681102046E+03  0.67681102046E+03  0.25500000000E-02 0.  1.
    5000001    1    1    2    0    0  0.48593768667E+02  0.11872299566E+03 -0.14273094539E+03  0.25308817994E+03  0.16500000000E+03 0.  0.
   -5000001    1    1    2    0    0 -0.48593768667E+02 -0.11872299566E+03 -0.45609848690E+03  0.50170442873E+03  0.16500000000E+03 0.  0.
<mgrwt>
<rscale>  0 0.45947273E+03</rscale>
<asrwt>0</asrwt>
<pdfrwt beam="1">  1        2 0.96687285E-01 0.45947273E+03</pdfrwt>
<pdfrwt beam="2">  1       -2 0.11140227E-01 0.45947273E+03</pdfrwt>
<totfact> 0.26823400E+03</totfact>
</mgrwt>
</event>
<event>
 4    1  0.5280257E-005  0.4429014E+03  0.7818608E-02  0.1029860E+00
         -2   -1    0    0    0  501 -0.00000000000E+00  0.00000000000E+00  0.39873352514E+02  0.39873352595E+02  0.25500000000E-02 0. -1.
          2   -1    0    0  501    0  0.00000000000E+00 -0.00000000000E+00 -0.12299044670E+04  0.12299044670E+04  0.25500000000E-02 0.  1.
    5000001    1    1    2    0    0  0.83501791486E+02  0.76846586224E+02 -0.86605213881E+03  0.88890339978E+03  0.16500000000E+03 0.  0.
   -5000001    1    1    2    0    0 -0.83501791486E+02 -0.76846586224E+02 -0.32397897568E+03  0.38087441983E+03  0.16500000000E+03 0.  0.
<mgrwt>
<rscale>  0 0.44290141E+03</rscale>
<asrwt>0</asrwt>
<pdfrwt beam="1">  1        2 0.17570061E+00 0.44290141E+03</pdfrwt>
<pdfrwt beam="2">  1       -2 0.56961940E-02 0.44290141E+03</pdfrwt>
<totfact> 0.34734260E+03</totfact>
</mgrwt>
</event>
<event>
 4    1  0.5280257E-005  0.5369791E+03  0.7818608E-02  0.1004553E+00
         -2   -1    0    0    0  501 -0.00000000000E+00  0.00000000000E+00  0.42351806477E+03  0.42351806478E+03  0.25500000000E-02 0. -1.
          2   -1    0    0  501    0  0.00000000000E+00 -0.00000000000E+00 -0.17020913417E+03  0.17020913418E+03  0.25500000000E-02 0.  1.
    5000001    1    1    2    0    0 -0.12332579312E+03 -0.18685881699E+02  0.31592686684E+03  0.37761514617E+03  0.16500000000E+03 0.  0.
   -5000001    1    1    2    0    0  0.12332579312E+03  0.18685881699E+02 -0.62617936237E+02  0.21611205279E+03  0.16500000000E+03 0.  0.
<mgrwt>
<rscale>  0 0.53697912E+03</rscale>
<asrwt>0</asrwt>
<pdfrwt beam="1">  1        2 0.24315591E-01 0.53697912E+03</pdfrwt>
<pdfrwt beam="2">  1       -2 0.60502580E-01 0.53697912E+03</pdfrwt>
<totfact> 0.58002644E+02</totfact>
</mgrwt>
</event>
<event>
 4    1  0.5280257E-005  0.4814523E+03  0.7818608E-02  0.1018737E+00
         -2   -1    0    0    0  501 -0.00000000000E+00  0.00000000000E+00  0.22402492459E+02  0.22402492604E+02  0.25500000000E-02 0. -1.
          2   -1    0    0  501    0  0.00000000000E+00 -0.00000000000E+00 -0.25867244734E+04  0.25867244734E+04  0.25500000000E-02 0.  1.
    5000001    1    1    2    0    0  0.16701724997E+03  0.53159162327E+02 -0.12921791556E+04  0.13144096121E+04  0.16500000000E+03 0.  0.
   -5000001    1    1    2    0    0 -0.16701724997E+03 -0.53159162327E+02 -0.12721428254E+04  0.12947173539E+04  0.16500000000E+03 0.  0.
<mgrwt>
<rscale>  0 0.48145229E+03</rscale>
<asrwt>0</asrwt>
<pdfrwt beam="1">  1        2 0.36953188E+00 0.48145229E+03</pdfrwt>
<pdfrwt beam="2">  1       -2 0.32003577E-02 0.48145229E+03</pdfrwt>
<totfact> 0.17128606E+03</totfact>
</mgrwt>
</event>
<event>
 4    1  0.5280257E-005  0.4691410E+03  0.7818608E-02  0.1022163E+00
         -2   -1    0    0    0  501 -0.00000000000E+00  0.00000000000E+00  0.68559227438E+03  0.68559227439E+03  0.25500000000E-02 0. -1.
          2   -1    0    0  501    0  0.00000000000E+00 -0.00000000000E+00 -0.80256613488E+02  0.80256613529E+02  0.25500000000E-02 0.  1.
    5000001    1    1    2    0    0 -0.56121577976E+02  0.15402452569E+03  0.35232027891E+03  0.42217030326E+03  0.16500000000E+03 0.  0.
   -5000001    1    1    2    0    0  0.56121577976E+02 -0.15402452569E+03  0.25301538199E+03  0.34367858465E+03  0.16500000000E+03 0.  0.
<mgrwt>
<rscale>  0 0.46914098E+03</rscale>
<asrwt>0</asrwt>
<pdfrwt beam="1">  1        2 0.11465230E-01 0.46914098E+03</pdfrwt>
<pdfrwt beam="2">  1       -2 0.97941756E-01 0.46914098E+03</pdfrwt>
<totfact> 0.48941366E+02</totfact>
</mgrwt>
</event>
<event>
 4    1  0.5280257E-005  0.4631091E+03  0.7818608E-02  0.1023883E+00
          2   -1    0    0  501    0  0.00000000000E+00  0.00000000000E+00  0.21995862285E+04  0.21995862285E+04  0.25500000000E-02 0.  1.
         -2   -1    0    0    0  501 -0.00000000000E+00 -0.00000000000E+00 -0.24376181044E+02  0.24376181178E+02  0.25500000000E-02 0. -1.
    5000001    1    1    2    0    0  0.12699822374E+03  0.97702239964E+02  0.95890529655E+03  0.98610275544E+03  0.16500000000E+03 0.  0.
   -5000001    1    1    2    0    0 -0.12699822374E+03 -0.97702239964E+02  0.12163047509E+04  0.12378596543E+04  0.16500000000E+03 0.  0.
<mgrwt>
<rscale>  0 0.46310911E+03</rscale>
<asrwt>0</asrwt>
<pdfrwt beam="1">  1        2 0.31422637E+00 0.46310911E+03</pdfrwt>
<pdfrwt beam="2">  1       -2 0.34823141E-02 0.46310911E+03</pdfrwt>
<totfact> 0.23669147E+03</totfact>
</mgrwt>
</event>
<event>
 4    1  0.5280257E-005  0.5448913E+03  0.7818608E-02  0.1002683E+00
         -2   -1    0    0    0  501 -0.00000000000E+00  0.00000000000E+00  0.99664031605E+02  0.99664031637E+02  0.25500000000E-02 0.  1.
          2   -1    0    0  501    0  0.00000000000E+00 -0.00000000000E+00 -0.74476847979E+03  0.74476847980E+03  0.25500000000E-02 0. -1.
    5000001    1    1    2    0    0 -0.37441749093E+02 -0.20606613809E+03 -0.40934371254E+03  0.48852063707E+03  0.16500000000E+03 0.  0.
   -5000001    1    1    2    0    0  0.37441749093E+02  0.20606613809E+03 -0.23576073565E+03  0.35591187437E+03  0.16500000000E+03 0.  0.
<mgrwt>
<rscale>  0 0.54489129E+03</rscale>
<asrwt>0</asrwt>
<pdfrwt beam="1">  1        2 0.10639549E+00 0.54489129E+03</pdfrwt>
<pdfrwt beam="2">  1       -2 0.14237719E-01 0.54489129E+03</pdfrwt>
<totfact> 0.15938306E+03</totfact>
</mgrwt>
</event>
<event>
 4    1  0.5280257E-005  0.1098442E+04  0.7818608E-02  0.9206711E-01
         -2   -1    0    0    0  501 -0.00000000000E+00  0.00000000000E+00  0.89726688727E+02  0.89726688763E+02  0.25500000000E-02 0. -1.
          2   -1    0    0  501    0  0.00000000000E+00 -0.00000000000E+00 -0.33618080420E+04  0.33618080420E+04  0.25500000000E-02 0.  1.
    5000001    1    1    2    0    0 -0.28788392185E+03  0.43737122317E+03 -0.15865407230E+04  0.16788410303E+04  0.16500000000E+03 0.  0.
   -5000001    1    1    2    0    0  0.28788392185E+03 -0.43737122317E+03 -0.16855406303E+04  0.17726937004E+04  0.16500000000E+03 0.  0.
<mgrwt>
<rscale>  0 0.10984424E+04</rscale>
<asrwt>0</asrwt>
<pdfrwt beam="1">  1        2 0.48025821E+00 0.10984424E+04</pdfrwt>
<pdfrwt beam="2">  1       -2 0.12818100E-01 0.10984424E+04</pdfrwt>
<totfact> 0.67724513E+01</totfact>
</mgrwt>
</event>
<event>
 4    1  0.5280257E-005  0.5163058E+03  0.7818608E-02  0.1009608E+00
         -2   -1    0    0    0  501 -0.00000000000E+00  0.00000000000E+00  0.18884039275E+03  0.18884039277E+03  0.25500000000E-02 0. -1.
          2   -1    0    0  501    0  0.00000000000E+00 -0.00000000000E+00 -0.35290599801E+03  0.35290599802E+03  0.25500000000E-02 0.  1.
    5000001    1    1    2    0    0 -0.99459878441E+02  0.45390780184E+01 -0.26226697751E+03  0.32545635367E+03  0.16500000000E+03 0.  0.
   -5000001    1    1    2    0    0  0.99459878441E+02 -0.45390780184E+01  0.98201372250E+02  0.21629003713E+03  0.16500000000E+03 0.  0.
<mgrwt>
<rscale>  0 0.51630575E+03</rscale>
<asrwt>0</asrwt>
<pdfrwt beam="1">  1        2 0.50415142E-01 0.51630575E+03</pdfrwt>
<pdfrwt beam="2">  1       -2 0.26977199E-01 0.51630575E+03</pdfrwt>
<totfact> 0.12403976E+03</totfact>
</mgrwt>
</event>
<event>
 4    1  0.5280257E-005  0.3795752E+03  0.7818608E-02  0.1051091E+00
          2   -1    0    0  501    0  0.00000000000E+00  0.00000000000E+00  0.21832280981E+03  0.21832280982E+03  0.25500000000E-02 0.  1.
         -2   -1    0    0    0  501 -0.00000000000E+00 -0.00000000000E+00 -0.16498200536E+03  0.16498200538E+03  0.25500000000E-02 0. -1.
    5000001    1    1    2    0    0 -0.18317247152E+02  0.86330413536E+02 -0.53567290325E+01  0.18719550313E+03  0.16500000000E+03 0.  0.
   -5000001    1    1    2    0    0  0.18317247152E+02 -0.86330413536E+02  0.58697533483E+02  0.19610931207E+03  0.16500000000E+03 0.  0.
<mgrwt>
<rscale>  0 0.37957521E+03</rscale>
<asrwt>0</asrwt>
<pdfrwt beam="1">  1        2 0.31188973E-01 0.37957521E+03</pdfrwt>
<pdfrwt beam="2">  1       -2 0.23568858E-01 0.37957521E+03</pdfrwt>
<totfact> 0.26676830E+03</totfact>
</mgrwt>
</event>
<event>
 4    1  0.5280257E-005  0.6055342E+03  0.7818608E-02  0.9893990E-01
          2   -1    0    0  501    0  0.00000000000E+00  0.00000000000E+00  0.19426534311E+04  0.19426534311E+04  0.25500000000E-02 0.  1.
         -2   -1    0    0    0  501 -0.00000000000E+00 -0.00000000000E+00 -0.47186958139E+02  0.47186958208E+02  0.25500000000E-02 0. -1.
    5000001    1    1    2    0    0 -0.74612094028E+02  0.21566545408E+02  0.15353985546E+03  0.23839372406E+03  0.16500000000E+03 0.  0.
   -5000001    1    1    2    0    0  0.74612094028E+02 -0.21566545408E+02  0.17419266175E+04  0.17514466652E+04  0.16500000000E+03 0.  0.
<mgrwt>
<rscale>  0 0.60553416E+03</rscale>
<asrwt>0</asrwt>
<pdfrwt beam="1">  1        2 0.27752189E+00 0.60553416E+03</pdfrwt>
<pdfrwt beam="2">  1       -2 0.67409948E-02 0.60553416E+03</pdfrwt>
<totfact> 0.11383728E+03</totfact>
</mgrwt>
</event>
<event>
 4    1  0.5280257E-005  0.8173410E+03  0.7818608E-02  0.9535250E-01
         -2   -1    0    0    0  501 -0.00000000000E+00  0.00000000000E+00  0.16322147264E+03  0.16322147266E+03  0.25500000000E-02 0. -1.
          2   -1    0    0  501    0  0.00000000000E+00 -0.00000000000E+00 -0.10232207133E+04  0.10232207133E+04  0.25500000000E-02 0.  1.
    5000001    1    1    2    0    0 -0.30858467268E+03 -0.11271600458E+03 -0.17091177710E+03  0.40541982371E+03  0.16500000000E+03 0.  0.
   -5000001    1    1    2    0    0  0.30858467268E+03  0.11271600458E+03 -0.68908746357E+03  0.78102236226E+03  0.16500000000E+03 0.  0.
<mgrwt>
<rscale>  0 0.81734103E+03</rscale>
<asrwt>0</asrwt>
<pdfrwt beam="1">  1        2 0.14617438E+00 0.81734103E+03</pdfrwt>
<pdfrwt beam="2">  1       -2 0.23317354E-01 0.81734103E+03</pdfrwt>
<totfact> 0.44260849E+02</totfact>
</mgrwt>
</event>
<event>
 4    1  0.5280257E-005  0.7053807E+03  0.7818608E-02  0.9708074E-01
          2   -1    0    0  501    0  0.00000000000E+00  0.00000000000E+00  0.21581537142E+03  0.21581537144E+03  0.25500000000E-02 0.  1.
         -2   -1    0    0    0  501 -0.00000000000E+00 -0.00000000000E+00 -0.57637459790E+03  0.57637459791E+03  0.25500000000E-02 0. -1.
    5000001    1    1    2    0    0  0.13366075025E+03 -0.16873342152E+03 -0.43347917575E+03  0.51133683567E+03  0.16500000000E+03 0.  0.
   -5000001    1    1    2    0    0 -0.13366075025E+03  0.16873342152E+03  0.72919949272E+02  0.28085313368E+03  0.16500000000E+03 0.  0.
<mgrwt>
<rscale>  0 0.70538074E+03</rscale>
<asrwt>0</asrwt>
<pdfrwt beam="1">  1        2 0.30830768E-01 0.70538074E+03</pdfrwt>
<pdfrwt beam="2">  1       -2 0.82339227E-01 0.70538074E+03</pdfrwt>
<totfact> 0.22560243E+02</totfact>
</mgrwt>
</event>
<event>
 4    1  0.5280257E-005  0.4308399E+03  0.7818608E-02  0.1033595E+00
          2   -1    0    0  501    0  0.00000000000E+00  0.00000000000E+00  0.14262031458E+04  0.14262031458E+04  0.25500000000E-02 0.  1.
         -2   -1    0    0    0  501 -0.00000000000E+00 -0.00000000000E+00 -0.32537969067E+02  0.32537969167E+02  0.25500000000E-02 0. -1.
    5000001    1    1    2    0    0  0.93284652366E+02  0.10030772190E+03  0.76598007605E+03  0.79543330478E+03  0.16500000000E+03 0.  0.
   -5000001    1    1    2    0    0 -0.93284652366E+02 -0.10030772190E+03  0.62768510063E+03  0.66330781014E+03  0.16500000000E+03 0.  0.
<mgrwt>
<rscale>  0 0.43083990E+03</rscale>
<asrwt>0</asrwt>
<pdfrwt beam="1">  1        2 0.20374329E+00 0.43083990E+03</pdfrwt>
<pdfrwt beam="2">  1       -2 0.46482816E-02 0.43083990E+03</pdfrwt>
<totfact> 0.37329545E+03</totfact>
</mgrwt>
</event>
<event>
 4    1  0.5280257E-005  0.5634538E+03  0.7818608E-02  0.9984270E-01
         -2   -1    0    0    0  501 -0.00000000000E+00  0.00000000000E+00  0.55569633664E+02  0.55569633722E+02  0.25500000000E-02 0. -1.
          2   -1    0    0  501    0  0.00000000000E+00 -0.00000000000E+00 -0.14282989718E+04  0.14282989719E+04  0.25500000000E-02 0.  1.
    5000001    1    1    2    0    0  0.53843801824E+02 -0.84478349155E+02 -0.12267781258E+04  0.12418716988E+04  0.16500000000E+03 0.  0.
   -5000001    1    1    2    0    0 -0.53843801824E+02  0.84478349155E+02 -0.14595121241E+03  0.24199690675E+03  0.16500000000E+03 0.  0.
<mgrwt>
<rscale>  0 0.56345382E+03</rscale>
<asrwt>0</asrwt>
<pdfrwt beam="1">  1        2 0.20404269E+00 0.56345382E+03</pdfrwt>
<pdfrwt beam="2">  1       -2 0.79385200E-02 0.56345382E+03</pdfrwt>
<totfact> 0.16116653E+03</totfact>
</mgrwt>
</event>
<event>
 4    1  0.5280257E-005  0.3888886E+03  0.7818608E-02  0.1047697E+00
         -2   -1    0    0    0  501 -0.00000000000E+00  0.00000000000E+00  0.25726487357E+03  0.25726487358E+03  0.25500000000E-02 0.  1.
          2   -1    0    0  501    0  0.00000000000E+00 -0.00000000000E+00 -0.14696362762E+03  0.14696362764E+03  0.25500000000E-02 0. -1.
    5000001    1    1    2    0    0  0.16380866023E+02  0.96458842227E+02  0.88200057528E+02  0.21113240197E+03  0.16500000000E+03 0.  0.
   -5000001    1    1    2    0    0 -0.16380866023E+02 -0.96458842227E+02  0.22101188428E+02  0.19309609925E+03  0.16500000000E+03 0.  0.
<mgrwt>
<rscale>  0 0.38888857E+03</rscale>
<asrwt>0</asrwt>
<pdfrwt beam="1">  1        2 0.20994804E-01 0.38888857E+03</pdfrwt>
<pdfrwt beam="2">  1       -2 0.36752124E-01 0.38888857E+03</pdfrwt>
<totfact> 0.18525885E+03</totfact>
</mgrwt>
</event>
<event>
 4    1  0.5280257E-005  0.5767691E+03  0.7818608E-02  0.9954811E-01
          2   -1    0    0  501    0  0.00000000000E+00  0.00000000000E+00  0.12337192630E+04  0.12337192630E+04  0.25500000000E-02 0.  1.
         -2   -1    0    0    0  501 -0.00000000000E+00 -0.00000000000E+00 -0.67410506666E+02  0.67410506714E+02  0.25500000000E-02 0. -1.
    5000001    1    1    2    0    0  0.22293808915E+03 -0.55532325884E+02  0.45643397795E+03  0.53697505253E+03  0.16500000000E+03 0.  0.
   -5000001    1    1    2    0    0 -0.22293808915E+03  0.55532325884E+02  0.70987477838E+03  0.76415471718E+03  0.16500000000E+03 0.  0.
<mgrwt>
<rscale>  0 0.57676907E+03</rscale>
<asrwt>0</asrwt>
<pdfrwt beam="1">  1        2 0.17624562E+00 0.57676907E+03</pdfrwt>
<pdfrwt beam="2">  1       -2 0.96300720E-02 0.57676907E+03</pdfrwt>
<totfact> 0.15051823E+03</totfact>
</mgrwt>
</event>
<event>
 4    1  0.5280257E-005  0.4133705E+03  0.7818608E-02  0.1039246E+00
         -2   -1    0    0    0  501 -0.00000000000E+00  0.00000000000E+00  0.31145261371E+02  0.31145261475E+02  0.25500000000E-02 0. -1.
          2   -1    0    0  501    0  0.00000000000E+00 -0.00000000000E+00 -0.13715987186E+04  0.13715987186E+04  0.25500000000E-02 0.  1.
    5000001    1    1    2    0    0  0.61400058820E+02  0.40684516603E+02 -0.32972171359E+03  0.37598750715E+03  0.16500000000E+03 0.  0.
   -5000001    1    1    2    0    0 -0.61400058820E+02 -0.40684516603E+02 -0.10107317436E+04  0.10267564729E+04  0.16500000000E+03 0.  0.
<mgrwt>
<rscale>  0 0.41337054E+03</rscale>
<asrwt>0</asrwt>
<pdfrwt beam="1">  1        2 0.19594264E+00 0.41337054E+03</pdfrwt>
<pdfrwt beam="2">  1       -2 0.44493239E-02 0.41337054E+03</pdfrwt>
<totfact> 0.42630326E+03</totfact>
</mgrwt>
</event>
<event>
 4    1  0.5280257E-005  0.4698958E+03  0.7818608E-02  0.1021950E+00
         -2   -1    0    0    0  501 -0.00000000000E+00  0.00000000000E+00  0.75812610777E+02  0.75812610820E+02  0.25500000000E-02 0. -1.
          2   -1    0    0  501    0  0.00000000000E+00 -0.00000000000E+00 -0.72811778224E+03  0.72811778225E+03  0.25500000000E-02 0.  1.
    5000001    1    1    2    0    0 -0.15980856538E+03 -0.49308309905E+02 -0.33013676311E+03  0.40519793848E+03  0.16500000000E+03 0.  0.
   -5000001    1    1    2    0    0  0.15980856538E+03  0.49308309905E+02 -0.32216840836E+03  0.39873245459E+03  0.16500000000E+03 0.  0.
<mgrwt>
<rscale>  0 0.46989578E+03</rscale>
<asrwt>0</asrwt>
<pdfrwt beam="1">  1        2 0.10401682E+00 0.46989578E+03</pdfrwt>
<pdfrwt beam="2">  1       -2 0.10830373E-01 0.46989578E+03</pdfrwt>
<totfact> 0.25701965E+03</totfact>
</mgrwt>
</event>
<event>
 4    1  0.5280257E-005  0.3954077E+03  0.7818608E-02  0.1045382E+00
          2   -1    0    0  501    0  0.00000000000E+00  0.00000000000E+00  0.70537946029E+03  0.70537946030E+03  0.25500000000E-02 0.  1.
         -2   -1    0    0    0  501 -0.00000000000E+00 -0.00000000000E+00 -0.55412449753E+02  0.55412449811E+02  0.25500000000E-02 0. -1.
    5000001    1    1    2    0    0 -0.22500889511E+02 -0.32218005592E+02  0.12954580493E+03  0.21342775239E+03  0.16500000000E+03 0.  0.
   -5000001    1    1    2    0    0  0.22500889511E+02  0.32218005592E+02  0.52042120561E+03  0.54736415772E+03  0.16500000000E+03 0.  0.
<mgrwt>
<rscale>  0 0.39540766E+03</rscale>
<asrwt>0</asrwt>
<pdfrwt beam="1">  1        2 0.10076850E+00 0.39540766E+03</pdfrwt>
<pdfrwt beam="2">  1       -2 0.79160641E-02 0.39540766E+03</pdfrwt>
<totfact> 0.44004319E+03</totfact>
</mgrwt>
</event>
<event>
 4    1  0.5280257E-005  0.7076826E+03  0.7818608E-02  0.9704183E-01
         -2   -1    0    0    0  501 -0.00000000000E+00  0.00000000000E+00  0.11122724944E+04  0.11122724944E+04  0.25500000000E-02 0. -1.
          2   -1    0    0  501    0  0.00000000000E+00 -0.00000000000E+00 -0.11256565326E+03  0.11256565329E+03  0.25500000000E-02 0.  1.
    5000001    1    1    2    0    0  0.29986832008E+03  0.56409937691E+02  0.62070538875E+03  0.71105785283E+03  0.16500000000E+03 0.  0.
   -5000001    1    1    2    0    0 -0.29986832008E+03 -0.56409937691E+02  0.37900145235E+03  0.51378029481E+03  0.16500000000E+03 0.  0.
<mgrwt>
<rscale>  0 0.70768264E+03</rscale>
<asrwt>0</asrwt>
<pdfrwt beam="1">  1        2 0.16080808E-01 0.70768264E+03</pdfrwt>
<pdfrwt beam="2">  1       -2 0.15889607E+00 0.70768264E+03</pdfrwt>
<totfact> 0.95920252E+01</totfact>
</mgrwt>
</event>
<event>
 4    1  0.5280257E-005  0.6097019E+03  0.7818608E-02  0.9885480E-01
         -2   -1    0    0    0  501 -0.00000000000E+00  0.00000000000E+00  0.82322211913E+02  0.82322211953E+02  0.25500000000E-02 0. -1.
          2   -1    0    0  501    0  0.00000000000E+00 -0.00000000000E+00 -0.11289068023E+04  0.11289068023E+04  0.25500000000E-02 0.  1.
    5000001    1    1    2    0    0  0.20733598683E+03  0.13864957110E+03 -0.40581110833E+03  0.50410273818E+03  0.16500000000E+03 0.  0.
   -5000001    1    1    2    0    0 -0.20733598683E+03 -0.13864957110E+03 -0.64077348204E+03  0.70712627606E+03  0.16500000000E+03 0.  0.
<mgrwt>
<rscale>  0 0.60970191E+03</rscale>
<asrwt>0</asrwt>
<pdfrwt beam="1">  1        2 0.16127239E+00 0.60970191E+03</pdfrwt>
<pdfrwt beam="2">  1       -2 0.11760317E-01 0.60970191E+03</pdfrwt>
<totfact> 0.12444606E+03</totfact>
</mgrwt>
</event>
<event>
 4    1  0.5280257E-005  0.5460684E+03  0.7818608E-02  0.1002408E+00
         -2   -1    0    0    0  501 -0.00000000000E+00  0.00000000000E+00  0.49397067457E+02  0.49397067523E+02  0.25500000000E-02 0. -1.
          2   -1    0    0  501    0  0.00000000000E+00 -0.00000000000E+00 -0.15091517668E+04  0.15091517668E+04  0.25500000000E-02 0.  1.
    5000001    1    1    2    0    0 -0.28825493327E+02 -0.19268310585E+03 -0.45367530990E+03  0.52058042141E+03  0.16500000000E+03 0.  0.
   -5000001    1    1    2    0    0  0.28825493327E+02  0.19268310585E+03 -0.10060793894E+04  0.10379684129E+04  0.16500000000E+03 0.  0.
<mgrwt>
<rscale>  0 0.54606839E+03</rscale>
<asrwt>0</asrwt>
<pdfrwt beam="1">  1        2 0.21559308E+00 0.54606839E+03</pdfrwt>
<pdfrwt beam="2">  1       -2 0.70567249E-02 0.54606839E+03</pdfrwt>
<totfact> 0.17629877E+03</totfact>
</mgrwt>
</event>
<event>
 4    1  0.5280257E-005  0.6255199E+03  0.7818608E-02  0.9853831E-01
          2   -1    0    0  501    0  0.00000000000E+00  0.00000000000E+00  0.37087998245E+04  0.37087998245E+04  0.25500000000E-02 0.  1.
         -2   -1    0    0    0  501 -0.00000000000E+00 -0.00000000000E+00 -0.26374781960E+02  0.26374782084E+02  0.25500000000E-02 0. -1.
    5000001    1    1    2    0    0  0.13498746647E+03 -0.19255047307E+03  0.25797382253E+04  0.25956832650E+04  0.16500000000E+03 0.  0.
   -5000001    1    1    2    0    0 -0.13498746647E+03  0.19255047307E+03  0.11026868172E+04  0.11394913416E+04  0.16500000000E+03 0.  0.
<mgrwt>
<rscale>  0 0.62551990E+03</rscale>
<asrwt>0</asrwt>
<pdfrwt beam="1">  1        2 0.52982910E+00 0.62551990E+03</pdfrwt>
<pdfrwt beam="2">  1       -2 0.37678221E-02 0.62551990E+03</pdfrwt>
<totfact> 0.31022444E+02</totfact>
</mgrwt>
</event>
<event>
 4    1  0.5280257E-005  0.5169288E+03  0.7818608E-02  0.1009452E+00
          2   -1    0    0  501    0  0.00000000000E+00  0.00000000000E+00  0.11834987677E+04  0.11834987677E+04  0.25500000000E-02 0.  1.
         -2   -1    0    0    0  501 -0.00000000000E+00 -0.00000000000E+00 -0.56446069386E+02  0.56446069444E+02  0.25500000000E-02 0. -1.
    5000001    1    1    2    0    0 -0.85439463975E+01  0.15757537053E+03  0.85411145435E+03  0.88410088387E+03  0.16500000000E+03 0.  0.
   -5000001    1    1    2    0    0  0.85439463975E+01 -0.15757537053E+03  0.27294124393E+03  0.35584395324E+03  0.16500000000E+03 0.  0.
<mgrwt>
<rscale>  0 0.51692883E+03</rscale>
<asrwt>0</asrwt>
<pdfrwt beam="1">  1        2 0.16907125E+00 0.51692883E+03</pdfrwt>
<pdfrwt beam="2">  1       -2 0.80637242E-02 0.51692883E+03</pdfrwt>
<totfact> 0.21355875E+03</totfact>
</mgrwt>
</event>
<event>
 4    1  0.5280257E-005  0.4913046E+03  0.7818608E-02  0.1016074E+00
          2   -1    0    0  501    0  0.00000000000E+00  0.00000000000E+00  0.10187304049E+04  0.10187304049E+04  0.25500000000E-02 0.  1.
         -2   -1    0    0    0  501 -0.00000000000E+00 -0.00000000000E+00 -0.59235536096E+02  0.59235536150E+02  0.25500000000E-02 0. -1.
    5000001    1    1    2    0    0  0.17748448904E+03 -0.38818902714E+02  0.45648691900E+03  0.51827884220E+03  0.16500000000E+03 0.  0.
   -5000001    1    1    2    0    0 -0.17748448904E+03  0.38818902714E+02  0.50300794982E+03  0.55968709887E+03  0.16500000000E+03 0.  0.
<mgrwt>
<rscale>  0 0.49130456E+03</rscale>
<asrwt>0</asrwt>
<pdfrwt beam="1">  1        2 0.14553292E+00 0.49130456E+03</pdfrwt>
<pdfrwt beam="2">  1       -2 0.84622193E-02 0.49130456E+03</pdfrwt>
<totfact> 0.24635735E+03</totfact>
</mgrwt>
</event>
<event>
 4    1  0.5280257E-005  0.5671805E+03  0.7818608E-02  0.9975937E-01
          2   -1    0    0  501    0  0.00000000000E+00  0.00000000000E+00  0.11804020490E+04  0.11804020490E+04  0.25500000000E-02 0.  1.
         -2   -1    0    0    0  501 -0.00000000000E+00 -0.00000000000E+00 -0.68132244399E+02  0.68132244446E+02  0.25500000000E-02 0. -1.
    5000001    1    1    2    0    0 -0.57781792730E+02 -0.22295662441E+03  0.52917019647E+03  0.60024535714E+03  0.16500000000E+03 0.  0.
   -5000001    1    1    2    0    0  0.57781792730E+02  0.22295662441E+03  0.58309960816E+03  0.64828893633E+03  0.16500000000E+03 0.  0.
<mgrwt>
<rscale>  0 0.56718054E+03</rscale>
<asrwt>0</asrwt>
<pdfrwt beam="1">  1        2 0.16862886E+00 0.56718054E+03</pdfrwt>
<pdfrwt beam="2">  1       -2 0.97331783E-02 0.56718054E+03</pdfrwt>
<totfact> 0.15847951E+03</totfact>
</mgrwt>
</event>
<event>
 4    1  0.5280257E-005  0.3822701E+03  0.7818608E-02  0.1050098E+00
         -2   -1    0    0    0  501 -0.00000000000E+00  0.00000000000E+00  0.21754712641E+03  0.21754712643E+03  0.25500000000E-02 0. -1.
          2   -1    0    0  501    0  0.00000000000E+00 -0.00000000000E+00 -0.16792966289E+03  0.16792966291E+03  0.25500000000E-02 0.  1.
    5000001    1    1    2    0    0 -0.80964567995E+02 -0.28609967619E+02  0.69152881975E+02  0.19844624613E+03  0.16500000000E+03 0.  0.
   -5000001    1    1    2    0    0  0.80964567995E+02  0.28609967619E+02 -0.19535418451E+02  0.18703054321E+03  0.16500000000E+03 0.  0.
<mgrwt>
<rscale>  0 0.38227014E+03</rscale>
<asrwt>0</asrwt>
<pdfrwt beam="1">  1        2 0.23989952E-01 0.38227014E+03</pdfrwt>
<pdfrwt beam="2">  1       -2 0.31078161E-01 0.38227014E+03</pdfrwt>
<totfact> 0.21751331E+03</totfact>
</mgrwt>
</event>
<event>
 4    1  0.5280257E-005  0.4194001E+03  0.7818608E-02  0.1037262E+00
         -2   -1    0    0    0  501 -0.00000000000E+00  0.00000000000E+00  0.24715605230E+03  0.24715605232E+03  0.25500000000E-02 0. -1.
          2   -1    0    0  501    0  0.00000000000E+00 -0.00000000000E+00 -0.17792041922E+03  0.17792041923E+03  0.25500000000E-02 0.  1.
    5000001    1    1    2    0    0 -0.11267915299E+03 -0.48279504308E+02  0.76671639579E+02  0.21938788109E+03  0.16500000000E+03 0.  0.
   -5000001    1    1    2    0    0  0.11267915299E+03  0.48279504308E+02 -0.74360064904E+01  0.20568859046E+03  0.16500000000E+03 0.  0.
<mgrwt>
<rscale>  0 0.41940009E+03</rscale>
<asrwt>0</asrwt>
<pdfrwt beam="1">  1        2 0.25417203E-01 0.41940009E+03</pdfrwt>
<pdfrwt beam="2">  1       -2 0.35308008E-01 0.41940009E+03</pdfrwt>
<totfact> 0.16085258E+03</totfact>
</mgrwt>
</event>
<event>
 4    1  0.5280257E-005  0.4199861E+03  0.7818608E-02  0.1037071E+00
          2   -1    0    0  501    0  0.00000000000E+00  0.00000000000E+00  0.67677318885E+03  0.67677318885E+03  0.25500000000E-02 0.  1.
         -2   -1    0    0    0  501 -0.00000000000E+00 -0.00000000000E+00 -0.65157857043E+02  0.65157857093E+02  0.25500000000E-02 0. -1.
    5000001    1    1    2    0    0 -0.39637356141E+02  0.83631550410E+02  0.14480104174E+03  0.23823874142E+03  0.16500000000E+03 0.  0.
   -5000001    1    1    2    0    0  0.39637356141E+02 -0.83631550410E+02  0.46681429006E+03  0.50369230452E+03  0.16500000000E+03 0.  0.
<mgrwt>
<rscale>  0 0.41998615E+03</rscale>
<asrwt>0</asrwt>
<pdfrwt beam="1">  1        2 0.96681881E-01 0.41998615E+03</pdfrwt>
<pdfrwt beam="2">  1       -2 0.93082656E-02 0.41998615E+03</pdfrwt>
<totfact> 0.35797755E+03</totfact>
</mgrwt>
</event>
<event>
 4    1  0.5280257E-005  0.3933444E+03  0.7818608E-02  0.1046109E+00
         -2   -1    0    0    0  501 -0.00000000000E+00  0.00000000000E+00  0.17044588370E+02  0.17044588560E+02  0.25500000000E-02 0. -1.
          2   -1    0    0  501    0  0.00000000000E+00 -0.00000000000E+00 -0.22693396423E+04  0.22693396423E+04  0.25500000000E-02 0.  1.
    5000001    1    1    2    0    0 -0.28577926872E+02  0.71129248143E+02 -0.15603079234E+04  0.15708793345E+04  0.16500000000E+03 0.  0.
   -5000001    1    1    2    0    0  0.28577926872E+02 -0.71129248143E+02 -0.69198713049E+03  0.71550489629E+03  0.16500000000E+03 0.  0.
<mgrwt>
<rscale>  0 0.39334443E+03</rscale>
<asrwt>0</asrwt>
<pdfrwt beam="1">  1        2 0.32419119E+00 0.39334443E+03</pdfrwt>
<pdfrwt beam="2">  1       -2 0.24349426E-02 0.39334443E+03</pdfrwt>
<totfact> 0.37550952E+03</totfact>
</mgrwt>
</event>
<event>
 4    1  0.5280257E-005  0.4072463E+03  0.7818608E-02  0.1041299E+00
         -2   -1    0    0    0  501 -0.00000000000E+00  0.00000000000E+00  0.14046428218E+03  0.14046428220E+03  0.25500000000E-02 0. -1.
          2   -1    0    0  501    0  0.00000000000E+00 -0.00000000000E+00 -0.29518093064E+03  0.29518093065E+03  0.25500000000E-02 0.  1.
    5000001    1    1    2    0    0  0.85690494654E+02  0.68004809059E+02 -0.12832374749E+03  0.23592265491E+03  0.16500000000E+03 0.  0.
   -5000001    1    1    2    0    0 -0.85690494654E+02 -0.68004809059E+02 -0.26392900978E+02  0.19972255794E+03  0.16500000000E+03 0.  0.
<mgrwt>
<rscale>  0 0.40724625E+03</rscale>
<asrwt>0</asrwt>
<pdfrwt beam="1">  1        2 0.42168704E-01 0.40724625E+03</pdfrwt>
<pdfrwt beam="2">  1       -2 0.20066326E-01 0.40724625E+03</pdfrwt>
<totfact> 0.25400778E+03</totfact>
</mgrwt>
</event>
<event>
 4    1  0.5280257E-005  0.3685790E+03  0.7818608E-02  0.1055238E+00
         -2   -1    0    0    0  501 -0.00000000000E+00  0.00000000000E+00  0.61440778327E+02  0.61440778380E+02  0.25500000000E-02 0. -1.
          2   -1    0    0  501    0  0.00000000000E+00 -0.00000000000E+00 -0.55277016185E+03  0.55277016186E+03  0.25500000000E-02 0.  1.
    5000001    1    1    2    0    0 -0.67285730207E+02  0.45340552213E+02 -0.22495171696E+03  0.29053641790E+03  0.16500000000E+03 0.  0.
   -5000001    1    1    2    0    0  0.67285730207E+02 -0.45340552213E+02 -0.26637766657E+03  0.32367452234E+03  0.16500000000E+03 0.  0.
<mgrwt>
<rscale>  0 0.36857905E+03</rscale>
<asrwt>0</asrwt>
<pdfrwt beam="1">  1        2 0.78967163E-01 0.36857905E+03</pdfrwt>
<pdfrwt beam="2">  1       -2 0.87772544E-02 0.36857905E+03</pdfrwt>
<totfact> 0.49633407E+03</totfact>
</mgrwt>
</event>
<event>
 4    1  0.5280257E-005  0.9728541E+03  0.7818608E-02  0.9338829E-01
         -2   -1    0    0    0  501 -0.00000000000E+00  0.00000000000E+00  0.29453985384E+03  0.29453985385E+03  0.25500000000E-02 0. -1.
          2   -1    0    0  501    0  0.00000000000E+00 -0.00000000000E+00 -0.80332512683E+03  0.80332512684E+03  0.25500000000E-02 0.  1.
    5000001    1    1    2    0    0  0.38710243148E+03  0.14280916520E+03 -0.31122241740E+02  0.44546194456E+03  0.16500000000E+03 0.  0.
   -5000001    1    1    2    0    0 -0.38710243148E+03 -0.14280916520E+03 -0.47766303125E+03  0.65240303613E+03  0.16500000000E+03 0.  0.
<mgrwt>
<rscale>  0 0.97285408E+03</rscale>
<asrwt>0</asrwt>
<pdfrwt beam="1">  1        2 0.11476073E+00 0.97285408E+03</pdfrwt>
<pdfrwt beam="2">  1       -2 0.42077122E-01 0.97285408E+03</pdfrwt>
<totfact> 0.20207034E+02</totfact>
</mgrwt>
</event>
<event>
 4    1  0.5280257E-005  0.5271990E+03  0.7818608E-02  0.1006914E+00
         -2   -1    0    0    0  501 -0.00000000000E+00  0.00000000000E+00  0.13456959770E+03  0.13456959773E+03  0.25500000000E-02 0. -1.
          2   -1    0    0  501    0  0.00000000000E+00 -0.00000000000E+00 -0.51634772605E+03  0.51634772606E+03  0.25500000000E-02 0.  1.
    5000001    1    1    2    0    0 -0.18134997644E+03 -0.51715589680E+01 -0.71533055568E+02  0.25545359073E+03  0.16500000000E+03 0.  0.
   -5000001    1    1    2    0    0  0.18134997644E+03  0.51715589680E+01 -0.31024507278E+03  0.39546373305E+03  0.16500000000E+03 0.  0.
<mgrwt>
<rscale>  0 0.52719904E+03</rscale>
<asrwt>0</asrwt>
<pdfrwt beam="1">  1        2 0.73763960E-01 0.52719904E+03</pdfrwt>
<pdfrwt beam="2">  1       -2 0.19224229E-01 0.52719904E+03</pdfrwt>
<totfact> 0.14771089E+03</totfact>
</mgrwt>
</event>
<event>
 4    1  0.5280257E-005  0.4021081E+03  0.7818608E-02  0.1043052E+00
          2   -1    0    0  501    0  0.00000000000E+00  0.00000000000E+00  0.40815908849E+03  0.40815908850E+03  0.25500000000E-02 0.  1.
         -2   -1    0    0    0  501 -0.00000000000E+00 -0.00000000000E+00 -0.99036686382E+02  0.99036686415E+02  0.25500000000E-02 0. -1.
    5000001    1    1    2    0    0  0.78764438016E+02  0.82924357914E+02  0.14089219815E+03  0.24526699193E+03  0.16500000000E+03 0.  0.
   -5000001    1    1    2    0    0 -0.78764438016E+02 -0.82924357914E+02  0.16823020396E+03  0.26192878299E+03  0.16500000000E+03 0.  0.
<mgrwt>
<rscale>  0 0.40210806E+03</rscale>
<asrwt>0</asrwt>
<pdfrwt beam="1">  1        2 0.58308442E-01 0.40210806E+03</pdfrwt>
<pdfrwt beam="2">  1       -2 0.14148098E-01 0.40210806E+03</pdfrwt>
<totfact> 0.32180066E+03</totfact>
</mgrwt>
</event>
<event>
 4    1  0.5280257E-005  0.4098729E+03  0.7818608E-02  0.1040414E+00
         -2   -1    0    0    0  501 -0.00000000000E+00  0.00000000000E+00  0.74001448290E+03  0.74001448290E+03  0.25500000000E-02 0. -1.
          2   -1    0    0  501    0  0.00000000000E+00 -0.00000000000E+00 -0.56754224836E+02  0.56754224894E+02  0.25500000000E-02 0.  1.
    5000001    1    1    2    0    0  0.38821599912E+02  0.59142116189E+02  0.53376626416E+03  0.56314858722E+03  0.16500000000E+03 0.  0.
   -5000001    1    1    2    0    0 -0.38821599912E+02 -0.59142116189E+02  0.14949399390E+03  0.23362012058E+03  0.16500000000E+03 0.  0.
<mgrwt>
<rscale>  0 0.40987290E+03</rscale>
<asrwt>0</asrwt>
<pdfrwt beam="1">  1        2 0.81077463E-02 0.40987290E+03</pdfrwt>
<pdfrwt beam="2">  1       -2 0.10571636E+00 0.40987290E+03</pdfrwt>
<totfact> 0.63341230E+02</totfact>
</mgrwt>
</event>
<event>
 4    1  0.5280257E-005  0.5857248E+03  0.7818608E-02  0.9935473E-01
         -2   -1    0    0    0  501 -0.00000000000E+00  0.00000000000E+00  0.13136964694E+03  0.13136964696E+03  0.25500000000E-02 0. -1.
          2   -1    0    0  501    0  0.00000000000E+00 -0.00000000000E+00 -0.65287817003E+03  0.65287817004E+03  0.25500000000E-02 0.  1.
    5000001    1    1    2    0    0 -0.11075307852E+03 -0.44267357294E+02  0.21114867204E+02  0.20468678741E+03  0.16500000000E+03 0.  0.
   -5000001    1    1    2    0    0  0.11075307852E+03  0.44267357294E+02 -0.54262339030E+03  0.57956102959E+03  0.16500000000E+03 0.  0.
<mgrwt>
<rscale>  0 0.58572476E+03</rscale>
<asrwt>0</asrwt>
<pdfrwt beam="1">  1        2 0.93268308E-01 0.58572476E+03</pdfrwt>
<pdfrwt beam="2">  1       -2 0.18767093E-01 0.58572476E+03</pdfrwt>
<totfact> 0.11707500E+03</totfact>
</mgrwt>
</event>
<event>
 4    1  0.5280257E-005  0.3674347E+03  0.7818608E-02  0.1055678E+00
          2   -1    0    0  501    0  0.00000000000E+00  0.00000000000E+00  0.20619087407E+04  0.20619087407E+04  0.25500000000E-02 0. -1.
         -2   -1    0    0    0  501 -0.00000000000E+00 -0.00000000000E+00 -0.16369332141E+02  0.16369332340E+02  0.25500000000E-02 0.  1.
    5000001    1    1    2    0    0 -0.32920978284E+02  0.57163026430E+02  0.12865969560E+04  0.12988102746E+04  0.16500000000E+03 0.  0.
   -5000001    1    1    2    0    0  0.32920978284E+02 -0.57163026430E+02  0.75894245260E+03  0.77946779841E+03  0.16500000000E+03 0.  0.
<mgrwt>
<rscale>  0 0.36743472E+03</rscale>
<asrwt>0</asrwt>
<pdfrwt beam="1">  1        2 0.29455839E+00 0.36743472E+03</pdfrwt>
<pdfrwt beam="2">  1       -2 0.23384761E-02 0.36743472E+03</pdfrwt>
<totfact> 0.50554386E+03</totfact>
</mgrwt>
</event>
<event>
 4    1  0.5280257E-005  0.6058870E+03  0.7818608E-02  0.9893267E-01
          2   -1    0    0  501    0  0.00000000000E+00  0.00000000000E+00  0.14433322188E+03  0.14433322190E+03  0.25500000000E-02 0.  1.
         -2   -1    0    0    0  501 -0.00000000000E+00 -0.00000000000E+00 -0.63585330369E+03  0.63585330369E+03  0.25500000000E-02 0. -1.
    5000001    1    1    2    0    0 -0.91658848670E+02 -0.23556564976E+03 -0.21274836810E+03  0.36929580016E+03  0.16500000000E+03 0.  0.
   -5000001    1    1    2    0    0  0.91658848670E+02  0.23556564976E+03 -0.27877171371E+03  0.41089072544E+03  0.16500000000E+03 0.  0.
<mgrwt>
<rscale>  0 0.60588697E+03</rscale>
<asrwt>0</asrwt>
<pdfrwt beam="1">  1        2 0.20619032E-01 0.60588697E+03</pdfrwt>
<pdfrwt beam="2">  1       -2 0.90836185E-01 0.60588697E+03</pdfrwt>
<totfact> 0.28670186E+02</totfact>
</mgrwt>
</event>
<event>
 4    1  0.5280257E-005  0.5006596E+03  0.7818608E-02  0.1013607E+00
         -2   -1    0    0    0  501 -0.00000000000E+00  0.00000000000E+00  0.97191368861E+02  0.97191368894E+02  0.25500000000E-02 0. -1.
          2   -1    0    0  501    0  0.00000000000E+00 -0.00000000000E+00 -0.64475900934E+03  0.64475900934E+03  0.25500000000E-02 0.  1.
    5000001    1    1    2    0    0  0.18164467954E+03  0.35122507932E+02 -0.22219953550E+03  0.33290541261E+03  0.16500000000E+03 0.  0.
   -5000001    1    1    2    0    0 -0.18164467954E+03 -0.35122507932E+02 -0.32536810497E+03  0.40904496562E+03  0.16500000000E+03 0.  0.
<mgrwt>
<rscale>  0 0.50065961E+03</rscale>
<asrwt>0</asrwt>
<pdfrwt beam="1">  1        2 0.92108428E-01 0.50065961E+03</pdfrwt>
<pdfrwt beam="2">  1       -2 0.13884482E-01 0.50065961E+03</pdfrwt>
<totfact> 0.19802392E+03</totfact>
</mgrwt>
</event>
<event>
 4    1  0.5280257E-005  0.5704535E+03  0.7818608E-02  0.9968676E-01
          2   -1    0    0  501    0  0.00000000000E+00  0.00000000000E+00  0.25449515537E+04  0.25449515537E+04  0.25500000000E-02 0.  1.
         -2   -1    0    0    0  501 -0.00000000000E+00 -0.00000000000E+00 -0.31966934245E+02  0.31966934346E+02  0.25500000000E-02 0. -1.
    5000001    1    1    2    0    0 -0.14474927159E+03  0.18193227688E+03  0.12167003982E+04  0.12496545778E+04  0.16500000000E+03 0.  0.
   -5000001    1    1    2    0    0  0.14474927159E+03 -0.18193227688E+03  0.12962842212E+04  0.13272639102E+04  0.16500000000E+03 0.  0.
<mgrwt>
<rscale>  0 0.57045350E+03</rscale>
<asrwt>0</asrwt>
<pdfrwt beam="1">  1        2 0.36356452E+00 0.57045350E+03</pdfrwt>
<pdfrwt beam="2">  1       -2 0.45667047E-02 0.57045350E+03</pdfrwt>
<totfact> 0.10383914E+03</totfact>
</mgrwt>
</event>
<event>
 4    1  0.5280257E-005  0.4926778E+03  0.7818608E-02  0.1015708E+00
          2   -1    0    0  501    0  0.00000000000E+00  0.00000000000E+00  0.24112488226E+03  0.24112488227E+03  0.25500000000E-02 0.  1.
         -2   -1    0    0    0  501 -0.00000000000E+00 -0.00000000000E+00 -0.25166568780E+03  0.25166568781E+03  0.25500000000E-02 0. -1.
    5000001    1    1    2    0    0 -0.10511121935E+03 -0.13030200134E+03  0.68440962073E+02  0.24481859667E+03  0.16500000000E+03 0.  0.
   -5000001    1    1    2    0    0  0.10511121935E+03  0.13030200134E+03 -0.78981767611E+02  0.24797197342E+03  0.16500000000E+03 0.  0.
<mgrwt>
<rscale>  0 0.49267782E+03</rscale>
<asrwt>0</asrwt>
<pdfrwt beam="1">  1        2 0.34446412E-01 0.49267782E+03</pdfrwt>
<pdfrwt beam="2">  1       -2 0.35952241E-01 0.49267782E+03</pdfrwt>
<totfact> 0.11079790E+03</totfact>
</mgrwt>
</event>
<event>
 4    1  0.5280257E-005  0.4755093E+03  0.7818608E-02  0.1020377E+00
         -2   -1    0    0    0  501 -0.00000000000E+00  0.00000000000E+00  0.26716476884E+03  0.26716476885E+03  0.25500000000E-02 0. -1.
          2   -1    0    0  501    0  0.00000000000E+00 -0.00000000000E+00 -0.21158208728E+03  0.21158208729E+03  0.25500000000E-02 0.  1.
    5000001    1    1    2    0    0 -0.43912144486E+02 -0.16479795126E+03  0.42575948915E+02  0.24108992637E+03  0.16500000000E+03 0.  0.
   -5000001    1    1    2    0    0  0.43912144486E+02  0.16479795126E+03  0.13006732647E+02  0.23765692977E+03  0.16500000000E+03 0.  0.
<mgrwt>
<rscale>  0 0.47550932E+03</rscale>
<asrwt>0</asrwt>
<pdfrwt beam="1">  1        2 0.30226013E-01 0.47550932E+03</pdfrwt>
<pdfrwt beam="2">  1       -2 0.38166395E-01 0.47550932E+03</pdfrwt>
<totfact> 0.11431175E+03</totfact>
</mgrwt>
</event>
<event>
 4    1  0.5280257E-005  0.4722255E+03  0.7818608E-02  0.1021294E+00
          2   -1    0    0  501    0  0.00000000000E+00  0.00000000000E+00  0.92625703783E+03  0.92625703784E+03  0.25500000000E-02 0.  1.
         -2   -1    0    0    0  501 -0.00000000000E+00 -0.00000000000E+00 -0.60187639850E+02  0.60187639904E+02  0.25500000000E-02 0. -1.
    5000001    1    1    2    0    0  0.10606303074E+03  0.12889286133E+03  0.48676070810E+03  0.54039219382E+03  0.16500000000E+03 0.  0.
   -5000001    1    1    2    0    0 -0.10606303074E+03 -0.12889286133E+03  0.37930868989E+03  0.44605248392E+03  0.16500000000E+03 0.  0.
<mgrwt>
<rscale>  0 0.47222548E+03</rscale>
<asrwt>0</asrwt>
<pdfrwt beam="1">  1        2 0.13232242E+00 0.47222548E+03</pdfrwt>
<pdfrwt beam="2">  1       -2 0.85982349E-02 0.47222548E+03</pdfrwt>
<totfact> 0.27367794E+03</totfact>
</mgrwt>
</event>
<event>
 4    1  0.5280257E-005  0.4228386E+03  0.7818608E-02  0.1036146E+00
         -2   -1    0    0    0  501 -0.00000000000E+00  0.00000000000E+00  0.38109600635E+02  0.38109600721E+02  0.25500000000E-02 0. -1.
          2   -1    0    0  501    0  0.00000000000E+00 -0.00000000000E+00 -0.11728836050E+04  0.11728836050E+04  0.25500000000E-02 0.  1.
    5000001    1    1    2    0    0  0.10111962843E+01  0.11382547305E+03 -0.75984569384E+03  0.78584205746E+03  0.16500000000E+03 0.  0.
   -5000001    1    1    2    0    0 -0.10111962843E+01 -0.11382547305E+03 -0.37492831054E+03  0.42515114827E+03  0.16500000000E+03 0.  0.
<mgrwt>
<rscale>  0 0.42283863E+03</rscale>
<asrwt>0</asrwt>
<pdfrwt beam="1">  1        2 0.16755478E+00 0.42283863E+03</pdfrwt>
<pdfrwt beam="2">  1       -2 0.54442294E-02 0.42283863E+03</pdfrwt>
<totfact> 0.40050904E+03</totfact>
</mgrwt>
</event>
<event>
 4    1  0.5280257E-005  0.3802667E+03  0.7818608E-02  0.1050835E+00
         -2   -1    0    0    0  501 -0.00000000000E+00  0.00000000000E+00  0.45213561835E+02  0.45213561906E+02  0.25500000000E-02 0. -1.
          2   -1    0    0  501    0  0.00000000000E+00 -0.00000000000E+00 -0.79955408280E+03  0.79955408280E+03  0.25500000000E-02 0.  1.
    5000001    1    1    2    0    0 -0.56500227260E+02  0.42842042044E+02 -0.23847285532E+03  0.29853311202E+03  0.16500000000E+03 0.  0.
   -5000001    1    1    2    0    0  0.56500227260E+02 -0.42842042044E+02 -0.51586766564E+03  0.54623453269E+03  0.16500000000E+03 0.  0.
<mgrwt>
<rscale>  0 0.38026669E+03</rscale>
<asrwt>0</asrwt>
<pdfrwt beam="1">  1        2 0.11422200E+00 0.38026669E+03</pdfrwt>
<pdfrwt beam="2">  1       -2 0.64590808E-02 0.38026669E+03</pdfrwt>
<totfact> 0.51821547E+03</totfact>
</mgrwt>
</event>
<event>
 4    1  0.5280257E-005  0.3646868E+03  0.7818608E-02  0.1056743E+00
         -2   -1    0    0    0  501 -0.00000000000E+00  0.00000000000E+00  0.14044239243E+03  0.14044239245E+03  0.25500000000E-02 0. -1.
          2   -1    0    0  501    0  0.00000000000E+00 -0.00000000000E+00 -0.23674556469E+03  0.23674556470E+03  0.25500000000E-02 0.  1.
    5000001    1    1    2    0    0  0.63690816424E+02 -0.34597205343E+02 -0.19439824512E+02  0.18126332638E+03  0.16500000000E+03 0.  0.
   -5000001    1    1    2    0    0 -0.63690816424E+02  0.34597205343E+02 -0.76863347751E+02  0.19592463077E+03  0.16500000000E+03 0.  0.
<mgrwt>
<rscale>  0 0.36468679E+03</rscale>
<asrwt>0</asrwt>
<pdfrwt beam="1">  1        2 0.33820795E-01 0.36468679E+03</pdfrwt>
<pdfrwt beam="2">  1       -2 0.20063199E-01 0.36468679E+03</pdfrwt>
<totfact> 0.32275937E+03</totfact>
</mgrwt>
</event>
<event>
 4    1  0.5280257E-005  0.6926484E+03  0.7818608E-02  0.9729888E-01
          2   -1    0    0  501    0  0.00000000000E+00  0.00000000000E+00  0.10979158070E+04  0.10979158070E+04  0.25500000000E-02 0.  1.
         -2   -1    0    0    0  501 -0.00000000000E+00 -0.00000000000E+00 -0.10924377037E+03  0.10924377040E+03  0.25500000000E-02 0. -1.
    5000001    1    1    2    0    0  0.25043826786E+03  0.17304296465E+03  0.48173595645E+03  0.59326025095E+03  0.16500000000E+03 0.  0.
   -5000001    1    1    2    0    0 -0.25043826786E+03 -0.17304296465E+03  0.50693608014E+03  0.61389932641E+03  0.16500000000E+03 0.  0.
<mgrwt>
<rscale>  0 0.69264843E+03</rscale>
<asrwt>0</asrwt>
<pdfrwt beam="1">  1        2 0.15684512E+00 0.69264843E+03</pdfrwt>
<pdfrwt beam="2">  1       -2 0.15606252E-01 0.69264843E+03</pdfrwt>
<totfact> 0.80688962E+02</totfact>
</mgrwt>
</event>
<event>
 4    1  0.5280257E-005  0.5000865E+03  0.7818608E-02  0.1013756E+00
          2   -1    0    0  501    0  0.00000000000E+00  0.00000000000E+00  0.57980063994E+03  0.57980063995E+03  0.25500000000E-02 0.  1.
         -2   -1    0    0    0  501 -0.00000000000E+00 -0.00000000000E+00 -0.10783298354E+03  0.10783298357E+03  0.25500000000E-02 0. -1.
    5000001    1    1    2    0    0  0.97987398142E+02 -0.12367595045E+03  0.37620555144E+03  0.44006009572E+03  0.16500000000E+03 0.  0.
   -5000001    1    1    2    0    0 -0.97987398142E+02  0.12367595045E+03  0.95762104963E+02  0.24757352779E+03  0.16500000000E+03 0.  0.
<mgrwt>
<rscale>  0 0.50008652E+03</rscale>
<asrwt>0</asrwt>
<pdfrwt beam="1">  1        2 0.82828661E-01 0.50008652E+03</pdfrwt>
<pdfrwt beam="2">  1       -2 0.15404712E-01 0.50008652E+03</pdfrwt>
<totfact> 0.18854547E+03</totfact>
</mgrwt>
</event>
<event>
 4    1  0.5280257E-005  0.3860180E+03  0.7818608E-02  0.1048732E+00
         -2   -1    0    0    0  501 -0.00000000000E+00  0.00000000000E+00  0.18614305643E+02  0.18614305818E+02  0.25500000000E-02 0. -1.
          2   -1    0    0  501    0  0.00000000000E+00 -0.00000000000E+00 -0.20012823583E+04  0.20012823583E+04  0.25500000000E-02 0.  1.
    5000001    1    1    2    0    0 -0.32057492845E+02  0.82814378946E+02 -0.12334862411E+04  0.12476374518E+04  0.16500000000E+03 0.  0.
   -5000001    1    1    2    0    0  0.32057492845E+02 -0.82814378946E+02 -0.74918181153E+03  0.77225921227E+03  0.16500000000E+03 0.  0.
<mgrwt>
<rscale>  0 0.38601804E+03</rscale>
<asrwt>0</asrwt>
<pdfrwt beam="1">  1        2 0.28589734E+00 0.38601804E+03</pdfrwt>
<pdfrwt beam="2">  1       -2 0.26591878E-02 0.38601804E+03</pdfrwt>
<totfact> 0.44691134E+03</totfact>
</mgrwt>
</event>
<event>
 4    1  0.5280257E-005  0.5742264E+03  0.7818608E-02  0.9960370E-01
          2   -1    0    0  501    0  0.00000000000E+00  0.00000000000E+00  0.17537791199E+03  0.17537791201E+03  0.25500000000E-02 0.  1.
         -2   -1    0    0    0  501 -0.00000000000E+00 -0.00000000000E+00 -0.47003626809E+03  0.47003626810E+03  0.25500000000E-02 0. -1.
    5000001    1    1    2    0    0  0.20500622713E+03 -0.11236425450E+03 -0.12083345743E+03  0.31061069409E+03  0.16500000000E+03 0.  0.
   -5000001    1    1    2    0    0 -0.20500622713E+03  0.11236425450E+03 -0.17382489868E+03  0.33480348602E+03  0.16500000000E+03 0.  0.
<mgrwt>
<rscale>  0 0.57422636E+03</rscale>
<asrwt>0</asrwt>
<pdfrwt beam="1">  1        2 0.25053988E-01 0.57422636E+03</pdfrwt>
<pdfrwt beam="2">  1       -2 0.67148038E-01 0.57422636E+03</pdfrwt>
<totfact> 0.44889009E+02</totfact>
</mgrwt>
</event>
<event>
 4    1  0.5280257E-005  0.7620424E+03  0.7818608E-02  0.9616645E-01
         -2   -1    0    0    0  501 -0.00000000000E+00  0.00000000000E+00  0.75076015611E+02  0.75076015654E+02  0.25500000000E-02 0. -1.
          2   -1    0    0  501    0  0.00000000000E+00 -0.00000000000E+00 -0.19337354706E+04  0.19337354706E+04  0.25500000000E-02 0.  1.
    5000001    1    1    2    0    0  0.34249015398E+03 -0.19992319250E+02 -0.97125564327E+03  0.10431978350E+04  0.16500000000E+03 0.  0.
   -5000001    1    1    2    0    0 -0.34249015398E+03  0.19992319250E+02 -0.88740381171E+03  0.96561365123E+03  0.16500000000E+03 0.  0.
<mgrwt>
<rscale>  0 0.76204240E+03</rscale>
<asrwt>0</asrwt>
<pdfrwt beam="1">  1        2 0.27624789E+00 0.76204240E+03</pdfrwt>
<pdfrwt beam="2">  1       -2 0.10725146E-01 0.76204240E+03</pdfrwt>
<totfact> 0.54078407E+02</totfact>
</mgrwt>
</event>
<event>
 4    1  0.5280257E-005  0.1810231E+04  0.7818608E-02  0.8700877E-01
         -2   -1    0    0    0  501 -0.00000000000E+00  0.00000000000E+00  0.42162151211E+03  0.42162151212E+03  0.25500000000E-02 0. -1.
          2   -1    0    0  501    0  0.00000000000E+00 -0.00000000000E+00 -0.19430560929E+04  0.19430560929E+04  0.25500000000E-02 0.  1.
    5000001    1    1    2    0    0 -0.65787013348E+02  0.63395666580E+03  0.50632064423E+02  0.66031628117E+03  0.16500000000E+03 0.  0.
   -5000001    1    1    2    0    0  0.65787013348E+02 -0.63395666580E+03 -0.15720666452E+04  0.17043613238E+04  0.16500000000E+03 0.  0.
<mgrwt>
<rscale>  0 0.18102312E+04</rscale>
<asrwt>0</asrwt>
<pdfrwt beam="1">  1        2 0.27757944E+00 0.18102312E+04</pdfrwt>
<pdfrwt beam="2">  1       -2 0.60231646E-01 0.18102312E+04</pdfrwt>
<totfact> 0.20860490E+01</totfact>
</mgrwt>
</event>
<event>
 4    1  0.5280257E-005  0.5954870E+03  0.7818608E-02  0.9914814E-01
         -2   -1    0    0    0  501 -0.00000000000E+00  0.00000000000E+00  0.11742471109E+03  0.11742471111E+03  0.25500000000E-02 0. -1.
          2   -1    0    0  501    0  0.00000000000E+00 -0.00000000000E+00 -0.75496190487E+03  0.75496190488E+03  0.25500000000E-02 0.  1.
    5000001    1    1    2    0    0  0.72490611303E+02  0.22265102434E+03 -0.43776582250E+03  0.52315607873E+03  0.16500000000E+03 0.  0.
   -5000001    1    1    2    0    0 -0.72490611303E+02 -0.22265102434E+03 -0.19977137129E+03  0.34923053726E+03  0.16500000000E+03 0.  0.
<mgrwt>
<rscale>  0 0.59548697E+03</rscale>
<asrwt>0</asrwt>
<pdfrwt beam="1">  1        2 0.10785170E+00 0.59548697E+03</pdfrwt>
<pdfrwt beam="2">  1       -2 0.16774959E-01 0.59548697E+03</pdfrwt>
<totfact> 0.11877067E+03</totfact>
</mgrwt>
</event>
<event>
 4    1  0.5280257E-005  0.5734454E+03  0.7818608E-02  0.9962083E-01
          2   -1    0    0  501    0  0.00000000000E+00  0.00000000000E+00  0.57127071170E+03  0.57127071170E+03  0.25500000000E-02 0.  1.
         -2   -1    0    0    0  501 -0.00000000000E+00 -0.00000000000E+00 -0.14390709422E+03  0.14390709425E+03  0.25500000000E-02 0. -1.
    5000001    1    1    2    0    0 -0.72355959047E+02  0.10948431805E+03  0.45603766219E+03  0.50241173359E+03  0.16500000000E+03 0.  0.
   -5000001    1    1    2    0    0  0.72355959047E+02 -0.10948431805E+03 -0.28674044720E+02  0.21276607236E+03  0.16500000000E+03 0.  0.
<mgrwt>
<rscale>  0 0.57344541E+03</rscale>
<asrwt>0</asrwt>
<pdfrwt beam="1">  1        2 0.81610103E-01 0.57344541E+03</pdfrwt>
<pdfrwt beam="2">  1       -2 0.20558156E-01 0.57344541E+03</pdfrwt>
<totfact> 0.11700806E+03</totfact>
</mgrwt>
</event>
<event>
 4    1  0.5280257E-005  0.5787849E+03  0.7818608E-02  0.9950425E-01
         -2   -1    0    0    0  501 -0.00000000000E+00  0.00000000000E+00  0.26313587063E+02  0.26313587186E+02  0.25500000000E-02 0. -1.
          2   -1    0    0  501    0  0.00000000000E+00 -0.00000000000E+00 -0.31826900319E+04  0.31826900319E+04  0.25500000000E-02 0.  1.
    5000001    1    1    2    0    0  0.18274527600E+03 -0.13469670277E+03 -0.11867709236E+04  0.12195036952E+04  0.16500000000E+03 0.  0.
   -5000001    1    1    2    0    0 -0.18274527600E+03  0.13469670277E+03 -0.19696055213E+04  0.19894999239E+04  0.16500000000E+03 0.  0.
<mgrwt>
<rscale>  0 0.57878490E+03</rscale>
<asrwt>0</asrwt>
<pdfrwt beam="1">  1        2 0.45466976E+00 0.57878490E+03</pdfrwt>
<pdfrwt beam="2">  1       -2 0.37590859E-02 0.57878490E+03</pdfrwt>
<totfact> 0.63852371E+02</totfact>
</mgrwt>
</event>
<event>
 4    1  0.5280257E-005  0.4959768E+03  0.7818608E-02  0.1014834E+00
         -2   -1    0    0    0  501 -0.00000000000E+00  0.00000000000E+00  0.66331100695E+02  0.66331100744E+02  0.25500000000E-02 0. -1.
          2   -1    0    0  501    0  0.00000000000E+00 -0.00000000000E+00 -0.92714038646E+03  0.92714038647E+03  0.25500000000E-02 0.  1.
    5000001    1    1    2    0    0 -0.13817732631E+03  0.11819972610E+03 -0.50005510804E+03  0.55708550496E+03  0.16500000000E+03 0.  0.
   -5000001    1    1    2    0    0  0.13817732631E+03 -0.11819972610E+03 -0.36075417773E+03  0.43638598225E+03  0.16500000000E+03 0.  0.
<mgrwt>
<rscale>  0 0.49597678E+03</rscale>
<asrwt>0</asrwt>
<pdfrwt beam="1">  1        2 0.13244862E+00 0.49597678E+03</pdfrwt>
<pdfrwt beam="2">  1       -2 0.94758721E-02 0.49597678E+03</pdfrwt>
<totfact> 0.23399275E+03</totfact>
</mgrwt>
</event>
<event>
 4    1  0.5280257E-005  0.6230641E+03  0.7818608E-02  0.9858678E-01
         -2   -1    0    0    0  501 -0.00000000000E+00  0.00000000000E+00  0.74312347790E+02  0.74312347833E+02  0.25500000000E-02 0.  1.
          2   -1    0    0  501    0  0.00000000000E+00 -0.00000000000E+00 -0.13060037594E+04  0.13060037594E+04  0.25500000000E-02 0. -1.
    5000001    1    1    2    0    0 -0.24080034877E+03  0.62208994710E+02 -0.41803880089E+03  0.51364988664E+03  0.16500000000E+03 0.  0.
   -5000001    1    1    2    0    0  0.24080034877E+03 -0.62208994710E+02 -0.81365261069E+03  0.86666622056E+03  0.16500000000E+03 0.  0.
<mgrwt>
<rscale>  0 0.62306406E+03</rscale>
<asrwt>0</asrwt>
<pdfrwt beam="1">  1        2 0.18657195E+00 0.62306406E+03</pdfrwt>
<pdfrwt beam="2">  1       -2 0.10616050E-01 0.62306406E+03</pdfrwt>
<totfact> 0.11713602E+03</totfact>
</mgrwt>
</event>
<event>
 4    1  0.5280257E-005  0.6170120E+03  0.7818608E-02  0.9870727E-01
          2   -1    0    0  501    0  0.00000000000E+00  0.00000000000E+00  0.18922894201E+03  0.18922894203E+03  0.25500000000E-02 0.  1.
         -2   -1    0    0    0  501 -0.00000000000E+00 -0.00000000000E+00 -0.50296720237E+03  0.50296720237E+03  0.25500000000E-02 0. -1.
    5000001    1    1    2    0    0  0.39609238628E+02  0.24296016941E+03 -0.25306370920E+03  0.38969831488E+03  0.16500000000E+03 0.  0.
   -5000001    1    1    2    0    0 -0.39609238628E+02 -0.24296016941E+03 -0.60674551156E+02  0.30249782952E+03  0.16500000000E+03 0.  0.
<mgrwt>
<rscale>  0 0.61701200E+03</rscale>
<asrwt>0</asrwt>
<pdfrwt beam="1">  1        2 0.27032706E-01 0.61701200E+03</pdfrwt>
<pdfrwt beam="2">  1       -2 0.71852457E-01 0.61701200E+03</pdfrwt>
<totfact> 0.35513306E+02</totfact>
</mgrwt>
</event>
<event>
 4    1  0.5280257E-005  0.8912387E+03  0.7818608E-02  0.9436600E-01
          2   -1    0    0  501    0  0.00000000000E+00  0.00000000000E+00  0.11214366379E+04  0.11214366379E+04  0.25500000000E-02 0.  1.
         -2   -1    0    0    0  501 -0.00000000000E+00 -0.00000000000E+00 -0.17707339162E+03  0.17707339164E+03  0.25500000000E-02 0. -1.
    5000001    1    1    2    0    0  0.13388703511E+03 -0.29099514683E+03  0.90166726792E+02  0.37142825992E+03  0.16500000000E+03 0.  0.
   -5000001    1    1    2    0    0 -0.13388703511E+03  0.29099514683E+03  0.85419651949E+03  0.92708176962E+03  0.16500000000E+03 0.  0.
<mgrwt>
<rscale>  0 0.89123866E+03</rscale>
<asrwt>0</asrwt>
<pdfrwt beam="1">  1        2 0.16020523E+00 0.89123866E+03</pdfrwt>
<pdfrwt beam="2">  1       -2 0.25296199E-01 0.89123866E+03</pdfrwt>
<totfact> 0.33300050E+02</totfact>
</mgrwt>
</event>
<event>
 4    1  0.5280257E-005  0.4691656E+03  0.7818608E-02  0.1022156E+00
         -2   -1    0    0    0  501 -0.00000000000E+00  0.00000000000E+00  0.49563819123E+02  0.49563819189E+02  0.25500000000E-02 0. -1.
          2   -1    0    0  501    0  0.00000000000E+00 -0.00000000000E+00 -0.11102673055E+04  0.11102673055E+04  0.25500000000E-02 0.  1.
    5000001    1    1    2    0    0 -0.59905649217E+02  0.14971457638E+03 -0.42544122236E+03  0.48397146080E+03  0.16500000000E+03 0.  0.
   -5000001    1    1    2    0    0  0.59905649217E+02 -0.14971457638E+03 -0.63526226403E+03  0.67585966390E+03  0.16500000000E+03 0.  0.
<mgrwt>
<rscale>  0 0.46916559E+03</rscale>
<asrwt>0</asrwt>
<pdfrwt beam="1">  1        2 0.15860960E+00 0.46916559E+03</pdfrwt>
<pdfrwt beam="2">  1       -2 0.70805463E-02 0.46916559E+03</pdfrwt>
<totfact> 0.28866734E+03</totfact>
</mgrwt>
</event>
<event>
 4    1  0.5280257E-005  0.4268321E+03  0.7818608E-02  0.1034865E+00
          2   -1    0    0  501    0  0.00000000000E+00  0.00000000000E+00  0.10368692912E+04  0.10368692912E+04  0.25500000000E-02 0.  1.
         -2   -1    0    0    0  501 -0.00000000000E+00 -0.00000000000E+00 -0.43926856402E+02  0.43926856476E+02  0.25500000000E-02 0. -1.
    5000001    1    1    2    0    0 -0.12982257051E+03  0.25267096536E+02  0.56938096659E+03  0.60738127325E+03  0.16500000000E+03 0.  0.
   -5000001    1    1    2    0    0  0.12982257051E+03 -0.25267096536E+02  0.42356146824E+03  0.47341487446E+03  0.16500000000E+03 0.  0.
<mgrwt>
<rscale>  0 0.42683209E+03</rscale>
<asrwt>0</asrwt>
<pdfrwt beam="1">  1        2 0.14812417E+00 0.42683209E+03</pdfrwt>
<pdfrwt beam="2">  1       -2 0.62752659E-02 0.42683209E+03</pdfrwt>
<totfact> 0.38455461E+03</totfact>
</mgrwt>
</event>
<event>
 4    1  0.5280257E-005  0.5519756E+03  0.7818608E-02  0.1001038E+00
          2   -1    0    0  501    0  0.00000000000E+00  0.00000000000E+00  0.21342232729E+03  0.21342232730E+03  0.25500000000E-02 0.  1.
         -2   -1    0    0    0  501 -0.00000000000E+00 -0.00000000000E+00 -0.35689452805E+03  0.35689452806E+03  0.25500000000E-02 0. -1.
    5000001    1    1    2    0    0 -0.79420483047E+02  0.16644051705E+03  0.54530169467E+02  0.25339415586E+03  0.16500000000E+03 0.  0.
   -5000001    1    1    2    0    0  0.79420483047E+02 -0.16644051705E+03 -0.19800237024E+03  0.31692269950E+03  0.16500000000E+03 0.  0.
<mgrwt>
<rscale>  0 0.55197558E+03</rscale>
<asrwt>0</asrwt>
<pdfrwt beam="1">  1        2 0.30488904E-01 0.55197558E+03</pdfrwt>
<pdfrwt beam="2">  1       -2 0.50984932E-01 0.55197558E+03</pdfrwt>
<totfact> 0.63948071E+02</totfact>
</mgrwt>
</event>
<event>
 4    1  0.5280257E-005  0.3622663E+03  0.7818608E-02  0.1057690E+00
         -2   -1    0    0    0  501 -0.00000000000E+00  0.00000000000E+00  0.15661148653E+02  0.15661148861E+02  0.25500000000E-02 0. -1.
          2   -1    0    0  501    0  0.00000000000E+00 -0.00000000000E+00 -0.20949437717E+04  0.20949437717E+04  0.25500000000E-02 0.  1.
    5000001    1    1    2    0    0  0.49746914551E+02 -0.37611993821E+02 -0.12794910612E+04  0.12915927351E+04  0.16500000000E+03 0.  0.
   -5000001    1    1    2    0    0 -0.49746914551E+02  0.37611993821E+02 -0.79979156178E+03  0.81901218543E+03  0.16500000000E+03 0.  0.
<mgrwt>
<rscale>  0 0.36226634E+03</rscale>
<asrwt>0</asrwt>
<pdfrwt beam="1">  1        2 0.29927750E+00 0.36226634E+03</pdfrwt>
<pdfrwt beam="2">  1       -2 0.22373083E-02 0.36226634E+03</pdfrwt>
<totfact> 0.52009483E+03</totfact>
</mgrwt>
</event>
<event>
 4    1  0.5280257E-005  0.7657258E+03  0.7818608E-02  0.9610997E-01
          2   -1    0    0  501    0  0.00000000000E+00  0.00000000000E+00  0.22536344831E+03  0.22536344832E+03  0.25500000000E-02 0.  1.
         -2   -1    0    0    0  501 -0.00000000000E+00 -0.00000000000E+00 -0.65043379180E+03  0.65043379180E+03  0.25500000000E-02 0. -1.
    5000001    1    1    2    0    0 -0.26622672572E+03 -0.16958168071E+02 -0.46362560709E+03  0.55976598012E+03  0.16500000000E+03 0.  0.
   -5000001    1    1    2    0    0  0.26622672572E+03  0.16958168071E+02  0.38555263599E+02  0.31603126001E+03  0.16500000000E+03 0.  0.
<mgrwt>
<rscale>  0 0.76572581E+03</rscale>
<asrwt>0</asrwt>
<pdfrwt beam="1">  1        2 0.32194779E-01 0.76572581E+03</pdfrwt>
<pdfrwt beam="2">  1       -2 0.92919112E-01 0.76572581E+03</pdfrwt>
<totfact> 0.16259610E+02</totfact>
</mgrwt>
</event>
<event>
 4    1  0.5280257E-005  0.1300957E+04  0.7818608E-02  0.9028806E-01
          2   -1    0    0  501    0  0.00000000000E+00  0.00000000000E+00  0.89579249087E+03  0.89579249088E+03  0.25500000000E-02 0.  1.
         -2   -1    0    0    0  501 -0.00000000000E+00 -0.00000000000E+00 -0.47234418770E+03  0.47234418771E+03  0.25500000000E-02 0. -1.
    5000001    1    1    2    0    0 -0.57075934152E+03  0.73474591809E+02  0.47928843277E+03  0.76688144023E+03  0.16500000000E+03 0.  0.
   -5000001    1    1    2    0    0  0.57075934152E+03 -0.73474591809E+02 -0.55840129597E+02  0.60125523836E+03  0.16500000000E+03 0.  0.
<mgrwt>
<rscale>  0 0.13009571E+04</rscale>
<asrwt>0</asrwt>
<pdfrwt beam="1">  1        2 0.12797036E+00 0.13009571E+04</pdfrwt>
<pdfrwt beam="2">  1       -2 0.67477741E-01 0.13009571E+04</pdfrwt>
<totfact> 0.64667277E+01</totfact>
</mgrwt>
</event>
<event>
 4    1  0.5280257E-005  0.9338889E+03  0.7818608E-02  0.9384183E-01
         -2   -1    0    0    0  501 -0.00000000000E+00  0.00000000000E+00  0.66787312777E+02  0.66787312826E+02  0.25500000000E-02 0. -1.
          2   -1    0    0  501    0  0.00000000000E+00 -0.00000000000E+00 -0.32646489567E+04  0.32646489567E+04  0.25500000000E-02 0.  1.
    5000001    1    1    2    0    0  0.18077664819E+03 -0.36059246184E+03 -0.21969679734E+04  0.22397768631E+04  0.16500000000E+03 0.  0.
   -5000001    1    1    2    0    0 -0.18077664819E+03  0.36059246184E+03 -0.10008936705E+04  0.10916594064E+04  0.16500000000E+03 0.  0.
<mgrwt>
<rscale>  0 0.93388893E+03</rscale>
<asrwt>0</asrwt>
<pdfrwt beam="1">  1        2 0.46637832E+00 0.93388893E+03</pdfrwt>
<pdfrwt beam="2">  1       -2 0.95410468E-02 0.93388893E+03</pdfrwt>
<totfact> 0.12759492E+02</totfact>
</mgrwt>
</event>
<event>
 4    1  0.5280257E-005  0.6198882E+03  0.7818608E-02  0.9864982E-01
         -2   -1    0    0    0  501 -0.00000000000E+00  0.00000000000E+00  0.19185969284E+03  0.19185969286E+03  0.25500000000E-02 0. -1.
          2   -1    0    0  501    0  0.00000000000E+00 -0.00000000000E+00 -0.50070627696E+03  0.50070627697E+03  0.25500000000E-02 0.  1.
    5000001    1    1    2    0    0  0.97905490112E+02  0.22186716363E+03 -0.26631413127E+03  0.39618018603E+03  0.16500000000E+03 0.  0.
   -5000001    1    1    2    0    0 -0.97905490112E+02 -0.22186716363E+03 -0.42532452859E+02  0.29638578380E+03  0.16500000000E+03 0.  0.
<mgrwt>
<rscale>  0 0.61988822E+03</rscale>
<asrwt>0</asrwt>
<pdfrwt beam="1">  1        2 0.71529468E-01 0.61988822E+03</pdfrwt>
<pdfrwt beam="2">  1       -2 0.27408528E-01 0.61988822E+03</pdfrwt>
<totfact> 0.81508723E+02</totfact>
</mgrwt>
</event>
<event>
 4    1  0.5280257E-005  0.7587384E+03  0.7818608E-02  0.9621740E-01
          2   -1    0    0  501    0  0.00000000000E+00  0.00000000000E+00  0.47451888329E+03  0.47451888330E+03  0.25500000000E-02 0.  1.
         -2   -1    0    0    0  501 -0.00000000000E+00 -0.00000000000E+00 -0.30329879333E+03  0.30329879334E+03  0.25500000000E-02 0. -1.
    5000001    1    1    2    0    0 -0.65596598205E+02 -0.21250634384E+03 -0.18020567727E+03  0.33039513614E+03  0.16500000000E+03 0.  0.
   -5000001    1    1    2    0    0  0.65596598205E+02  0.21250634384E+03  0.35142576723E+03  0.44742254049E+03  0.16500000000E+03 0.  0.
<mgrwt>
<rscale>  0 0.75873844E+03</rscale>
<asrwt>0</asrwt>
<pdfrwt beam="1">  1        2 0.67788413E-01 0.75873844E+03</pdfrwt>
<pdfrwt beam="2">  1       -2 0.43328399E-01 0.75873844E+03</pdfrwt>
<totfact> 0.36234986E+02</totfact>
</mgrwt>
</event>
<event>
 4    1  0.5280257E-005  0.4102611E+03  0.7818608E-02  0.1040283E+00
         -2   -1    0    0    0  501 -0.00000000000E+00  0.00000000000E+00  0.22319075986E+02  0.22319076131E+02  0.25500000000E-02 0. -1.
          2   -1    0    0  501    0  0.00000000000E+00 -0.00000000000E+00 -0.18853176530E+04  0.18853176530E+04  0.25500000000E-02 0.  1.
    5000001    1    1    2    0    0 -0.89705573112E+02  0.80351852587E+02 -0.84450456246E+03  0.86885929015E+03  0.16500000000E+03 0.  0.
   -5000001    1    1    2    0    0  0.89705573112E+02 -0.80351852587E+02 -0.10184940146E+04  0.10387774390E+04  0.16500000000E+03 0.  0.
<mgrwt>
<rscale>  0 0.41026113E+03</rscale>
<asrwt>0</asrwt>
<pdfrwt beam="1">  1        2 0.26933099E+00 0.41026113E+03</pdfrwt>
<pdfrwt beam="2">  1       -2 0.31884406E-02 0.41026113E+03</pdfrwt>
<totfact> 0.38812937E+03</totfact>
</mgrwt>
</event>
<event>
 4    1  0.5280257E-005  0.4174303E+03  0.7818608E-02  0.1037906E+00
          2   -1    0    0  501    0  0.00000000000E+00  0.00000000000E+00  0.23465881972E+04  0.23465881972E+04  0.25500000000E-02 0.  1.
         -2   -1    0    0    0  501 -0.00000000000E+00 -0.00000000000E+00 -0.18563978665E+02  0.18563978840E+02  0.25500000000E-02 0. -1.
    5000001    1    1    2    0    0  0.56710772647E+01  0.70834595280E+02  0.56204828291E+03  0.59006183856E+03  0.16500000000E+03 0.  0.
   -5000001    1    1    2    0    0 -0.56710772647E+01 -0.70834595280E+02  0.17659759356E+04  0.17750903375E+04  0.16500000000E+03 0.  0.
<mgrwt>
<rscale>  0 0.41743030E+03</rscale>
<asrwt>0</asrwt>
<pdfrwt beam="1">  1        2 0.33522655E+00 0.41743030E+03</pdfrwt>
<pdfrwt beam="2">  1       -2 0.26519996E-02 0.41743030E+03</pdfrwt>
<totfact> 0.30207275E+03</totfact>
</mgrwt>
</event>
<event>
 4    1  0.5280257E-005  0.1069284E+04  0.7818608E-02  0.9235658E-01
         -2   -1    0    0    0  501 -0.00000000000E+00  0.00000000000E+00  0.16911027585E+03  0.16911027587E+03  0.25500000000E-02 0. -1.
          2   -1    0    0  501    0  0.00000000000E+00 -0.00000000000E+00 -0.16902707461E+04  0.16902707461E+04  0.25500000000E-02 0.  1.
    5000001    1    1    2    0    0 -0.12890549587E+02 -0.40078397500E+03 -0.21670889342E+03  0.48474911591E+03  0.16500000000E+03 0.  0.
   -5000001    1    1    2    0    0  0.12890549587E+02  0.40078397500E+03 -0.13044515768E+04  0.13746319060E+04  0.16500000000E+03 0.  0.
<mgrwt>
<rscale>  0 0.10692842E+04</rscale>
<asrwt>0</asrwt>
<pdfrwt beam="1">  1        2 0.24146724E+00 0.10692842E+04</pdfrwt>
<pdfrwt beam="2">  1       -2 0.24158612E-01 0.10692842E+04</pdfrwt>
<totfact> 0.17596069E+02</totfact>
</mgrwt>
</event>
<event>
 4    1  0.5280257E-005  0.6530700E+03  0.7818608E-02  0.9801036E-01
          2   -1    0    0  501    0  0.00000000000E+00  0.00000000000E+00  0.14379909238E+04  0.14379909238E+04  0.25500000000E-02 0.  1.
         -2   -1    0    0    0  501 -0.00000000000E+00 -0.00000000000E+00 -0.74148662063E+02  0.74148662106E+02  0.25500000000E-02 0. -1.
    5000001    1    1    2    0    0  0.15013844551E+03 -0.22945117947E+03  0.83216945650E+03  0.89158308694E+03  0.16500000000E+03 0.  0.
   -5000001    1    1    2    0    0 -0.15013844551E+03  0.22945117947E+03  0.53167280521E+03  0.62055649894E+03  0.16500000000E+03 0.  0.
<mgrwt>
<rscale>  0 0.65306999E+03</rscale>
<asrwt>0</asrwt>
<pdfrwt beam="1">  1        2 0.20542727E+00 0.65306999E+03</pdfrwt>
<pdfrwt beam="2">  1       -2 0.10592666E-01 0.65306999E+03</pdfrwt>
<totfact> 0.99786477E+02</totfact>
</mgrwt>
</event>
<event>
 4    1  0.5280257E-005  0.4763231E+03  0.7818608E-02  0.1020151E+00
         -2   -1    0    0    0  501 -0.00000000000E+00  0.00000000000E+00  0.18966721810E+03  0.18966721812E+03  0.25500000000E-02 0. -1.
          2   -1    0    0  501    0  0.00000000000E+00 -0.00000000000E+00 -0.29905499323E+03  0.29905499324E+03  0.25500000000E-02 0.  1.
    5000001    1    1    2    0    0 -0.64567790998E+02  0.14249031687E+03  0.18027300298E+02  0.22808435631E+03  0.16500000000E+03 0.  0.
   -5000001    1    1    2    0    0  0.64567790998E+02 -0.14249031687E+03 -0.12741507543E+03  0.26063785504E+03  0.16500000000E+03 0.  0.
<mgrwt>
<rscale>  0 0.47632312E+03</rscale>
<asrwt>0</asrwt>
<pdfrwt beam="1">  1        2 0.42722142E-01 0.47632312E+03</pdfrwt>
<pdfrwt beam="2">  1       -2 0.27095317E-01 0.47632312E+03</pdfrwt>
<totfact> 0.14755167E+03</totfact>
</mgrwt>
</event>
<event>
 4    1  0.5280257E-005  0.6703466E+03  0.7818608E-02  0.9769332E-01
          2   -1    0    0  501    0  0.00000000000E+00  0.00000000000E+00  0.11107534716E+04  0.11107534716E+04  0.25500000000E-02 0.  1.
         -2   -1    0    0    0  501 -0.00000000000E+00 -0.00000000000E+00 -0.10113958857E+03  0.10113958860E+03  0.25500000000E-02 0. -1.
    5000001    1    1    2    0    0  0.70376120833E+02  0.27747549647E+03  0.60660568594E+03  0.69075386914E+03  0.16500000000E+03 0.  0.
   -5000001    1    1    2    0    0 -0.70376120833E+02 -0.27747549647E+03  0.40300819707E+03  0.52113919104E+03  0.16500000000E+03 0.  0.
<mgrwt>
<rscale>  0 0.67034662E+03</rscale>
<asrwt>0</asrwt>
<pdfrwt beam="1">  1        2 0.15867906E+00 0.67034662E+03</pdfrwt>
<pdfrwt beam="2">  1       -2 0.14448513E-01 0.67034662E+03</pdfrwt>
<totfact> 0.90395510E+02</totfact>
</mgrwt>
</event>
<event>
 4    1  0.5280257E-005  0.1787597E+04  0.7818608E-02  0.8712923E-01
          2   -1    0    0  501    0  0.00000000000E+00  0.00000000000E+00  0.52776676882E+03  0.52776676882E+03  0.25500000000E-02 0.  1.
         -2   -1    0    0    0  501 -0.00000000000E+00 -0.00000000000E+00 -0.15136914916E+04  0.15136914916E+04  0.25500000000E-02 0. -1.
    5000001    1    1    2    0    0 -0.65925288917E+03 -0.55929864176E+03 -0.67069751666E+03  0.11065665373E+04  0.16500000000E+03 0.  0.
   -5000001    1    1    2    0    0  0.65925288917E+03  0.55929864176E+03 -0.31522720613E+03  0.93489172317E+03  0.16500000000E+03 0.  0.
<mgrwt>
<rscale>  0 0.17875973E+04</rscale>
<asrwt>0</asrwt>
<pdfrwt beam="1">  1        2 0.75395253E-01 0.17875973E+04</pdfrwt>
<pdfrwt beam="2">  1       -2 0.21624164E+00 0.17875973E+04</pdfrwt>
<totfact> 0.62382208E+00</totfact>
</mgrwt>
</event>
<event>
 4    1  0.5280257E-005  0.6361578E+03  0.7818608E-02  0.9833105E-01
         -2   -1    0    0    0  501 -0.00000000000E+00  0.00000000000E+00  0.21479780361E+03  0.21479780363E+03  0.25500000000E-02 0. -1.
          2   -1    0    0  501    0  0.00000000000E+00 -0.00000000000E+00 -0.47102062425E+03  0.47102062426E+03  0.25500000000E-02 0.  1.
    5000001    1    1    2    0    0 -0.20130233595E+03 -0.97741100023E+02  0.38459814501E+02  0.28067794787E+03  0.16500000000E+03 0.  0.
   -5000001    1    1    2    0    0  0.20130233595E+03  0.97741100023E+02 -0.29468263514E+03  0.40514048001E+03  0.16500000000E+03 0.  0.
<mgrwt>
<rscale>  0 0.63615783E+03</rscale>
<asrwt>0</asrwt>
<pdfrwt beam="1">  1        2 0.67288661E-01 0.63615783E+03</pdfrwt>
<pdfrwt beam="2">  1       -2 0.30685401E-01 0.63615783E+03</pdfrwt>
<totfact> 0.70960151E+02</totfact>
</mgrwt>
</event>
<event>
 4    1  0.5280257E-005  0.5717580E+03  0.7818608E-02  0.9965796E-01
          2   -1    0    0  501    0  0.00000000000E+00  0.00000000000E+00  0.81388077259E+03  0.81388077260E+03  0.25500000000E-02 0.  1.
         -2   -1    0    0    0  501 -0.00000000000E+00 -0.00000000000E+00 -0.10041617272E+03  0.10041617275E+03  0.25500000000E-02 0. -1.
    5000001    1    1    2    0    0  0.82103846080E+02 -0.21421198214E+03  0.28750821507E+03  0.40312998966E+03  0.16500000000E+03 0.  0.
   -5000001    1    1    2    0    0 -0.82103846080E+02  0.21421198214E+03  0.42595638480E+03  0.51116695569E+03  0.16500000000E+03 0.  0.
<mgrwt>
<rscale>  0 0.57175796E+03</rscale>
<asrwt>0</asrwt>
<pdfrwt beam="1">  1        2 0.11626868E+00 0.57175796E+03</pdfrwt>
<pdfrwt beam="2">  1       -2 0.14345168E-01 0.57175796E+03</pdfrwt>
<totfact> 0.14067807E+03</totfact>
</mgrwt>
</event>
<event>
 4    1  0.5280257E-005  0.7430207E+03  0.7818608E-02  0.9646364E-01
          2   -1    0    0  501    0  0.00000000000E+00  0.00000000000E+00  0.56745095604E+03  0.56745095604E+03  0.25500000000E-02 0.  1.
         -2   -1    0    0    0  501 -0.00000000000E+00 -0.00000000000E+00 -0.24322797147E+03  0.24322797149E+03  0.25500000000E-02 0. -1.
    5000001    1    1    2    0    0 -0.84154271560E+02  0.26856581927E+03 -0.31794479123E+02  0.32778869658E+03  0.16500000000E+03 0.  0.
   -5000001    1    1    2    0    0  0.84154271560E+02 -0.26856581927E+03  0.35601746369E+03  0.48289023095E+03  0.16500000000E+03 0.  0.
<mgrwt>
<rscale>  0 0.74302071E+03</rscale>
<asrwt>0</asrwt>
<pdfrwt beam="1">  1        2 0.81064422E-01 0.74302071E+03</pdfrwt>
<pdfrwt beam="2">  1       -2 0.34746853E-01 0.74302071E+03</pdfrwt>
<totfact> 0.45244385E+02</totfact>
</mgrwt>
</event>
<event>
 4    1  0.5280257E-005  0.4917877E+03  0.7818608E-02  0.1015945E+00
         -2   -1    0    0    0  501 -0.00000000000E+00  0.00000000000E+00  0.74728210490E+02  0.74728210534E+02  0.25500000000E-02 0. -1.
          2   -1    0    0  501    0  0.00000000000E+00 -0.00000000000E+00 -0.80911605103E+03  0.80911605104E+03  0.25500000000E-02 0.  1.
    5000001    1    1    2    0    0  0.56183862706E+02  0.16367240983E+03 -0.47033402609E+03  0.52762143651E+03  0.16500000000E+03 0.  0.
   -5000001    1    1    2    0    0 -0.56183862706E+02 -0.16367240983E+03 -0.26405381445E+03  0.35622282506E+03  0.16500000000E+03 0.  0.
<mgrwt>
<rscale>  0 0.49178774E+03</rscale>
<asrwt>0</asrwt>
<pdfrwt beam="1">  1        2 0.11558800E+00 0.49178774E+03</pdfrwt>
<pdfrwt beam="2">  1       -2 0.10675459E-01 0.49178774E+03</pdfrwt>
<totfact> 0.23066007E+03</totfact>
</mgrwt>
</event>
<event>
 4    1  0.5280257E-005  0.4558341E+03  0.7818608E-02  0.1025996E+00
          2   -1    0    0  501    0  0.00000000000E+00  0.00000000000E+00  0.42222650332E+03  0.42222650332E+03  0.25500000000E-02 0.  1.
         -2   -1    0    0    0  501 -0.00000000000E+00 -0.00000000000E+00 -0.12302916073E+03  0.12302916075E+03  0.25500000000E-02 0. -1.
    5000001    1    1    2    0    0  0.75240647023E+02 -0.55962173078E+02 -0.13667491099E+01  0.18978879783E+03  0.16500000000E+03 0.  0.
   -5000001    1    1    2    0    0 -0.75240647023E+02  0.55962173078E+02  0.30056409170E+03  0.35546686625E+03  0.16500000000E+03 0.  0.
<mgrwt>
<rscale>  0 0.45583406E+03</rscale>
<asrwt>0</asrwt>
<pdfrwt beam="1">  1        2 0.60318073E-01 0.45583406E+03</pdfrwt>
<pdfrwt beam="2">  1       -2 0.17575594E-01 0.45583406E+03</pdfrwt>
<totfact> 0.21569283E+03</totfact>
</mgrwt>
</event>
<event>
 4    1  0.5280257E-005  0.3862688E+03  0.7818608E-02  0.1048641E+00
          2   -1    0    0  501    0  0.00000000000E+00  0.00000000000E+00  0.10416194100E+04  0.10416194100E+04  0.25500000000E-02 0.  1.
         -2   -1    0    0    0  501 -0.00000000000E+00 -0.00000000000E+00 -0.35810488514E+02  0.35810488605E+02  0.25500000000E-02 0. -1.
    5000001    1    1    2    0    0  0.41977223328E+02 -0.20622269317E+02  0.75064526447E+03  0.76998745336E+03  0.16500000000E+03 0.  0.
   -5000001    1    1    2    0    0 -0.41977223328E+02  0.20622269317E+02  0.25516365697E+03  0.30744244520E+03  0.16500000000E+03 0.  0.
<mgrwt>
<rscale>  0 0.38626882E+03</rscale>
<asrwt>0</asrwt>
<pdfrwt beam="1">  1        2 0.14880274E+00 0.38626882E+03</pdfrwt>
<pdfrwt beam="2">  1       -2 0.51157852E-02 0.38626882E+03</pdfrwt>
<totfact> 0.52341029E+03</totfact>
</mgrwt>
</event>
<event>
 4    1  0.5280257E-005  0.5458621E+03  0.7818608E-02  0.1002456E+00
          2   -1    0    0  501    0  0.00000000000E+00  0.00000000000E+00  0.50198119622E+03  0.50198119622E+03  0.25500000000E-02 0.  1.
         -2   -1    0    0    0  501 -0.00000000000E+00 -0.00000000000E+00 -0.14839469640E+03  0.14839469643E+03  0.25500000000E-02 0. -1.
    5000001    1    1    2    0    0  0.26227454808E+02 -0.19158641741E+03  0.29518149086E+03  0.38955146934E+03  0.16500000000E+03 0.  0.
   -5000001    1    1    2    0    0 -0.26227454808E+02  0.19158641741E+03  0.58405008959E+02  0.26082442331E+03  0.16500000000E+03 0.  0.
<mgrwt>
<rscale>  0 0.54586206E+03</rscale>
<asrwt>0</asrwt>
<pdfrwt beam="1">  1        2 0.71711600E-01 0.54586206E+03</pdfrwt>
<pdfrwt beam="2">  1       -2 0.21199242E-01 0.54586206E+03</pdfrwt>
<totfact> 0.12866141E+03</totfact>
</mgrwt>
</event>
<event>
 4    1  0.5280257E-005  0.5182939E+03  0.7818608E-02  0.1009111E+00
         -2   -1    0    0    0  501 -0.00000000000E+00  0.00000000000E+00  0.11244348516E+03  0.11244348519E+03  0.25500000000E-02 0. -1.
          2   -1    0    0  501    0  0.00000000000E+00 -0.00000000000E+00 -0.59725239117E+03  0.59725239118E+03  0.25500000000E-02 0.  1.
    5000001    1    1    2    0    0  0.12688361746E+03  0.76951041960E+02 -0.42566071985E+03  0.48003433592E+03  0.16500000000E+03 0.  0.
   -5000001    1    1    2    0    0 -0.12688361746E+03 -0.76951041960E+02 -0.59148186161E+02  0.22966154046E+03  0.16500000000E+03 0.  0.
<mgrwt>
<rscale>  0 0.51829389E+03</rscale>
<asrwt>0</asrwt>
<pdfrwt beam="1">  1        2 0.85321768E-01 0.51829389E+03</pdfrwt>
<pdfrwt beam="2">  1       -2 0.16063355E-01 0.51829389E+03</pdfrwt>
<totfact> 0.16974121E+03</totfact>
</mgrwt>
</event>
<event>
 4    1  0.5280257E-005  0.4999175E+03  0.7818608E-02  0.1013800E+00
         -2   -1    0    0    0  501 -0.00000000000E+00  0.00000000000E+00  0.27532238467E+02  0.27532238585E+02  0.25500000000E-02 0. -1.
          2   -1    0    0  501    0  0.00000000000E+00 -0.00000000000E+00 -0.22693172988E+04  0.22693172988E+04  0.25500000000E-02 0.  1.
    5000001    1    1    2    0    0 -0.77518467760E+02 -0.14889479031E+03 -0.73442213142E+03  0.77121957868E+03  0.16500000000E+03 0.  0.
   -5000001    1    1    2    0    0  0.77518467760E+02  0.14889479031E+03 -0.15073629289E+04  0.15256299587E+04  0.16500000000E+03 0.  0.
<mgrwt>
<rscale>  0 0.49991753E+03</rscale>
<asrwt>0</asrwt>
<pdfrwt beam="1">  1        2 0.32418807E+00 0.49991753E+03</pdfrwt>
<pdfrwt beam="2">  1       -2 0.39331784E-02 0.49991753E+03</pdfrwt>
<totfact> 0.18109599E+03</totfact>
</mgrwt>
</event>
<event>
 4    1  0.5280257E-005  0.4321858E+03  0.7818608E-02  0.1033172E+00
         -2   -1    0    0    0  501 -0.00000000000E+00  0.00000000000E+00  0.71113712897E+03  0.71113712898E+03  0.25500000000E-02 0. -1.
          2   -1    0    0  501    0  0.00000000000E+00 -0.00000000000E+00 -0.65664036664E+02  0.65664036714E+02  0.25500000000E-02 0.  1.
    5000001    1    1    2    0    0 -0.26031215339E+02  0.11849681390E+03  0.44663854976E+03  0.49135538382E+03  0.16500000000E+03 0.  0.
   -5000001    1    1    2    0    0  0.26031215339E+02 -0.11849681390E+03  0.19883454254E+03  0.28544578187E+03  0.16500000000E+03 0.  0.
<mgrwt>
<rscale>  0 0.43218577E+03</rscale>
<asrwt>0</asrwt>
<pdfrwt beam="1">  1        2 0.93805764E-02 0.43218577E+03</pdfrwt>
<pdfrwt beam="2">  1       -2 0.10159102E+00 0.43218577E+03</pdfrwt>
<totfact> 0.57787746E+02</totfact>
</mgrwt>
</event>
<event>
 4    1  0.5280257E-005  0.4442093E+03  0.7818608E-02  0.1029463E+00
         -2   -1    0    0    0  501 -0.00000000000E+00  0.00000000000E+00  0.75968406909E+02  0.75968406952E+02  0.25500000000E-02 0. -1.
          2   -1    0    0  501    0  0.00000000000E+00 -0.00000000000E+00 -0.64935520335E+03  0.64935520336E+03  0.25500000000E-02 0.  1.
    5000001    1    1    2    0    0  0.93272630341E+02 -0.92585014316E+01 -0.47514328587E+03  0.51163624337E+03  0.16500000000E+03 0.  0.
   -5000001    1    1    2    0    0 -0.93272630341E+02  0.92585014316E+01 -0.98243510568E+02  0.21368736694E+03  0.16500000000E+03 0.  0.
<mgrwt>
<rscale>  0 0.44420932E+03</rscale>
<asrwt>0</asrwt>
<pdfrwt beam="1">  1        2 0.92765026E-01 0.44420932E+03</pdfrwt>
<pdfrwt beam="2">  1       -2 0.10852630E-01 0.44420932E+03</pdfrwt>
<totfact> 0.29394596E+03</totfact>
</mgrwt>
</event>
<event>
 4    1  0.5280257E-005  0.8682398E+03  0.7818608E-02  0.9466178E-01
         -2   -1    0    0    0  501 -0.00000000000E+00  0.00000000000E+00  0.40641130760E+02  0.40641130840E+02  0.25500000000E-02 0. -1.
          2   -1    0    0  501    0  0.00000000000E+00 -0.00000000000E+00 -0.46371764209E+04  0.46371764209E+04  0.25500000000E-02 0.  1.
    5000001    1    1    2    0    0 -0.39806364499E+03 -0.32036511705E+02 -0.20726206732E+04  0.21171826701E+04  0.16500000000E+03 0.  0.
   -5000001    1    1    2    0    0  0.39806364499E+03  0.32036511705E+02 -0.25239146170E+04  0.25606348817E+04  0.16500000000E+03 0.  0.
<mgrwt>
<rscale>  0 0.86823981E+03</rscale>
<asrwt>0</asrwt>
<pdfrwt beam="1">  1        2 0.66245344E+00 0.86823981E+03</pdfrwt>
<pdfrwt beam="2">  1       -2 0.58058788E-02 0.86823981E+03</pdfrwt>
<totfact> 0.33621434E+01</totfact>
</mgrwt>
</event>
<event>
 4    1  0.5280257E-005  0.3943484E+03  0.7818608E-02  0.1045754E+00
          2   -1    0    0  501    0  0.00000000000E+00  0.00000000000E+00  0.27981603223E+04  0.27981603223E+04  0.25500000000E-02 0.  1.
         -2   -1    0    0    0  501 -0.00000000000E+00 -0.00000000000E+00 -0.13894009497E+02  0.13894009731E+02  0.25500000000E-02 0. -1.
    5000001    1    1    2    0    0 -0.16472159051E+02  0.69627757372E+02  0.19685149359E+04  0.19767132846E+04  0.16500000000E+03 0.  0.
   -5000001    1    1    2    0    0  0.16472159051E+02 -0.69627757372E+02  0.81575137694E+03  0.83534104748E+03  0.16500000000E+03 0.  0.
<mgrwt>
<rscale>  0 0.39434841E+03</rscale>
<asrwt>0</asrwt>
<pdfrwt beam="1">  1        2 0.39973680E+00 0.39434841E+03</pdfrwt>
<pdfrwt beam="2">  1       -2 0.19848604E-02 0.39434841E+03</pdfrwt>
<totfact> 0.27427261E+03</totfact>
</mgrwt>
</event>
<event>
 4    1  0.5280257E-005  0.7271548E+03  0.7818608E-02  0.9671889E-01
          2   -1    0    0  501    0  0.00000000000E+00  0.00000000000E+00  0.19463706296E+03  0.19463706298E+03  0.25500000000E-02 0.  1.
         -2   -1    0    0    0  501 -0.00000000000E+00 -0.00000000000E+00 -0.67915398026E+03  0.67915398027E+03  0.25500000000E-02 0. -1.
    5000001    1    1    2    0    0  0.32024823322E+03  0.48964921102E+02 -0.23906972863E+03  0.43512737162E+03  0.16500000000E+03 0.  0.
   -5000001    1    1    2    0    0 -0.32024823322E+03 -0.48964921102E+02 -0.24544718867E+03  0.43866367163E+03  0.16500000000E+03 0.  0.
<mgrwt>
<rscale>  0 0.72715483E+03</rscale>
<asrwt>0</asrwt>
<pdfrwt beam="1">  1        2 0.27805295E-01 0.72715483E+03</pdfrwt>
<pdfrwt beam="2">  1       -2 0.97021996E-01 0.72715483E+03</pdfrwt>
<totfact> 0.17371683E+02</totfact>
</mgrwt>
</event>
<event>
 4    1  0.5280257E-005  0.4943567E+03  0.7818608E-02  0.1015262E+00
          2   -1    0    0  501    0  0.00000000000E+00  0.00000000000E+00  0.13889393752E+03  0.13889393755E+03  0.25500000000E-02 0.  1.
         -2   -1    0    0    0  501 -0.00000000000E+00 -0.00000000000E+00 -0.43988332581E+03  0.43988332582E+03  0.25500000000E-02 0. -1.
    5000001    1    1    2    0    0  0.87969306691E+02 -0.15749046267E+03 -0.19319618118E+03  0.31159526500E+03  0.16500000000E+03 0.  0.
   -5000001    1    1    2    0    0 -0.87969306691E+02  0.15749046267E+03 -0.10779320711E+03  0.26718199836E+03  0.16500000000E+03 0.  0.
<mgrwt>
<rscale>  0 0.49435666E+03</rscale>
<asrwt>0</asrwt>
<pdfrwt beam="1">  1        2 0.19841991E-01 0.49435666E+03</pdfrwt>
<pdfrwt beam="2">  1       -2 0.62840474E-01 0.49435666E+03</pdfrwt>
<totfact> 0.67733801E+02</totfact>
</mgrwt>
</event>
<event>
 4    1  0.5280257E-005  0.4437476E+03  0.7818608E-02  0.1029603E+00
         -2   -1    0    0    0  501 -0.00000000000E+00  0.00000000000E+00  0.33322181360E+02  0.33322181458E+02  0.25500000000E-02 0. -1.
          2   -1    0    0  501    0  0.00000000000E+00 -0.00000000000E+00 -0.14773334880E+04  0.14773334880E+04  0.25500000000E-02 0.  1.
    5000001    1    1    2    0    0  0.10291679874E+03 -0.98332730352E+02 -0.57992782786E+03  0.61951794070E+03  0.16500000000E+03 0.  0.
   -5000001    1    1    2    0    0 -0.10291679874E+03  0.98332730352E+02 -0.86408347875E+03  0.89113772873E+03  0.16500000000E+03 0.  0.
<mgrwt>
<rscale>  0 0.44374756E+03</rscale>
<asrwt>0</asrwt>
<pdfrwt beam="1">  1        2 0.21104760E+00 0.44374756E+03</pdfrwt>
<pdfrwt beam="2">  1       -2 0.47603125E-02 0.44374756E+03</pdfrwt>
<totfact> 0.33854038E+03</totfact>
</mgrwt>
</event>
<event>
 4    1  0.5280257E-005  0.4269434E+03  0.7818608E-02  0.1034830E+00
          2   -1    0    0  501    0  0.00000000000E+00  0.00000000000E+00  0.66456708210E+02  0.66456708259E+02  0.25500000000E-02 0.  1.
         -2   -1    0    0    0  501 -0.00000000000E+00 -0.00000000000E+00 -0.68571200397E+03  0.68571200397E+03  0.25500000000E-02 0. -1.
    5000001    1    1    2    0    0  0.46272017944E+02  0.12553955731E+03 -0.34674517084E+03  0.40664295591E+03  0.16500000000E+03 0.  0.
   -5000001    1    1    2    0    0 -0.46272017944E+02 -0.12553955731E+03 -0.27251012492E+03  0.34552575631E+03  0.16500000000E+03 0.  0.
<mgrwt>
<rscale>  0 0.42694338E+03</rscale>
<asrwt>0</asrwt>
<pdfrwt beam="1">  1        2 0.94938159E-02 0.42694338E+03</pdfrwt>
<pdfrwt beam="2">  1       -2 0.97958853E-01 0.42694338E+03</pdfrwt>
<totfact> 0.61983400E+02</totfact>
</mgrwt>
</event>
<event>
 4    1  0.5280257E-005  0.8658643E+03  0.7818608E-02  0.9469288E-01
         -2   -1    0    0    0  501 -0.00000000000E+00  0.00000000000E+00  0.10572835599E+03  0.10572835602E+03  0.25500000000E-02 0. -1.
          2   -1    0    0  501    0  0.00000000000E+00 -0.00000000000E+00 -0.17727529858E+04  0.17727529858E+04  0.25500000000E-02 0.  1.
    5000001    1    1    2    0    0  0.38910095100E+03  0.78302976297E+02 -0.72131915701E+03  0.83967686192E+03  0.16500000000E+03 0.  0.
   -5000001    1    1    2    0    0 -0.38910095100E+03 -0.78302976297E+02 -0.94570547279E+03  0.10388044799E+04  0.16500000000E+03 0.  0.
<mgrwt>
<rscale>  0 0.86586433E+03</rscale>
<asrwt>0</asrwt>
<pdfrwt beam="1">  1        2 0.25325041E+00 0.86586433E+03</pdfrwt>
<pdfrwt beam="2">  1       -2 0.15104052E-01 0.86586433E+03</pdfrwt>
<totfact> 0.36691769E+02</totfact>
</mgrwt>
</event>
<event>
 4    1  0.5280257E-005  0.4037546E+03  0.7818608E-02  0.1042487E+00
          2   -1    0    0  501    0  0.00000000000E+00  0.00000000000E+00  0.33705315004E+03  0.33705315005E+03  0.25500000000E-02 0.  1.
         -2   -1    0    0    0  501 -0.00000000000E+00 -0.00000000000E+00 -0.12091401685E+03  0.12091401688E+03  0.25500000000E-02 0. -1.
    5000001    1    1    2    0    0 -0.91502033274E+02  0.71784889556E+02  0.11026835906E+03  0.23002131091E+03  0.16500000000E+03 0.  0.
   -5000001    1    1    2    0    0  0.91502033274E+02 -0.71784889556E+02  0.10587077413E+03  0.22794585602E+03  0.16500000000E+03 0.  0.
<mgrwt>
<rscale>  0 0.40375463E+03</rscale>
<asrwt>0</asrwt>
<pdfrwt beam="1">  1        2 0.48150450E-01 0.40375463E+03</pdfrwt>
<pdfrwt beam="2">  1       -2 0.17273431E-01 0.40375463E+03</pdfrwt>
<totfact> 0.28399940E+03</totfact>
</mgrwt>
</event>
<event>
 4    1  0.5280257E-005  0.6609919E+03  0.7818608E-02  0.9786370E-01
         -2   -1    0    0    0  501 -0.00000000000E+00  0.00000000000E+00  0.38689574082E+02  0.38689574166E+02  0.25500000000E-02 0.  1.
          2   -1    0    0  501    0  0.00000000000E+00 -0.00000000000E+00 -0.28231780552E+04  0.28231780552E+04  0.25500000000E-02 0. -1.
    5000001    1    1    2    0    0 -0.17655669777E+03 -0.20608509029E+03 -0.17880995152E+04  0.18160859584E+04  0.16500000000E+03 0.  0.
   -5000001    1    1    2    0    0  0.17655669777E+03  0.20608509029E+03 -0.99638896589E+03  0.10457816710E+04  0.16500000000E+03 0.  0.
<mgrwt>
<rscale>  0 0.66099185E+03</rscale>
<asrwt>0</asrwt>
<pdfrwt beam="1">  1        2 0.40331102E+00 0.66099185E+03</pdfrwt>
<pdfrwt beam="2">  1       -2 0.55270838E-02 0.66099185E+03</pdfrwt>
<totfact> 0.54817197E+02</totfact>
</mgrwt>
</event>
<event>
 4    1  0.5280257E-005  0.6945730E+03  0.7818608E-02  0.9726558E-01
          2   -1    0    0  501    0  0.00000000000E+00  0.00000000000E+00  0.60995046156E+03  0.60995046156E+03  0.25500000000E-02 0.  1.
         -2   -1    0    0    0  501 -0.00000000000E+00 -0.00000000000E+00 -0.19773392585E+03  0.19773392586E+03  0.25500000000E-02 0. -1.
    5000001    1    1    2    0    0 -0.25397402472E+03  0.12814315998E+03  0.33590770521E+03  0.47008771639E+03  0.16500000000E+03 0.  0.
   -5000001    1    1    2    0    0  0.25397402472E+03 -0.12814315998E+03  0.76308830499E+02  0.33759667103E+03  0.16500000000E+03 0.  0.
<mgrwt>
<rscale>  0 0.69457296E+03</rscale>
<asrwt>0</asrwt>
<pdfrwt beam="1">  1        2 0.87135779E-01 0.69457296E+03</pdfrwt>
<pdfrwt beam="2">  1       -2 0.28247704E-01 0.69457296E+03</pdfrwt>
<totfact> 0.61242066E+02</totfact>
</mgrwt>
</event>
<event>
 4    1  0.5280257E-005  0.3895139E+03  0.7818608E-02  0.1047472E+00
          2   -1    0    0  501    0  0.00000000000E+00  0.00000000000E+00  0.93429525634E+03  0.93429525635E+03  0.25500000000E-02 0.  1.
         -2   -1    0    0    0  501 -0.00000000000E+00 -0.00000000000E+00 -0.40597735947E+02  0.40597736027E+02  0.25500000000E-02 0. -1.
    5000001    1    1    2    0    0  0.30721725613E+02 -0.93125759144E+02  0.36425332770E+03  0.41173015214E+03  0.16500000000E+03 0.  0.
   -5000001    1    1    2    0    0 -0.30721725613E+02  0.93125759144E+02  0.52944419270E+03  0.56316284024E+03  0.16500000000E+03 0.  0.
<mgrwt>
<rscale>  0 0.38951391E+03</rscale>
<asrwt>0</asrwt>
<pdfrwt beam="1">  1        2 0.13347071E+00 0.38951391E+03</pdfrwt>
<pdfrwt beam="2">  1       -2 0.57996784E-02 0.38951391E+03</pdfrwt>
<totfact> 0.50080819E+03</totfact>
</mgrwt>
</event>
<event>
 4    1  0.5280257E-005  0.4507770E+03  0.7818608E-02  0.1027491E+00
          2   -1    0    0  501    0  0.00000000000E+00  0.00000000000E+00  0.57652934441E+03  0.57652934442E+03  0.25500000000E-02 0.  1.
         -2   -1    0    0    0  501 -0.00000000000E+00 -0.00000000000E+00 -0.88113443939E+02  0.88113443976E+02  0.25500000000E-02 0. -1.
    5000001    1    1    2    0    0  0.11671193366E+03 -0.69724047595E+02  0.34941989900E+03  0.40963689298E+03  0.16500000000E+03 0.  0.
   -5000001    1    1    2    0    0 -0.11671193366E+03  0.69724047595E+02  0.13899600148E+03  0.25500589542E+03  0.16500000000E+03 0.  0.
<mgrwt>
<rscale>  0 0.45077705E+03</rscale>
<asrwt>0</asrwt>
<pdfrwt beam="1">  1        2 0.82361337E-01 0.45077705E+03</pdfrwt>
<pdfrwt beam="2">  1       -2 0.12587634E-01 0.45077705E+03</pdfrwt>
<totfact> 0.26527574E+03</totfact>
</mgrwt>
</event>
<event>
 4    1  0.5280257E-005  0.5079892E+03  0.7818608E-02  0.1011714E+00
         -2   -1    0    0    0  501 -0.00000000000E+00  0.00000000000E+00  0.16232540843E+03  0.16232540845E+03  0.25500000000E-02 0. -1.
          2   -1    0    0  501    0  0.00000000000E+00 -0.00000000000E+00 -0.39743166934E+03  0.39743166935E+03  0.25500000000E-02 0.  1.
    5000001    1    1    2    0    0 -0.17549853811E+03  0.16848824435E+02 -0.20434985667E+03  0.31633444910E+03  0.16500000000E+03 0.  0.
   -5000001    1    1    2    0    0  0.17549853811E+03 -0.16848824435E+02 -0.30756404241E+02  0.24342262871E+03  0.16500000000E+03 0.  0.
<mgrwt>
<rscale>  0 0.50798920E+03</rscale>
<asrwt>0</asrwt>
<pdfrwt beam="1">  1        2 0.56775952E-01 0.50798920E+03</pdfrwt>
<pdfrwt beam="2">  1       -2 0.23189344E-01 0.50798920E+03</pdfrwt>
<totfact> 0.14263698E+03</totfact>
</mgrwt>
</event>
<event>
 4    1  0.5280257E-005  0.5739199E+03  0.7818608E-02  0.9961042E-01
         -2   -1    0    0    0  501 -0.00000000000E+00  0.00000000000E+00  0.13648949720E+03  0.13648949722E+03  0.25500000000E-02 0. -1.
          2   -1    0    0  501    0  0.00000000000E+00 -0.00000000000E+00 -0.60331390483E+03  0.60331390483E+03  0.25500000000E-02 0.  1.
    5000001    1    1    2    0    0 -0.17509702204E+03 -0.14390062902E+03 -0.15442623146E+03  0.32006064913E+03  0.16500000000E+03 0.  0.
   -5000001    1    1    2    0    0  0.17509702204E+03  0.14390062902E+03 -0.31239817617E+03  0.41974275292E+03  0.16500000000E+03 0.  0.
<mgrwt>
<rscale>  0 0.57391990E+03</rscale>
<asrwt>0</asrwt>
<pdfrwt beam="1">  1        2 0.86187699E-01 0.57391990E+03</pdfrwt>
<pdfrwt beam="2">  1       -2 0.19498500E-01 0.57391990E+03</pdfrwt>
<totfact> 0.12036387E+03</totfact>
</mgrwt>
</event>
<event>
 4    1  0.5280257E-005  0.5406828E+03  0.7818608E-02  0.1003674E+00
          2   -1    0    0  501    0  0.00000000000E+00  0.00000000000E+00  0.12822429237E+04  0.12822429237E+04  0.25500000000E-02 0.  1.
         -2   -1    0    0    0  501 -0.00000000000E+00 -0.00000000000E+00 -0.56997358643E+02  0.56997358700E+02  0.25500000000E-02 0. -1.
    5000001    1    1    2    0    0 -0.32195915052E+02 -0.18221668476E+03  0.87962714306E+03  0.91389737278E+03  0.16500000000E+03 0.  0.
   -5000001    1    1    2    0    0  0.32195915052E+02  0.18221668476E+03  0.34561842201E+03  0.42534290965E+03  0.16500000000E+03 0.  0.
<mgrwt>
<rscale>  0 0.54068275E+03</rscale>
<asrwt>0</asrwt>
<pdfrwt beam="1">  1        2 0.18317756E+00 0.54068275E+03</pdfrwt>
<pdfrwt beam="2">  1       -2 0.81424799E-02 0.54068275E+03</pdfrwt>
<totfact> 0.18540586E+03</totfact>
</mgrwt>
</event>
<event>
 4    1  0.5280257E-005  0.3793714E+03  0.7818608E-02  0.1051166E+00
         -2   -1    0    0    0  501 -0.00000000000E+00  0.00000000000E+00  0.61417496405E+02  0.61417496458E+02  0.25500000000E-02 0. -1.
          2   -1    0    0  501    0  0.00000000000E+00 -0.00000000000E+00 -0.58583744727E+03  0.58583744727E+03  0.25500000000E-02 0.  1.
    5000001    1    1    2    0    0  0.13415125052E+02 -0.84967410855E+02 -0.19937817692E+03  0.27271979011E+03  0.16500000000E+03 0.  0.
   -5000001    1    1    2    0    0 -0.13415125052E+02  0.84967410855E+02 -0.32504177394E+03  0.37453515362E+03  0.16500000000E+03 0.  0.
<mgrwt>
<rscale>  0 0.37937142E+03</rscale>
<asrwt>0</asrwt>
<pdfrwt beam="1">  1        2 0.83691060E-01 0.37937142E+03</pdfrwt>
<pdfrwt beam="2">  1       -2 0.87739284E-02 0.37937142E+03</pdfrwt>
<totfact> 0.46498686E+03</totfact>
</mgrwt>
</event>
<event>
 4    1  0.5280257E-005  0.7146855E+03  0.7818608E-02  0.9692442E-01
         -2   -1    0    0    0  501 -0.00000000000E+00  0.00000000000E+00  0.60294574359E+03  0.60294574359E+03  0.25500000000E-02 0. -1.
          2   -1    0    0  501    0  0.00000000000E+00 -0.00000000000E+00 -0.21178330648E+03  0.21178330650E+03  0.25500000000E-02 0.  1.
    5000001    1    1    2    0    0  0.74421986332E+02 -0.28834406741E+03  0.31935157224E+03  0.46678834598E+03  0.16500000000E+03 0.  0.
   -5000001    1    1    2    0    0 -0.74421986332E+02  0.28834406741E+03  0.71810864869E+02  0.34794070410E+03  0.16500000000E+03 0.  0.
<mgrwt>
<rscale>  0 0.71468551E+03</rscale>
<asrwt>0</asrwt>
<pdfrwt beam="1">  1        2 0.30254758E-01 0.71468551E+03</pdfrwt>
<pdfrwt beam="2">  1       -2 0.86135106E-01 0.71468551E+03</pdfrwt>
<totfact> 0.20799135E+02</totfact>
</mgrwt>
</event>
<event>
 4    1  0.5280257E-005  0.7297475E+03  0.7818608E-02  0.9667670E-01
         -2   -1    0    0    0  501 -0.00000000000E+00  0.00000000000E+00  0.12840944181E+03  0.12840944183E+03  0.25500000000E-02 0. -1.
          2   -1    0    0  501    0  0.00000000000E+00 -0.00000000000E+00 -0.10367839647E+04  0.10367839647E+04  0.25500000000E-02 0.  1.
    5000001    1    1    2    0    0  0.65700152834E+02 -0.30440254482E+03 -0.60507766257E+03  0.70022953173E+03  0.16500000000E+03 0.  0.
   -5000001    1    1    2    0    0 -0.65700152834E+02  0.30440254482E+03 -0.30329686030E+03  0.46496387477E+03  0.16500000000E+03 0.  0.
<mgrwt>
<rscale>  0 0.72974749E+03</rscale>
<asrwt>0</asrwt>
<pdfrwt beam="1">  1        2 0.14811199E+00 0.72974749E+03</pdfrwt>
<pdfrwt beam="2">  1       -2 0.18344207E-01 0.72974749E+03</pdfrwt>
<totfact> 0.66433868E+02</totfact>
</mgrwt>
</event>
<event>
 4    1  0.5280257E-005  0.5854647E+03  0.7818608E-02  0.9936030E-01
         -2   -1    0    0    0  501 -0.00000000000E+00  0.00000000000E+00  0.73325612909E+02  0.73325612954E+02  0.25500000000E-02 0. -1.
          2   -1    0    0  501    0  0.00000000000E+00 -0.00000000000E+00 -0.11686533015E+04  0.11686533015E+04  0.25500000000E-02 0.  1.
    5000001    1    1    2    0    0 -0.13832063079E+03  0.17665164432E+03 -0.35640247282E+03  0.45231197527E+03  0.16500000000E+03 0.  0.
   -5000001    1    1    2    0    0  0.13832063079E+03 -0.17665164432E+03 -0.73892521576E+03  0.78966693917E+03  0.16500000000E+03 0.  0.
<mgrwt>
<rscale>  0 0.58546467E+03</rscale>
<asrwt>0</asrwt>
<pdfrwt beam="1">  1        2 0.16695046E+00 0.58546467E+03</pdfrwt>
<pdfrwt beam="2">  1       -2 0.10475088E-01 0.58546467E+03</pdfrwt>
<totfact> 0.14279931E+03</totfact>
</mgrwt>
</event>
<event>
 4    1  0.5280257E-005  0.3883149E+03  0.7818608E-02  0.1047903E+00
         -2   -1    0    0    0  501 -0.00000000000E+00  0.00000000000E+00  0.15642993717E+02  0.15642993925E+02  0.25500000000E-02 0. -1.
          2   -1    0    0  501    0  0.00000000000E+00 -0.00000000000E+00 -0.24098401215E+04  0.24098401215E+04  0.25500000000E-02 0.  1.
    5000001    1    1    2    0    0  0.24898411533E+01 -0.92039110534E+02 -0.14760668586E+04  0.14881114771E+04  0.16500000000E+03 0.  0.
   -5000001    1    1    2    0    0 -0.24898411533E+01  0.92039110534E+02 -0.91813026918E+03  0.93737163834E+03  0.16500000000E+03 0.  0.
<mgrwt>
<rscale>  0 0.38831489E+03</rscale>
<asrwt>0</asrwt>
<pdfrwt beam="1">  1        2 0.34426264E+00 0.38831489E+03</pdfrwt>
<pdfrwt beam="2">  1       -2 0.22347149E-02 0.38831489E+03</pdfrwt>
<totfact> 0.36317891E+03</totfact>
</mgrwt>
</event>
<event>
 4    1  0.5280257E-005  0.6498684E+03  0.7818608E-02  0.9807026E-01
         -2   -1    0    0    0  501 -0.00000000000E+00  0.00000000000E+00  0.63816475986E+02  0.63816476037E+02  0.25500000000E-02 0. -1.
          2   -1    0    0  501    0  0.00000000000E+00 -0.00000000000E+00 -0.16544665398E+04  0.16544665399E+04  0.25500000000E-02 0.  1.
    5000001    1    1    2    0    0  0.21152301573E+03 -0.14765848181E+03 -0.50795935597E+03  0.59312116869E+03  0.16500000000E+03 0.  0.
   -5000001    1    1    2    0    0 -0.21152301573E+03  0.14765848181E+03 -0.10826907079E+04  0.11251618472E+04  0.16500000000E+03 0.  0.
<mgrwt>
<rscale>  0 0.64986837E+03</rscale>
<asrwt>0</asrwt>
<pdfrwt beam="1">  1        2 0.23635234E+00 0.64986837E+03</pdfrwt>
<pdfrwt beam="2">  1       -2 0.91166405E-02 0.64986837E+03</pdfrwt>
<totfact> 0.98250968E+02</totfact>
</mgrwt>
</event>
<event>
 4    1  0.5280257E-005  0.7108022E+03  0.7818608E-02  0.9698935E-01
         -2   -1    0    0    0  501 -0.00000000000E+00  0.00000000000E+00  0.76818482776E+02  0.76818482818E+02  0.25500000000E-02 0. -1.
          2   -1    0    0  501    0  0.00000000000E+00 -0.00000000000E+00 -0.16442649127E+04  0.16442649127E+04  0.25500000000E-02 0.  1.
    5000001    1    1    2    0    0  0.11490417721E+03 -0.25630567718E+03 -0.43967880938E+03  0.54720930686E+03  0.16500000000E+03 0.  0.
   -5000001    1    1    2    0    0 -0.11490417721E+03  0.25630567718E+03 -0.11277676206E+04  0.11738740887E+04  0.16500000000E+03 0.  0.
<mgrwt>
<rscale>  0 0.71080218E+03</rscale>
<asrwt>0</asrwt>
<pdfrwt beam="1">  1        2 0.23489497E+00 0.71080218E+03</pdfrwt>
<pdfrwt beam="2">  1       -2 0.10974070E-01 0.71080218E+03</pdfrwt>
<totfact> 0.73351769E+02</totfact>
</mgrwt>
</event>
<event>
 4    1  0.5280257E-005  0.3492308E+03  0.7818608E-02  0.1062931E+00
         -2   -1    0    0    0  501 -0.00000000000E+00  0.00000000000E+00  0.28852292246E+03  0.28852292247E+03  0.25500000000E-02 0. -1.
          2   -1    0    0  501    0  0.00000000000E+00 -0.00000000000E+00 -0.10567801514E+03  0.10567801517E+03  0.25500000000E-02 0.  1.
    5000001    1    1    2    0    0  0.48143029628E+02 -0.59380804757E+01  0.12552021094E+03  0.21291626395E+03  0.16500000000E+03 0.  0.
   -5000001    1    1    2    0    0 -0.48143029628E+02  0.59380804757E+01  0.57324696378E+02  0.18128467369E+03  0.16500000000E+03 0.  0.
<mgrwt>
<rscale>  0 0.34923075E+03</rscale>
<asrwt>0</asrwt>
<pdfrwt beam="1">  1        2 0.15096859E-01 0.34923075E+03</pdfrwt>
<pdfrwt beam="2">  1       -2 0.41217560E-01 0.34923075E+03</pdfrwt>
<totfact> 0.21856544E+03</totfact>
</mgrwt>
</event>
<event>
 4    1  0.5280257E-005  0.4716583E+03  0.7818608E-02  0.1021453E+00
         -2   -1    0    0    0  501 -0.00000000000E+00  0.00000000000E+00  0.53570395722E+02  0.53570395783E+02  0.25500000000E-02 0. -1.
          2   -1    0    0  501    0  0.00000000000E+00 -0.00000000000E+00 -0.10381740783E+04  0.10381740783E+04  0.25500000000E-02 0.  1.
    5000001    1    1    2    0    0 -0.94079789544E+02  0.17258015677E+02 -0.81338203724E+03  0.83544250815E+03  0.16500000000E+03 0.  0.
   -5000001    1    1    2    0    0  0.94079789544E+02 -0.17258015677E+02 -0.17122164529E+03  0.25630196589E+03  0.16500000000E+03 0.  0.
<mgrwt>
<rscale>  0 0.47165833E+03</rscale>
<asrwt>0</asrwt>
<pdfrwt beam="1">  1        2 0.14831057E+00 0.47165833E+03</pdfrwt>
<pdfrwt beam="2">  1       -2 0.76529143E-02 0.47165833E+03</pdfrwt>
<totfact> 0.28132898E+03</totfact>
</mgrwt>
</event>
<event>
 4    1  0.5280257E-005  0.4789600E+03  0.7818608E-02  0.1019421E+00
         -2   -1    0    0    0  501 -0.00000000000E+00  0.00000000000E+00  0.37986226508E+02  0.37986226593E+02  0.25500000000E-02 0. -1.
          2   -1    0    0  501    0  0.00000000000E+00 -0.00000000000E+00 -0.15097751869E+04  0.15097751869E+04  0.25500000000E-02 0.  1.
    5000001    1    1    2    0    0  0.16413483741E+03 -0.51544209225E+02 -0.81019182338E+03  0.84453113680E+03  0.16500000000E+03 0.  0.
   -5000001    1    1    2    0    0 -0.16413483741E+03  0.51544209225E+02 -0.66159713700E+03  0.70323027668E+03  0.16500000000E+03 0.  0.
<mgrwt>
<rscale>  0 0.47895997E+03</rscale>
<asrwt>0</asrwt>
<pdfrwt beam="1">  1        2 0.21568213E+00 0.47895997E+03</pdfrwt>
<pdfrwt beam="2">  1       -2 0.54266047E-02 0.47895997E+03</pdfrwt>
<totfact> 0.26601829E+03</totfact>
</mgrwt>
</event>
<event>
 4    1  0.5280257E-005  0.4342323E+03  0.7818608E-02  0.1032531E+00
         -2   -1    0    0    0  501 -0.00000000000E+00  0.00000000000E+00  0.40204356262E+02  0.40204356343E+02  0.25500000000E-02 0. -1.
          2   -1    0    0  501    0  0.00000000000E+00 -0.00000000000E+00 -0.11724953675E+04  0.11724953675E+04  0.25500000000E-02 0.  1.
    5000001    1    1    2    0    0 -0.12376165972E+03  0.22655408864E+02 -0.74462361400E+03  0.77299388257E+03  0.16500000000E+03 0.  0.
   -5000001    1    1    2    0    0  0.12376165972E+03 -0.22655408864E+02 -0.38766739724E+03  0.43970584128E+03  0.16500000000E+03 0.  0.
<mgrwt>
<rscale>  0 0.43423230E+03</rscale>
<asrwt>0</asrwt>
<pdfrwt beam="1">  1        2 0.16749932E+00 0.43423230E+03</pdfrwt>
<pdfrwt beam="2">  1       -2 0.57434802E-02 0.43423230E+03</pdfrwt>
<totfact> 0.36892477E+03</totfact>
</mgrwt>
</event>
<event>
 4    1  0.5280257E-005  0.5337184E+03  0.7818608E-02  0.1005334E+00
          2   -1    0    0  501    0  0.00000000000E+00  0.00000000000E+00  0.42225824969E+03  0.42225824970E+03  0.25500000000E-02 0.  1.
         -2   -1    0    0    0  501 -0.00000000000E+00 -0.00000000000E+00 -0.16864992044E+03  0.16864992046E+03  0.25500000000E-02 0. -1.
    5000001    1    1    2    0    0  0.20844735873E+03 -0.20857525269E+02  0.13806683351E+03  0.30028784230E+03  0.16500000000E+03 0.  0.
   -5000001    1    1    2    0    0 -0.20844735873E+03  0.20857525269E+02  0.11554149575E+03  0.29062032785E+03  0.16500000000E+03 0.  0.
<mgrwt>
<rscale>  0 0.53371835E+03</rscale>
<asrwt>0</asrwt>
<pdfrwt beam="1">  1        2 0.60322607E-01 0.53371835E+03</pdfrwt>
<pdfrwt beam="2">  1       -2 0.24092846E-01 0.53371835E+03</pdfrwt>
<totfact> 0.12462508E+03</totfact>
</mgrwt>
</event>
<event>
 4    1  0.5280257E-005  0.8034350E+03  0.7818608E-02  0.9555058E-01
          2   -1    0    0  501    0  0.00000000000E+00  0.00000000000E+00  0.12713086615E+04  0.12713086615E+04  0.25500000000E-02 0.  1.
         -2   -1    0    0    0  501 -0.00000000000E+00 -0.00000000000E+00 -0.12693767679E+03  0.12693767682E+03  0.25500000000E-02 0. -1.
    5000001    1    1    2    0    0  0.24647862596E+03 -0.21548254286E+03  0.85797974698E+03  0.93302662639E+03  0.16500000000E+03 0.  0.
   -5000001    1    1    2    0    0 -0.24647862596E+03  0.21548254286E+03  0.28639123777E+03  0.46521971197E+03  0.16500000000E+03 0.  0.
<mgrwt>
<rscale>  0 0.80343505E+03</rscale>
<asrwt>0</asrwt>
<pdfrwt beam="1">  1        2 0.18161553E+00 0.80343505E+03</pdfrwt>
<pdfrwt beam="2">  1       -2 0.18133953E-01 0.80343505E+03</pdfrwt>
<totfact> 0.49515580E+02</totfact>
</mgrwt>
</event>
<event>
 4    1  0.5280257E-005  0.4501998E+03  0.7818608E-02  0.1027662E+00
          2   -1    0    0  501    0  0.00000000000E+00  0.00000000000E+00  0.33445532710E+04  0.33445532710E+04  0.25500000000E-02 0.  1.
         -2   -1    0    0    0  501 -0.00000000000E+00 -0.00000000000E+00 -0.15149996449E+02  0.15149996663E+02  0.25500000000E-02 0. -1.
    5000001    1    1    2    0    0 -0.13396278926E+03  0.42855986585E+02  0.12130818963E+04  0.12323048940E+04  0.16500000000E+03 0.  0.
   -5000001    1    1    2    0    0  0.13396278926E+03 -0.42855986585E+02  0.21163213782E+04  0.21273983736E+04  0.16500000000E+03 0.  0.
<mgrwt>
<rscale>  0 0.45019982E+03</rscale>
<asrwt>0</asrwt>
<pdfrwt beam="1">  1        2 0.47779315E+00 0.45019982E+03</pdfrwt>
<pdfrwt beam="2">  1       -2 0.21642860E-02 0.45019982E+03</pdfrwt>
<totfact> 0.12087170E+03</totfact>
</mgrwt>
</event>
<event>
 4    1  0.5280257E-005  0.4891531E+03  0.7818608E-02  0.1016650E+00
         -2   -1    0    0    0  501 -0.00000000000E+00  0.00000000000E+00  0.91022154869E+02  0.91022154904E+02  0.25500000000E-02 0.  1.
          2   -1    0    0  501    0  0.00000000000E+00 -0.00000000000E+00 -0.65717714085E+03  0.65717714085E+03  0.25500000000E-02 0. -1.
    5000001    1    1    2    0    0  0.71534818024E+01  0.17601466193E+03 -0.22265717966E+03  0.32838019607E+03  0.16500000000E+03 0.  0.
   -5000001    1    1    2    0    0 -0.71534818024E+01 -0.17601466193E+03 -0.34349780632E+03  0.41981909969E+03  0.16500000000E+03 0.  0.
<mgrwt>
<rscale>  0 0.48915306E+03</rscale>
<asrwt>0</asrwt>
<pdfrwt beam="1">  1        2 0.93882446E-01 0.48915306E+03</pdfrwt>
<pdfrwt beam="2">  1       -2 0.13003165E-01 0.48915306E+03</pdfrwt>
<totfact> 0.21578092E+03</totfact>
</mgrwt>
</event>
<event>
 4    1  0.5280257E-005  0.8812029E+03  0.7818608E-02  0.9449389E-01
         -2   -1    0    0    0  501 -0.00000000000E+00  0.00000000000E+00  0.65070017051E+03  0.65070017051E+03  0.25500000000E-02 0. -1.
          2   -1    0    0  501    0  0.00000000000E+00 -0.00000000000E+00 -0.29833960012E+03  0.29833960013E+03  0.25500000000E-02 0.  1.
    5000001    1    1    2    0    0  0.24325420558E+02 -0.26179351987E+03  0.51294531104E+03  0.59955438889E+03  0.16500000000E+03 0.  0.
   -5000001    1    1    2    0    0 -0.24325420558E+02  0.26179351987E+03 -0.16058474064E+03  0.34948538175E+03  0.16500000000E+03 0.  0.
<mgrwt>
<rscale>  0 0.88120288E+03</rscale>
<asrwt>0</asrwt>
<pdfrwt beam="1">  1        2 0.42619943E-01 0.88120288E+03</pdfrwt>
<pdfrwt beam="2">  1       -2 0.92957168E-01 0.88120288E+03</pdfrwt>
<totfact> 0.11818197E+02</totfact>
</mgrwt>
</event>
<event>
 4    1  0.5280257E-005  0.3503369E+03  0.7818608E-02  0.1062477E+00
          2   -1    0    0  501    0  0.00000000000E+00  0.00000000000E+00  0.23801034591E+03  0.23801034592E+03  0.25500000000E-02 0.  1.
         -2   -1    0    0    0  501 -0.00000000000E+00 -0.00000000000E+00 -0.12891871760E+03  0.12891871763E+03  0.25500000000E-02 0. -1.
    5000001    1    1    2    0    0 -0.53463432150E+02 -0.17399475104E+02  0.36468350879E+02  0.17808992371E+03  0.16500000000E+03 0.  0.
   -5000001    1    1    2    0    0  0.53463432150E+02  0.17399475104E+02  0.72623277430E+02  0.18883913984E+03  0.16500000000E+03 0.  0.
<mgrwt>
<rscale>  0 0.35033692E+03</rscale>
<asrwt>0</asrwt>
<pdfrwt beam="1">  1        2 0.34001478E-01 0.35033692E+03</pdfrwt>
<pdfrwt beam="2">  1       -2 0.18416960E-01 0.35033692E+03</pdfrwt>
<totfact> 0.37121673E+03</totfact>
</mgrwt>
</event>
<event>
 4    1  0.5280257E-005  0.6962072E+03  0.7818608E-02  0.9723740E-01
         -2   -1    0    0    0  501 -0.00000000000E+00  0.00000000000E+00  0.52738866921E+02  0.52738866982E+02  0.25500000000E-02 0. -1.
          2   -1    0    0  501    0  0.00000000000E+00 -0.00000000000E+00 -0.22976625761E+04  0.22976625761E+04  0.25500000000E-02 0.  1.
    5000001    1    1    2    0    0 -0.22799264347E+03  0.19898384066E+03 -0.12870195540E+04  0.13323736513E+04  0.16500000000E+03 0.  0.
   -5000001    1    1    2    0    0  0.22799264347E+03 -0.19898384066E+03 -0.95790415516E+03  0.10180277918E+04  0.16500000000E+03 0.  0.
<mgrwt>
<rscale>  0 0.69620721E+03</rscale>
<asrwt>0</asrwt>
<pdfrwt beam="1">  1        2 0.32823745E+00 0.69620721E+03</pdfrwt>
<pdfrwt beam="2">  1       -2 0.75341253E-02 0.69620721E+03</pdfrwt>
<totfact> 0.62830844E+02</totfact>
</mgrwt>
</event>
<event>
 4    1  0.5280257E-005  0.9730203E+03  0.7818608E-02  0.9338641E-01
         -2   -1    0    0    0  501 -0.00000000000E+00  0.00000000000E+00  0.41169044559E+03  0.41169044560E+03  0.25500000000E-02 0. -1.
          2   -1    0    0  501    0  0.00000000000E+00 -0.00000000000E+00 -0.57492737764E+03  0.57492737765E+03  0.25500000000E-02 0.  1.
    5000001    1    1    2    0    0  0.24525174873E+03  0.30915794994E+03 -0.31667704439E+03  0.53219959481E+03  0.16500000000E+03 0.  0.
   -5000001    1    1    2    0    0 -0.24525174873E+03 -0.30915794994E+03  0.15344011235E+03  0.45441822844E+03  0.16500000000E+03 0.  0.
<mgrwt>
<rscale>  0 0.97302026E+03</rscale>
<asrwt>0</asrwt>
<pdfrwt beam="1">  1        2 0.82132482E-01 0.97302026E+03</pdfrwt>
<pdfrwt beam="2">  1       -2 0.58812921E-01 0.97302026E+03</pdfrwt>
<totfact> 0.15422548E+02</totfact>
</mgrwt>
</event>
<event>
 4    1  0.5280257E-005  0.5985568E+03  0.7818608E-02  0.9908405E-01
         -2   -1    0    0    0  501 -0.00000000000E+00  0.00000000000E+00  0.14999529998E+03  0.14999530000E+03  0.25500000000E-02 0. -1.
          2   -1    0    0  501    0  0.00000000000E+00 -0.00000000000E+00 -0.59713570173E+03  0.59713570173E+03  0.25500000000E-02 0.  1.
    5000001    1    1    2    0    0  0.23523880855E+03 -0.74738038984E+01 -0.32762566309E+03  0.43584025733E+03  0.16500000000E+03 0.  0.
   -5000001    1    1    2    0    0 -0.23523880855E+03  0.74738038984E+01 -0.11951473865E+03  0.31129074440E+03  0.16500000000E+03 0.  0.
<mgrwt>
<rscale>  0 0.59855676E+03</rscale>
<asrwt>0</asrwt>
<pdfrwt beam="1">  1        2 0.85305099E-01 0.59855676E+03</pdfrwt>
<pdfrwt beam="2">  1       -2 0.21427900E-01 0.59855676E+03</pdfrwt>
<totfact> 0.10330057E+03</totfact>
</mgrwt>
</event>
<event>
 4    1  0.5280257E-005  0.3492402E+03  0.7818608E-02  0.1062927E+00
          2   -1    0    0  501    0  0.00000000000E+00  0.00000000000E+00  0.29810189700E+03  0.29810189701E+03  0.25500000000E-02 0.  1.
         -2   -1    0    0    0  501 -0.00000000000E+00 -0.00000000000E+00 -0.10228775323E+03  0.10228775326E+03  0.25500000000E-02 0. -1.
    5000001    1    1    2    0    0 -0.48635533484E+02  0.29525207092E+02  0.91625529806E+02  0.19712278073E+03  0.16500000000E+03 0.  0.
   -5000001    1    1    2    0    0  0.48635533484E+02 -0.29525207092E+02  0.10418861396E+03  0.20326686953E+03  0.16500000000E+03 0.  0.
<mgrwt>
<rscale>  0 0.34924017E+03</rscale>
<asrwt>0</asrwt>
<pdfrwt beam="1">  1        2 0.42585987E-01 0.34924017E+03</pdfrwt>
<pdfrwt beam="2">  1       -2 0.14612536E-01 0.34924017E+03</pdfrwt>
<totfact> 0.42828371E+03</totfact>
</mgrwt>
</event>
<event>
 4    1  0.5280257E-005  0.3852921E+03  0.7818608E-02  0.1048995E+00
          2   -1    0    0  501    0  0.00000000000E+00  0.00000000000E+00  0.54895253421E+03  0.54895253421E+03  0.25500000000E-02 0.  1.
         -2   -1    0    0    0  501 -0.00000000000E+00 -0.00000000000E+00 -0.67606030531E+02  0.67606030580E+02  0.25500000000E-02 0. -1.
    5000001    1    1    2    0    0 -0.35600128762E+02 -0.73082535856E+02  0.14903855706E+03  0.23674019031E+03  0.16500000000E+03 0.  0.
   -5000001    1    1    2    0    0  0.35600128762E+02  0.73082535856E+02  0.33230794662E+03  0.37981837449E+03  0.16500000000E+03 0.  0.
<mgrwt>
<rscale>  0 0.38529211E+03</rscale>
<asrwt>0</asrwt>
<pdfrwt beam="1">  1        2 0.78421789E-01 0.38529211E+03</pdfrwt>
<pdfrwt beam="2">  1       -2 0.96580045E-02 0.38529211E+03</pdfrwt>
<totfact> 0.43002215E+03</totfact>
</mgrwt>
</event>
<event>
 4    1  0.5280257E-005  0.4362629E+03  0.7818608E-02  0.1031900E+00
          2   -1    0    0  501    0  0.00000000000E+00  0.00000000000E+00  0.60707489459E+03  0.60707489460E+03  0.25500000000E-02 0.  1.
         -2   -1    0    0    0  501 -0.00000000000E+00 -0.00000000000E+00 -0.78378023319E+02  0.78378023361E+02  0.25500000000E-02 0. -1.
    5000001    1    1    2    0    0 -0.83511049868E+02  0.11552725031E+03  0.27373481352E+03  0.34996626859E+03  0.16500000000E+03 0.  0.
   -5000001    1    1    2    0    0  0.83511049868E+02 -0.11552725031E+03  0.25496205775E+03  0.33548664938E+03  0.16500000000E+03 0.  0.
<mgrwt>
<rscale>  0 0.43626290E+03</rscale>
<asrwt>0</asrwt>
<pdfrwt beam="1">  1        2 0.86724977E-01 0.43626290E+03</pdfrwt>
<pdfrwt beam="2">  1       -2 0.11196862E-01 0.43626290E+03</pdfrwt>
<totfact> 0.30238765E+03</totfact>
</mgrwt>
</event>
<event>
 4    1  0.5280257E-005  0.6815630E+03  0.7818608E-02  0.9749292E-01
         -2   -1    0    0    0  501 -0.00000000000E+00  0.00000000000E+00  0.31333665157E+03  0.31333665158E+03  0.25500000000E-02 0. -1.
          2   -1    0    0  501    0  0.00000000000E+00 -0.00000000000E+00 -0.37063017236E+03  0.37063017236E+03  0.25500000000E-02 0.  1.
    5000001    1    1    2    0    0  0.26855305649E+03  0.45470503631E+02  0.93101811679E+02  0.33178495775E+03  0.16500000000E+03 0.  0.
   -5000001    1    1    2    0    0 -0.26855305649E+03 -0.45470503631E+02 -0.15039533246E+03  0.35218186620E+03  0.16500000000E+03 0.  0.
<mgrwt>
<rscale>  0 0.68156296E+03</rscale>
<asrwt>0</asrwt>
<pdfrwt beam="1">  1        2 0.52947167E-01 0.68156296E+03</pdfrwt>
<pdfrwt beam="2">  1       -2 0.44762379E-01 0.68156296E+03</pdfrwt>
<totfact> 0.44920137E+02</totfact>
</mgrwt>
</event>
<event>
 4    1  0.5280257E-005  0.4940923E+03  0.7818608E-02  0.1015333E+00
         -2   -1    0    0    0  501 -0.00000000000E+00  0.00000000000E+00  0.25572933616E+02  0.25572933743E+02  0.25500000000E-02 0. -1.
          2   -1    0    0  501    0  0.00000000000E+00 -0.00000000000E+00 -0.23865781602E+04  0.23865781602E+04  0.25500000000E-02 0.  1.
    5000001    1    1    2    0    0 -0.97311504899E+02 -0.15449831227E+03 -0.12860650219E+04  0.13093996708E+04  0.16500000000E+03 0.  0.
   -5000001    1    1    2    0    0  0.97311504899E+02  0.15449831227E+03 -0.10749402047E+04  0.11027514231E+04  0.16500000000E+03 0.  0.
<mgrwt>
<rscale>  0 0.49409232E+03</rscale>
<asrwt>0</asrwt>
<pdfrwt beam="1">  1        2 0.34093960E+00 0.49409232E+03</pdfrwt>
<pdfrwt beam="2">  1       -2 0.36532778E-02 0.49409232E+03</pdfrwt>
<totfact> 0.17697680E+03</totfact>
</mgrwt>
</event>
<event>
 4    1  0.5280257E-005  0.6209920E+03  0.7818608E-02  0.9862787E-01
          2   -1    0    0  501    0  0.00000000000E+00  0.00000000000E+00  0.48511035999E+03  0.48511035999E+03  0.25500000000E-02 0.  1.
         -2   -1    0    0    0  501 -0.00000000000E+00 -0.00000000000E+00 -0.19873368277E+03  0.19873368279E+03  0.25500000000E-02 0. -1.
    5000001    1    1    2    0    0  0.24930084924E+03 -0.58347955655E+02  0.76864898000E+02  0.31414743339E+03  0.16500000000E+03 0.  0.
   -5000001    1    1    2    0    0 -0.24930084924E+03  0.58347955655E+02  0.20951177922E+03  0.36969660939E+03  0.16500000000E+03 0.  0.
<mgrwt>
<rscale>  0 0.62099201E+03</rscale>
<asrwt>0</asrwt>
<pdfrwt beam="1">  1        2 0.69301479E-01 0.62099201E+03</pdfrwt>
<pdfrwt beam="2">  1       -2 0.28390526E-01 0.62099201E+03</pdfrwt>
<totfact> 0.79229030E+02</totfact>
</mgrwt>
</event>
<event>
 4    1  0.5280257E-005  0.4618485E+03  0.7818608E-02  0.1024246E+00
         -2   -1    0    0    0  501 -0.00000000000E+00  0.00000000000E+00  0.32091714231E+02  0.32091714333E+02  0.25500000000E-02 0. -1.
          2   -1    0    0  501    0  0.00000000000E+00 -0.00000000000E+00 -0.16616750135E+04  0.16616750135E+04  0.25500000000E-02 0.  1.
    5000001    1    1    2    0    0 -0.11671759406E+03  0.83354465476E+02 -0.10875123360E+04  0.11092695996E+04  0.16500000000E+03 0.  0.
   -5000001    1    1    2    0    0  0.11671759406E+03 -0.83354465476E+02 -0.54207096330E+03  0.58449712825E+03  0.16500000000E+03 0.  0.
<mgrwt>
<rscale>  0 0.46184846E+03</rscale>
<asrwt>0</asrwt>
<pdfrwt beam="1">  1        2 0.23738209E+00 0.46184846E+03</pdfrwt>
<pdfrwt beam="2">  1       -2 0.45845317E-02 0.46184846E+03</pdfrwt>
<totfact> 0.28871328E+03</totfact>
</mgrwt>
</event>
<event>
 4    1  0.5280257E-005  0.4550752E+03  0.7818608E-02  0.1026219E+00
         -2   -1    0    0    0  501 -0.00000000000E+00  0.00000000000E+00  0.27530761685E+03  0.27530761686E+03  0.25500000000E-02 0. -1.
          2   -1    0    0  501    0  0.00000000000E+00 -0.00000000000E+00 -0.18805641957E+03  0.18805641959E+03  0.25500000000E-02 0.  1.
    5000001    1    1    2    0    0  0.71223527085E+02 -0.13727099398E+03  0.18023067477E+02  0.22686107546E+03  0.16500000000E+03 0.  0.
   -5000001    1    1    2    0    0 -0.71223527085E+02  0.13727099398E+03  0.69228129797E+02  0.23650296098E+03  0.16500000000E+03 0.  0.
<mgrwt>
<rscale>  0 0.45507522E+03</rscale>
<asrwt>0</asrwt>
<pdfrwt beam="1">  1        2 0.26865203E-01 0.45507522E+03</pdfrwt>
<pdfrwt beam="2">  1       -2 0.39329659E-01 0.45507522E+03</pdfrwt>
<totfact> 0.12312259E+03</totfact>
</mgrwt>
</event>
<event>
 4    1  0.5280257E-005  0.4246643E+03  0.7818608E-02  0.1035559E+00
          2   -1    0    0  501    0  0.00000000000E+00  0.00000000000E+00  0.12835502137E+04  0.12835502138E+04  0.25500000000E-02 0.  1.
         -2   -1    0    0    0  501 -0.00000000000E+00 -0.00000000000E+00 -0.35125179810E+02  0.35125179902E+02  0.25500000000E-02 0. -1.
    5000001    1    1    2    0    0 -0.22041744557E+01  0.12612946504E+03  0.48721528576E+03  0.52963877786E+03  0.16500000000E+03 0.  0.
   -5000001    1    1    2    0    0  0.22041744557E+01 -0.12612946504E+03  0.76120974818E+03  0.78903661579E+03  0.16500000000E+03 0.  0.
<mgrwt>
<rscale>  0 0.42466425E+03</rscale>
<asrwt>0</asrwt>
<pdfrwt beam="1">  1        2 0.18336431E+00 0.42466425E+03</pdfrwt>
<pdfrwt beam="2">  1       -2 0.50178830E-02 0.42466425E+03</pdfrwt>
<totfact> 0.39496798E+03</totfact>
</mgrwt>
</event>
<event>
 4    1  0.5280257E-005  0.5119050E+03  0.7818608E-02  0.1010717E+00
          2   -1    0    0  501    0  0.00000000000E+00  0.00000000000E+00  0.76841194061E+03  0.76841194061E+03  0.25500000000E-02 0.  1.
         -2   -1    0    0    0  501 -0.00000000000E+00 -0.00000000000E+00 -0.85255944729E+02  0.85255944767E+02  0.25500000000E-02 0. -1.
    5000001    1    1    2    0    0 -0.14566788734E+03  0.10387256729E+03  0.47371111476E+03  0.53257474957E+03  0.16500000000E+03 0.  0.
   -5000001    1    1    2    0    0  0.14566788734E+03 -0.10387256729E+03  0.20944488112E+03  0.32109313581E+03  0.16500000000E+03 0.  0.
<mgrwt>
<rscale>  0 0.51190501E+03</rscale>
<asrwt>0</asrwt>
<pdfrwt beam="1">  1        2 0.10977313E+00 0.51190501E+03</pdfrwt>
<pdfrwt beam="2">  1       -2 0.12179421E-01 0.51190501E+03</pdfrwt>
<totfact> 0.19855387E+03</totfact>
</mgrwt>
</event>
<event>
 4    1  0.5280257E-005  0.3521262E+03  0.7818608E-02  0.1061746E+00
          2   -1    0    0  501    0  0.00000000000E+00  0.00000000000E+00  0.53191899475E+03  0.53191899476E+03  0.25500000000E-02 0.  1.
         -2   -1    0    0    0  501 -0.00000000000E+00 -0.00000000000E+00 -0.58276202037E+02  0.58276202093E+02  0.25500000000E-02 0. -1.
    5000001    1    1    2    0    0  0.54667371229E+02 -0.22523742603E+02  0.26473613704E+03  0.31749970506E+03  0.16500000000E+03 0.  0.
   -5000001    1    1    2    0    0 -0.54667371229E+02  0.22523742603E+02  0.20890665567E+03  0.27269549179E+03  0.16500000000E+03 0.  0.
<mgrwt>
<rscale>  0 0.35212622E+03</rscale>
<asrwt>0</asrwt>
<pdfrwt beam="1">  1        2 0.75988427E-01 0.35212622E+03</pdfrwt>
<pdfrwt beam="2">  1       -2 0.83251718E-02 0.35212622E+03</pdfrwt>
<totfact> 0.56301239E+03</totfact>
</mgrwt>
</event>
<event>
 4    1  0.5280257E-005  0.6764201E+03  0.7818608E-02  0.9758429E-01
          2   -1    0    0  501    0  0.00000000000E+00  0.00000000000E+00  0.70128688056E+03  0.70128688057E+03  0.25500000000E-02 0.  1.
         -2   -1    0    0    0  501 -0.00000000000E+00 -0.00000000000E+00 -0.16310876316E+03  0.16310876318E+03  0.25500000000E-02 0. -1.
    5000001    1    1    2    0    0 -0.46583496451E+01  0.28364812619E+03  0.16462082073E+03  0.36715524554E+03  0.16500000000E+03 0.  0.
   -5000001    1    1    2    0    0  0.46583496451E+01 -0.28364812619E+03  0.37355729668E+03  0.49724039821E+03  0.16500000000E+03 0.  0.
<mgrwt>
<rscale>  0 0.67642009E+03</rscale>
<asrwt>0</asrwt>
<pdfrwt beam="1">  1        2 0.10018384E+00 0.67642009E+03</pdfrwt>
<pdfrwt beam="2">  1       -2 0.23301252E-01 0.67642009E+03</pdfrwt>
<totfact> 0.73315992E+02</totfact>
</mgrwt>
</event>
<event>
 4    1  0.5280257E-005  0.2353047E+04  0.7818608E-02  0.8457294E-01
         -2   -1    0    0    0  501 -0.00000000000E+00  0.00000000000E+00  0.68816648267E+03  0.68816648267E+03  0.25500000000E-02 0. -1.
          2   -1    0    0  501    0  0.00000000000E+00 -0.00000000000E+00 -0.20114424758E+04  0.20114424758E+04  0.25500000000E-02 0.  1.
    5000001    1    1    2    0    0  0.11131084113E+04 -0.27171996372E+02 -0.10544605599E+04  0.15423555767E+04  0.16500000000E+03 0.  0.
   -5000001    1    1    2    0    0 -0.11131084113E+04  0.27171996372E+02 -0.26881543331E+03  0.11572533818E+04  0.16500000000E+03 0.  0.
<mgrwt>
<rscale>  0 0.23530468E+04</rscale>
<asrwt>0</asrwt>
<pdfrwt beam="1">  1        2 0.28734892E+00 0.23530468E+04</pdfrwt>
<pdfrwt beam="2">  1       -2 0.98309499E-01 0.23530468E+04</pdfrwt>
<totfact> 0.61771697E+00</totfact>
</mgrwt>
</event>
<event>
 4    1  0.5280257E-005  0.9979264E+03  0.7818608E-02  0.9310822E-01
         -2   -1    0    0    0  501 -0.00000000000E+00  0.00000000000E+00  0.41969771351E+03  0.41969771352E+03  0.25500000000E-02 0. -1.
          2   -1    0    0  501    0  0.00000000000E+00 -0.00000000000E+00 -0.59319903521E+03  0.59319903522E+03  0.25500000000E-02 0.  1.
    5000001    1    1    2    0    0  0.39267630008E+03  0.14136694885E+03 -0.30810473989E+03  0.54436460357E+03  0.16500000000E+03 0.  0.
   -5000001    1    1    2    0    0 -0.39267630008E+03 -0.14136694885E+03  0.13460341819E+03  0.46853214517E+03  0.16500000000E+03 0.  0.
<mgrwt>
<rscale>  0 0.99792641E+03</rscale>
<asrwt>0</asrwt>
<pdfrwt beam="1">  1        2 0.84742719E-01 0.99792641E+03</pdfrwt>
<pdfrwt beam="2">  1       -2 0.59956816E-01 0.99792641E+03</pdfrwt>
<totfact> 0.14252969E+02</totfact>
</mgrwt>
</event>
<event>
 4    1  0.5280257E-005  0.1004002E+04  0.7818608E-02  0.9304166E-01
          2   -1    0    0  501    0  0.00000000000E+00  0.00000000000E+00  0.46157420884E+03  0.46157420884E+03  0.25500000000E-02 0.  1.
         -2   -1    0    0    0  501 -0.00000000000E+00 -0.00000000000E+00 -0.54596858686E+03  0.54596858687E+03  0.25500000000E-02 0. -1.
    5000001    1    1    2    0    0 -0.30425923209E+03 -0.33570498004E+03 -0.18236261516E+03  0.51551201474E+03  0.16500000000E+03 0.  0.
   -5000001    1    1    2    0    0  0.30425923209E+03  0.33570498004E+03  0.97968237136E+02  0.49203078097E+03  0.16500000000E+03 0.  0.
<mgrwt>
<rscale>  0 0.10040020E+04</rscale>
<asrwt>0</asrwt>
<pdfrwt beam="1">  1        2 0.65939173E-01 0.10040020E+04</pdfrwt>
<pdfrwt beam="2">  1       -2 0.77995512E-01 0.10040020E+04</pdfrwt>
<totfact> 0.10756895E+02</totfact>
</mgrwt>
</event>
<event>
 4    1  0.5280257E-005  0.5511057E+03  0.7818608E-02  0.1001238E+00
          2   -1    0    0  501    0  0.00000000000E+00  0.00000000000E+00  0.11114486643E+04  0.11114486643E+04  0.25500000000E-02 0.  1.
         -2   -1    0    0    0  501 -0.00000000000E+00 -0.00000000000E+00 -0.68315674840E+02  0.68315674887E+02  0.25500000000E-02 0. -1.
    5000001    1    1    2    0    0 -0.36740905295E+01 -0.21722583751E+03  0.43855165469E+03  0.51648147813E+03  0.16500000000E+03 0.  0.
   -5000001    1    1    2    0    0  0.36740905295E+01  0.21722583751E+03  0.60458133479E+03  0.66328286108E+03  0.16500000000E+03 0.  0.
<mgrwt>
<rscale>  0 0.55110567E+03</rscale>
<asrwt>0</asrwt>
<pdfrwt beam="1">  1        2 0.15877837E+00 0.55110567E+03</pdfrwt>
<pdfrwt beam="2">  1       -2 0.97593825E-02 0.55110567E+03</pdfrwt>
<totfact> 0.17278769E+03</totfact>
</mgrwt>
</event>
<event>
 4    1  0.5280257E-005  0.6749648E+03  0.7818608E-02  0.9761030E-01
          2   -1    0    0  501    0  0.00000000000E+00  0.00000000000E+00  0.21496303849E+04  0.21496303849E+04  0.25500000000E-02 0.  1.
         -2   -1    0    0    0  501 -0.00000000000E+00 -0.00000000000E+00 -0.52983231645E+02  0.52983231706E+02  0.25500000000E-02 0. -1.
    5000001    1    1    2    0    0 -0.90703628533E+02  0.25693022522E+03  0.68451190739E+03  0.75499790742E+03  0.16500000000E+03 0.  0.
   -5000001    1    1    2    0    0  0.90703628533E+02 -0.25693022522E+03  0.14121352459E+04  0.14476157092E+04  0.16500000000E+03 0.  0.
<mgrwt>
<rscale>  0 0.67496478E+03</rscale>
<asrwt>0</asrwt>
<pdfrwt beam="1">  1        2 0.30709012E+00 0.67496478E+03</pdfrwt>
<pdfrwt beam="2">  1       -2 0.75690314E-02 0.67496478E+03</pdfrwt>
<totfact> 0.74231953E+02</totfact>
</mgrwt>
</event>
<event>
 4    1  0.5280257E-005  0.5722074E+03  0.7818608E-02  0.9964806E-01
         -2   -1    0    0    0  501 -0.00000000000E+00  0.00000000000E+00  0.45088485750E+02  0.45088485822E+02  0.25500000000E-02 0. -1.
          2   -1    0    0  501    0  0.00000000000E+00 -0.00000000000E+00 -0.18154375748E+04  0.18154375748E+04  0.25500000000E-02 0.  1.
    5000001    1    1    2    0    0 -0.15493347835E+03 -0.16016774247E+03 -0.65589862565E+03  0.71209977922E+03  0.16500000000E+03 0.  0.
   -5000001    1    1    2    0    0  0.15493347835E+03  0.16016774247E+03 -0.11144504634E+04  0.11484262814E+04  0.16500000000E+03 0.  0.
<mgrwt>
<rscale>  0 0.57220741E+03</rscale>
<asrwt>0</asrwt>
<pdfrwt beam="1">  1        2 0.25934818E+00 0.57220741E+03</pdfrwt>
<pdfrwt beam="2">  1       -2 0.64412134E-02 0.57220741E+03</pdfrwt>
<totfact> 0.14193164E+03</totfact>
</mgrwt>
</event>
<event>
 4    1  0.5280257E-005  0.3992150E+03  0.7818608E-02  0.1044052E+00
          2   -1    0    0  501    0  0.00000000000E+00  0.00000000000E+00  0.67364051108E+03  0.67364051108E+03  0.25500000000E-02 0.  1.
         -2   -1    0    0    0  501 -0.00000000000E+00 -0.00000000000E+00 -0.59146023810E+02  0.59146023864E+02  0.25500000000E-02 0. -1.
    5000001    1    1    2    0    0 -0.21641417870E+02 -0.56311112449E+02  0.13331450324E+03  0.22053808997E+03  0.16500000000E+03 0.  0.
   -5000001    1    1    2    0    0  0.21641417870E+02  0.56311112449E+02  0.48117998403E+03  0.51224844498E+03  0.16500000000E+03 0.  0.
<mgrwt>
<rscale>  0 0.39921502E+03</rscale>
<asrwt>0</asrwt>
<pdfrwt beam="1">  1        2 0.96234360E-01 0.39921502E+03</pdfrwt>
<pdfrwt beam="2">  1       -2 0.84494318E-02 0.39921502E+03</pdfrwt>
<totfact> 0.41957522E+03</totfact>
</mgrwt>
</event>
<event>
 4    1  0.5280257E-005  0.4157868E+03  0.7818608E-02  0.1038446E+00
          2   -1    0    0  501    0  0.00000000000E+00  0.00000000000E+00  0.21040916057E+03  0.21040916058E+03  0.25500000000E-02 0.  1.
         -2   -1    0    0    0  501 -0.00000000000E+00 -0.00000000000E+00 -0.20540776820E+03  0.20540776821E+03  0.25500000000E-02 0. -1.
    5000001    1    1    2    0    0  0.11923867320E+03  0.41240481319E+02  0.11221281165E+02  0.20801335447E+03  0.16500000000E+03 0.  0.
   -5000001    1    1    2    0    0 -0.11923867320E+03 -0.41240481319E+02 -0.62198887964E+01  0.20780357433E+03  0.16500000000E+03 0.  0.
<mgrwt>
<rscale>  0 0.41578685E+03</rscale>
<asrwt>0</asrwt>
<pdfrwt beam="1">  1        2 0.30058452E-01 0.41578685E+03</pdfrwt>
<pdfrwt beam="2">  1       -2 0.29343967E-01 0.41578685E+03</pdfrwt>
<totfact> 0.18785019E+03</totfact>
</mgrwt>
</event>
<event>
 4    1  0.5280257E-005  0.5304840E+03  0.7818608E-02  0.1006115E+00
          2   -1    0    0  501    0  0.00000000000E+00  0.00000000000E+00  0.93850811432E+03  0.93850811432E+03  0.25500000000E-02 0.  1.
         -2   -1    0    0    0  501 -0.00000000000E+00 -0.00000000000E+00 -0.74962942974E+02  0.74962943017E+02  0.25500000000E-02 0. -1.
    5000001    1    1    2    0    0  0.18528309313E+03  0.11767252816E+02  0.60955913865E+03  0.65822157086E+03  0.16500000000E+03 0.  0.
   -5000001    1    1    2    0    0 -0.18528309313E+03 -0.11767252816E+02  0.25398603269E+03  0.35524948648E+03  0.16500000000E+03 0.  0.
<mgrwt>
<rscale>  0 0.53048404E+03</rscale>
<asrwt>0</asrwt>
<pdfrwt beam="1">  1        2 0.13407259E+00 0.53048404E+03</pdfrwt>
<pdfrwt beam="2">  1       -2 0.10708992E-01 0.53048404E+03</pdfrwt>
<totfact> 0.18885663E+03</totfact>
</mgrwt>
</event>
<event>
 4    1  0.5280257E-005  0.5385189E+03  0.7818608E-02  0.1004187E+00
         -2   -1    0    0    0  501 -0.00000000000E+00  0.00000000000E+00  0.85614680006E+02  0.85614680044E+02  0.25500000000E-02 0. -1.
          2   -1    0    0  501    0  0.00000000000E+00 -0.00000000000E+00 -0.84682505937E+03  0.84682505938E+03  0.25500000000E-02 0.  1.
    5000001    1    1    2    0    0 -0.89533803767E+02  0.16719050555E+03 -0.54764401132E+03  0.60258437608E+03  0.16500000000E+03 0.  0.
   -5000001    1    1    2    0    0  0.89533803767E+02 -0.16719050555E+03 -0.21356636805E+03  0.32985536334E+03  0.16500000000E+03 0.  0.
<mgrwt>
<rscale>  0 0.53851892E+03</rscale>
<asrwt>0</asrwt>
<pdfrwt beam="1">  1        2 0.12097500E+00 0.53851892E+03</pdfrwt>
<pdfrwt beam="2">  1       -2 0.12230669E-01 0.53851892E+03</pdfrwt>
<totfact> 0.17418692E+03</totfact>
</mgrwt>
</event>
<event>
 4    1  0.5280257E-005  0.4058731E+03  0.7818608E-02  0.1041765E+00
          2   -1    0    0  501    0  0.00000000000E+00  0.00000000000E+00  0.34085881441E+03  0.34085881442E+03  0.25500000000E-02 0.  1.
         -2   -1    0    0    0  501 -0.00000000000E+00 -0.00000000000E+00 -0.12082199656E+03  0.12082199659E+03  0.25500000000E-02 0. -1.
    5000001    1    1    2    0    0  0.77583446988E+01 -0.10103100125E+03  0.17912366390E+03  0.26377593160E+03  0.16500000000E+03 0.  0.
   -5000001    1    1    2    0    0 -0.77583446988E+01  0.10103100125E+03  0.40913153951E+02  0.19790487940E+03  0.16500000000E+03 0.  0.
<mgrwt>
<rscale>  0 0.40587310E+03</rscale>
<asrwt>0</asrwt>
<pdfrwt beam="1">  1        2 0.48694116E-01 0.40587310E+03</pdfrwt>
<pdfrwt beam="2">  1       -2 0.17260285E-01 0.40587310E+03</pdfrwt>
<totfact> 0.28093019E+03</totfact>
</mgrwt>
</event>
<event>
 4    1  0.5280257E-005  0.3871415E+03  0.7818608E-02  0.1048325E+00
          2   -1    0    0  501    0  0.00000000000E+00  0.00000000000E+00  0.42591095201E+03  0.42591095202E+03  0.25500000000E-02 0.  1.
         -2   -1    0    0    0  501 -0.00000000000E+00 -0.00000000000E+00 -0.87975262211E+02  0.87975262248E+02  0.25500000000E-02 0. -1.
    5000001    1    1    2    0    0 -0.54259879031E+02  0.85221997374E+02  0.17711851302E+03  0.26230305176E+03  0.16500000000E+03 0.  0.
   -5000001    1    1    2    0    0  0.54259879031E+02 -0.85221997374E+02  0.16081717678E+03  0.25158316251E+03  0.16500000000E+03 0.  0.
<mgrwt>
<rscale>  0 0.38714146E+03</rscale>
<asrwt>0</asrwt>
<pdfrwt beam="1">  1        2 0.60844421E-01 0.38714146E+03</pdfrwt>
<pdfrwt beam="2">  1       -2 0.12567895E-01 0.38714146E+03</pdfrwt>
<totfact> 0.37296001E+03</totfact>
</mgrwt>
</event>
<event>
 4    1  0.5280257E-005  0.1231892E+04  0.7818608E-02  0.9085390E-01
         -2   -1    0    0    0  501 -0.00000000000E+00  0.00000000000E+00  0.12666359601E+04  0.12666359601E+04  0.25500000000E-02 0. -1.
          2   -1    0    0  501    0  0.00000000000E+00 -0.00000000000E+00 -0.29952534331E+03  0.29952534332E+03  0.25500000000E-02 0.  1.
    5000001    1    1    2    0    0 -0.10953073280E+03  0.53070687229E+03  0.17601091550E+03  0.59317080854E+03  0.16500000000E+03 0.  0.
   -5000001    1    1    2    0    0  0.10953073280E+03 -0.53070687229E+03  0.79109970126E+03  0.97299049485E+03  0.16500000000E+03 0.  0.
<mgrwt>
<rscale>  0 0.12318922E+04</rscale>
<asrwt>0</asrwt>
<pdfrwt beam="1">  1        2 0.42789334E-01 0.12318922E+04</pdfrwt>
<pdfrwt beam="2">  1       -2 0.18094800E+00 0.12318922E+04</pdfrwt>
<totfact> 0.21016891E+01</totfact>
</mgrwt>
</event>
<event>
 4    1  0.5280257E-005  0.4925210E+03  0.7818608E-02  0.1015750E+00
         -2   -1    0    0    0  501 -0.00000000000E+00  0.00000000000E+00  0.18363274859E+02  0.18363275036E+02  0.25500000000E-02 0. -1.
          2   -1    0    0  501    0  0.00000000000E+00 -0.00000000000E+00 -0.33024744378E+04  0.33024744378E+04  0.25500000000E-02 0.  1.
    5000001    1    1    2    0    0  0.16936121959E+03  0.58546105532E+02 -0.18859429433E+04  0.19016089646E+04  0.16500000000E+03 0.  0.
   -5000001    1    1    2    0    0 -0.16936121959E+03 -0.58546105532E+02 -0.13981682197E+04  0.14192287482E+04  0.16500000000E+03 0.  0.
<mgrwt>
<rscale>  0 0.49252105E+03</rscale>
<asrwt>0</asrwt>
<pdfrwt beam="1">  1        2 0.47178168E+00 0.49252105E+03</pdfrwt>
<pdfrwt beam="2">  1       -2 0.26233271E-02 0.49252105E+03</pdfrwt>
<totfact> 0.95249135E+02</totfact>
</mgrwt>
</event>
<event>
 4    1  0.5280257E-005  0.8030974E+03  0.7818608E-02  0.9555545E-01
          2   -1    0    0  501    0  0.00000000000E+00  0.00000000000E+00  0.17107769361E+04  0.17107769361E+04  0.25500000000E-02 0.  1.
         -2   -1    0    0    0  501 -0.00000000000E+00 -0.00000000000E+00 -0.94250375443E+02  0.94250375478E+02  0.25500000000E-02 0. -1.
    5000001    1    1    2    0    0 -0.13209437448E+02 -0.33258457172E+03  0.46570507727E+03  0.59572913776E+03  0.16500000000E+03 0.  0.
   -5000001    1    1    2    0    0  0.13209437448E+02  0.33258457172E+03  0.11508214834E+04  0.12092981739E+04  0.16500000000E+03 0.  0.
<mgrwt>
<rscale>  0 0.80309743E+03</rscale>
<asrwt>0</asrwt>
<pdfrwt beam="1">  1        2 0.24439669E+00 0.80309743E+03</pdfrwt>
<pdfrwt beam="2">  1       -2 0.13464340E-01 0.80309743E+03</pdfrwt>
<totfact> 0.48086694E+02</totfact>
</mgrwt>
</event>
<event>
 4    1  0.5280257E-005  0.5662585E+03  0.7818608E-02  0.9977992E-01
          2   -1    0    0  501    0  0.00000000000E+00  0.00000000000E+00  0.10875138916E+04  0.10875138916E+04  0.25500000000E-02 0.  1.
         -2   -1    0    0    0  501 -0.00000000000E+00 -0.00000000000E+00 -0.73711404181E+02  0.73711404225E+02  0.25500000000E-02 0. -1.
    5000001    1    1    2    0    0  0.19078417283E+03  0.12707084903E+03  0.54748096784E+03  0.61604059235E+03  0.16500000000E+03 0.  0.
   -5000001    1    1    2    0    0 -0.19078417283E+03 -0.12707084903E+03  0.46632151954E+03  0.54518470344E+03  0.16500000000E+03 0.  0.
<mgrwt>
<rscale>  0 0.56625851E+03</rscale>
<asrwt>0</asrwt>
<pdfrwt beam="1">  1        2 0.15535911E+00 0.56625851E+03</pdfrwt>
<pdfrwt beam="2">  1       -2 0.10530202E-01 0.56625851E+03</pdfrwt>
<totfact> 0.15769055E+03</totfact>
</mgrwt>
</event>
<event>
 4    1  0.5280257E-005  0.7130339E+03  0.7818608E-02  0.9695199E-01
          2   -1    0    0  501    0  0.00000000000E+00  0.00000000000E+00  0.25926191397E+04  0.25926191397E+04  0.25500000000E-02 0.  1.
         -2   -1    0    0    0  501 -0.00000000000E+00 -0.00000000000E+00 -0.49025455176E+02  0.49025455243E+02  0.25500000000E-02 0. -1.
    5000001    1    1    2    0    0  0.29969680353E+03  0.54932662169E+02  0.96086844608E+03  0.10214347469E+04  0.16500000000E+03 0.  0.
   -5000001    1    1    2    0    0 -0.29969680353E+03 -0.54932662169E+02  0.15827252384E+04  0.16202098481E+04  0.16500000000E+03 0.  0.
<mgrwt>
<rscale>  0 0.71303389E+03</rscale>
<asrwt>0</asrwt>
<pdfrwt beam="1">  1        2 0.37037409E+00 0.71303389E+03</pdfrwt>
<pdfrwt beam="2">  1       -2 0.70036378E-02 0.71303389E+03</pdfrwt>
<totfact> 0.49710758E+02</totfact>
</mgrwt>
</event>
<event>
 4    1  0.5280257E-005  0.4035789E+03  0.7818608E-02  0.1042547E+00
          2   -1    0    0  501    0  0.00000000000E+00  0.00000000000E+00  0.22479641209E+04  0.22479641209E+04  0.25500000000E-02 0.  1.
         -2   -1    0    0    0  501 -0.00000000000E+00 -0.00000000000E+00 -0.18113719565E+02  0.18113719744E+02  0.25500000000E-02 0. -1.
    5000001    1    1    2    0    0 -0.13532029783E+02  0.72648668429E+02  0.61167208254E+03  0.63783123271E+03  0.16500000000E+03 0.  0.
   -5000001    1    1    2    0    0  0.13532029783E+02 -0.72648668429E+02  0.16181783188E+04  0.16282466080E+04  0.16500000000E+03 0.  0.
<mgrwt>
<rscale>  0 0.40357895E+03</rscale>
<asrwt>0</asrwt>
<pdfrwt beam="1">  1        2 0.32113787E+00 0.40357895E+03</pdfrwt>
<pdfrwt beam="2">  1       -2 0.25876731E-02 0.40357895E+03</pdfrwt>
<totfact> 0.35121530E+03</totfact>
</mgrwt>
</event>
<event>
 4    1  0.5280257E-005  0.9642379E+03  0.7818608E-02  0.9348662E-01
         -2   -1    0    0    0  501 -0.00000000000E+00  0.00000000000E+00  0.95202801820E+02  0.95202801854E+02  0.25500000000E-02 0. -1.
          2   -1    0    0  501    0  0.00000000000E+00 -0.00000000000E+00 -0.24415110059E+04  0.24415110059E+04  0.25500000000E-02 0.  1.
    5000001    1    1    2    0    0  0.42182702002E+03 -0.75340182303E+00 -0.16076346462E+04  0.16702253614E+04  0.16500000000E+03 0.  0.
   -5000001    1    1    2    0    0 -0.42182702002E+03  0.75340182303E+00 -0.73867355786E+03  0.86648844627E+03  0.16500000000E+03 0.  0.
<mgrwt>
<rscale>  0 0.96423791E+03</rscale>
<asrwt>0</asrwt>
<pdfrwt beam="1">  1        2 0.34878725E+00 0.96423791E+03</pdfrwt>
<pdfrwt beam="2">  1       -2 0.13600402E-01 0.96423791E+03</pdfrwt>
<totfact> 0.19797368E+02</totfact>
</mgrwt>
</event>
<event>
 4    1  0.5280257E-005  0.4373602E+03  0.7818608E-02  0.1031560E+00
          2   -1    0    0  501    0  0.00000000000E+00  0.00000000000E+00  0.47790055015E+03  0.47790055015E+03  0.25500000000E-02 0.  1.
         -2   -1    0    0    0  501 -0.00000000000E+00 -0.00000000000E+00 -0.10006470745E+03  0.10006470749E+03  0.25500000000E-02 0. -1.
    5000001    1    1    2    0    0  0.86493524275E+02  0.87769409077E+02  0.91706673728E+02  0.22543228011E+03  0.16500000000E+03 0.  0.
   -5000001    1    1    2    0    0 -0.86493524275E+02 -0.87769409077E+02  0.28612916896E+03  0.35253297753E+03  0.16500000000E+03 0.  0.
<mgrwt>
<rscale>  0 0.43736017E+03</rscale>
<asrwt>0</asrwt>
<pdfrwt beam="1">  1        2 0.68271509E-01 0.43736017E+03</pdfrwt>
<pdfrwt beam="2">  1       -2 0.14294958E-01 0.43736017E+03</pdfrwt>
<totfact> 0.26594785E+03</totfact>
</mgrwt>
</event>
<event>
 4    1  0.5280257E-005  0.3618767E+03  0.7818608E-02  0.1057843E+00
          2   -1    0    0  501    0  0.00000000000E+00  0.00000000000E+00  0.22531053722E+03  0.22531053723E+03  0.25500000000E-02 0.  1.
         -2   -1    0    0    0  501 -0.00000000000E+00 -0.00000000000E+00 -0.14530473678E+03  0.14530473680E+03  0.25500000000E-02 0. -1.
    5000001    1    1    2    0    0 -0.42504971957E+02 -0.49315259583E+02  0.34332065366E+01  0.17741323055E+03  0.16500000000E+03 0.  0.
   -5000001    1    1    2    0    0  0.42504971957E+02  0.49315259583E+02  0.76572593898E+02  0.19320204348E+03  0.16500000000E+03 0.  0.
<mgrwt>
<rscale>  0 0.36187671E+03</rscale>
<asrwt>0</asrwt>
<pdfrwt beam="1">  1        2 0.32187219E-01 0.36187671E+03</pdfrwt>
<pdfrwt beam="2">  1       -2 0.20757820E-01 0.36187671E+03</pdfrwt>
<totfact> 0.32131852E+03</totfact>
</mgrwt>
</event>
<event>
 4    1  0.5280257E-005  0.4759251E+03  0.7818608E-02  0.1020261E+00
         -2   -1    0    0    0  501 -0.00000000000E+00  0.00000000000E+00  0.21504698651E+03  0.21504698652E+03  0.25500000000E-02 0. -1.
          2   -1    0    0  501    0  0.00000000000E+00 -0.00000000000E+00 -0.26332001782E+03  0.26332001783E+03  0.25500000000E-02 0.  1.
    5000001    1    1    2    0    0 -0.13172949658E+03  0.11053218356E+02 -0.13390463900E+03  0.25026043685E+03  0.16500000000E+03 0.  0.
   -5000001    1    1    2    0    0  0.13172949658E+03 -0.11053218356E+02  0.85631607690E+02  0.22810656751E+03  0.16500000000E+03 0.  0.
<mgrwt>
<rscale>  0 0.47592510E+03</rscale>
<asrwt>0</asrwt>
<pdfrwt beam="1">  1        2 0.37617146E-01 0.47592510E+03</pdfrwt>
<pdfrwt beam="2">  1       -2 0.30720998E-01 0.47592510E+03</pdfrwt>
<totfact> 0.13489237E+03</totfact>
</mgrwt>
</event>
<event>
 4    1  0.5280257E-005  0.4411076E+03  0.7818608E-02  0.1030408E+00
          2   -1    0    0  501    0  0.00000000000E+00  0.00000000000E+00  0.91099755319E+03  0.91099755320E+03  0.25500000000E-02 0.  1.
         -2   -1    0    0    0  501 -0.00000000000E+00 -0.00000000000E+00 -0.53396399448E+02  0.53396399509E+02  0.25500000000E-02 0. -1.
    5000001    1    1    2    0    0  0.10688060726E+03  0.99144967343E+02  0.40064899288E+03  0.45716277654E+03  0.16500000000E+03 0.  0.
   -5000001    1    1    2    0    0 -0.10688060726E+03 -0.99144967343E+02  0.45695216086E+03  0.50723117617E+03  0.16500000000E+03 0.  0.
<mgrwt>
<rscale>  0 0.44110765E+03</rscale>
<asrwt>0</asrwt>
<pdfrwt beam="1">  1        2 0.13014251E+00 0.44110765E+03</pdfrwt>
<pdfrwt beam="2">  1       -2 0.76280571E-02 0.44110765E+03</pdfrwt>
<totfact> 0.33814923E+03</totfact>
</mgrwt>
</event>
<event>
 4    1  0.5280257E-005  0.4890402E+03  0.7818608E-02  0.1016680E+00
         -2   -1    0    0    0  501 -0.00000000000E+00  0.00000000000E+00  0.27796511445E+02  0.27796511562E+02  0.25500000000E-02 0. -1.
          2   -1    0    0  501    0  0.00000000000E+00 -0.00000000000E+00 -0.21509923312E+04  0.21509923312E+04  0.25500000000E-02 0.  1.
    5000001    1    1    2    0    0 -0.26413072550E+02  0.17847600384E+03 -0.10450782203E+04  0.10732962410E+04  0.16500000000E+03 0.  0.
   -5000001    1    1    2    0    0  0.26413072550E+02 -0.17847600384E+03 -0.10781175994E+04  0.11054926017E+04  0.16500000000E+03 0.  0.
<mgrwt>
<rscale>  0 0.48904022E+03</rscale>
<asrwt>0</asrwt>
<pdfrwt beam="1">  1        2 0.30728451E+00 0.48904022E+03</pdfrwt>
<pdfrwt beam="2">  1       -2 0.39709316E-02 0.48904022E+03</pdfrwt>
<totfact> 0.20466851E+03</totfact>
</mgrwt>
</event>
<event>
 4    1  0.5280257E-005  0.8668942E+03  0.7818608E-02  0.9467939E-01
          2   -1    0    0  501    0  0.00000000000E+00  0.00000000000E+00  0.27482024572E+04  0.27482024572E+04  0.25500000000E-02 0. -1.
         -2   -1    0    0    0  501 -0.00000000000E+00 -0.00000000000E+00 -0.68363366434E+02  0.68363366482E+02  0.25500000000E-02 0.  1.
    5000001    1    1    2    0    0  0.10234017566E+02 -0.38427517557E+03  0.97119783505E+03  0.10574603446E+04  0.16500000000E+03 0.  0.
   -5000001    1    1    2    0    0 -0.10234017566E+02  0.38427517557E+03  0.17086412558E+04  0.17591054791E+04  0.16500000000E+03 0.  0.
<mgrwt>
<rscale>  0 0.86689416E+03</rscale>
<asrwt>0</asrwt>
<pdfrwt beam="1">  1        2 0.39260025E+00 0.86689416E+03</pdfrwt>
<pdfrwt beam="2">  1       -2 0.97661977E-02 0.86689416E+03</pdfrwt>
<totfact> 0.23822537E+02</totfact>
</mgrwt>
</event>
<event>
 4    1  0.5280257E-005  0.3814399E+03  0.7818608E-02  0.1050403E+00
         -2   -1    0    0    0  501 -0.00000000000E+00  0.00000000000E+00  0.30636648807E+02  0.30636648913E+02  0.25500000000E-02 0. -1.
          2   -1    0    0  501    0  0.00000000000E+00 -0.00000000000E+00 -0.11872742678E+04  0.11872742678E+04  0.25500000000E-02 0.  1.
    5000001    1    1    2    0    0 -0.16485371760E+02  0.34410802729E+02 -0.85837413928E+03  0.87492115863E+03  0.16500000000E+03 0.  0.
   -5000001    1    1    2    0    0  0.16485371760E+02 -0.34410802729E+02 -0.29826347974E+03  0.34298975812E+03  0.16500000000E+03 0.  0.
<mgrwt>
<rscale>  0 0.38143993E+03</rscale>
<asrwt>0</asrwt>
<pdfrwt beam="1">  1        2 0.16961058E+00 0.38143993E+03</pdfrwt>
<pdfrwt beam="2">  1       -2 0.43766649E-02 0.38143993E+03</pdfrwt>
<totfact> 0.54906392E+03</totfact>
</mgrwt>
</event>
<event>
 4    1  0.5280257E-005  0.3864548E+03  0.7818608E-02  0.1048573E+00
         -2   -1    0    0    0  501 -0.00000000000E+00  0.00000000000E+00  0.20697678980E+02  0.20697679137E+02  0.25500000000E-02 0. -1.
          2   -1    0    0  501    0  0.00000000000E+00 -0.00000000000E+00 -0.18039141438E+04  0.18039141438E+04  0.25500000000E-02 0.  1.
    5000001    1    1    2    0    0  0.52703526988E+02 -0.73027026236E+02 -0.11028209108E+04  0.11187267627E+04  0.16500000000E+03 0.  0.
   -5000001    1    1    2    0    0 -0.52703526988E+02  0.73027026236E+02 -0.68039555404E+03  0.70588506024E+03  0.16500000000E+03 0.  0.
<mgrwt>
<rscale>  0 0.38645484E+03</rscale>
<asrwt>0</asrwt>
<pdfrwt beam="1">  1        2 0.25770192E+00 0.38645484E+03</pdfrwt>
<pdfrwt beam="2">  1       -2 0.29568125E-02 0.38645484E+03</pdfrwt>
<totfact> 0.47729418E+03</totfact>
</mgrwt>
</event>
<event>
 4    1  0.5280257E-005  0.5981822E+03  0.7818608E-02  0.9909185E-01
         -2   -1    0    0    0  501 -0.00000000000E+00  0.00000000000E+00  0.62854476029E+02  0.62854476081E+02  0.25500000000E-02 0. -1.
          2   -1    0    0  501    0  0.00000000000E+00 -0.00000000000E+00 -0.14232160641E+04  0.14232160641E+04  0.25500000000E-02 0.  1.
    5000001    1    1    2    0    0 -0.11140468176E+03 -0.38186306705E+02 -0.12265106085E+04  0.12431502202E+04  0.16500000000E+03 0.  0.
   -5000001    1    1    2    0    0  0.11140468176E+03  0.38186306705E+02 -0.13385097954E+03  0.24292031999E+03  0.16500000000E+03 0.  0.
<mgrwt>
<rscale>  0 0.59818225E+03</rscale>
<asrwt>0</asrwt>
<pdfrwt beam="1">  1        2 0.20331656E+00 0.59818225E+03</pdfrwt>
<pdfrwt beam="2">  1       -2 0.89792117E-02 0.59818225E+03</pdfrwt>
<totfact> 0.13303297E+03</totfact>
</mgrwt>
</event>
<event>
 4    1  0.5280257E-005  0.3747582E+03  0.7818608E-02  0.1052888E+00
         -2   -1    0    0    0  501 -0.00000000000E+00  0.00000000000E+00  0.11237960950E+02  0.11237961240E+02  0.25500000000E-02 0. -1.
          2   -1    0    0  501    0  0.00000000000E+00 -0.00000000000E+00 -0.31243152874E+04  0.31243152874E+04  0.25500000000E-02 0.  1.
    5000001    1    1    2    0    0  0.87262173421E+02  0.15435618122E+02 -0.16045942465E+04  0.16154877409E+04  0.16500000000E+03 0.  0.
   -5000001    1    1    2    0    0 -0.87262173421E+02 -0.15435618122E+02 -0.15084830800E+04  0.15200655077E+04  0.16500000000E+03 0.  0.
<mgrwt>
<rscale>  0 0.37475823E+03</rscale>
<asrwt>0</asrwt>
<pdfrwt beam="1">  1        2 0.44633020E+00 0.37475823E+03</pdfrwt>
<pdfrwt beam="2">  1       -2 0.16054250E-02 0.37475823E+03</pdfrwt>
<totfact> 0.25198017E+03</totfact>
</mgrwt>
</event>
<event>
 4    1  0.5280257E-005  0.6820029E+03  0.7818608E-02  0.9748514E-01
         -2   -1    0    0    0  501 -0.00000000000E+00  0.00000000000E+00  0.80155718554E+02  0.80155718595E+02  0.25500000000E-02 0. -1.
          2   -1    0    0  501    0  0.00000000000E+00 -0.00000000000E+00 -0.14507010613E+04  0.14507010613E+04  0.25500000000E-02 0.  1.
    5000001    1    1    2    0    0  0.23489310515E+03 -0.17559647749E+03 -0.56134668054E+03  0.65447993820E+03  0.16500000000E+03 0.  0.
   -5000001    1    1    2    0    0 -0.23489310515E+03  0.17559647749E+03 -0.80919866223E+03  0.87637684172E+03  0.16500000000E+03 0.  0.
<mgrwt>
<rscale>  0 0.68200289E+03</rscale>
<asrwt>0</asrwt>
<pdfrwt beam="1">  1        2 0.20724299E+00 0.68200289E+03</pdfrwt>
<pdfrwt beam="2">  1       -2 0.11450818E-01 0.68200289E+03</pdfrwt>
<totfact> 0.86386206E+02</totfact>
</mgrwt>
</event>
<event>
 4    1  0.5280257E-005  0.3755291E+03  0.7818608E-02  0.1052599E+00
         -2   -1    0    0    0  501 -0.00000000000E+00  0.00000000000E+00  0.12091215774E+02  0.12091216043E+02  0.25500000000E-02 0. -1.
          2   -1    0    0  501    0  0.00000000000E+00 -0.00000000000E+00 -0.29157959824E+04  0.29157959824E+04  0.25500000000E-02 0.  1.
    5000001    1    1    2    0    0  0.37016618293E+02  0.72189833810E+02 -0.11550738462E+04  0.11696162586E+04  0.16500000000E+03 0.  0.
   -5000001    1    1    2    0    0 -0.37016618293E+02 -0.72189833810E+02 -0.17486309204E+04  0.17582709399E+04  0.16500000000E+03 0.  0.
<mgrwt>
<rscale>  0 0.37552906E+03</rscale>
<asrwt>0</asrwt>
<pdfrwt beam="1">  1        2 0.41654183E+00 0.37552906E+03</pdfrwt>
<pdfrwt beam="2">  1       -2 0.17273184E-02 0.37552906E+03</pdfrwt>
<totfact> 0.29271072E+03</totfact>
</mgrwt>
</event>
<event>
 4    1  0.5280257E-005  0.5154146E+03  0.7818608E-02  0.1009832E+00
          2   -1    0    0  501    0  0.00000000000E+00  0.00000000000E+00  0.84236110986E+03  0.84236110987E+03  0.25500000000E-02 0. -1.
         -2   -1    0    0    0  501 -0.00000000000E+00 -0.00000000000E+00 -0.78841547169E+02  0.78841547210E+02  0.25500000000E-02 0.  1.
    5000001    1    1    2    0    0 -0.11263804196E+03 -0.16042552258E+03  0.43117401902E+03  0.50155728633E+03  0.16500000000E+03 0.  0.
   -5000001    1    1    2    0    0  0.11263804196E+03  0.16042552258E+03  0.33234554367E+03  0.41964537075E+03  0.16500000000E+03 0.  0.
<mgrwt>
<rscale>  0 0.51541460E+03</rscale>
<asrwt>0</asrwt>
<pdfrwt beam="1">  1        2 0.12033730E+00 0.51541460E+03</pdfrwt>
<pdfrwt beam="2">  1       -2 0.11263078E-01 0.51541460E+03</pdfrwt>
<totfact> 0.20075764E+03</totfact>
</mgrwt>
</event>
<event>
 4    1  0.5280257E-005  0.4088977E+03  0.7818608E-02  0.1040742E+00
          2   -1    0    0  501    0  0.00000000000E+00  0.00000000000E+00  0.37952685468E+03  0.37952685469E+03  0.25500000000E-02 0.  1.
         -2   -1    0    0    0  501 -0.00000000000E+00 -0.00000000000E+00 -0.11013538494E+03  0.11013538497E+03  0.25500000000E-02 0. -1.
    5000001    1    1    2    0    0 -0.11021177511E+03 -0.12402155195E+02  0.77591751289E+02  0.21341492144E+03  0.16500000000E+03 0.  0.
   -5000001    1    1    2    0    0  0.11021177511E+03  0.12402155195E+02  0.19179971845E+03  0.27624731822E+03  0.16500000000E+03 0.  0.
<mgrwt>
<rscale>  0 0.40889772E+03</rscale>
<asrwt>0</asrwt>
<pdfrwt beam="1">  1        2 0.54218120E-01 0.40889772E+03</pdfrwt>
<pdfrwt beam="2">  1       -2 0.15733627E-01 0.40889772E+03</pdfrwt>
<totfact> 0.29204539E+03</totfact>
</mgrwt>
</event>
<event>
 4    1  0.5280257E-005  0.5245435E+03  0.7818608E-02  0.1007564E+00
         -2   -1    0    0    0  501 -0.00000000000E+00  0.00000000000E+00  0.37012945803E+02  0.37012945891E+02  0.25500000000E-02 0. -1.
          2   -1    0    0  501    0  0.00000000000E+00 -0.00000000000E+00 -0.18584432235E+04  0.18584432235E+04  0.25500000000E-02 0.  1.
    5000001    1    1    2    0    0  0.19966343387E+03  0.35564513373E+02 -0.83568428251E+03  0.87562751297E+03  0.16500000000E+03 0.  0.
   -5000001    1    1    2    0    0 -0.19966343387E+03 -0.35564513373E+02 -0.98574599519E+03  0.10198286564E+04  0.16500000000E+03 0.  0.
<mgrwt>
<rscale>  0 0.52454345E+03</rscale>
<asrwt>0</asrwt>
<pdfrwt beam="1">  1        2 0.26549183E+00 0.52454345E+03</pdfrwt>
<pdfrwt beam="2">  1       -2 0.52875649E-02 0.52454345E+03</pdfrwt>
<totfact> 0.18411688E+03</totfact>
</mgrwt>
</event>
<event>
 4    1  0.5280257E-005  0.3828722E+03  0.7818608E-02  0.1049877E+00
         -2   -1    0    0    0  501 -0.00000000000E+00  0.00000000000E+00  0.17391090922E+03  0.17391090924E+03  0.25500000000E-02 0. -1.
          2   -1    0    0  501    0  0.00000000000E+00 -0.00000000000E+00 -0.21072736131E+03  0.21072736132E+03  0.25500000000E-02 0.  1.
    5000001    1    1    2    0    0  0.31710172508E+02 -0.88965689891E+02 -0.40924953860E+02  0.19447437072E+03  0.16500000000E+03 0.  0.
   -5000001    1    1    2    0    0 -0.31710172508E+02  0.88965689891E+02  0.41085017764E+01  0.19016389985E+03  0.16500000000E+03 0.  0.
<mgrwt>
<rscale>  0 0.38287223E+03</rscale>
<asrwt>0</asrwt>
<pdfrwt beam="1">  1        2 0.30103909E-01 0.38287223E+03</pdfrwt>
<pdfrwt beam="2">  1       -2 0.24844416E-01 0.38287223E+03</pdfrwt>
<totfact> 0.25277236E+03</totfact>
</mgrwt>
</event>
<event>
 4    1  0.5280257E-005  0.7846542E+03  0.7818608E-02  0.9582499E-01
          2   -1    0    0  501    0  0.00000000000E+00  0.00000000000E+00  0.19444041225E+04  0.19444041225E+04  0.25500000000E-02 0. -1.
         -2   -1    0    0    0  501 -0.00000000000E+00 -0.00000000000E+00 -0.79160779078E+02  0.79160779119E+02  0.25500000000E-02 0.  1.
    5000001    1    1    2    0    0 -0.60258528761E+01  0.29287915706E+03  0.14540561930E+04  0.14924204917E+04  0.16500000000E+03 0.  0.
   -5000001    1    1    2    0    0  0.60258528761E+01 -0.29287915706E+03  0.41118715036E+03  0.53114440989E+03  0.16500000000E+03 0.  0.
<mgrwt>
<rscale>  0 0.78465418E+03</rscale>
<asrwt>0</asrwt>
<pdfrwt beam="1">  1        2 0.27777201E+00 0.78465418E+03</pdfrwt>
<pdfrwt beam="2">  1       -2 0.11308683E-01 0.78465418E+03</pdfrwt>
<totfact> 0.48891540E+02</totfact>
</mgrwt>
</event>
<event>
 4    1  0.5280257E-005  0.5794212E+03  0.7818608E-02  0.9949045E-01
         -2   -1    0    0    0  501 -0.00000000000E+00  0.00000000000E+00  0.13999399096E+03  0.13999399098E+03  0.25500000000E-02 0. -1.
          2   -1    0    0  501    0  0.00000000000E+00 -0.00000000000E+00 -0.59954170015E+03  0.59954170015E+03  0.25500000000E-02 0.  1.
    5000001    1    1    2    0    0 -0.33319018257E+02 -0.22981480295E+03 -0.16245113807E+03  0.32793348852E+03  0.16500000000E+03 0.  0.
   -5000001    1    1    2    0    0  0.33319018257E+02  0.22981480295E+03 -0.29709657112E+03  0.41160220262E+03  0.16500000000E+03 0.  0.
<mgrwt>
<rscale>  0 0.57942121E+03</rscale>
<asrwt>0</asrwt>
<pdfrwt beam="1">  1        2 0.85648813E-01 0.57942121E+03</pdfrwt>
<pdfrwt beam="2">  1       -2 0.19999142E-01 0.57942121E+03</pdfrwt>
<totfact> 0.11602409E+03</totfact>
</mgrwt>
</event>
<event>
 4    1  0.5280257E-005  0.4788058E+03  0.7818608E-02  0.1019464E+00
         -2   -1    0    0    0  501 -0.00000000000E+00  0.00000000000E+00  0.52894672617E+02  0.52894672679E+02  0.25500000000E-02 0. -1.
          2   -1    0    0  501    0  0.00000000000E+00 -0.00000000000E+00 -0.10835449476E+04  0.10835449476E+04  0.25500000000E-02 0.  1.
    5000001    1    1    2    0    0  0.10365380448E+03  0.13367035153E+03 -0.42411151039E+03  0.48549711359E+03  0.16500000000E+03 0.  0.
   -5000001    1    1    2    0    0 -0.10365380448E+03 -0.13367035153E+03 -0.60653876457E+03  0.65094250667E+03  0.16500000000E+03 0.  0.
<mgrwt>
<rscale>  0 0.47880583E+03</rscale>
<asrwt>0</asrwt>
<pdfrwt beam="1">  1        2 0.15479212E+00 0.47880583E+03</pdfrwt>
<pdfrwt beam="2">  1       -2 0.75563825E-02 0.47880583E+03</pdfrwt>
<totfact> 0.26997343E+03</totfact>
</mgrwt>
</event>
<event>
 4    1  0.5280257E-005  0.7818184E+03  0.7818608E-02  0.9586714E-01
          2   -1    0    0  501    0  0.00000000000E+00  0.00000000000E+00  0.24359261542E+03  0.24359261543E+03  0.25500000000E-02 0.  1.
         -2   -1    0    0    0  501 -0.00000000000E+00 -0.00000000000E+00 -0.62731786498E+03  0.62731786498E+03  0.25500000000E-02 0. -1.
    5000001    1    1    2    0    0  0.18730171061E+03 -0.22012188215E+03  0.36564497273E+02  0.33480970156E+03  0.16500000000E+03 0.  0.
   -5000001    1    1    2    0    0 -0.18730171061E+03  0.22012188215E+03 -0.42028974683E+03  0.53610077885E+03  0.16500000000E+03 0.  0.
<mgrwt>
<rscale>  0 0.78181839E+03</rscale>
<asrwt>0</asrwt>
<pdfrwt beam="1">  1        2 0.34798945E-01 0.78181839E+03</pdfrwt>
<pdfrwt beam="2">  1       -2 0.89616837E-01 0.78181839E+03</pdfrwt>
<totfact> 0.16192229E+02</totfact>
</mgrwt>
</event>
<event>
 4    1  0.5280257E-005  0.5080857E+03  0.7818608E-02  0.1011690E+00
          2   -1    0    0  501    0  0.00000000000E+00  0.00000000000E+00  0.16586122103E+04  0.16586122103E+04  0.25500000000E-02 0.  1.
         -2   -1    0    0    0  501 -0.00000000000E+00 -0.00000000000E+00 -0.38910710803E+02  0.38910710886E+02  0.25500000000E-02 0. -1.
    5000001    1    1    2    0    0 -0.11185067257E+03 -0.15498772970E+03  0.71648079188E+03  0.75967196503E+03  0.16500000000E+03 0.  0.
   -5000001    1    1    2    0    0  0.11185067257E+03  0.15498772970E+03  0.90322070765E+03  0.93785095620E+03  0.16500000000E+03 0.  0.
<mgrwt>
<rscale>  0 0.50808574E+03</rscale>
<asrwt>0</asrwt>
<pdfrwt beam="1">  1        2 0.23694458E+00 0.50808574E+03</pdfrwt>
<pdfrwt beam="2">  1       -2 0.55586735E-02 0.50808574E+03</pdfrwt>
<totfact> 0.21493873E+03</totfact>
</mgrwt>
</event>
<event>
 4    1  0.5280257E-005  0.3986897E+03  0.7818608E-02  0.1044234E+00
          2   -1    0    0  501    0  0.00000000000E+00  0.00000000000E+00  0.10315977178E+04  0.10315977178E+04  0.25500000000E-02 0.  1.
         -2   -1    0    0    0  501 -0.00000000000E+00 -0.00000000000E+00 -0.38521195654E+02  0.38521195738E+02  0.25500000000E-02 0. -1.
    5000001    1    1    2    0    0  0.38833038925E+02  0.93843556566E+02  0.62239771638E+03  0.65185775701E+03  0.16500000000E+03 0.  0.
   -5000001    1    1    2    0    0 -0.38833038925E+02 -0.93843556566E+02  0.37067880580E+03  0.41826115657E+03  0.16500000000E+03 0.  0.
<mgrwt>
<rscale>  0 0.39868974E+03</rscale>
<asrwt>0</asrwt>
<pdfrwt beam="1">  1        2 0.14737110E+00 0.39868974E+03</pdfrwt>
<pdfrwt beam="2">  1       -2 0.55030282E-02 0.39868974E+03</pdfrwt>
<totfact> 0.47440427E+03</totfact>
</mgrwt>
</event>
<event>
 4    1  0.5280257E-005  0.7298642E+03  0.7818608E-02  0.9667481E-01
         -2   -1    0    0    0  501 -0.00000000000E+00  0.00000000000E+00  0.16028292884E+03  0.16028292886E+03  0.25500000000E-02 0. -1.
          2   -1    0    0  501    0  0.00000000000E+00 -0.00000000000E+00 -0.83087725965E+03  0.83087725965E+03  0.25500000000E-02 0.  1.
    5000001    1    1    2    0    0  0.26525823632E+03  0.17897924414E+03 -0.41626599376E+03  0.55036158962E+03  0.16500000000E+03 0.  0.
   -5000001    1    1    2    0    0 -0.26525823632E+03 -0.17897924414E+03 -0.25432833704E+03  0.44079859889E+03  0.16500000000E+03 0.  0.
<mgrwt>
<rscale>  0 0.72986421E+03</rscale>
<asrwt>0</asrwt>
<pdfrwt beam="1">  1        2 0.11869675E+00 0.72986421E+03</pdfrwt>
<pdfrwt beam="2">  1       -2 0.22897562E-01 0.72986421E+03</pdfrwt>
<totfact> 0.60944803E+02</totfact>
</mgrwt>
</event>
<event>
 4    1  0.5280257E-005  0.5895185E+03  0.7818608E-02  0.9927394E-01
          2   -1    0    0  501    0  0.00000000000E+00  0.00000000000E+00  0.15576645288E+04  0.15576645288E+04  0.25500000000E-02 0.  1.
         -2   -1    0    0    0  501 -0.00000000000E+00 -0.00000000000E+00 -0.55777748144E+02  0.55777748203E+02  0.25500000000E-02 0. -1.
    5000001    1    1    2    0    0  0.20768700528E+03  0.88705147710E+01  0.39996631269E+03  0.48001107225E+03  0.16500000000E+03 0.  0.
   -5000001    1    1    2    0    0 -0.20768700528E+03 -0.88705147710E+01  0.11019204680E+04  0.11334312048E+04  0.16500000000E+03 0.  0.
<mgrwt>
<rscale>  0 0.58951851E+03</rscale>
<asrwt>0</asrwt>
<pdfrwt beam="1">  1        2 0.22252344E+00 0.58951851E+03</pdfrwt>
<pdfrwt beam="2">  1       -2 0.79682519E-02 0.58951851E+03</pdfrwt>
<totfact> 0.13705182E+03</totfact>
</mgrwt>
</event>
<event>
 4    1  0.5280257E-005  0.3677756E+03  0.7818608E-02  0.1055547E+00
          2   -1    0    0  501    0  0.00000000000E+00  0.00000000000E+00  0.80068383724E+03  0.80068383724E+03  0.25500000000E-02 0.  1.
         -2   -1    0    0    0  501 -0.00000000000E+00 -0.00000000000E+00 -0.42232307005E+02  0.42232307082E+02  0.25500000000E-02 0. -1.
    5000001    1    1    2    0    0  0.76959650184E+02 -0.25011592743E+02  0.39396523661E+03  0.43472057139E+03  0.16500000000E+03 0.  0.
   -5000001    1    1    2    0    0 -0.76959650184E+02  0.25011592743E+02  0.36448629362E+03  0.40819557293E+03  0.16500000000E+03 0.  0.
<mgrwt>
<rscale>  0 0.36777561E+03</rscale>
<asrwt>0</asrwt>
<pdfrwt beam="1">  1        2 0.11438339E+00 0.36777561E+03</pdfrwt>
<pdfrwt beam="2">  1       -2 0.60331877E-02 0.36777561E+03</pdfrwt>
<totfact> 0.57464575E+03</totfact>
</mgrwt>
</event>
<event>
 4    1  0.5280257E-005  0.4581482E+03  0.7818608E-02  0.1025320E+00
         -2   -1    0    0    0  501 -0.00000000000E+00  0.00000000000E+00  0.40664014622E+03  0.40664014622E+03  0.25500000000E-02 0. -1.
          2   -1    0    0  501    0  0.00000000000E+00 -0.00000000000E+00 -0.12904513718E+03  0.12904513720E+03  0.25500000000E-02 0.  1.
    5000001    1    1    2    0    0 -0.49187821131E+02  0.15109748443E+03  0.13903687090E+03  0.26796668266E+03  0.16500000000E+03 0.  0.
   -5000001    1    1    2    0    0  0.49187821131E+02 -0.15109748443E+03  0.13855813814E+03  0.26771860076E+03  0.16500000000E+03 0.  0.
<mgrwt>
<rscale>  0 0.45814816E+03</rscale>
<asrwt>0</asrwt>
<pdfrwt beam="1">  1        2 0.18435020E-01 0.45814816E+03</pdfrwt>
<pdfrwt beam="2">  1       -2 0.58091449E-01 0.45814816E+03</pdfrwt>
<totfact> 0.87034617E+02</totfact>
</mgrwt>
</event>
<event>
 4    1  0.5280257E-005  0.4502672E+03  0.7818608E-02  0.1027642E+00
         -2   -1    0    0    0  501 -0.00000000000E+00  0.00000000000E+00  0.63625183676E+02  0.63625183727E+02  0.25500000000E-02 0. -1.
          2   -1    0    0  501    0  0.00000000000E+00 -0.00000000000E+00 -0.79662082344E+03  0.79662082344E+03  0.25500000000E-02 0.  1.
    5000001    1    1    2    0    0  0.61412835769E+02  0.13981464565E+03 -0.34385391221E+03  0.41082865586E+03  0.16500000000E+03 0.  0.
   -5000001    1    1    2    0    0 -0.61412835769E+02 -0.13981464565E+03 -0.38914172755E+03  0.44941735130E+03  0.16500000000E+03 0.  0.
<mgrwt>
<rscale>  0 0.45026724E+03</rscale>
<asrwt>0</asrwt>
<pdfrwt beam="1">  1        2 0.11380297E+00 0.45026724E+03</pdfrwt>
<pdfrwt beam="2">  1       -2 0.90893124E-02 0.45026724E+03</pdfrwt>
<totfact> 0.30463455E+03</totfact>
</mgrwt>
</event>
<event>
 4    1  0.5280257E-005  0.6148703E+03  0.7818608E-02  0.9875026E-01
          2   -1    0    0  501    0  0.00000000000E+00  0.00000000000E+00  0.45474549850E+04  0.45474549850E+04  0.25500000000E-02 0.  1.
         -2   -1    0    0    0  501 -0.00000000000E+00 -0.00000000000E+00 -0.20784453514E+02  0.20784453671E+02  0.25500000000E-02 0. -1.
    5000001    1    1    2    0    0  0.42016614294E+02  0.25070446114E+03  0.18791995530E+04  0.19034794674E+04  0.16500000000E+03 0.  0.
   -5000001    1    1    2    0    0 -0.42016614294E+02 -0.25070446114E+03  0.26474709784E+04  0.26647599712E+04  0.16500000000E+03 0.  0.
<mgrwt>
<rscale>  0 0.61487029E+03</rscale>
<asrwt>0</asrwt>
<pdfrwt beam="1">  1        2 0.64963750E+00 0.61487029E+03</pdfrwt>
<pdfrwt beam="2">  1       -2 0.29692027E-02 0.61487029E+03</pdfrwt>
<totfact> 0.11665429E+02</totfact>
</mgrwt>
</event>
<event>
 4    1  0.5280257E-005  0.3854293E+03  0.7818608E-02  0.1048945E+00
          2   -1    0    0  501    0  0.00000000000E+00  0.00000000000E+00  0.15537375947E+04  0.15537375947E+04  0.25500000000E-02 0.  1.
         -2   -1    0    0    0  501 -0.00000000000E+00 -0.00000000000E+00 -0.23902967518E+02  0.23902967654E+02  0.25500000000E-02 0. -1.
    5000001    1    1    2    0    0 -0.86680496932E+02 -0.89357782042E+01  0.56773777612E+03  0.59761571190E+03  0.16500000000E+03 0.  0.
   -5000001    1    1    2    0    0  0.86680496932E+02  0.89357782042E+01  0.96209685104E+03  0.98002485043E+03  0.16500000000E+03 0.  0.
<mgrwt>
<rscale>  0 0.38542932E+03</rscale>
<asrwt>0</asrwt>
<pdfrwt beam="1">  1        2 0.22196255E+00 0.38542932E+03</pdfrwt>
<pdfrwt beam="2">  1       -2 0.34147090E-02 0.38542932E+03</pdfrwt>
<totfact> 0.51293106E+03</totfact>
</mgrwt>
</event>
<event>
 4    1  0.5280257E-005  0.9229911E+03  0.7818608E-02  0.9397289E-01
          2   -1    0    0  501    0  0.00000000000E+00  0.00000000000E+00  0.54955392945E+03  0.54955392946E+03  0.25500000000E-02 0.  1.
         -2   -1    0    0    0  501 -0.00000000000E+00 -0.00000000000E+00 -0.38754726351E+03  0.38754726352E+03  0.25500000000E-02 0. -1.
    5000001    1    1    2    0    0 -0.40338361242E+03  0.59522957305E+02  0.22275069185E+03  0.49305597242E+03  0.16500000000E+03 0.  0.
   -5000001    1    1    2    0    0  0.40338361242E+03 -0.59522957305E+02 -0.60744025913E+02  0.44404522056E+03  0.16500000000E+03 0.  0.
<mgrwt>
<rscale>  0 0.92299105E+03</rscale>
<asrwt>0</asrwt>
<pdfrwt beam="1">  1        2 0.78507704E-01 0.92299105E+03</pdfrwt>
<pdfrwt beam="2">  1       -2 0.55363895E-01 0.92299105E+03</pdfrwt>
<totfact> 0.18496445E+02</totfact>
</mgrwt>
</event>
<event>
 4    1  0.5280257E-005  0.5958694E+03  0.7818608E-02  0.9914013E-01
          2   -1    0    0  501    0  0.00000000000E+00  0.00000000000E+00  0.77388299592E+03  0.77388299593E+03  0.25500000000E-02 0.  1.
         -2   -1    0    0    0  501 -0.00000000000E+00 -0.00000000000E+00 -0.11470090256E+03  0.11470090259E+03  0.25500000000E-02 0. -1.
    5000001    1    1    2    0    0  0.87659962595E+02  0.19311267897E+03  0.52151131320E+03  0.58666500289E+03  0.16500000000E+03 0.  0.
   -5000001    1    1    2    0    0 -0.87659962595E+02 -0.19311267897E+03  0.13767078016E+03  0.30191889562E+03  0.16500000000E+03 0.  0.
<mgrwt>
<rscale>  0 0.59586938E+03</rscale>
<asrwt>0</asrwt>
<pdfrwt beam="1">  1        2 0.11055472E+00 0.59586938E+03</pdfrwt>
<pdfrwt beam="2">  1       -2 0.16385843E-01 0.59586938E+03</pdfrwt>
<totfact> 0.11982123E+03</totfact>
</mgrwt>
</event>
<event>
 4    1  0.5280257E-005  0.3745484E+03  0.7818608E-02  0.1052967E+00
         -2   -1    0    0    0  501 -0.00000000000E+00  0.00000000000E+00  0.54334290131E+02  0.54334290191E+02  0.25500000000E-02 0. -1.
          2   -1    0    0  501    0  0.00000000000E+00 -0.00000000000E+00 -0.64547883029E+03  0.64547883030E+03  0.25500000000E-02 0.  1.
    5000001    1    1    2    0    0 -0.63189792951E+02  0.57810159626E+02 -0.25330843722E+03  0.31420555192E+03  0.16500000000E+03 0.  0.
   -5000001    1    1    2    0    0  0.63189792951E+02 -0.57810159626E+02 -0.33783610294E+03  0.38560756857E+03  0.16500000000E+03 0.  0.
<mgrwt>
<rscale>  0 0.37454844E+03</rscale>
<asrwt>0</asrwt>
<pdfrwt beam="1">  1        2 0.92211257E-01 0.37454844E+03</pdfrwt>
<pdfrwt beam="2">  1       -2 0.77620418E-02 0.37454844E+03</pdfrwt>
<totfact> 0.50394789E+03</totfact>
</mgrwt>
</event>
<event>
 4    1  0.5280257E-005  0.6531547E+03  0.7818608E-02  0.9800878E-01
          2   -1    0    0  501    0  0.00000000000E+00  0.00000000000E+00  0.62062147267E+03  0.62062147267E+03  0.25500000000E-02 0. -1.
         -2   -1    0    0    0  501 -0.00000000000E+00 -0.00000000000E+00 -0.17184832156E+03  0.17184832158E+03  0.25500000000E-02 0.  1.
    5000001    1    1    2    0    0  0.16502969684E+03  0.22158624731E+03  0.15691497558E+03  0.35802594235E+03  0.16500000000E+03 0.  0.
   -5000001    1    1    2    0    0 -0.16502969684E+03 -0.22158624731E+03  0.29185817553E+03  0.43444385191E+03  0.16500000000E+03 0.  0.
<mgrwt>
<rscale>  0 0.65315468E+03</rscale>
<asrwt>0</asrwt>
<pdfrwt beam="1">  1        2 0.88660209E-01 0.65315468E+03</pdfrwt>
<pdfrwt beam="2">  1       -2 0.24549761E-01 0.65315468E+03</pdfrwt>
<totfact> 0.77450993E+02</totfact>
</mgrwt>
</event>
<event>
 4    1  0.5280257E-005  0.5052585E+03  0.7818608E-02  0.1012415E+00
         -2   -1    0    0    0  501 -0.00000000000E+00  0.00000000000E+00  0.16251129481E+03  0.16251129483E+03  0.25500000000E-02 0. -1.
          2   -1    0    0  501    0  0.00000000000E+00 -0.00000000000E+00 -0.39272057725E+03  0.39272057726E+03  0.25500000000E-02 0.  1.
    5000001    1    1    2    0    0 -0.56008798214E+02  0.17930852335E+03 -0.15484797044E+03  0.29409424675E+03  0.16500000000E+03 0.  0.
   -5000001    1    1    2    0    0  0.56008798214E+02 -0.17930852335E+03 -0.75361311998E+02  0.26113762534E+03  0.16500000000E+03 0.  0.
<mgrwt>
<rscale>  0 0.50525847E+03</rscale>
<asrwt>0</asrwt>
<pdfrwt beam="1">  1        2 0.56102939E-01 0.50525847E+03</pdfrwt>
<pdfrwt beam="2">  1       -2 0.23215899E-01 0.50525847E+03</pdfrwt>
<totfact> 0.14423634E+03</totfact>
</mgrwt>
</event>
<event>
 4    1  0.5280257E-005  0.7247435E+03  0.7818608E-02  0.9675829E-01
         -2   -1    0    0    0  501 -0.00000000000E+00  0.00000000000E+00  0.47393091590E+02  0.47393091659E+02  0.25500000000E-02 0. -1.
          2   -1    0    0  501    0  0.00000000000E+00 -0.00000000000E+00 -0.27707261597E+04  0.27707261597E+04  0.25500000000E-02 0.  1.
    5000001    1    1    2    0    0 -0.17197040564E+03 -0.26259747640E+03 -0.10718012706E+04  0.11289438510E+04  0.16500000000E+03 0.  0.
   -5000001    1    1    2    0    0  0.17197040564E+03  0.26259747640E+03 -0.16515317976E+04  0.16891754004E+04  0.16500000000E+03 0.  0.
<mgrwt>
<rscale>  0 0.72474348E+03</rscale>
<asrwt>0</asrwt>
<pdfrwt beam="1">  1        2 0.39581792E+00 0.72474348E+03</pdfrwt>
<pdfrwt beam="2">  1       -2 0.67704434E-02 0.72474348E+03</pdfrwt>
<totfact> 0.42244040E+02</totfact>
</mgrwt>
</event>
<event>
 4    1  0.5280257E-005  0.3319346E+03  0.7818608E-02  0.1070284E+00
         -2   -1    0    0    0  501 -0.00000000000E+00  0.00000000000E+00  0.46627994592E+02  0.46627994661E+02  0.25500000000E-02 0. -1.
          2   -1    0    0  501    0  0.00000000000E+00 -0.00000000000E+00 -0.59074278352E+03  0.59074278352E+03  0.25500000000E-02 0.  1.
    5000001    1    1    2    0    0  0.16756795807E+02  0.25563061272E+01 -0.28305888204E+03  0.32807720983E+03  0.16500000000E+03 0.  0.
   -5000001    1    1    2    0    0 -0.16756795807E+02 -0.25563061272E+01 -0.26105590688E+03  0.30929356835E+03  0.16500000000E+03 0.  0.
<mgrwt>
<rscale>  0 0.33193464E+03</rscale>
<asrwt>0</asrwt>
<pdfrwt beam="1">  1        2 0.84391822E-01 0.33193464E+03</pdfrwt>
<pdfrwt beam="2">  1       -2 0.66611424E-02 0.33193464E+03</pdfrwt>
<totfact> 0.70713635E+03</totfact>
</mgrwt>
</event>
<event>
 4    1  0.5280257E-005  0.7286613E+03  0.7818608E-02  0.9669435E-01
          2   -1    0    0  501    0  0.00000000000E+00  0.00000000000E+00  0.17465362843E+03  0.17465362845E+03  0.25500000000E-02 0.  1.
         -2   -1    0    0    0  501 -0.00000000000E+00 -0.00000000000E+00 -0.76000043225E+03  0.76000043226E+03  0.25500000000E-02 0. -1.
    5000001    1    1    2    0    0 -0.91286466702E+02 -0.29863922982E+03 -0.17799379873E+03  0.39550651193E+03  0.16500000000E+03 0.  0.
   -5000001    1    1    2    0    0  0.91286466702E+02  0.29863922982E+03 -0.40735300509E+03  0.53914754877E+03  0.16500000000E+03 0.  0.
<mgrwt>
<rscale>  0 0.72866133E+03</rscale>
<asrwt>0</asrwt>
<pdfrwt beam="1">  1        2 0.24950519E-01 0.72866133E+03</pdfrwt>
<pdfrwt beam="2">  1       -2 0.10857149E+00 0.72866133E+03</pdfrwt>
<totfact> 0.15039151E+02</totfact>
</mgrwt>
</event>
<event>
 4    1  0.5280257E-005  0.7179250E+03  0.7818608E-02  0.9687060E-01
         -2   -1    0    0    0  501 -0.00000000000E+00  0.00000000000E+00  0.57200506211E+02  0.57200506268E+02  0.25500000000E-02 0. -1.
          2   -1    0    0  501    0  0.00000000000E+00 -0.00000000000E+00 -0.22526736291E+04  0.22526736291E+04  0.25500000000E-02 0.  1.
    5000001    1    1    2    0    0  0.31396646757E+03  0.53878153434E+02 -0.11373088442E+04  0.11925494561E+04  0.16500000000E+03 0.  0.
   -5000001    1    1    2    0    0 -0.31396646757E+03 -0.53878153434E+02 -0.10581642787E+04  0.11173246792E+04  0.16500000000E+03 0.  0.
<mgrwt>
<rscale>  0 0.71792499E+03</rscale>
<asrwt>0</asrwt>
<pdfrwt beam="1">  1        2 0.32181046E+00 0.71792499E+03</pdfrwt>
<pdfrwt beam="2">  1       -2 0.81715023E-02 0.71792499E+03</pdfrwt>
<totfact> 0.58080754E+02</totfact>
</mgrwt>
</event>
<event>
 4    1  0.5280257E-005  0.3972132E+03  0.7818608E-02  0.1044749E+00
         -2   -1    0    0    0  501 -0.00000000000E+00  0.00000000000E+00  0.96830472666E+03  0.96830472667E+03  0.25500000000E-02 0. -1.
          2   -1    0    0  501    0  0.00000000000E+00 -0.00000000000E+00 -0.40735716563E+02  0.40735716643E+02  0.25500000000E-02 0.  1.
    5000001    1    1    2    0    0 -0.98701154236E+02 -0.23451883951E+02  0.35225182386E+03  0.40199285581E+03  0.16500000000E+03 0.  0.
   -5000001    1    1    2    0    0  0.98701154236E+02  0.23451883951E+02  0.57531718623E+03  0.60704758750E+03  0.16500000000E+03 0.  0.
<mgrwt>
<rscale>  0 0.39721323E+03</rscale>
<asrwt>0</asrwt>
<pdfrwt beam="1">  1        2 0.58193888E-02 0.39721323E+03</pdfrwt>
<pdfrwt beam="2">  1       -2 0.13832923E+00 0.39721323E+03</pdfrwt>
<totfact> 0.50476776E+02</totfact>
</mgrwt>
</event>
<event>
 4    1  0.5280257E-005  0.4912352E+03  0.7818608E-02  0.1016092E+00
          2   -1    0    0  501    0  0.00000000000E+00  0.00000000000E+00  0.29641989272E+03  0.29641989273E+03  0.25500000000E-02 0.  1.
         -2   -1    0    0    0  501 -0.00000000000E+00 -0.00000000000E+00 -0.20352213796E+03  0.20352213797E+03  0.25500000000E-02 0. -1.
    5000001    1    1    2    0    0 -0.15416644647E+03 -0.95406671270E+02  0.30904519564E+02  0.24708260859E+03  0.16500000000E+03 0.  0.
   -5000001    1    1    2    0    0  0.15416644647E+03  0.95406671270E+02  0.61993235195E+02  0.25285942211E+03  0.16500000000E+03 0.  0.
<mgrwt>
<rscale>  0 0.49123522E+03</rscale>
<asrwt>0</asrwt>
<pdfrwt beam="1">  1        2 0.42345698E-01 0.49123522E+03</pdfrwt>
<pdfrwt beam="2">  1       -2 0.29074592E-01 0.49123522E+03</pdfrwt>
<totfact> 0.13107201E+03</totfact>
</mgrwt>
</event>
<event>
 4    1  0.5280257E-005  0.5433044E+03  0.7818608E-02  0.1003056E+00
         -2   -1    0    0    0  501 -0.00000000000E+00  0.00000000000E+00  0.55188348107E+02  0.55188348166E+02  0.25500000000E-02 0. -1.
          2   -1    0    0  501    0  0.00000000000E+00 -0.00000000000E+00 -0.13371466684E+04  0.13371466684E+04  0.25500000000E-02 0.  1.
    5000001    1    1    2    0    0  0.17434337941E+03 -0.50200953937E+02 -0.34152309044E+03  0.42045067609E+03  0.16500000000E+03 0.  0.
   -5000001    1    1    2    0    0 -0.17434337941E+03  0.50200953937E+02 -0.94043522981E+03  0.97188434044E+03  0.16500000000E+03 0.  0.
<mgrwt>
<rscale>  0 0.54330439E+03</rscale>
<asrwt>0</asrwt>
<pdfrwt beam="1">  1        2 0.19102093E+00 0.54330439E+03</pdfrwt>
<pdfrwt beam="2">  1       -2 0.78840506E-02 0.54330439E+03</pdfrwt>
<totfact> 0.18226469E+03</totfact>
</mgrwt>
</event>
<event>
 4    1  0.5280257E-005  0.5483565E+03  0.7818608E-02  0.1001875E+00
          2   -1    0    0  501    0  0.00000000000E+00  0.00000000000E+00  0.55728810454E+03  0.55728810455E+03  0.25500000000E-02 0. -1.
         -2   -1    0    0    0  501 -0.00000000000E+00 -0.00000000000E+00 -0.13489201505E+03  0.13489201508E+03  0.25500000000E-02 0.  1.
    5000001    1    1    2    0    0 -0.14321235231E+03 -0.60661804273E+02  0.16630250263E+02  0.22735698269E+03  0.16500000000E+03 0.  0.
   -5000001    1    1    2    0    0  0.14321235231E+03  0.60661804273E+02  0.40576583923E+03  0.46482313694E+03  0.16500000000E+03 0.  0.
<mgrwt>
<rscale>  0 0.54835651E+03</rscale>
<asrwt>0</asrwt>
<pdfrwt beam="1">  1        2 0.79612585E-01 0.54835651E+03</pdfrwt>
<pdfrwt beam="2">  1       -2 0.19270288E-01 0.54835651E+03</pdfrwt>
<totfact> 0.13476931E+03</totfact>
</mgrwt>
</event>
<event>
 4    1  0.5280257E-005  0.7782418E+03  0.7818608E-02  0.9592056E-01
         -2   -1    0    0    0  501 -0.00000000000E+00  0.00000000000E+00  0.34526262682E+03  0.34526262683E+03  0.25500000000E-02 0. -1.
          2   -1    0    0  501    0  0.00000000000E+00 -0.00000000000E+00 -0.43855044813E+03  0.43855044814E+03  0.25500000000E-02 0.  1.
    5000001    1    1    2    0    0 -0.10725226784E+03 -0.31665958353E+03  0.65570658683E+02  0.37855099006E+03  0.16500000000E+03 0.  0.
   -5000001    1    1    2    0    0  0.10725226784E+03  0.31665958353E+03 -0.15885848000E+03  0.40526208491E+03  0.16500000000E+03 0.  0.
<mgrwt>
<rscale>  0 0.77824181E+03</rscale>
<asrwt>0</asrwt>
<pdfrwt beam="1">  1        2 0.62650064E-01 0.77824181E+03</pdfrwt>
<pdfrwt beam="2">  1       -2 0.49323233E-01 0.77824181E+03</pdfrwt>
<totfact> 0.30541252E+02</totfact>
</mgrwt>
</event>
<event>
 4    1  0.5280257E-005  0.4732617E+03  0.7818608E-02  0.1021004E+00
         -2   -1    0    0    0  501 -0.00000000000E+00  0.00000000000E+00  0.14405971083E+03  0.14405971085E+03  0.25500000000E-02 0. -1.
          2   -1    0    0  501    0  0.00000000000E+00 -0.00000000000E+00 -0.38868708332E+03  0.38868708333E+03  0.25500000000E-02 0.  1.
    5000001    1    1    2    0    0  0.12085962698E+03 -0.10300222820E+03 -0.55217914908E+02  0.23556427270E+03  0.16500000000E+03 0.  0.
   -5000001    1    1    2    0    0 -0.12085962698E+03  0.10300222820E+03 -0.18940945758E+03  0.29718252147E+03  0.16500000000E+03 0.  0.
<mgrwt>
<rscale>  0 0.47326166E+03</rscale>
<asrwt>0</asrwt>
<pdfrwt beam="1">  1        2 0.55526726E-01 0.47326166E+03</pdfrwt>
<pdfrwt beam="2">  1       -2 0.20579959E-01 0.47326166E+03</pdfrwt>
<totfact> 0.18018184E+03</totfact>
</mgrwt>
</event>
<event>
 4    1  0.5280257E-005  0.4192519E+03  0.7818608E-02  0.1037310E+00
         -2   -1    0    0    0  501 -0.00000000000E+00  0.00000000000E+00  0.79421318429E+02  0.79421318470E+02  0.25500000000E-02 0. -1.
          2   -1    0    0  501    0  0.00000000000E+00 -0.00000000000E+00 -0.55329009419E+03  0.55329009420E+03  0.25500000000E-02 0.  1.
    5000001    1    1    2    0    0 -0.10870547946E+03  0.30525707553E+02 -0.14185437976E+03  0.24514559988E+03  0.16500000000E+03 0.  0.
   -5000001    1    1    2    0    0  0.10870547946E+03 -0.30525707553E+02 -0.33201439600E+03  0.38756581278E+03  0.16500000000E+03 0.  0.
<mgrwt>
<rscale>  0 0.41925185E+03</rscale>
<asrwt>0</asrwt>
<pdfrwt beam="1">  1        2 0.79041440E-01 0.41925185E+03</pdfrwt>
<pdfrwt beam="2">  1       -2 0.11345903E-01 0.41925185E+03</pdfrwt>
<totfact> 0.32924452E+03</totfact>
</mgrwt>
</event>
<event>
 4    1  0.5280257E-005  0.1032212E+04  0.7818608E-02  0.9273904E-01
          2   -1    0    0  501    0  0.00000000000E+00  0.00000000000E+00  0.16945637942E+04  0.16945637942E+04  0.25500000000E-02 0.  1.
         -2   -1    0    0    0  501 -0.00000000000E+00 -0.00000000000E+00 -0.15718831545E+03  0.15718831547E+03  0.25500000000E-02 0. -1.
    5000001    1    1    2    0    0 -0.47889028018E+03  0.80460880086E+02  0.66515293138E+03  0.83991861260E+03  0.16500000000E+03 0.  0.
   -5000001    1    1    2    0    0  0.47889028018E+03 -0.80460880086E+02  0.87222254739E+03  0.10118334971E+04  0.16500000000E+03 0.  0.
<mgrwt>
<rscale>  0 0.10322124E+04</rscale>
<asrwt>0</asrwt>
<pdfrwt beam="1">  1        2 0.24208054E+00 0.10322124E+04</pdfrwt>
<pdfrwt beam="2">  1       -2 0.22455474E-01 0.10322124E+04</pdfrwt>
<totfact> 0.20004150E+02</totfact>
</mgrwt>
</event>
<event>
 4    1  0.5280257E-005  0.4113352E+03  0.7818608E-02  0.1039924E+00
          2   -1    0    0  501    0  0.00000000000E+00  0.00000000000E+00  0.10209966260E+04  0.10209966260E+04  0.25500000000E-02 0.  1.
         -2   -1    0    0    0  501 -0.00000000000E+00 -0.00000000000E+00 -0.41429285209E+02  0.41429285287E+02  0.25500000000E-02 0. -1.
    5000001    1    1    2    0    0 -0.11475558056E+03  0.31972273121E+02  0.41302887829E+03  0.46044426788E+03  0.16500000000E+03 0.  0.
   -5000001    1    1    2    0    0  0.11475558056E+03 -0.31972273121E+02  0.56653846254E+03  0.60198164346E+03  0.16500000000E+03 0.  0.
<mgrwt>
<rscale>  0 0.41133519E+03</rscale>
<asrwt>0</asrwt>
<pdfrwt beam="1">  1        2 0.14585666E+00 0.41133519E+03</pdfrwt>
<pdfrwt beam="2">  1       -2 0.59184693E-02 0.41133519E+03</pdfrwt>
<totfact> 0.43023988E+03</totfact>
</mgrwt>
</event>
<event>
 4    1  0.5280257E-005  0.5141549E+03  0.7818608E-02  0.1010149E+00
         -2   -1    0    0    0  501 -0.00000000000E+00  0.00000000000E+00  0.23360523547E+03  0.23360523548E+03  0.25500000000E-02 0. -1.
          2   -1    0    0  501    0  0.00000000000E+00 -0.00000000000E+00 -0.28290810236E+03  0.28290810237E+03  0.25500000000E-02 0.  1.
    5000001    1    1    2    0    0  0.70558631521E+02  0.17543334848E+03 -0.80660504037E+02  0.26360291567E+03  0.16500000000E+03 0.  0.
   -5000001    1    1    2    0    0 -0.70558631521E+02 -0.17543334848E+03  0.31357637142E+02  0.25291042218E+03  0.16500000000E+03 0.  0.
<mgrwt>
<rscale>  0 0.51415489E+03</rscale>
<asrwt>0</asrwt>
<pdfrwt beam="1">  1        2 0.40415443E-01 0.51415489E+03</pdfrwt>
<pdfrwt beam="2">  1       -2 0.33372177E-01 0.51415489E+03</pdfrwt>
<totfact> 0.10688434E+03</totfact>
</mgrwt>
</event>
<event>
 4    1  0.5280257E-005  0.4312093E+03  0.7818608E-02  0.1033479E+00
         -2   -1    0    0    0  501 -0.00000000000E+00  0.00000000000E+00  0.31261756887E+02  0.31261756991E+02  0.25500000000E-02 0. -1.
          2   -1    0    0  501    0  0.00000000000E+00 -0.00000000000E+00 -0.14869721621E+04  0.14869721621E+04  0.25500000000E-02 0.  1.
    5000001    1    1    2    0    0  0.96376779355E+02 -0.97448935301E+02 -0.80463802538E+03  0.83273773211E+03  0.16500000000E+03 0.  0.
   -5000001    1    1    2    0    0 -0.96376779355E+02  0.97448935301E+02 -0.65107237986E+03  0.68549618701E+03  0.16500000000E+03 0.  0.
<mgrwt>
<rscale>  0 0.43120929E+03</rscale>
<asrwt>0</asrwt>
<pdfrwt beam="1">  1        2 0.21242455E+00 0.43120929E+03</pdfrwt>
<pdfrwt beam="2">  1       -2 0.44659662E-02 0.43120929E+03</pdfrwt>
<totfact> 0.36911935E+03</totfact>
</mgrwt>
</event>
<event>
 4    1  0.5280257E-005  0.5120584E+03  0.7818608E-02  0.1010679E+00
         -2   -1    0    0    0  501 -0.00000000000E+00  0.00000000000E+00  0.53148443973E+02  0.53148444034E+02  0.25500000000E-02 0. -1.
          2   -1    0    0  501    0  0.00000000000E+00 -0.00000000000E+00 -0.12333558742E+04  0.12333558742E+04  0.25500000000E-02 0.  1.
    5000001    1    1    2    0    0  0.21362771439E+02 -0.18041851027E+03 -0.77333351291E+03  0.81134267054E+03  0.16500000000E+03 0.  0.
   -5000001    1    1    2    0    0 -0.21362771439E+02  0.18041851027E+03 -0.40687391736E+03  0.47516164774E+03  0.16500000000E+03 0.  0.
<mgrwt>
<rscale>  0 0.51205838E+03</rscale>
<asrwt>0</asrwt>
<pdfrwt beam="1">  1        2 0.17619368E+00 0.51205838E+03</pdfrwt>
<pdfrwt beam="2">  1       -2 0.75926356E-02 0.51205838E+03</pdfrwt>
<totfact> 0.22044521E+03</totfact>
</mgrwt>
</event>
<event>
 4    1  0.5280257E-005  0.6160961E+03  0.7818608E-02  0.9872563E-01
         -2   -1    0    0    0  501 -0.00000000000E+00  0.00000000000E+00  0.65919466110E+02  0.65919466159E+02  0.25500000000E-02 0. -1.
          2   -1    0    0  501    0  0.00000000000E+00 -0.00000000000E+00 -0.14395384552E+04  0.14395384552E+04  0.25500000000E-02 0.  1.
    5000001    1    1    2    0    0 -0.18640798508E+03 -0.16279732500E+03 -0.88256314650E+03  0.93133968749E+03  0.16500000000E+03 0.  0.
   -5000001    1    1    2    0    0  0.18640798508E+03  0.16279732500E+03 -0.49105584260E+03  0.57411823389E+03  0.16500000000E+03 0.  0.
<mgrwt>
<rscale>  0 0.61609612E+03</rscale>
<asrwt>0</asrwt>
<pdfrwt beam="1">  1        2 0.20564833E+00 0.61609612E+03</pdfrwt>
<pdfrwt beam="2">  1       -2 0.94170674E-02 0.61609612E+03</pdfrwt>
<totfact> 0.12071586E+03</totfact>
</mgrwt>
</event>
<event>
 4    1  0.5280257E-005  0.3868608E+03  0.7818608E-02  0.1048427E+00
          2   -1    0    0  501    0  0.00000000000E+00  0.00000000000E+00  0.10301327692E+04  0.10301327692E+04  0.25500000000E-02 0.  1.
         -2   -1    0    0    0  501 -0.00000000000E+00 -0.00000000000E+00 -0.36320868782E+02  0.36320868871E+02  0.25500000000E-02 0. -1.
    5000001    1    1    2    0    0  0.35947741932E+02 -0.19797521367E+02  0.24266037167E+03  0.29629923723E+03  0.16500000000E+03 0.  0.
   -5000001    1    1    2    0    0 -0.35947741932E+02  0.19797521367E+02  0.75115152871E+03  0.77015440081E+03  0.16500000000E+03 0.  0.
<mgrwt>
<rscale>  0 0.38686079E+03</rscale>
<asrwt>0</asrwt>
<pdfrwt beam="1">  1        2 0.14716183E+00 0.38686079E+03</pdfrwt>
<pdfrwt beam="2">  1       -2 0.51886952E-02 0.38686079E+03</pdfrwt>
<totfact> 0.52019603E+03</totfact>
</mgrwt>
</event>
<event>
 4    1  0.5280257E-005  0.4075454E+03  0.7818608E-02  0.1041198E+00
         -2   -1    0    0    0  501 -0.00000000000E+00  0.00000000000E+00  0.23753359010E+02  0.23753359147E+02  0.25500000000E-02 0. -1.
          2   -1    0    0  501    0  0.00000000000E+00 -0.00000000000E+00 -0.17481024994E+04  0.17481024994E+04  0.25500000000E-02 0.  1.
    5000001    1    1    2    0    0 -0.11163281098E+03 -0.25362413507E+02 -0.71199752037E+03  0.73977740269E+03  0.16500000000E+03 0.  0.
   -5000001    1    1    2    0    0  0.11163281098E+03  0.25362413507E+02 -0.10123516201E+04  0.10320784559E+04  0.16500000000E+03 0.  0.
<mgrwt>
<rscale>  0 0.40754537E+03</rscale>
<asrwt>0</asrwt>
<pdfrwt beam="1">  1        2 0.24972885E+00 0.40754537E+03</pdfrwt>
<pdfrwt beam="2">  1       -2 0.33933381E-02 0.40754537E+03</pdfrwt>
<totfact> 0.41342921E+03</totfact>
</mgrwt>
</event>
<event>
 4    1  0.5280257E-005  0.6772566E+03  0.7818608E-02  0.9756937E-01
         -2   -1    0    0    0  501 -0.00000000000E+00  0.00000000000E+00  0.17008533916E+03  0.17008533918E+03  0.25500000000E-02 0. -1.
          2   -1    0    0  501    0  0.00000000000E+00 -0.00000000000E+00 -0.67418576334E+03  0.67418576335E+03  0.25500000000E-02 0.  1.
    5000001    1    1    2    0    0  0.24074949719E+03 -0.87482240824E+02 -0.43623851532E+03  0.53211136533E+03  0.16500000000E+03 0.  0.
   -5000001    1    1    2    0    0 -0.24074949719E+03  0.87482240824E+02 -0.67861908857E+02  0.31215973720E+03  0.16500000000E+03 0.  0.
<mgrwt>
<rscale>  0 0.67725657E+03</rscale>
<asrwt>0</asrwt>
<pdfrwt beam="1">  1        2 0.96312251E-01 0.67725657E+03</pdfrwt>
<pdfrwt beam="2">  1       -2 0.24297906E-01 0.67725657E+03</pdfrwt>
<totfact> 0.71385502E+02</totfact>
</mgrwt>
</event>
<event>
 4    1  0.5280257E-005  0.4749794E+03  0.7818608E-02  0.1020524E+00
          2   -1    0    0  501    0  0.00000000000E+00  0.00000000000E+00  0.27184408102E+04  0.27184408102E+04  0.25500000000E-02 0.  1.
         -2   -1    0    0    0  501 -0.00000000000E+00 -0.00000000000E+00 -0.20747686103E+02  0.20747686260E+02  0.25500000000E-02 0. -1.
    5000001    1    1    2    0    0 -0.39177713553E+02  0.97482339990E+02  0.21255401353E+04  0.21345218590E+04  0.16500000000E+03 0.  0.
   -5000001    1    1    2    0    0  0.39177713553E+02 -0.97482339990E+02  0.57215298881E+03  0.60466663746E+03  0.16500000000E+03 0.  0.
<mgrwt>
<rscale>  0 0.47497940E+03</rscale>
<asrwt>0</asrwt>
<pdfrwt beam="1">  1        2 0.38834915E+00 0.47497940E+03</pdfrwt>
<pdfrwt beam="2">  1       -2 0.29639517E-02 0.47497940E+03</pdfrwt>
<totfact> 0.16454657E+03</totfact>
</mgrwt>
</event>
<event>
 4    1  0.5280257E-005  0.7264170E+03  0.7818608E-02  0.9673093E-01
         -2   -1    0    0    0  501 -0.00000000000E+00  0.00000000000E+00  0.21539135186E+03  0.21539135188E+03  0.25500000000E-02 0. -1.
          2   -1    0    0  501    0  0.00000000000E+00 -0.00000000000E+00 -0.61246842674E+03  0.61246842674E+03  0.25500000000E-02 0.  1.
    5000001    1    1    2    0    0 -0.43573813598E+02  0.17921530403E+03  0.10444202872E+03  0.26860740830E+03  0.16500000000E+03 0.  0.
   -5000001    1    1    2    0    0  0.43573813598E+02 -0.17921530403E+03 -0.50151910360E+03  0.55925237032E+03  0.16500000000E+03 0.  0.
<mgrwt>
<rscale>  0 0.72641697E+03</rscale>
<asrwt>0</asrwt>
<pdfrwt beam="1">  1        2 0.87495489E-01 0.72641697E+03</pdfrwt>
<pdfrwt beam="2">  1       -2 0.30770193E-01 0.72641697E+03</pdfrwt>
<totfact> 0.51989900E+02</totfact>
</mgrwt>
</event>
<event>
 4    1  0.5280257E-005  0.7642032E+03  0.7818608E-02  0.9613328E-01
         -2   -1    0    0    0  501 -0.00000000000E+00  0.00000000000E+00  0.14299364746E+03  0.14299364748E+03  0.25500000000E-02 0. -1.
          2   -1    0    0  501    0  0.00000000000E+00 -0.00000000000E+00 -0.10210358739E+04  0.10210358739E+04  0.25500000000E-02 0.  1.
    5000001    1    1    2    0    0  0.33042670295E+03 -0.87953944405E+02 -0.50469428365E+03  0.63155286581E+03  0.16500000000E+03 0.  0.
   -5000001    1    1    2    0    0 -0.33042670295E+03  0.87953944405E+02 -0.37334794279E+03  0.53247665559E+03  0.16500000000E+03 0.  0.
<mgrwt>
<rscale>  0 0.76420323E+03</rscale>
<asrwt>0</asrwt>
<pdfrwt beam="1">  1        2 0.14586226E+00 0.76420323E+03</pdfrwt>
<pdfrwt beam="2">  1       -2 0.20427664E-01 0.76420323E+03</pdfrwt>
<totfact> 0.56234531E+02</totfact>
</mgrwt>
</event>
<event>
 4    1  0.5280257E-005  0.5404008E+03  0.7818608E-02  0.1003741E+00
          2   -1    0    0  501    0  0.00000000000E+00  0.00000000000E+00  0.89369426431E+03  0.89369426432E+03  0.25500000000E-02 0. -1.
         -2   -1    0    0    0  501 -0.00000000000E+00 -0.00000000000E+00 -0.81692645477E+02  0.81692645517E+02  0.25500000000E-02 0.  1.
    5000001    1    1    2    0    0 -0.32749718114E+02 -0.18427415363E+03  0.59317275196E+03  0.64351256507E+03  0.16500000000E+03 0.  0.
   -5000001    1    1    2    0    0  0.32749718114E+02  0.18427415363E+03  0.21882886688E+03  0.33187434476E+03  0.16500000000E+03 0.  0.
<mgrwt>
<rscale>  0 0.54040077E+03</rscale>
<asrwt>0</asrwt>
<pdfrwt beam="1">  1        2 0.12767061E+00 0.54040077E+03</pdfrwt>
<pdfrwt beam="2">  1       -2 0.11670378E-01 0.54040077E+03</pdfrwt>
<totfact> 0.17526525E+03</totfact>
</mgrwt>
</event>
<event>
 4    1  0.5280257E-005  0.5566897E+03  0.7818608E-02  0.9999573E-01
         -2   -1    0    0    0  501 -0.00000000000E+00  0.00000000000E+00  0.11538383138E+04  0.11538383138E+04  0.25500000000E-02 0. -1.
          2   -1    0    0  501    0  0.00000000000E+00 -0.00000000000E+00 -0.67146191521E+02  0.67146191570E+02  0.25500000000E-02 0.  1.
    5000001    1    1    2    0    0  0.11986707887E+03 -0.18728966166E+03  0.60558751638E+03  0.66588795901E+03  0.16500000000E+03 0.  0.
   -5000001    1    1    2    0    0 -0.11986707887E+03  0.18728966166E+03  0.48110460588E+03  0.55509654634E+03  0.16500000000E+03 0.  0.
<mgrwt>
<rscale>  0 0.55668967E+03</rscale>
<asrwt>0</asrwt>
<pdfrwt beam="1">  1        2 0.95923128E-02 0.55668967E+03</pdfrwt>
<pdfrwt beam="2">  1       -2 0.16483405E+00 0.55668967E+03</pdfrwt>
<totfact> 0.16588575E+02</totfact>
</mgrwt>
</event>
<event>
 4    1  0.5280257E-005  0.5696914E+03  0.7818608E-02  0.9970362E-01
         -2   -1    0    0    0  501 -0.00000000000E+00  0.00000000000E+00  0.38806252158E+02  0.38806252242E+02  0.25500000000E-02 0. -1.
          2   -1    0    0  501    0  0.00000000000E+00 -0.00000000000E+00 -0.20908248596E+04  0.20908248596E+04  0.25500000000E-02 0.  1.
    5000001    1    1    2    0    0 -0.19341871616E+03  0.12715814002E+03 -0.95788705195E+03  0.99917595879E+03  0.16500000000E+03 0.  0.
   -5000001    1    1    2    0    0  0.19341871616E+03 -0.12715814002E+03 -0.10941315555E+04  0.11304551530E+04  0.16500000000E+03 0.  0.
<mgrwt>
<rscale>  0 0.56969141E+03</rscale>
<asrwt>0</asrwt>
<pdfrwt beam="1">  1        2 0.29868919E+00 0.56969141E+03</pdfrwt>
<pdfrwt beam="2">  1       -2 0.55437517E-02 0.56969141E+03</pdfrwt>
<totfact> 0.13056823E+03</totfact>
</mgrwt>
</event>
<event>
 4    1  0.5280257E-005  0.5938221E+03  0.7818608E-02  0.9918307E-01
         -2   -1    0    0    0  501 -0.00000000000E+00  0.00000000000E+00  0.15175985941E+03  0.15175985943E+03  0.25500000000E-02 0. -1.
          2   -1    0    0  501    0  0.00000000000E+00 -0.00000000000E+00 -0.58089255602E+03  0.58089255603E+03  0.25500000000E-02 0.  1.
    5000001    1    1    2    0    0  0.18864729040E+03  0.74115015099E+02 -0.38839668400E+03  0.46814294802E+03  0.16500000000E+03 0.  0.
   -5000001    1    1    2    0    0 -0.18864729040E+03 -0.74115015099E+02 -0.40736012614E+02  0.26450946744E+03  0.16500000000E+03 0.  0.
<mgrwt>
<rscale>  0 0.59382210E+03</rscale>
<asrwt>0</asrwt>
<pdfrwt beam="1">  1        2 0.82984650E-01 0.59382210E+03</pdfrwt>
<pdfrwt beam="2">  1       -2 0.21679980E-01 0.59382210E+03</pdfrwt>
<totfact> 0.10452681E+03</totfact>
</mgrwt>
</event>
<event>
 4    1  0.5280257E-005  0.5362166E+03  0.7818608E-02  0.1004736E+00
         -2   -1    0    0    0  501 -0.00000000000E+00  0.00000000000E+00  0.46668611485E+02  0.46668611554E+02  0.25500000000E-02 0. -1.
          2   -1    0    0  501    0  0.00000000000E+00 -0.00000000000E+00 -0.15402655815E+04  0.15402655815E+04  0.25500000000E-02 0.  1.
    5000001    1    1    2    0    0  0.10527751594E+03 -0.94878404616E+02 -0.12107120437E+04  0.12300950857E+04  0.16500000000E+03 0.  0.
   -5000001    1    1    2    0    0 -0.10527751594E+03  0.94878404616E+02 -0.28288492631E+03  0.35683910738E+03  0.16500000000E+03 0.  0.
<mgrwt>
<rscale>  0 0.53621658E+03</rscale>
<asrwt>0</asrwt>
<pdfrwt beam="1">  1        2 0.22003791E+00 0.53621658E+03</pdfrwt>
<pdfrwt beam="2">  1       -2 0.66669455E-02 0.53621658E+03</pdfrwt>
<totfact> 0.18583859E+03</totfact>
</mgrwt>
</event>
<event>
 4    1  0.5280257E-005  0.4938566E+03  0.7818608E-02  0.1015395E+00
         -2   -1    0    0    0  501 -0.00000000000E+00  0.00000000000E+00  0.37597032351E+02  0.37597032437E+02  0.25500000000E-02 0. -1.
          2   -1    0    0  501    0  0.00000000000E+00 -0.00000000000E+00 -0.16217662198E+04  0.16217662198E+04  0.25500000000E-02 0.  1.
    5000001    1    1    2    0    0 -0.14917805915E+03  0.19015468169E+02 -0.43756109618E+03  0.49122336493E+03  0.16500000000E+03 0.  0.
   -5000001    1    1    2    0    0  0.14917805915E+03 -0.19015468169E+02 -0.11466080913E+04  0.11681398873E+04  0.16500000000E+03 0.  0.
<mgrwt>
<rscale>  0 0.49385665E+03</rscale>
<asrwt>0</asrwt>
<pdfrwt beam="1">  1        2 0.23168084E+00 0.49385665E+03</pdfrwt>
<pdfrwt beam="2">  1       -2 0.53710057E-02 0.49385665E+03</pdfrwt>
<totfact> 0.23677951E+03</totfact>
</mgrwt>
</event>
<event>
 4    1  0.5280257E-005  0.5591689E+03  0.7818608E-02  0.9993937E-01
          2   -1    0    0  501    0  0.00000000000E+00  0.00000000000E+00  0.33702431424E+03  0.33702431425E+03  0.25500000000E-02 0.  1.
         -2   -1    0    0    0  501 -0.00000000000E+00 -0.00000000000E+00 -0.23193418991E+03  0.23193418992E+03  0.25500000000E-02 0. -1.
    5000001    1    1    2    0    0 -0.16999820118E+03  0.10041066691E+03  0.16382507813E+03  0.30503335336E+03  0.16500000000E+03 0.  0.
   -5000001    1    1    2    0    0  0.16999820118E+03 -0.10041066691E+03 -0.58734953803E+02  0.26392515081E+03  0.16500000000E+03 0.  0.
<mgrwt>
<rscale>  0 0.55916889E+03</rscale>
<asrwt>0</asrwt>
<pdfrwt beam="1">  1        2 0.48146330E-01 0.55916889E+03</pdfrwt>
<pdfrwt beam="2">  1       -2 0.33133456E-01 0.55916889E+03</pdfrwt>
<totfact> 0.89342771E+02</totfact>
</mgrwt>
</event>
<event>
 4    1  0.5280257E-005  0.8914817E+03  0.7818608E-02  0.9436293E-01
          2   -1    0    0  501    0  0.00000000000E+00  0.00000000000E+00  0.10049009661E+04  0.10049009661E+04  0.25500000000E-02 0.  1.
         -2   -1    0    0    0  501 -0.00000000000E+00 -0.00000000000E+00 -0.19771589234E+03  0.19771589236E+03  0.25500000000E-02 0. -1.
    5000001    1    1    2    0    0 -0.25983688859E+03 -0.29498811612E+03  0.22808291083E+03  0.48350802634E+03  0.16500000000E+03 0.  0.
   -5000001    1    1    2    0    0  0.25983688859E+03  0.29498811612E+03  0.57910216288E+03  0.71910883208E+03  0.16500000000E+03 0.  0.
<mgrwt>
<rscale>  0 0.89148167E+03</rscale>
<asrwt>0</asrwt>
<pdfrwt beam="1">  1        2 0.14355728E+00 0.89148167E+03</pdfrwt>
<pdfrwt beam="2">  1       -2 0.28245128E-01 0.89148167E+03</pdfrwt>
<totfact> 0.31976897E+02</totfact>
</mgrwt>
</event>
<event>
 4    1  0.5280257E-005  0.6631642E+03  0.7818608E-02  0.9782386E-01
          2   -1    0    0  501    0  0.00000000000E+00  0.00000000000E+00  0.11088372694E+04  0.11088372694E+04  0.25500000000E-02 0.  1.
         -2   -1    0    0    0  501 -0.00000000000E+00 -0.00000000000E+00 -0.99154947269E+02  0.99154947302E+02  0.25500000000E-02 0. -1.
    5000001    1    1    2    0    0  0.14174126904E+03 -0.88121739698E+02  0.93151242370E+03  0.96062293532E+03  0.16500000000E+03 0.  0.
   -5000001    1    1    2    0    0 -0.14174126904E+03  0.88121739698E+02  0.78169898449E+02  0.24736928140E+03  0.16500000000E+03 0.  0.
<mgrwt>
<rscale>  0 0.66316424E+03</rscale>
<asrwt>0</asrwt>
<pdfrwt beam="1">  1        2 0.15840532E+00 0.66316424E+03</pdfrwt>
<pdfrwt beam="2">  1       -2 0.14164993E-01 0.66316424E+03</pdfrwt>
<totfact> 0.93714801E+02</totfact>
</mgrwt>
</event>
<event>
 4    1  0.5280257E-005  0.6617056E+03  0.7818608E-02  0.9785059E-01
          2   -1    0    0  501    0  0.00000000000E+00  0.00000000000E+00  0.80922643126E+03  0.80922643127E+03  0.25500000000E-02 0.  1.
         -2   -1    0    0    0  501 -0.00000000000E+00 -0.00000000000E+00 -0.13526941539E+03  0.13526941542E+03  0.25500000000E-02 0. -1.
    5000001    1    1    2    0    0 -0.12471964602E+03 -0.99311747059E+02 -0.32641714043E+01  0.22946343504E+03  0.16500000000E+03 0.  0.
   -5000001    1    1    2    0    0  0.12471964602E+03  0.99311747059E+02  0.67722118728E+03  0.71503241164E+03  0.16500000000E+03 0.  0.
<mgrwt>
<rscale>  0 0.66170563E+03</rscale>
<asrwt>0</asrwt>
<pdfrwt beam="1">  1        2 0.11560378E+00 0.66170563E+03</pdfrwt>
<pdfrwt beam="2">  1       -2 0.19324201E-01 0.66170563E+03</pdfrwt>
<totfact> 0.85148935E+02</totfact>
</mgrwt>
</event>
<event>
 4    1  0.5280257E-005  0.9970607E+03  0.7818608E-02  0.9311774E-01
          2   -1    0    0  501    0  0.00000000000E+00  0.00000000000E+00  0.34349591036E+03  0.34349591037E+03  0.25500000000E-02 0.  1.
         -2   -1    0    0    0  501 -0.00000000000E+00 -0.00000000000E+00 -0.72353842291E+03  0.72353842291E+03  0.25500000000E-02 0. -1.
    5000001    1    1    2    0    0 -0.22112055734E+03 -0.38627728900E+03 -0.27005606802E+02  0.47545635728E+03  0.16500000000E+03 0.  0.
   -5000001    1    1    2    0    0  0.22112055734E+03  0.38627728900E+03 -0.35303690574E+03  0.59157797600E+03  0.16500000000E+03 0.  0.
<mgrwt>
<rscale>  0 0.99706066E+03</rscale>
<asrwt>0</asrwt>
<pdfrwt beam="1">  1        2 0.49070845E-01 0.99706066E+03</pdfrwt>
<pdfrwt beam="2">  1       -2 0.10336263E+00 0.99706066E+03</pdfrwt>
<totfact> 0.78209514E+01</totfact>
</mgrwt>
</event>
<event>
 4    1  0.5280257E-005  0.4895702E+03  0.7818608E-02  0.1016538E+00
          2   -1    0    0  501    0  0.00000000000E+00  0.00000000000E+00  0.65655685763E+03  0.65655685763E+03  0.25500000000E-02 0. -1.
         -2   -1    0    0    0  501 -0.00000000000E+00 -0.00000000000E+00 -0.91263605255E+02  0.91263605291E+02  0.25500000000E-02 0.  1.
    5000001    1    1    2    0    0 -0.96473198662E+02 -0.15034207304E+03  0.32544206960E+03  0.40626020929E+03  0.16500000000E+03 0.  0.
   -5000001    1    1    2    0    0  0.96473198662E+02  0.15034207304E+03  0.23985118277E+03  0.34156025364E+03  0.16500000000E+03 0.  0.
<mgrwt>
<rscale>  0 0.48957020E+03</rscale>
<asrwt>0</asrwt>
<pdfrwt beam="1">  1        2 0.93793839E-01 0.48957020E+03</pdfrwt>
<pdfrwt beam="2">  1       -2 0.13037658E-01 0.48957020E+03</pdfrwt>
<totfact> 0.21508200E+03</totfact>
</mgrwt>
</event>
<event>
 4    1  0.5280257E-005  0.3887885E+03  0.7818608E-02  0.1047732E+00
          2   -1    0    0  501    0  0.00000000000E+00  0.00000000000E+00  0.31868132197E+02  0.31868132299E+02  0.25500000000E-02 0.  1.
         -2   -1    0    0    0  501 -0.00000000000E+00 -0.00000000000E+00 -0.11857965641E+04  0.11857965641E+04  0.25500000000E-02 0. -1.
    5000001    1    1    2    0    0  0.18835914851E+02 -0.55630276858E+02 -0.31279048172E+03  0.35848626870E+03  0.16500000000E+03 0.  0.
   -5000001    1    1    2    0    0 -0.18835914851E+02  0.55630276858E+02 -0.84113795022E+03  0.85917842774E+03  0.16500000000E+03 0.  0.
<mgrwt>
<rscale>  0 0.38878849E+03</rscale>
<asrwt>0</asrwt>
<pdfrwt beam="1">  1        2 0.45525911E-02 0.38878849E+03</pdfrwt>
<pdfrwt beam="2">  1       -2 0.16939948E+00 0.38878849E+03</pdfrwt>
<totfact> 0.41100817E+02</totfact>
</mgrwt>
</event>
<event>
 4    1  0.5280257E-005  0.6618172E+03  0.7818608E-02  0.9784854E-01
         -2   -1    0    0    0  501 -0.00000000000E+00  0.00000000000E+00  0.65662001373E+02  0.65662001423E+02  0.25500000000E-02 0. -1.
          2   -1    0    0  501    0  0.00000000000E+00 -0.00000000000E+00 -0.16676389575E+04  0.16676389575E+04  0.25500000000E-02 0.  1.
    5000001    1    1    2    0    0  0.15596374335E+03 -0.23478803167E+03 -0.66177667103E+03  0.73798609159E+03  0.16500000000E+03 0.  0.
   -5000001    1    1    2    0    0 -0.15596374335E+03  0.23478803167E+03 -0.94020028514E+03  0.99531486738E+03  0.16500000000E+03 0.  0.
<mgrwt>
<rscale>  0 0.66181723E+03</rscale>
<asrwt>0</asrwt>
<pdfrwt beam="1">  1        2 0.23823411E+00 0.66181723E+03</pdfrwt>
<pdfrwt beam="2">  1       -2 0.93802870E-02 0.66181723E+03</pdfrwt>
<totfact> 0.92334463E+02</totfact>
</mgrwt>
</event>
<event>
 4    1  0.5280257E-005  0.4639980E+03  0.7818608E-02  0.1023628E+00
          2   -1    0    0  501    0  0.00000000000E+00  0.00000000000E+00  0.24426639859E+03  0.24426639861E+03  0.25500000000E-02 0.  1.
         -2   -1    0    0    0  501 -0.00000000000E+00 -0.00000000000E+00 -0.22034770798E+03  0.22034770800E+03  0.25500000000E-02 0. -1.
    5000001    1    1    2    0    0  0.86302662278E+02  0.78605759639E+02 -0.10208448618E+03  0.22643598937E+03  0.16500000000E+03 0.  0.
   -5000001    1    1    2    0    0 -0.86302662278E+02 -0.78605759639E+02  0.12600317679E+03  0.23817811723E+03  0.16500000000E+03 0.  0.
<mgrwt>
<rscale>  0 0.46399802E+03</rscale>
<asrwt>0</asrwt>
<pdfrwt beam="1">  1        2 0.34895200E-01 0.46399802E+03</pdfrwt>
<pdfrwt beam="2">  1       -2 0.31478244E-01 0.46399802E+03</pdfrwt>
<totfact> 0.14007233E+03</totfact>
</mgrwt>
</event>
<event>
 4    1  0.5280257E-005  0.3807355E+03  0.7818608E-02  0.1050662E+00
         -2   -1    0    0    0  501 -0.00000000000E+00  0.00000000000E+00  0.64764831620E+02  0.64764831671E+02  0.25500000000E-02 0. -1.
          2   -1    0    0  501    0  0.00000000000E+00 -0.00000000000E+00 -0.55956098849E+03  0.55956098849E+03  0.25500000000E-02 0.  1.
    5000001    1    1    2    0    0 -0.30457141143E+02  0.56938965077E+02 -0.36153952525E+03  0.40262328734E+03  0.16500000000E+03 0.  0.
   -5000001    1    1    2    0    0  0.30457141143E+02 -0.56938965077E+02 -0.13325663162E+03  0.22170253282E+03  0.16500000000E+03 0.  0.
<mgrwt>
<rscale>  0 0.38073546E+03</rscale>
<asrwt>0</asrwt>
<pdfrwt beam="1">  1        2 0.79937281E-01 0.38073546E+03</pdfrwt>
<pdfrwt beam="2">  1       -2 0.92521191E-02 0.38073546E+03</pdfrwt>
<totfact> 0.45047880E+03</totfact>
</mgrwt>
</event>
<event>
 4    1  0.5280257E-005  0.4509479E+03  0.7818608E-02  0.1027440E+00
          2   -1    0    0  501    0  0.00000000000E+00  0.00000000000E+00  0.14260132814E+04  0.14260132814E+04  0.25500000000E-02 0.  1.
         -2   -1    0    0    0  501 -0.00000000000E+00 -0.00000000000E+00 -0.35650799012E+02  0.35650799103E+02  0.25500000000E-02 0. -1.
    5000001    1    1    2    0    0 -0.93852410756E+01  0.15337796768E+03  0.69261009814E+03  0.72838632041E+03  0.16500000000E+03 0.  0.
   -5000001    1    1    2    0    0  0.93852410756E+01 -0.15337796768E+03  0.69775238427E+03  0.73327776011E+03  0.16500000000E+03 0.  0.
<mgrwt>
<rscale>  0 0.45094795E+03</rscale>
<asrwt>0</asrwt>
<pdfrwt beam="1">  1        2 0.20371619E+00 0.45094795E+03</pdfrwt>
<pdfrwt beam="2">  1       -2 0.50929712E-02 0.45094795E+03</pdfrwt>
<totfact> 0.32442566E+03</totfact>
</mgrwt>
</event>
<event>
 4    1  0.5280257E-005  0.3534872E+03  0.7818608E-02  0.1061193E+00
         -2   -1    0    0    0  501 -0.00000000000E+00  0.00000000000E+00  0.12908139766E+03  0.12908139769E+03  0.25500000000E-02 0.  1.
          2   -1    0    0  501    0  0.00000000000E+00 -0.00000000000E+00 -0.24200473064E+03  0.24200473065E+03  0.25500000000E-02 0. -1.
    5000001    1    1    2    0    0  0.48844934735E+02  0.35070572465E+02 -0.35530699390E+02  0.17917366799E+03  0.16500000000E+03 0.  0.
   -5000001    1    1    2    0    0 -0.48844934735E+02 -0.35070572465E+02 -0.77392633584E+02  0.19191246034E+03  0.16500000000E+03 0.  0.
<mgrwt>
<rscale>  0 0.35348725E+03</rscale>
<asrwt>0</asrwt>
<pdfrwt beam="1">  1        2 0.34572104E-01 0.35348725E+03</pdfrwt>
<pdfrwt beam="2">  1       -2 0.18440200E-01 0.35348725E+03</pdfrwt>
<totfact> 0.36379904E+03</totfact>
</mgrwt>
</event>
<event>
 4    1  0.5280257E-005  0.5397839E+03  0.7818608E-02  0.1003887E+00
         -2   -1    0    0    0  501 -0.00000000000E+00  0.00000000000E+00  0.23738967789E+03  0.23738967791E+03  0.25500000000E-02 0. -1.
          2   -1    0    0  501    0  0.00000000000E+00 -0.00000000000E+00 -0.30684432868E+03  0.30684432869E+03  0.25500000000E-02 0.  1.
    5000001    1    1    2    0    0 -0.41426843778E+02 -0.14972160398E+03  0.11305504258E+03  0.25325715140E+03  0.16500000000E+03 0.  0.
   -5000001    1    1    2    0    0  0.41426843778E+02  0.14972160398E+03 -0.18250969338E+03  0.29097685520E+03  0.16500000000E+03 0.  0.
<mgrwt>
<rscale>  0 0.53978394E+03</rscale>
<asrwt>0</asrwt>
<pdfrwt beam="1">  1        2 0.43834904E-01 0.53978394E+03</pdfrwt>
<pdfrwt beam="2">  1       -2 0.33912811E-01 0.53978394E+03</pdfrwt>
<totfact> 0.94840133E+02</totfact>
</mgrwt>
</event>
<event>
 4    1  0.5280257E-005  0.3579669E+03  0.7818608E-02  0.1059392E+00
          2   -1    0    0  501    0  0.00000000000E+00  0.00000000000E+00  0.52633246320E+03  0.52633246320E+03  0.25500000000E-02 0.  1.
         -2   -1    0    0    0  501 -0.00000000000E+00 -0.00000000000E+00 -0.60864727100E+02  0.60864727153E+02  0.25500000000E-02 0. -1.
    5000001    1    1    2    0    0  0.57984764123E+02 -0.17715292194E+02  0.17749422087E+03  0.24981045393E+03  0.16500000000E+03 0.  0.
   -5000001    1    1    2    0    0 -0.57984764123E+02  0.17715292194E+02  0.28797351522E+03  0.33738673643E+03  0.16500000000E+03 0.  0.
<mgrwt>
<rscale>  0 0.35796694E+03</rscale>
<asrwt>0</asrwt>
<pdfrwt beam="1">  1        2 0.75190350E-01 0.35796694E+03</pdfrwt>
<pdfrwt beam="2">  1       -2 0.86949613E-02 0.35796694E+03</pdfrwt>
<totfact> 0.53216014E+03</totfact>
</mgrwt>
</event>
<event>
 4    1  0.5280257E-005  0.6706062E+03  0.7818608E-02  0.9768863E-01
          2   -1    0    0  501    0  0.00000000000E+00  0.00000000000E+00  0.17785107498E+04  0.17785107498E+04  0.25500000000E-02 0.  1.
         -2   -1    0    0    0  501 -0.00000000000E+00 -0.00000000000E+00 -0.63214776489E+02  0.63214776540E+02  0.25500000000E-02 0. -1.
    5000001    1    1    2    0    0  0.21246521973E+03  0.17666578096E+03  0.11160232174E+04  0.11615012223E+04  0.16500000000E+03 0.  0.
   -5000001    1    1    2    0    0 -0.21246521973E+03 -0.17666578096E+03  0.59927275593E+03  0.68022430401E+03  0.16500000000E+03 0.  0.
<mgrwt>
<rscale>  0 0.67060617E+03</rscale>
<asrwt>0</asrwt>
<pdfrwt beam="1">  1        2 0.25407298E+00 0.67060617E+03</pdfrwt>
<pdfrwt beam="2">  1       -2 0.90306819E-02 0.67060617E+03</pdfrwt>
<totfact> 0.86158118E+02</totfact>
</mgrwt>
</event>
<event>
 4    1  0.5280257E-005  0.5131462E+03  0.7818608E-02  0.1010403E+00
         -2   -1    0    0    0  501 -0.00000000000E+00  0.00000000000E+00  0.32461152001E+02  0.32461152101E+02  0.25500000000E-02 0. -1.
          2   -1    0    0  501    0  0.00000000000E+00 -0.00000000000E+00 -0.20279551907E+04  0.20279551907E+04  0.25500000000E-02 0.  1.
    5000001    1    1    2    0    0 -0.18919588557E+03  0.52328990670E+02 -0.10316647927E+04  0.10630572191E+04  0.16500000000E+03 0.  0.
   -5000001    1    1    2    0    0  0.18919588557E+03 -0.52328990670E+02 -0.96382924599E+03  0.99735912379E+03  0.16500000000E+03 0.  0.
<mgrwt>
<rscale>  0 0.51314622E+03</rscale>
<asrwt>0</asrwt>
<pdfrwt beam="1">  1        2 0.28970780E+00 0.51314622E+03</pdfrwt>
<pdfrwt beam="2">  1       -2 0.46373087E-02 0.51314622E+03</pdfrwt>
<totfact> 0.18562168E+03</totfact>
</mgrwt>
</event>
<event>
 4    1  0.5280257E-005  0.3916232E+03  0.7818608E-02  0.1046719E+00
         -2   -1    0    0    0  501 -0.00000000000E+00  0.00000000000E+00  0.22051222961E+02  0.22051223108E+02  0.25500000000E-02 0. -1.
          2   -1    0    0  501    0  0.00000000000E+00 -0.00000000000E+00 -0.17387783612E+04  0.17387783612E+04  0.25500000000E-02 0.  1.
    5000001    1    1    2    0    0  0.31616280150E+02 -0.85216617340E+02 -0.61808926534E+03  0.64615849524E+03  0.16500000000E+03 0.  0.
   -5000001    1    1    2    0    0 -0.31616280150E+02  0.85216617340E+02 -0.10986378729E+04  0.11146710891E+04  0.16500000000E+03 0.  0.
<mgrwt>
<rscale>  0 0.39162323E+03</rscale>
<asrwt>0</asrwt>
<pdfrwt beam="1">  1        2 0.24839682E+00 0.39162323E+03</pdfrwt>
<pdfrwt beam="2">  1       -2 0.31501758E-02 0.39162323E+03</pdfrwt>
<totfact> 0.46753079E+03</totfact>
</mgrwt>
</event>
<event>
 4    1  0.5280257E-005  0.7636556E+03  0.7818608E-02  0.9614167E-01
         -2   -1    0    0    0  501 -0.00000000000E+00  0.00000000000E+00  0.56248136170E+03  0.56248136171E+03  0.25500000000E-02 0. -1.
          2   -1    0    0  501    0  0.00000000000E+00 -0.00000000000E+00 -0.25919522528E+03  0.25919522530E+03  0.25500000000E-02 0.  1.
    5000001    1    1    2    0    0  0.10130321302E+03 -0.22068768800E+03 -0.11104121089E+03  0.31387982911E+03  0.16500000000E+03 0.  0.
   -5000001    1    1    2    0    0 -0.10130321302E+03  0.22068768800E+03  0.41432734731E+03  0.50779675790E+03  0.16500000000E+03 0.  0.
<mgrwt>
<rscale>  0 0.76365564E+03</rscale>
<asrwt>0</asrwt>
<pdfrwt beam="1">  1        2 0.37027890E-01 0.76365564E+03</pdfrwt>
<pdfrwt beam="2">  1       -2 0.80354479E-01 0.76365564E+03</pdfrwt>
<totfact> 0.19376022E+02</totfact>
</mgrwt>
</event>
<event>
 4    1  0.5280257E-005  0.4446258E+03  0.7818608E-02  0.1029337E+00
         -2   -1    0    0    0  501 -0.00000000000E+00  0.00000000000E+00  0.12425223641E+02  0.12425223903E+02  0.25500000000E-02 0.  1.
          2   -1    0    0  501    0  0.00000000000E+00 -0.00000000000E+00 -0.39776372875E+04  0.39776372875E+04  0.25500000000E-02 0. -1.
    5000001    1    1    2    0    0 -0.98330030439E+02 -0.48664318242E+02 -0.28872000568E+04  0.28939913923E+04  0.16500000000E+03 0.  0.
   -5000001    1    1    2    0    0  0.98330030439E+02  0.48664318242E+02 -0.10780120070E+04  0.10960711191E+04  0.16500000000E+03 0.  0.
<mgrwt>
<rscale>  0 0.44462584E+03</rscale>
<asrwt>0</asrwt>
<pdfrwt beam="1">  1        2 0.56823308E+00 0.44462584E+03</pdfrwt>
<pdfrwt beam="2">  1       -2 0.17750345E-02 0.44462584E+03</pdfrwt>
<totfact> 0.66728625E+02</totfact>
</mgrwt>
</event>
<event>
 4    1  0.5280257E-005  0.4542277E+03  0.7818608E-02  0.1026469E+00
         -2   -1    0    0    0  501 -0.00000000000E+00  0.00000000000E+00  0.19686429780E+03  0.19686429782E+03  0.25500000000E-02 0. -1.
          2   -1    0    0  501    0  0.00000000000E+00 -0.00000000000E+00 -0.26201147238E+03  0.26201147239E+03  0.25500000000E-02 0.  1.
    5000001    1    1    2    0    0 -0.13680756482E+03  0.74623194931E+02 -0.41072373228E+02  0.23064446851E+03  0.16500000000E+03 0.  0.
   -5000001    1    1    2    0    0  0.13680756482E+03 -0.74623194931E+02 -0.24074801349E+02  0.22823130170E+03  0.16500000000E+03 0.  0.
<mgrwt>
<rscale>  0 0.45422772E+03</rscale>
<asrwt>0</asrwt>
<pdfrwt beam="1">  1        2 0.37430210E-01 0.45422772E+03</pdfrwt>
<pdfrwt beam="2">  1       -2 0.28123471E-01 0.45422772E+03</pdfrwt>
<totfact> 0.15940634E+03</totfact>
</mgrwt>
</event>
<event>
 4    1  0.5280257E-005  0.1302624E+04  0.7818608E-02  0.9027487E-01
         -2   -1    0    0    0  501 -0.00000000000E+00  0.00000000000E+00  0.14503638265E+03  0.14503638267E+03  0.25500000000E-02 0. -1.
          2   -1    0    0  501    0  0.00000000000E+00 -0.00000000000E+00 -0.29248316954E+04  0.29248316954E+04  0.25500000000E-02 0.  1.
    5000001    1    1    2    0    0  0.24685751313E+03  0.52889541802E+03 -0.83064869859E+03  0.10285286848E+04  0.16500000000E+03 0.  0.
   -5000001    1    1    2    0    0 -0.24685751313E+03 -0.52889541802E+03 -0.19491466141E+04  0.20413393932E+04  0.16500000000E+03 0.  0.
<mgrwt>
<rscale>  0 0.13026235E+04</rscale>
<asrwt>0</asrwt>
<pdfrwt beam="1">  1        2 0.41783306E+00 0.13026235E+04</pdfrwt>
<pdfrwt beam="2">  1       -2 0.20719485E-01 0.13026235E+04</pdfrwt>
<totfact> 0.51549975E+01</totfact>
</mgrwt>
</event>
<event>
 4    1  0.5280257E-005  0.8978669E+03  0.7818608E-02  0.9428252E-01
          2   -1    0    0  501    0  0.00000000000E+00  0.00000000000E+00  0.12672711133E+04  0.12672711133E+04  0.25500000000E-02 0.  1.
         -2   -1    0    0    0  501 -0.00000000000E+00 -0.00000000000E+00 -0.15903560568E+03  0.15903560570E+03  0.25500000000E-02 0. -1.
    5000001    1    1    2    0    0  0.23293408212E+03  0.11509198579E+03  0.10732889047E+04  0.11165475918E+04  0.16500000000E+03 0.  0.
   -5000001    1    1    2    0    0 -0.23293408212E+03 -0.11509198579E+03  0.34946602887E+02  0.30975912716E+03  0.16500000000E+03 0.  0.
<mgrwt>
<rscale>  0 0.89786687E+03</rscale>
<asrwt>0</asrwt>
<pdfrwt beam="1">  1        2 0.18103873E+00 0.89786687E+03</pdfrwt>
<pdfrwt beam="2">  1       -2 0.22719372E-01 0.89786687E+03</pdfrwt>
<totfact> 0.33351075E+02</totfact>
</mgrwt>
</event>
<event>
 4    1  0.5280257E-005  0.4462063E+03  0.7818608E-02  0.1028859E+00
         -2   -1    0    0    0  501 -0.00000000000E+00  0.00000000000E+00  0.35945647539E+02  0.35945647629E+02  0.25500000000E-02 0. -1.
          2   -1    0    0  501    0  0.00000000000E+00 -0.00000000000E+00 -0.13847302075E+04  0.13847302075E+04  0.25500000000E-02 0.  1.
    5000001    1    1    2    0    0  0.35812658197E+02 -0.98279561178E+02 -0.33134870531E+03  0.38465358849E+03  0.16500000000E+03 0.  0.
   -5000001    1    1    2    0    0 -0.35812658197E+02  0.98279561178E+02 -0.10174358546E+04  0.10360222666E+04  0.16500000000E+03 0.  0.
<mgrwt>
<rscale>  0 0.44620634E+03</rscale>
<asrwt>0</asrwt>
<pdfrwt beam="1">  1        2 0.19781857E+00 0.44620634E+03</pdfrwt>
<pdfrwt beam="2">  1       -2 0.51350934E-02 0.44620634E+03</pdfrwt>
<totfact> 0.33671460E+03</totfact>
</mgrwt>
</event>
<event>
 4    1  0.5280257E-005  0.3942598E+03  0.7818608E-02  0.1045786E+00
          2   -1    0    0  501    0  0.00000000000E+00  0.00000000000E+00  0.64287284295E+03  0.64287284295E+03  0.25500000000E-02 0.  1.
         -2   -1    0    0    0  501 -0.00000000000E+00 -0.00000000000E+00 -0.60447728568E+02  0.60447728622E+02  0.25500000000E-02 0. -1.
    5000001    1    1    2    0    0 -0.13842950781E+02 -0.87472616865E+02  0.18135962234E+03  0.26069023496E+03  0.16500000000E+03 0.  0.
   -5000001    1    1    2    0    0  0.13842950781E+02  0.87472616865E+02  0.40106549204E+03  0.44263033661E+03  0.16500000000E+03 0.  0.
<mgrwt>
<rscale>  0 0.39425983E+03</rscale>
<asrwt>0</asrwt>
<pdfrwt beam="1">  1        2 0.91838977E-01 0.39425983E+03</pdfrwt>
<pdfrwt beam="2">  1       -2 0.86353899E-02 0.39425983E+03</pdfrwt>
<totfact> 0.42833256E+03</totfact>
</mgrwt>
</event>
<event>
 4    1  0.5280257E-005  0.6465417E+03  0.7818608E-02  0.9813290E-01
         -2   -1    0    0    0  501 -0.00000000000E+00  0.00000000000E+00  0.25420891607E+03  0.25420891608E+03  0.25500000000E-02 0. -1.
          2   -1    0    0  501    0  0.00000000000E+00 -0.00000000000E+00 -0.41109511658E+03  0.41109511658E+03  0.25500000000E-02 0.  1.
    5000001    1    1    2    0    0  0.10736416634E+03 -0.68010158491E+02 -0.33285576405E+03  0.39264539413E+03  0.16500000000E+03 0.  0.
   -5000001    1    1    2    0    0 -0.10736416634E+03  0.68010158491E+02  0.17596956354E+03  0.27265863853E+03  0.16500000000E+03 0.  0.
<mgrwt>
<rscale>  0 0.64654170E+03</rscale>
<asrwt>0</asrwt>
<pdfrwt beam="1">  1        2 0.58727874E-01 0.64654170E+03</pdfrwt>
<pdfrwt beam="2">  1       -2 0.36315560E-01 0.64654170E+03</pdfrwt>
<totfact> 0.60192158E+02</totfact>
</mgrwt>
</event>
<event>
 4    1  0.5280257E-005  0.9541509E+03  0.7818608E-02  0.9360312E-01
          2   -1    0    0  501    0  0.00000000000E+00  0.00000000000E+00  0.22795554548E+04  0.22795554548E+04  0.25500000000E-02 0.  1.
         -2   -1    0    0    0  501 -0.00000000000E+00 -0.00000000000E+00 -0.99844458852E+02  0.99844458884E+02  0.25500000000E-02 0. -1.
    5000001    1    1    2    0    0 -0.79922696913E+01  0.40569292023E+03  0.15612002562E+04  0.16214875460E+04  0.16500000000E+03 0.  0.
   -5000001    1    1    2    0    0  0.79922696913E+01 -0.40569292023E+03  0.61851073979E+03  0.75791236771E+03  0.16500000000E+03 0.  0.
<mgrwt>
<rscale>  0 0.95415089E+03</rscale>
<asrwt>0</asrwt>
<pdfrwt beam="1">  1        2 0.32565083E+00 0.95415089E+03</pdfrwt>
<pdfrwt beam="2">  1       -2 0.14263492E-01 0.95415089E+03</pdfrwt>
<totfact> 0.22160305E+02</totfact>
</mgrwt>
</event>
<event>
 4    1  0.5280257E-005  0.5710842E+03  0.7818608E-02  0.9967282E-01
         -2   -1    0    0    0  501 -0.00000000000E+00  0.00000000000E+00  0.77415725673E+02  0.77415725715E+02  0.25500000000E-02 0. -1.
          2   -1    0    0  501    0  0.00000000000E+00 -0.00000000000E+00 -0.10532004839E+04  0.10532004839E+04  0.25500000000E-02 0.  1.
    5000001    1    1    2    0    0  0.77339912779E+01 -0.16412273832E+03 -0.81508335754E+03  0.84769214200E+03  0.16500000000E+03 0.  0.
   -5000001    1    1    2    0    0 -0.77339912779E+01  0.16412273832E+03 -0.16070140066E+03  0.28292406760E+03  0.16500000000E+03 0.  0.
<mgrwt>
<rscale>  0 0.57108416E+03</rscale>
<asrwt>0</asrwt>
<pdfrwt beam="1">  1        2 0.15045720E+00 0.57108416E+03</pdfrwt>
<pdfrwt beam="2">  1       -2 0.11059390E-01 0.57108416E+03</pdfrwt>
<totfact> 0.15249575E+03</totfact>
</mgrwt>
</event>
<event>
 4    1  0.5280257E-005  0.3986938E+03  0.7818608E-02  0.1044233E+00
         -2   -1    0    0    0  501 -0.00000000000E+00  0.00000000000E+00  0.34083114308E+02  0.34083114403E+02  0.25500000000E-02 0. -1.
          2   -1    0    0  501    0  0.00000000000E+00 -0.00000000000E+00 -0.11659493609E+04  0.11659493609E+04  0.25500000000E-02 0.  1.
    5000001    1    1    2    0    0 -0.46607106789E+02 -0.76699911421E+02 -0.76692406087E+03  0.78959015568E+03  0.16500000000E+03 0.  0.
   -5000001    1    1    2    0    0  0.46607106789E+02  0.76699911421E+02 -0.36494218572E+03  0.41044231962E+03  0.16500000000E+03 0.  0.
<mgrwt>
<rscale>  0 0.39869379E+03</rscale>
<asrwt>0</asrwt>
<pdfrwt beam="1">  1        2 0.16656417E+00 0.39869379E+03</pdfrwt>
<pdfrwt beam="2">  1       -2 0.48690171E-02 0.39869379E+03</pdfrwt>
<totfact> 0.47962613E+03</totfact>
</mgrwt>
</event>
<event>
 4    1  0.5280257E-005  0.5129928E+03  0.7818608E-02  0.1010442E+00
          2   -1    0    0  501    0  0.00000000000E+00  0.00000000000E+00  0.94116034525E+03  0.94116034525E+03  0.25500000000E-02 0.  1.
         -2   -1    0    0    0  501 -0.00000000000E+00 -0.00000000000E+00 -0.69903490609E+02  0.69903490656E+02  0.25500000000E-02 0. -1.
    5000001    1    1    2    0    0  0.19303582002E+02 -0.19443857504E+03  0.39688580008E+03  0.47214650909E+03  0.16500000000E+03 0.  0.
   -5000001    1    1    2    0    0 -0.19303582002E+02  0.19443857504E+03  0.47437105456E+03  0.53891732682E+03  0.16500000000E+03 0.  0.
<mgrwt>
<rscale>  0 0.51299276E+03</rscale>
<asrwt>0</asrwt>
<pdfrwt beam="1">  1        2 0.13445147E+00 0.51299276E+03</pdfrwt>
<pdfrwt beam="2">  1       -2 0.99862133E-02 0.51299276E+03</pdfrwt>
<totfact> 0.21070857E+03</totfact>
</mgrwt>
</event>
<event>
 4    1  0.5280257E-005  0.7531636E+03  0.7818608E-02  0.9630400E-01
         -2   -1    0    0    0  501 -0.00000000000E+00  0.00000000000E+00  0.40977843322E+03  0.40977843323E+03  0.25500000000E-02 0. -1.
          2   -1    0    0  501    0  0.00000000000E+00 -0.00000000000E+00 -0.34607447317E+03  0.34607447318E+03  0.25500000000E-02 0.  1.
    5000001    1    1    2    0    0 -0.23181833160E+03  0.11350802240E+03 -0.18793926522E+03  0.35940225017E+03  0.16500000000E+03 0.  0.
   -5000001    1    1    2    0    0  0.23181833160E+03 -0.11350802240E+03  0.25164322527E+03  0.39645065625E+03  0.16500000000E+03 0.  0.
<mgrwt>
<rscale>  0 0.75316361E+03</rscale>
<asrwt>0</asrwt>
<pdfrwt beam="1">  1        2 0.49439210E-01 0.75316361E+03</pdfrwt>
<pdfrwt beam="2">  1       -2 0.58539777E-01 0.75316361E+03</pdfrwt>
<totfact> 0.27969381E+02</totfact>
</mgrwt>
</event>
<event>
 4    1  0.5280257E-005  0.4988111E+03  0.7818608E-02  0.1014090E+00
         -2   -1    0    0    0  501 -0.00000000000E+00  0.00000000000E+00  0.47557315751E+03  0.47557315751E+03  0.25500000000E-02 0. -1.
          2   -1    0    0  501    0  0.00000000000E+00 -0.00000000000E+00 -0.13079615031E+03  0.13079615034E+03  0.25500000000E-02 0.  1.
    5000001    1    1    2    0    0 -0.10649915402E+03  0.19161790942E+02 -0.13045314003E+02  0.19774838623E+03  0.16500000000E+03 0.  0.
   -5000001    1    1    2    0    0  0.10649915402E+03 -0.19161790942E+02  0.35782232120E+03  0.40862092162E+03  0.16500000000E+03 0.  0.
<mgrwt>
<rscale>  0 0.49881114E+03</rscale>
<asrwt>0</asrwt>
<pdfrwt beam="1">  1        2 0.18685164E-01 0.49881114E+03</pdfrwt>
<pdfrwt beam="2">  1       -2 0.67939023E-01 0.49881114E+03</pdfrwt>
<totfact> 0.61522833E+02</totfact>
</mgrwt>
</event>
<event>
 4    1  0.5280257E-005  0.4554276E+03  0.7818608E-02  0.1026116E+00
         -2   -1    0    0    0  501 -0.00000000000E+00  0.00000000000E+00  0.59715754674E+02  0.59715754728E+02  0.25500000000E-02 0.  1.
          2   -1    0    0  501    0  0.00000000000E+00 -0.00000000000E+00 -0.86834010755E+03  0.86834010755E+03  0.25500000000E-02 0. -1.
    5000001    1    1    2    0    0  0.73849996411E+02  0.10991654734E+03 -0.57593428989E+03  0.61356399472E+03  0.16500000000E+03 0.  0.
   -5000001    1    1    2    0    0 -0.73849996411E+02 -0.10991654734E+03 -0.23269006298E+03  0.31449186756E+03  0.16500000000E+03 0.  0.
<mgrwt>
<rscale>  0 0.45542764E+03</rscale>
<asrwt>0</asrwt>
<pdfrwt beam="1">  1        2 0.12404858E+00 0.45542764E+03</pdfrwt>
<pdfrwt beam="2">  1       -2 0.85308226E-02 0.45542764E+03</pdfrwt>
<totfact> 0.30178460E+03</totfact>
</mgrwt>
</event>
<event>
 4    1  0.5280257E-005  0.4814279E+03  0.7818608E-02  0.1018743E+00
         -2   -1    0    0    0  501 -0.00000000000E+00  0.00000000000E+00  0.32678646153E+02  0.32678646253E+02  0.25500000000E-02 0. -1.
          2   -1    0    0  501    0  0.00000000000E+00 -0.00000000000E+00 -0.17731212900E+04  0.17731212900E+04  0.25500000000E-02 0.  1.
    5000001    1    1    2    0    0  0.16743516821E+03  0.39949137127E+02 -0.99392989003E+03  0.10221311537E+04  0.16500000000E+03 0.  0.
   -5000001    1    1    2    0    0 -0.16743516821E+03 -0.39949137127E+02 -0.74651275381E+03  0.78366878253E+03  0.16500000000E+03 0.  0.
<mgrwt>
<rscale>  0 0.48142789E+03</rscale>
<asrwt>0</asrwt>
<pdfrwt beam="1">  1        2 0.25330298E+00 0.48142789E+03</pdfrwt>
<pdfrwt beam="2">  1       -2 0.46683792E-02 0.48142789E+03</pdfrwt>
<totfact> 0.24663859E+03</totfact>
</mgrwt>
</event>
<event>
 4    1  0.5280257E-005  0.8857715E+03  0.7818608E-02  0.9443545E-01
         -2   -1    0    0    0  501 -0.00000000000E+00  0.00000000000E+00  0.12801206859E+03  0.12801206862E+03  0.25500000000E-02 0. -1.
          2   -1    0    0  501    0  0.00000000000E+00 -0.00000000000E+00 -0.15322602027E+04  0.15322602027E+04  0.25500000000E-02 0.  1.
    5000001    1    1    2    0    0  0.35798417969E+03 -0.10903980128E+03 -0.38358730884E+03  0.56071969349E+03  0.16500000000E+03 0.  0.
   -5000001    1    1    2    0    0 -0.35798417969E+03  0.10903980128E+03 -0.10206608253E+04  0.10995525778E+04  0.16500000000E+03 0.  0.
<mgrwt>
<rscale>  0 0.88577152E+03</rscale>
<asrwt>0</asrwt>
<pdfrwt beam="1">  1        2 0.21889430E+00 0.88577152E+03</pdfrwt>
<pdfrwt beam="2">  1       -2 0.18287439E-01 0.88577152E+03</pdfrwt>
<totfact> 0.35175420E+02</totfact>
</mgrwt>
</event>
<event>
 4    1  0.5280257E-005  0.5375152E+03  0.7818608E-02  0.1004426E+00
         -2   -1    0    0    0  501 -0.00000000000E+00  0.00000000000E+00  0.15338684561E+03  0.15338684563E+03  0.25500000000E-02 0. -1.
          2   -1    0    0  501    0  0.00000000000E+00 -0.00000000000E+00 -0.47090501250E+03  0.47090501250E+03  0.25500000000E-02 0.  1.
    5000001    1    1    2    0    0 -0.16399453899E+03 -0.12823023561E+03 -0.20619980185E+03  0.33627453133E+03  0.16500000000E+03 0.  0.
   -5000001    1    1    2    0    0  0.16399453899E+03  0.12823023561E+03 -0.11131836504E+03  0.28801732680E+03  0.16500000000E+03 0.  0.
<mgrwt>
<rscale>  0 0.53751515E+03</rscale>
<asrwt>0</asrwt>
<pdfrwt beam="1">  1        2 0.67272144E-01 0.53751515E+03</pdfrwt>
<pdfrwt beam="2">  1       -2 0.21912407E-01 0.53751515E+03</pdfrwt>
<totfact> 0.13049508E+03</totfact>
</mgrwt>
</event>
<event>
 4    1  0.5280257E-005  0.8242139E+03  0.7818608E-02  0.9525615E-01
         -2   -1    0    0    0  501 -0.00000000000E+00  0.00000000000E+00  0.20405428682E+03  0.20405428683E+03  0.25500000000E-02 0.  1.
          2   -1    0    0  501    0  0.00000000000E+00 -0.00000000000E+00 -0.83228895195E+03  0.83228895195E+03  0.25500000000E-02 0. -1.
    5000001    1    1    2    0    0  0.22566536252E+03  0.21957243455E+03 -0.57627321599E+03  0.67709137442E+03  0.16500000000E+03 0.  0.
   -5000001    1    1    2    0    0 -0.22566536252E+03 -0.21957243455E+03 -0.51961449144E+02  0.35925186437E+03  0.16500000000E+03 0.  0.
<mgrwt>
<rscale>  0 0.82421388E+03</rscale>
<asrwt>0</asrwt>
<pdfrwt beam="1">  1        2 0.11889842E+00 0.82421388E+03</pdfrwt>
<pdfrwt beam="2">  1       -2 0.29150613E-01 0.82421388E+03</pdfrwt>
<totfact> 0.39121005E+02</totfact>
</mgrwt>
</event>
<event>
 4    1  0.5280257E-005  0.5015343E+03  0.7818608E-02  0.1013379E+00
         -2   -1    0    0    0  501 -0.00000000000E+00  0.00000000000E+00  0.39117853614E+02  0.39117853697E+02  0.25500000000E-02 0. -1.
          2   -1    0    0  501    0  0.00000000000E+00 -0.00000000000E+00 -0.16075563183E+04  0.16075563183E+04  0.25500000000E-02 0.  1.
    5000001    1    1    2    0    0  0.23505687203E+00  0.11730019490E+03 -0.12700967083E+04  0.12861298688E+04  0.16500000000E+03 0.  0.
   -5000001    1    1    2    0    0 -0.23505687203E+00 -0.11730019490E+03 -0.29834175645E+03  0.36054430326E+03  0.16500000000E+03 0.  0.
<mgrwt>
<rscale>  0 0.50153426E+03</rscale>
<asrwt>0</asrwt>
<pdfrwt beam="1">  1        2 0.22965086E+00 0.50153426E+03</pdfrwt>
<pdfrwt beam="2">  1       -2 0.55882658E-02 0.50153426E+03</pdfrwt>
<totfact> 0.22635054E+03</totfact>
</mgrwt>
</event>
<event>
 4    1  0.5280257E-005  0.4874828E+03  0.7818608E-02  0.1017099E+00
          2   -1    0    0  501    0  0.00000000000E+00  0.00000000000E+00  0.13397538779E+04  0.13397538779E+04  0.25500000000E-02 0.  1.
         -2   -1    0    0    0  501 -0.00000000000E+00 -0.00000000000E+00 -0.44343873515E+02  0.44343873588E+02  0.25500000000E-02 0. -1.
    5000001    1    1    2    0    0 -0.29121273852E+02  0.17269189288E+03  0.53721604712E+03  0.58863963487E+03  0.16500000000E+03 0.  0.
   -5000001    1    1    2    0    0  0.29121273852E+02 -0.17269189288E+03  0.75819395723E+03  0.79545811658E+03  0.16500000000E+03 0.  0.
<mgrwt>
<rscale>  0 0.48748283E+03</rscale>
<asrwt>0</asrwt>
<pdfrwt beam="1">  1        2 0.19139340E+00 0.48748283E+03</pdfrwt>
<pdfrwt beam="2">  1       -2 0.63348395E-02 0.48748283E+03</pdfrwt>
<totfact> 0.25671059E+03</totfact>
</mgrwt>
</event>
<event>
 4    1  0.5280257E-005  0.5128983E+03  0.7818608E-02  0.1010466E+00
          2   -1    0    0  501    0  0.00000000000E+00  0.00000000000E+00  0.18712121321E+04  0.18712121321E+04  0.25500000000E-02 0.  1.
         -2   -1    0    0    0  501 -0.00000000000E+00 -0.00000000000E+00 -0.35146296014E+02  0.35146296106E+02  0.25500000000E-02 0. -1.
    5000001    1    1    2    0    0 -0.15220511917E+03 -0.35671852449E+02  0.47664729213E+03  0.52806867021E+03  0.16500000000E+03 0.  0.
   -5000001    1    1    2    0    0  0.15220511917E+03  0.35671852449E+02  0.13594185440E+04  0.13782897580E+04  0.16500000000E+03 0.  0.
<mgrwt>
<rscale>  0 0.51289834E+03</rscale>
<asrwt>0</asrwt>
<pdfrwt beam="1">  1        2 0.26731614E+00 0.51289834E+03</pdfrwt>
<pdfrwt beam="2">  1       -2 0.50208972E-02 0.51289834E+03</pdfrwt>
<totfact> 0.19664984E+03</totfact>
</mgrwt>
</event>
<event>
 4    1  0.5280257E-005  0.7134027E+03  0.7818608E-02  0.9694582E-01
         -2   -1    0    0    0  501 -0.00000000000E+00  0.00000000000E+00  0.36135509980E+02  0.36135510070E+02  0.25500000000E-02 0. -1.
          2   -1    0    0  501    0  0.00000000000E+00 -0.00000000000E+00 -0.35210752325E+04  0.35210752325E+04  0.25500000000E-02 0.  1.
    5000001    1    1    2    0    0 -0.29482687574E+02  0.31200256294E+03 -0.19537849868E+04  0.19856272568E+04  0.16500000000E+03 0.  0.
   -5000001    1    1    2    0    0  0.29482687574E+02 -0.31200256294E+03 -0.15311547357E+04  0.15715834858E+04  0.16500000000E+03 0.  0.
<mgrwt>
<rscale>  0 0.71340269E+03</rscale>
<asrwt>0</asrwt>
<pdfrwt beam="1">  1        2 0.50301053E+00 0.71340269E+03</pdfrwt>
<pdfrwt beam="2">  1       -2 0.51622179E-02 0.71340269E+03</pdfrwt>
<totfact> 0.24553595E+02</totfact>
</mgrwt>
</event>
<event>
 4    1  0.5280257E-005  0.4592405E+03  0.7818608E-02  0.1025002E+00
         -2   -1    0    0    0  501 -0.00000000000E+00  0.00000000000E+00  0.15026582838E+03  0.15026582840E+03  0.25500000000E-02 0. -1.
          2   -1    0    0  501    0  0.00000000000E+00 -0.00000000000E+00 -0.35088122829E+03  0.35088122829E+03  0.25500000000E-02 0.  1.
    5000001    1    1    2    0    0  0.14144311448E+02  0.14140179636E+03 -0.20818940655E+02  0.21875318935E+03  0.16500000000E+03 0.  0.
   -5000001    1    1    2    0    0 -0.14144311448E+02 -0.14140179636E+03 -0.17979645925E+03  0.28239386735E+03  0.16500000000E+03 0.  0.
<mgrwt>
<rscale>  0 0.45924050E+03</rscale>
<asrwt>0</asrwt>
<pdfrwt beam="1">  1        2 0.50125889E-01 0.45924050E+03</pdfrwt>
<pdfrwt beam="2">  1       -2 0.21466547E-01 0.45924050E+03</pdfrwt>
<totfact> 0.18728882E+03</totfact>
</mgrwt>
</event>
<event>
 4    1  0.5280257E-005  0.1403354E+04  0.7818608E-02  0.8951395E-01
          2   -1    0    0  501    0  0.00000000000E+00  0.00000000000E+00  0.39830236601E+04  0.39830236601E+04  0.25500000000E-02 0.  1.
         -2   -1    0    0    0  501 -0.00000000000E+00 -0.00000000000E+00 -0.12361218780E+03  0.12361218783E+03  0.25500000000E-02 0. -1.
    5000001    1    1    2    0    0 -0.65065432374E+03  0.25855395313E+01  0.25277571614E+04  0.26153659402E+04  0.16500000000E+03 0.  0.
   -5000001    1    1    2    0    0  0.65065432374E+03 -0.25855395313E+01  0.13316543109E+04  0.14912699077E+04  0.16500000000E+03 0.  0.
<mgrwt>
<rscale>  0 0.14033535E+04</rscale>
<asrwt>0</asrwt>
<pdfrwt beam="1">  1        2 0.56900346E+00 0.14033535E+04</pdfrwt>
<pdfrwt beam="2">  1       -2 0.17658881E-01 0.14033535E+04</pdfrwt>
<totfact> 0.15468033E+01</totfact>
</mgrwt>
</event>
<event>
 4    1  0.5280257E-005  0.8385610E+03  0.7818608E-02  0.9505820E-01
         -2   -1    0    0    0  501 -0.00000000000E+00  0.00000000000E+00  0.16013296958E+03  0.16013296960E+03  0.25500000000E-02 0. -1.
          2   -1    0    0  501    0  0.00000000000E+00 -0.00000000000E+00 -0.10978133911E+04  0.10978133911E+04  0.25500000000E-02 0.  1.
    5000001    1    1    2    0    0 -0.62560538219E+01  0.38506964641E+03 -0.44496287433E+03  0.61117487704E+03  0.16500000000E+03 0.  0.
   -5000001    1    1    2    0    0  0.62560538219E+01 -0.38506964641E+03 -0.49271754722E+03  0.64677148371E+03  0.16500000000E+03 0.  0.
<mgrwt>
<rscale>  0 0.83856095E+03</rscale>
<asrwt>0</asrwt>
<pdfrwt beam="1">  1        2 0.15683048E+00 0.83856095E+03</pdfrwt>
<pdfrwt beam="2">  1       -2 0.22876139E-01 0.83856095E+03</pdfrwt>
<totfact> 0.41286475E+02</totfact>
</mgrwt>
</event>
<event>
 4    1  0.5280257E-005  0.8319822E+03  0.7818608E-02  0.9514844E-01
          2   -1    0    0  501    0  0.00000000000E+00  0.00000000000E+00  0.14143829059E+04  0.14143829059E+04  0.25500000000E-02 0.  1.
         -2   -1    0    0    0  501 -0.00000000000E+00 -0.00000000000E+00 -0.12234919448E+03  0.12234919451E+03  0.25500000000E-02 0. -1.
    5000001    1    1    2    0    0  0.15096015262E+03  0.34053598205E+03  0.49071010575E+03  0.63778925253E+03  0.16500000000E+03 0.  0.
   -5000001    1    1    2    0    0 -0.15096015262E+03 -0.34053598205E+03  0.80132360562E+03  0.89894284784E+03  0.16500000000E+03 0.  0.
<mgrwt>
<rscale>  0 0.83198223E+03</rscale>
<asrwt>0</asrwt>
<pdfrwt beam="1">  1        2 0.20205469E+00 0.83198223E+03</pdfrwt>
<pdfrwt beam="2">  1       -2 0.17478457E-01 0.83198223E+03</pdfrwt>
<totfact> 0.44046594E+02</totfact>
</mgrwt>
</event>
<event>
 4    1  0.5280257E-005  0.3983077E+03  0.7818608E-02  0.1044367E+00
          2   -1    0    0  501    0  0.00000000000E+00  0.00000000000E+00  0.48544353200E+03  0.48544353200E+03  0.25500000000E-02 0.  1.
         -2   -1    0    0    0  501 -0.00000000000E+00 -0.00000000000E+00 -0.81703111765E+02  0.81703111805E+02  0.25500000000E-02 0. -1.
    5000001    1    1    2    0    0  0.99497855101E+02 -0.33992706716E+02  0.25480219080E+03  0.32125454661E+03  0.16500000000E+03 0.  0.
   -5000001    1    1    2    0    0 -0.99497855101E+02  0.33992706716E+02  0.14893822943E+03  0.24589209720E+03  0.16500000000E+03 0.  0.
<mgrwt>
<rscale>  0 0.39830766E+03</rscale>
<asrwt>0</asrwt>
<pdfrwt beam="1">  1        2 0.69349074E-01 0.39830766E+03</pdfrwt>
<pdfrwt beam="2">  1       -2 0.11671873E-01 0.39830766E+03</pdfrwt>
<totfact> 0.36419490E+03</totfact>
</mgrwt>
</event>
<event>
 4    1  0.5280257E-005  0.6611779E+03  0.7818608E-02  0.9786028E-01
         -2   -1    0    0    0  501 -0.00000000000E+00  0.00000000000E+00  0.60419843629E+02  0.60419843682E+02  0.25500000000E-02 0. -1.
          2   -1    0    0  501    0  0.00000000000E+00 -0.00000000000E+00 -0.18088270299E+04  0.18088270299E+04  0.25500000000E-02 0.  1.
    5000001    1    1    2    0    0  0.19064997589E+03  0.78269541182E+02 -0.31167589937E+03  0.40846101482E+03  0.16500000000E+03 0.  0.
   -5000001    1    1    2    0    0 -0.19064997589E+03 -0.78269541182E+02 -0.14367312869E+04  0.14607858587E+04  0.16500000000E+03 0.  0.
<mgrwt>
<rscale>  0 0.66117788E+03</rscale>
<asrwt>0</asrwt>
<pdfrwt beam="1">  1        2 0.25840383E+00 0.66117788E+03</pdfrwt>
<pdfrwt beam="2">  1       -2 0.86314073E-02 0.66117788E+03</pdfrwt>
<totfact> 0.89480479E+02</totfact>
</mgrwt>
</event>
<event>
 4    1  0.5280257E-005  0.4180409E+03  0.7818608E-02  0.1037706E+00
          2   -1    0    0  501    0  0.00000000000E+00  0.00000000000E+00  0.95941551807E+03  0.95941551807E+03  0.25500000000E-02 0.  1.
         -2   -1    0    0    0  501 -0.00000000000E+00 -0.00000000000E+00 -0.45537674784E+02  0.45537674855E+02  0.25500000000E-02 0. -1.
    5000001    1    1    2    0    0  0.10785295751E+03 -0.20554896039E+02  0.61657677670E+03  0.64764703795E+03  0.16500000000E+03 0.  0.
   -5000001    1    1    2    0    0 -0.10785295751E+03  0.20554896039E+02  0.29730106658E+03  0.35730615498E+03  0.16500000000E+03 0.  0.
<mgrwt>
<rscale>  0 0.41804092E+03</rscale>
<asrwt>0</asrwt>
<pdfrwt beam="1">  1        2 0.13705937E+00 0.41804092E+03</pdfrwt>
<pdfrwt beam="2">  1       -2 0.65053816E-02 0.41804092E+03</pdfrwt>
<totfact> 0.40469417E+03</totfact>
</mgrwt>
</event>
<event>
 4    1  0.5280257E-005  0.5889325E+03  0.7818608E-02  0.9928637E-01
          2   -1    0    0  501    0  0.00000000000E+00  0.00000000000E+00  0.30300805473E+04  0.30300805473E+04  0.25500000000E-02 0.  1.
         -2   -1    0    0    0  501 -0.00000000000E+00 -0.00000000000E+00 -0.28616524477E+02  0.28616524591E+02  0.25500000000E-02 0. -1.
    5000001    1    1    2    0    0  0.23523226549E+03  0.62449323713E+02  0.14184105196E+04  0.14485674092E+04  0.16500000000E+03 0.  0.
   -5000001    1    1    2    0    0 -0.23523226549E+03 -0.62449323713E+02  0.15830535032E+04  0.16101296627E+04  0.16500000000E+03 0.  0.
<mgrwt>
<rscale>  0 0.58893251E+03</rscale>
<asrwt>0</asrwt>
<pdfrwt beam="1">  1        2 0.43286863E+00 0.58893251E+03</pdfrwt>
<pdfrwt beam="2">  1       -2 0.40880751E-02 0.58893251E+03</pdfrwt>
<totfact> 0.68102765E+02</totfact>
</mgrwt>
</event>
<event>
 4    1  0.5280257E-005  0.6241512E+03  0.7818608E-02  0.9856529E-01
         -2   -1    0    0    0  501 -0.00000000000E+00  0.00000000000E+00  0.65373009416E+02  0.65373009466E+02  0.25500000000E-02 0. -1.
          2   -1    0    0  501    0  0.00000000000E+00 -0.00000000000E+00 -0.14897767588E+04  0.14897767588E+04  0.25500000000E-02 0.  1.
    5000001    1    1    2    0    0 -0.17028610923E+03 -0.17996007002E+03 -0.47869004823E+03  0.56369508430E+03  0.16500000000E+03 0.  0.
   -5000001    1    1    2    0    0  0.17028610923E+03  0.17996007002E+03 -0.94571370114E+03  0.99145468395E+03  0.16500000000E+03 0.  0.
<mgrwt>
<rscale>  0 0.62415123E+03</rscale>
<asrwt>0</asrwt>
<pdfrwt beam="1">  1        2 0.21282523E+00 0.62415123E+03</pdfrwt>
<pdfrwt beam="2">  1       -2 0.93390023E-02 0.62415123E+03</pdfrwt>
<totfact> 0.11510381E+03</totfact>
</mgrwt>
</event>
<event>
 4    1  0.5280257E-005  0.9550390E+03  0.7818608E-02  0.9359280E-01
         -2   -1    0    0    0  501 -0.00000000000E+00  0.00000000000E+00  0.31563612877E+03  0.31563612878E+03  0.25500000000E-02 0. -1.
          2   -1    0    0  501    0  0.00000000000E+00 -0.00000000000E+00 -0.72242963874E+03  0.72242963874E+03  0.25500000000E-02 0.  1.
    5000001    1    1    2    0    0 -0.42273566725E+03 -0.14238366426E+03 -0.15700940890E+03  0.50085477605E+03  0.16500000000E+03 0.  0.
   -5000001    1    1    2    0    0  0.42273566725E+03  0.14238366426E+03 -0.24978410107E+03  0.53721099147E+03  0.16500000000E+03 0.  0.
<mgrwt>
<rscale>  0 0.95503905E+03</rscale>
<asrwt>0</asrwt>
<pdfrwt beam="1">  1        2 0.10320423E+00 0.95503905E+03</pdfrwt>
<pdfrwt beam="2">  1       -2 0.45090876E-01 0.95503905E+03</pdfrwt>
<totfact> 0.20179728E+02</totfact>
</mgrwt>
</event>
<event>
 4    1  0.5280257E-005  0.5068923E+03  0.7818608E-02  0.1011995E+00
         -2   -1    0    0    0  501 -0.00000000000E+00  0.00000000000E+00  0.19382174951E+03  0.19382174953E+03  0.25500000000E-02 0. -1.
          2   -1    0    0  501    0  0.00000000000E+00 -0.00000000000E+00 -0.33141246143E+03  0.33141246144E+03  0.25500000000E-02 0.  1.
    5000001    1    1    2    0    0  0.15343521798E+03 -0.28628791037E+02 -0.18532803741E+03  0.29314408615E+03  0.16500000000E+03 0.  0.
   -5000001    1    1    2    0    0 -0.15343521798E+03  0.28628791037E+02  0.47737325500E+02  0.23209012482E+03  0.16500000000E+03 0.  0.
<mgrwt>
<rscale>  0 0.50689227E+03</rscale>
<asrwt>0</asrwt>
<pdfrwt beam="1">  1        2 0.47344637E-01 0.50689227E+03</pdfrwt>
<pdfrwt beam="2">  1       -2 0.27688821E-01 0.50689227E+03</pdfrwt>
<totfact> 0.12677725E+03</totfact>
</mgrwt>
</event>
<event>
 4    1  0.5280257E-005  0.5574972E+03  0.7818608E-02  0.9997734E-01
         -2   -1    0    0    0  501 -0.00000000000E+00  0.00000000000E+00  0.11640547487E+03  0.11640547490E+03  0.25500000000E-02 0. -1.
          2   -1    0    0  501    0  0.00000000000E+00 -0.00000000000E+00 -0.66750098560E+03  0.66750098561E+03  0.25500000000E-02 0.  1.
    5000001    1    1    2    0    0 -0.20816319094E+03 -0.32444865115E+02 -0.16580584518E+03  0.31480336979E+03  0.16500000000E+03 0.  0.
   -5000001    1    1    2    0    0  0.20816319094E+03  0.32444865115E+02 -0.38528966555E+03  0.46910309071E+03  0.16500000000E+03 0.  0.
<mgrwt>
<rscale>  0 0.55749715E+03</rscale>
<asrwt>0</asrwt>
<pdfrwt beam="1">  1        2 0.95357281E-01 0.55749715E+03</pdfrwt>
<pdfrwt beam="2">  1       -2 0.16629354E-01 0.55749715E+03</pdfrwt>
<totfact> 0.14026856E+03</totfact>
</mgrwt>
</event>
<event>
 4    1  0.5280257E-005  0.4224468E+03  0.7818608E-02  0.1036273E+00
          2   -1    0    0  501    0  0.00000000000E+00  0.00000000000E+00  0.81029516309E+02  0.81029516349E+02  0.25500000000E-02 0.  1.
         -2   -1    0    0    0  501 -0.00000000000E+00 -0.00000000000E+00 -0.55060594707E+03  0.55060594708E+03  0.25500000000E-02 0. -1.
    5000001    1    1    2    0    0 -0.33321333580E+02 -0.12722695774E+03 -0.24923230022E+03  0.32655589034E+03  0.16500000000E+03 0.  0.
   -5000001    1    1    2    0    0  0.33321333580E+02  0.12722695774E+03 -0.22034413054E+03  0.30507957308E+03  0.16500000000E+03 0.  0.
<mgrwt>
<rscale>  0 0.42244684E+03</rscale>
<asrwt>0</asrwt>
<pdfrwt beam="1">  1        2 0.11575646E-01 0.42244684E+03</pdfrwt>
<pdfrwt beam="2">  1       -2 0.78657990E-01 0.42244684E+03</pdfrwt>
<totfact> 0.79592914E+02</totfact>
</mgrwt>
</event>
<event>
 4    1  0.5280257E-005  0.4215588E+03  0.7818608E-02  0.1036560E+00
         -2   -1    0    0    0  501 -0.00000000000E+00  0.00000000000E+00  0.68642393699E+02  0.68642393747E+02  0.25500000000E-02 0. -1.
          2   -1    0    0  501    0  0.00000000000E+00 -0.00000000000E+00 -0.64723774803E+03  0.64723774803E+03  0.25500000000E-02 0.  1.
    5000001    1    1    2    0    0 -0.12579012809E+03 -0.25383880655E+02 -0.33535078548E+03  0.39516154550E+03  0.16500000000E+03 0.  0.
   -5000001    1    1    2    0    0  0.12579012809E+03  0.25383880655E+02 -0.24324456885E+03  0.32071859628E+03  0.16500000000E+03 0.  0.
<mgrwt>
<rscale>  0 0.42155877E+03</rscale>
<asrwt>0</asrwt>
<pdfrwt beam="1">  1        2 0.92462532E-01 0.42155877E+03</pdfrwt>
<pdfrwt beam="2">  1       -2 0.98060567E-02 0.42155877E+03</pdfrwt>
<totfact> 0.34729020E+03</totfact>
</mgrwt>
</event>
<event>
 4    1  0.5280257E-005  0.4432886E+03  0.7818608E-02  0.1029743E+00
         -2   -1    0    0    0  501 -0.00000000000E+00  0.00000000000E+00  0.28772151103E+03  0.28772151104E+03  0.25500000000E-02 0. -1.
          2   -1    0    0  501    0  0.00000000000E+00 -0.00000000000E+00 -0.17074218634E+03  0.17074218636E+03  0.25500000000E-02 0.  1.
    5000001    1    1    2    0    0 -0.85168722183E+02 -0.67898582603E+02  0.16210551345E+03  0.25566995570E+03  0.16500000000E+03 0.  0.
   -5000001    1    1    2    0    0  0.85168722183E+02  0.67898582603E+02 -0.45126188772E+02  0.20279374170E+03  0.16500000000E+03 0.  0.
<mgrwt>
<rscale>  0 0.44328862E+03</rscale>
<asrwt>0</asrwt>
<pdfrwt beam="1">  1        2 0.24391741E-01 0.44328862E+03</pdfrwt>
<pdfrwt beam="2">  1       -2 0.41103073E-01 0.44328862E+03</pdfrwt>
<totfact> 0.12610727E+03</totfact>
</mgrwt>
</event>
<event>
 4    1  0.5280257E-005  0.4989762E+03  0.7818608E-02  0.1014046E+00
         -2   -1    0    0    0  501 -0.00000000000E+00  0.00000000000E+00  0.16142664905E+03  0.16142664907E+03  0.25500000000E-02 0. -1.
          2   -1    0    0  501    0  0.00000000000E+00 -0.00000000000E+00 -0.38558887173E+03  0.38558887173E+03  0.25500000000E-02 0.  1.
    5000001    1    1    2    0    0 -0.11502215649E+03 -0.13624402480E+03 -0.49807356017E+02  0.24798851483E+03  0.16500000000E+03 0.  0.
   -5000001    1    1    2    0    0  0.11502215649E+03  0.13624402480E+03 -0.17435486666E+03  0.29902700597E+03  0.16500000000E+03 0.  0.
<mgrwt>
<rscale>  0 0.49897623E+03</rscale>
<asrwt>0</asrwt>
<pdfrwt beam="1">  1        2 0.55084124E-01 0.49897623E+03</pdfrwt>
<pdfrwt beam="2">  1       -2 0.23060950E-01 0.49897623E+03</pdfrwt>
<totfact> 0.14893538E+03</totfact>
</mgrwt>
</event>
<event>
 4    1  0.5280257E-005  0.4135559E+03  0.7818608E-02  0.1039184E+00
         -2   -1    0    0    0  501 -0.00000000000E+00  0.00000000000E+00  0.29401859697E+03  0.29401859698E+03  0.25500000000E-02 0. -1.
          2   -1    0    0  501    0  0.00000000000E+00 -0.00000000000E+00 -0.14542321927E+03  0.14542321929E+03  0.25500000000E-02 0.  1.
    5000001    1    1    2    0    0 -0.47680110831E+02  0.10735701911E+03  0.11853538466E+03  0.23467969647E+03  0.16500000000E+03 0.  0.
   -5000001    1    1    2    0    0  0.47680110831E+02 -0.10735701911E+03  0.30059993049E+02  0.20476211980E+03  0.16500000000E+03 0.  0.
<mgrwt>
<rscale>  0 0.41355595E+03</rscale>
<asrwt>0</asrwt>
<pdfrwt beam="1">  1        2 0.20774746E-01 0.41355595E+03</pdfrwt>
<pdfrwt beam="2">  1       -2 0.42002657E-01 0.41355595E+03</pdfrwt>
<totfact> 0.14523868E+03</totfact>
</mgrwt>
</event>
<event>
 4    1  0.5280257E-005  0.6608976E+03  0.7818608E-02  0.9786543E-01
          2   -1    0    0  501    0  0.00000000000E+00  0.00000000000E+00  0.68722406660E+03  0.68722406660E+03  0.25500000000E-02 0.  1.
         -2   -1    0    0    0  501 -0.00000000000E+00 -0.00000000000E+00 -0.15889489405E+03  0.15889489407E+03  0.25500000000E-02 0. -1.
    5000001    1    1    2    0    0 -0.26541756477E+03 -0.60940488449E+02  0.37731477490E+03  0.49371212886E+03  0.16500000000E+03 0.  0.
   -5000001    1    1    2    0    0  0.26541756477E+03  0.60940488449E+02  0.15101439764E+03  0.35240683182E+03  0.16500000000E+03 0.  0.
<mgrwt>
<rscale>  0 0.66089756E+03</rscale>
<asrwt>0</asrwt>
<pdfrwt beam="1">  1        2 0.98174869E-01 0.66089756E+03</pdfrwt>
<pdfrwt beam="2">  1       -2 0.22699270E-01 0.66089756E+03</pdfrwt>
<totfact> 0.78767248E+02</totfact>
</mgrwt>
</event>
<event>
 4    1  0.5280257E-005  0.3783459E+03  0.7818608E-02  0.1051547E+00
         -2   -1    0    0    0  501 -0.00000000000E+00  0.00000000000E+00  0.35302072905E+02  0.35302072997E+02  0.25500000000E-02 0. -1.
          2   -1    0    0  501    0  0.00000000000E+00 -0.00000000000E+00 -0.10137198523E+04  0.10137198523E+04  0.25500000000E-02 0.  1.
    5000001    1    1    2    0    0 -0.68161610646E+02  0.61364989775E+02 -0.52313794116E+03  0.55615642819E+03  0.16500000000E+03 0.  0.
   -5000001    1    1    2    0    0  0.68161610646E+02 -0.61364989775E+02 -0.45527983820E+03  0.49286549707E+03  0.16500000000E+03 0.  0.
<mgrwt>
<rscale>  0 0.37834594E+03</rscale>
<asrwt>0</asrwt>
<pdfrwt beam="1">  1        2 0.14481710E+00 0.37834594E+03</pdfrwt>
<pdfrwt beam="2">  1       -2 0.50431539E-02 0.37834594E+03</pdfrwt>
<totfact> 0.55553080E+03</totfact>
</mgrwt>
</event>
<event>
 4    1  0.5280257E-005  0.5404768E+03  0.7818608E-02  0.1003723E+00
          2   -1    0    0  501    0  0.00000000000E+00  0.00000000000E+00  0.35366162645E+03  0.35366162646E+03  0.25500000000E-02 0.  1.
         -2   -1    0    0    0  501 -0.00000000000E+00 -0.00000000000E+00 -0.20649343253E+03  0.20649343254E+03  0.25500000000E-02 0. -1.
    5000001    1    1    2    0    0 -0.20956223486E+03  0.39200176888E+02  0.92996207914E+02  0.28517762681E+03  0.16500000000E+03 0.  0.
   -5000001    1    1    2    0    0  0.20956223486E+03 -0.39200176888E+02  0.54171986011E+02  0.27497743219E+03  0.16500000000E+03 0.  0.
<mgrwt>
<rscale>  0 0.54047684E+03</rscale>
<asrwt>0</asrwt>
<pdfrwt beam="1">  1        2 0.50523089E-01 0.54047684E+03</pdfrwt>
<pdfrwt beam="2">  1       -2 0.29499062E-01 0.54047684E+03</pdfrwt>
<totfact> 0.10512684E+03</totfact>
</mgrwt>
</event>
<event>
 4    1  0.5280257E-005  0.4388947E+03  0.7818608E-02  0.1031086E+00
          2   -1    0    0  501    0  0.00000000000E+00  0.00000000000E+00  0.42475325914E+03  0.42475325915E+03  0.25500000000E-02 0.  1.
         -2   -1    0    0    0  501 -0.00000000000E+00 -0.00000000000E+00 -0.11337672721E+03  0.11337672724E+03  0.25500000000E-02 0. -1.
    5000001    1    1    2    0    0  0.59733074322E+02  0.59657674814E+02  0.29974911392E+03  0.35242248740E+03  0.16500000000E+03 0.  0.
   -5000001    1    1    2    0    0 -0.59733074322E+02 -0.59657674814E+02  0.11627418014E+02  0.18570749899E+03  0.16500000000E+03 0.  0.
<mgrwt>
<rscale>  0 0.43889468E+03</rscale>
<asrwt>0</asrwt>
<pdfrwt beam="1">  1        2 0.60679039E-01 0.43889468E+03</pdfrwt>
<pdfrwt beam="2">  1       -2 0.16196675E-01 0.43889468E+03</pdfrwt>
<totfact> 0.24598661E+03</totfact>
</mgrwt>
</event>
<event>
 4    1  0.5280257E-005  0.6702138E+03  0.7818608E-02  0.9769572E-01
          2   -1    0    0  501    0  0.00000000000E+00  0.00000000000E+00  0.16248912694E+04  0.16248912694E+04  0.25500000000E-02 0.  1.
         -2   -1    0    0    0  501 -0.00000000000E+00 -0.00000000000E+00 -0.69110242561E+02  0.69110242608E+02  0.25500000000E-02 0. -1.
    5000001    1    1    2    0    0 -0.55136196198E+02 -0.27964878533E+03  0.93427619322E+03  0.99062629104E+03  0.16500000000E+03 0.  0.
   -5000001    1    1    2    0    0  0.55136196198E+02  0.27964878533E+03  0.62150483357E+03  0.70337522093E+03  0.16500000000E+03 0.  0.
<mgrwt>
<rscale>  0 0.67021379E+03</rscale>
<asrwt>0</asrwt>
<pdfrwt beam="1">  1        2 0.23212734E+00 0.67021379E+03</pdfrwt>
<pdfrwt beam="2">  1       -2 0.98728909E-02 0.67021379E+03</pdfrwt>
<totfact> 0.89356822E+02</totfact>
</mgrwt>
</event>
<event>
 4    1  0.5280257E-005  0.4348986E+03  0.7818608E-02  0.1032324E+00
         -2   -1    0    0    0  501 -0.00000000000E+00  0.00000000000E+00  0.90636357986E+02  0.90636358022E+02  0.25500000000E-02 0. -1.
          2   -1    0    0  501    0  0.00000000000E+00 -0.00000000000E+00 -0.52169128129E+03  0.52169128130E+03  0.25500000000E-02 0.  1.
    5000001    1    1    2    0    0 -0.11698222445E+03  0.75287675985E+02 -0.25294161800E+03  0.33250193550E+03  0.16500000000E+03 0.  0.
   -5000001    1    1    2    0    0  0.11698222445E+03 -0.75287675985E+02 -0.17811330530E+03  0.27982570382E+03  0.16500000000E+03 0.  0.
<mgrwt>
<rscale>  0 0.43489860E+03</rscale>
<asrwt>0</asrwt>
<pdfrwt beam="1">  1        2 0.74527324E-01 0.43489860E+03</pdfrwt>
<pdfrwt beam="2">  1       -2 0.12948051E-01 0.43489860E+03</pdfrwt>
<totfact> 0.28380116E+03</totfact>
</mgrwt>
</event>
<event>
 4    1  0.5280257E-005  0.1121423E+04  0.7818608E-02  0.9184559E-01
         -2   -1    0    0    0  501 -0.00000000000E+00  0.00000000000E+00  0.28824398502E+03  0.28824398503E+03  0.25500000000E-02 0. -1.
          2   -1    0    0  501    0  0.00000000000E+00 -0.00000000000E+00 -0.10907342171E+04  0.10907342172E+04  0.25500000000E-02 0.  1.
    5000001    1    1    2    0    0  0.52854235689E+03 -0.60650212176E+02 -0.32215246381E+03  0.64346148386E+03  0.16500000000E+03 0.  0.
   -5000001    1    1    2    0    0 -0.52854235689E+03  0.60650212176E+02 -0.48033776832E+03  0.73551671833E+03  0.16500000000E+03 0.  0.
<mgrwt>
<rscale>  0 0.11214233E+04</rscale>
<asrwt>0</asrwt>
<pdfrwt beam="1">  1        2 0.15581917E+00 0.11214233E+04</pdfrwt>
<pdfrwt beam="2">  1       -2 0.41177713E-01 0.11214233E+04</pdfrwt>
<totfact> 0.13692390E+02</totfact>
</mgrwt>
</event>
<event>
 4    1  0.5280257E-005  0.4655946E+03  0.7818608E-02  0.1023171E+00
          2   -1    0    0  501    0  0.00000000000E+00  0.00000000000E+00  0.74710768153E+03  0.74710768154E+03  0.25500000000E-02 0.  1.
         -2   -1    0    0    0  501 -0.00000000000E+00 -0.00000000000E+00 -0.72539175223E+02  0.72539175268E+02  0.25500000000E-02 0. -1.
    5000001    1    1    2    0    0  0.12241992945E+03 -0.11975880860E+02  0.52883586720E+03  0.56747020652E+03  0.16500000000E+03 0.  0.
   -5000001    1    1    2    0    0 -0.12241992945E+03  0.11975880860E+02  0.14573263911E+03  0.25217665029E+03  0.16500000000E+03 0.  0.
<mgrwt>
<rscale>  0 0.46559457E+03</rscale>
<asrwt>0</asrwt>
<pdfrwt beam="1">  1        2 0.10672966E+00 0.46559457E+03</pdfrwt>
<pdfrwt beam="2">  1       -2 0.10362740E-01 0.46559457E+03</pdfrwt>
<totfact> 0.26742345E+03</totfact>
</mgrwt>
</event>
<event>
 4    1  0.5280257E-005  0.8950255E+03  0.7818608E-02  0.9431821E-01
          2   -1    0    0  501    0  0.00000000000E+00  0.00000000000E+00  0.18611407236E+04  0.18611407236E+04  0.25500000000E-02 0.  1.
         -2   -1    0    0    0  501 -0.00000000000E+00 -0.00000000000E+00 -0.10760480170E+03  0.10760480173E+03  0.25500000000E-02 0. -1.
    5000001    1    1    2    0    0  0.15424885480E+03  0.37664199201E+03  0.10658713316E+04  0.11528046647E+04  0.16500000000E+03 0.  0.
   -5000001    1    1    2    0    0 -0.15424885480E+03 -0.37664199201E+03  0.68766459030E+03  0.81594086067E+03  0.16500000000E+03 0.  0.
<mgrwt>
<rscale>  0 0.89502554E+03</rscale>
<asrwt>0</asrwt>
<pdfrwt beam="1">  1        2 0.26587723E+00 0.89502554E+03</pdfrwt>
<pdfrwt beam="2">  1       -2 0.15372116E-01 0.89502554E+03</pdfrwt>
<totfact> 0.32036709E+02</totfact>
</mgrwt>
</event>
<event>
 4    1  0.5280257E-005  0.5056414E+03  0.7818608E-02  0.1012317E+00
          2   -1    0    0  501    0  0.00000000000E+00  0.00000000000E+00  0.32651169890E+04  0.32651169890E+04  0.25500000000E-02 0.  1.
         -2   -1    0    0    0  501 -0.00000000000E+00 -0.00000000000E+00 -0.19576115001E+02  0.19576115167E+02  0.25500000000E-02 0. -1.
    5000001    1    1    2    0    0 -0.25235216836E+02 -0.18739771297E+03  0.18217870956E+04  0.18389910115E+04  0.16500000000E+03 0.  0.
   -5000001    1    1    2    0    0  0.25235216836E+02  0.18739771297E+03  0.14237537785E+04  0.14457020926E+04  0.16500000000E+03 0.  0.
<mgrwt>
<rscale>  0 0.50564140E+03</rscale>
<asrwt>0</asrwt>
<pdfrwt beam="1">  1        2 0.46644522E+00 0.50564140E+03</pdfrwt>
<pdfrwt beam="2">  1       -2 0.27965883E-02 0.50564140E+03</pdfrwt>
<totfact> 0.90682687E+02</totfact>
</mgrwt>
</event>
<event>
 4    1  0.5280257E-005  0.6909551E+03  0.7818608E-02  0.9732826E-01
         -2   -1    0    0    0  501 -0.00000000000E+00  0.00000000000E+00  0.46278033430E+02  0.46278033500E+02  0.25500000000E-02 0. -1.
          2   -1    0    0  501    0  0.00000000000E+00 -0.00000000000E+00 -0.25790795371E+04  0.25790795371E+04  0.25500000000E-02 0.  1.
    5000001    1    1    2    0    0 -0.12563462031E+03  0.27251160974E+03 -0.10929831920E+04  0.11453750012E+04  0.16500000000E+03 0.  0.
   -5000001    1    1    2    0    0  0.12563462031E+03 -0.27251160974E+03 -0.14398183116E+04  0.14799825694E+04  0.16500000000E+03 0.  0.
<mgrwt>
<rscale>  0 0.69095508E+03</rscale>
<asrwt>0</asrwt>
<pdfrwt beam="1">  1        2 0.36843984E+00 0.69095508E+03</pdfrwt>
<pdfrwt beam="2">  1       -2 0.66111493E-02 0.69095508E+03</pdfrwt>
<totfact> 0.55451625E+02</totfact>
</mgrwt>
</event>
<event>
 4    1  0.5280257E-005  0.4642703E+03  0.7818608E-02  0.1023550E+00
          2   -1    0    0  501    0  0.00000000000E+00  0.00000000000E+00  0.71738951112E+03  0.71738951112E+03  0.25500000000E-02 0.  1.
         -2   -1    0    0    0  501 -0.00000000000E+00 -0.00000000000E+00 -0.75115036567E+02  0.75115036610E+02  0.25500000000E-02 0. -1.
    5000001    1    1    2    0    0 -0.13202998634E+03 -0.43145800173E+02  0.46766278213E+03  0.51500189821E+03  0.16500000000E+03 0.  0.
   -5000001    1    1    2    0    0  0.13202998634E+03  0.43145800173E+02  0.17461169242E+03  0.27750264953E+03  0.16500000000E+03 0.  0.
<mgrwt>
<rscale>  0 0.46427035E+03</rscale>
<asrwt>0</asrwt>
<pdfrwt beam="1">  1        2 0.10248422E+00 0.46427035E+03</pdfrwt>
<pdfrwt beam="2">  1       -2 0.10730719E-01 0.46427035E+03</pdfrwt>
<totfact> 0.26566288E+03</totfact>
</mgrwt>
</event>
<event>
 4    1  0.5280257E-005  0.4573947E+03  0.7818608E-02  0.1025540E+00
          2   -1    0    0  501    0  0.00000000000E+00  0.00000000000E+00  0.16264056669E+04  0.16264056669E+04  0.25500000000E-02 0.  1.
         -2   -1    0    0    0  501 -0.00000000000E+00 -0.00000000000E+00 -0.32158315924E+02  0.32158316025E+02  0.25500000000E-02 0. -1.
    5000001    1    1    2    0    0 -0.13181156936E+03  0.52274119713E+01  0.11148143255E+04  0.11346530730E+04  0.16500000000E+03 0.  0.
   -5000001    1    1    2    0    0  0.13181156936E+03 -0.52274119713E+01  0.47943302543E+03  0.52391090992E+03  0.16500000000E+03 0.  0.
<mgrwt>
<rscale>  0 0.45739465E+03</rscale>
<asrwt>0</asrwt>
<pdfrwt beam="1">  1        2 0.23234372E+00 0.45739465E+03</pdfrwt>
<pdfrwt beam="2">  1       -2 0.45940440E-02 0.45739465E+03</pdfrwt>
<totfact> 0.29989746E+03</totfact>
</mgrwt>
</event>
<event>
 4    1  0.5280257E-005  0.9867220E+03  0.7818608E-02  0.9323229E-01
          2   -1    0    0  501    0  0.00000000000E+00  0.00000000000E+00  0.14123821653E+04  0.14123821653E+04  0.25500000000E-02 0.  1.
         -2   -1    0    0    0  501 -0.00000000000E+00 -0.00000000000E+00 -0.17233655776E+03  0.17233655778E+03  0.25500000000E-02 0. -1.
    5000001    1    1    2    0    0  0.44390975767E+03 -0.10700072697E+03  0.47932152651E+03  0.68226032737E+03  0.16500000000E+03 0.  0.
   -5000001    1    1    2    0    0 -0.44390975767E+03  0.10700072697E+03  0.76072408100E+03  0.90245839569E+03  0.16500000000E+03 0.  0.
<mgrwt>
<rscale>  0 0.98672201E+03</rscale>
<asrwt>0</asrwt>
<pdfrwt beam="1">  1        2 0.20176889E+00 0.98672201E+03</pdfrwt>
<pdfrwt beam="2">  1       -2 0.24619508E-01 0.98672201E+03</pdfrwt>
<totfact> 0.23941416E+02</totfact>
</mgrwt>
</event>
<event>
 4    1  0.5280257E-005  0.4476540E+03  0.7818608E-02  0.1028424E+00
          2   -1    0    0  501    0  0.00000000000E+00  0.00000000000E+00  0.35542926846E+03  0.35542926847E+03  0.25500000000E-02 0.  1.
         -2   -1    0    0    0  501 -0.00000000000E+00 -0.00000000000E+00 -0.14095218018E+03  0.14095218021E+03  0.25500000000E-02 0. -1.
    5000001    1    1    2    0    0 -0.94198458798E+02  0.10098426803E+03  0.17561389553E+03  0.27773442771E+03  0.16500000000E+03 0.  0.
   -5000001    1    1    2    0    0  0.94198458798E+02 -0.10098426803E+03  0.38863192743E+02  0.21864702097E+03  0.16500000000E+03 0.  0.
<mgrwt>
<rscale>  0 0.44765402E+03</rscale>
<asrwt>0</asrwt>
<pdfrwt beam="1">  1        2 0.50775610E-01 0.44765402E+03</pdfrwt>
<pdfrwt beam="2">  1       -2 0.20136026E-01 0.44765402E+03</pdfrwt>
<totfact> 0.20635909E+03</totfact>
</mgrwt>
</event>
<event>
 4    1  0.5280257E-005  0.3626974E+03  0.7818608E-02  0.1057521E+00
         -2   -1    0    0    0  501 -0.00000000000E+00  0.00000000000E+00  0.60487532109E+02  0.60487532163E+02  0.25500000000E-02 0. -1.
          2   -1    0    0  501    0  0.00000000000E+00 -0.00000000000E+00 -0.54370476610E+03  0.54370476611E+03  0.25500000000E-02 0.  1.
    5000001    1    1    2    0    0  0.19461367517E+02  0.70920904318E+02 -0.21506801718E+03  0.28086966997E+03  0.16500000000E+03 0.  0.
   -5000001    1    1    2    0    0 -0.19461367517E+02 -0.70920904318E+02 -0.26814921681E+03  0.32332262830E+03  0.16500000000E+03 0.  0.
<mgrwt>
<rscale>  0 0.36269745E+03</rscale>
<asrwt>0</asrwt>
<pdfrwt beam="1">  1        2 0.77672107E-01 0.36269745E+03</pdfrwt>
<pdfrwt beam="2">  1       -2 0.86410763E-02 0.36269745E+03</pdfrwt>
<totfact> 0.51822684E+03</totfact>
</mgrwt>
</event>
<event>
 4    1  0.5280257E-005  0.4763847E+03  0.7818608E-02  0.1020133E+00
          2   -1    0    0  501    0  0.00000000000E+00  0.00000000000E+00  0.12994438972E+04  0.12994438973E+04  0.25500000000E-02 0.  1.
         -2   -1    0    0    0  501 -0.00000000000E+00 -0.00000000000E+00 -0.43661449732E+02  0.43661449806E+02  0.25500000000E-02 0. -1.
    5000001    1    1    2    0    0  0.50042461202E+02 -0.16212507167E+03  0.70363832056E+03  0.74237502177E+03  0.16500000000E+03 0.  0.
   -5000001    1    1    2    0    0 -0.50042461202E+02  0.16212507167E+03  0.55214412696E+03  0.60073032529E+03  0.16500000000E+03 0.  0.
<mgrwt>
<rscale>  0 0.47638474E+03</rscale>
<asrwt>0</asrwt>
<pdfrwt beam="1">  1        2 0.18563483E+00 0.47638474E+03</pdfrwt>
<pdfrwt beam="2">  1       -2 0.62373504E-02 0.47638474E+03</pdfrwt>
<totfact> 0.27646389E+03</totfact>
</mgrwt>
</event>
<event>
 4    1  0.5280257E-005  0.7548704E+03  0.7818608E-02  0.9627740E-01
          2   -1    0    0  501    0  0.00000000000E+00  0.00000000000E+00  0.43836121077E+04  0.43836121077E+04  0.25500000000E-02 0.  1.
         -2   -1    0    0    0  501 -0.00000000000E+00 -0.00000000000E+00 -0.32497707082E+02  0.32497707182E+02  0.25500000000E-02 0. -1.
    5000001    1    1    2    0    0 -0.19574120470E+02 -0.31029347073E+03  0.13784069817E+04  0.14226369851E+04  0.16500000000E+03 0.  0.
   -5000001    1    1    2    0    0  0.19574120470E+02  0.31029347073E+03  0.29727074190E+04  0.29934728298E+04  0.16500000000E+03 0.  0.
<mgrwt>
<rscale>  0 0.75487043E+03</rscale>
<asrwt>0</asrwt>
<pdfrwt beam="1">  1        2 0.62623046E+00 0.75487043E+03</pdfrwt>
<pdfrwt beam="2">  1       -2 0.46425284E-02 0.75487043E+03</pdfrwt>
<totfact> 0.76684600E+01</totfact>
</mgrwt>
</event>
<event>
 4    1  0.5280257E-005  0.3591188E+03  0.7818608E-02  0.1058933E+00
         -2   -1    0    0    0  501 -0.00000000000E+00  0.00000000000E+00  0.33016912518E+03  0.33016912519E+03  0.25500000000E-02 0. -1.
          2   -1    0    0  501    0  0.00000000000E+00 -0.00000000000E+00 -0.97651693265E+02  0.97651693298E+02  0.25500000000E-02 0.  1.
    5000001    1    1    2    0    0  0.42556671863E+02 -0.21140791717E+01  0.48857306698E+02  0.17727824477E+03  0.16500000000E+03 0.  0.
   -5000001    1    1    2    0    0 -0.42556671863E+02  0.21140791717E+01  0.18366012522E+03  0.25054257372E+03  0.16500000000E+03 0.  0.
<mgrwt>
<rscale>  0 0.35911878E+03</rscale>
<asrwt>0</asrwt>
<pdfrwt beam="1">  1        2 0.13950242E-01 0.35911878E+03</pdfrwt>
<pdfrwt beam="2">  1       -2 0.47167018E-01 0.35911878E+03</pdfrwt>
<totfact> 0.18465786E+03</totfact>
</mgrwt>
</event>
<event>
 4    1  0.5280257E-005  0.5837570E+03  0.7818608E-02  0.9939690E-01
          2   -1    0    0  501    0  0.00000000000E+00  0.00000000000E+00  0.37268219857E+03  0.37268219858E+03  0.25500000000E-02 0.  1.
         -2   -1    0    0    0  501 -0.00000000000E+00 -0.00000000000E+00 -0.22859439913E+03  0.22859439915E+03  0.25500000000E-02 0. -1.
    5000001    1    1    2    0    0  0.66253711322E+02  0.21300639293E+03  0.16535401610E+03  0.32299880547E+03  0.16500000000E+03 0.  0.
   -5000001    1    1    2    0    0 -0.66253711322E+02 -0.21300639293E+03 -0.21266216662E+02  0.27827779226E+03  0.16500000000E+03 0.  0.
<mgrwt>
<rscale>  0 0.58375702E+03</rscale>
<asrwt>0</asrwt>
<pdfrwt beam="1">  1        2 0.53240314E-01 0.58375702E+03</pdfrwt>
<pdfrwt beam="2">  1       -2 0.32656343E-01 0.58375702E+03</pdfrwt>
<totfact> 0.82137058E+02</totfact>
</mgrwt>
</event>
<event>
 4    1  0.5280257E-005  0.5623485E+03  0.7818608E-02  0.9986755E-01
         -2   -1    0    0    0  501 -0.00000000000E+00  0.00000000000E+00  0.37505751550E+02  0.37505751636E+02  0.25500000000E-02 0. -1.
          2   -1    0    0  501    0  0.00000000000E+00 -0.00000000000E+00 -0.21079154010E+04  0.21079154010E+04  0.25500000000E-02 0.  1.
    5000001    1    1    2    0    0  0.10291950478E+03  0.60990500880E+02 -0.29619840937E+03  0.35954243612E+03  0.16500000000E+03 0.  0.
   -5000001    1    1    2    0    0 -0.10291950478E+03 -0.60990500880E+02 -0.17742112401E+04  0.17858787165E+04  0.16500000000E+03 0.  0.
<mgrwt>
<rscale>  0 0.56234847E+03</rscale>
<asrwt>0</asrwt>
<pdfrwt beam="1">  1        2 0.30113070E+00 0.56234847E+03</pdfrwt>
<pdfrwt beam="2">  1       -2 0.53579658E-02 0.56234847E+03</pdfrwt>
<totfact> 0.13504467E+03</totfact>
</mgrwt>
</event>
<event>
 4    1  0.5280257E-005  0.3974080E+03  0.7818608E-02  0.1044681E+00
         -2   -1    0    0    0  501 -0.00000000000E+00  0.00000000000E+00  0.71768947613E+02  0.71768947658E+02  0.25500000000E-02 0. -1.
          2   -1    0    0  501    0  0.00000000000E+00 -0.00000000000E+00 -0.55014426017E+03  0.55014426017E+03  0.25500000000E-02 0.  1.
    5000001    1    1    2    0    0  0.69378227475E+02 -0.18227256028E+02 -0.10720691946E+03  0.20943709053E+03  0.16500000000E+03 0.  0.
   -5000001    1    1    2    0    0 -0.69378227475E+02  0.18227256028E+02 -0.37116839310E+03  0.41247611730E+03  0.16500000000E+03 0.  0.
<mgrwt>
<rscale>  0 0.39740797E+03</rscale>
<asrwt>0</asrwt>
<pdfrwt beam="1">  1        2 0.78592035E-01 0.39740797E+03</pdfrwt>
<pdfrwt beam="2">  1       -2 0.10252707E-01 0.39740797E+03</pdfrwt>
<totfact> 0.39000288E+03</totfact>
</mgrwt>
</event>
<event>
 4    1  0.5280257E-005  0.1027531E+04  0.7818608E-02  0.9278854E-01
          2   -1    0    0  501    0  0.00000000000E+00  0.00000000000E+00  0.70382083942E+03  0.70382083943E+03  0.25500000000E-02 0.  1.
         -2   -1    0    0    0  501 -0.00000000000E+00 -0.00000000000E+00 -0.37503146808E+03  0.37503146808E+03  0.25500000000E-02 0. -1.
    5000001    1    1    2    0    0 -0.35832846620E+03 -0.30679147213E+03  0.39236571035E+02  0.50128315907E+03  0.16500000000E+03 0.  0.
   -5000001    1    1    2    0    0  0.35832846620E+03  0.30679147213E+03  0.28955280031E+03  0.57756914844E+03  0.16500000000E+03 0.  0.
<mgrwt>
<rscale>  0 0.10275309E+04</rscale>
<asrwt>0</asrwt>
<pdfrwt beam="1">  1        2 0.10054583E+00 0.10275309E+04</pdfrwt>
<pdfrwt beam="2">  1       -2 0.53575925E-01 0.10275309E+04</pdfrwt>
<totfact> 0.14633616E+02</totfact>
</mgrwt>
</event>
<event>
 4    1  0.5280257E-005  0.1167823E+04  0.7818608E-02  0.9141497E-01
          2   -1    0    0  501    0  0.00000000000E+00  0.00000000000E+00  0.16285872355E+04  0.16285872355E+04  0.25500000000E-02 0.  1.
         -2   -1    0    0    0  501 -0.00000000000E+00 -0.00000000000E+00 -0.20935469458E+03  0.20935469460E+03  0.25500000000E-02 0. -1.
    5000001    1    1    2    0    0  0.29812887197E+03 -0.38768514909E+03  0.11393202556E+04  0.12507822528E+04  0.16500000000E+03 0.  0.
   -5000001    1    1    2    0    0 -0.29812887197E+03  0.38768514909E+03  0.27991228525E+03  0.58715967722E+03  0.16500000000E+03 0.  0.
<mgrwt>
<rscale>  0 0.11678226E+04</rscale>
<asrwt>0</asrwt>
<pdfrwt beam="1">  1        2 0.23265531E+00 0.11678226E+04</pdfrwt>
<pdfrwt beam="2">  1       -2 0.29907815E-01 0.11678226E+04</pdfrwt>
<totfact> 0.12734525E+02</totfact>
</mgrwt>
</event>
<event>
 4    1  0.5280257E-005  0.4150395E+03  0.7818608E-02  0.1038693E+00
         -2   -1    0    0    0  501 -0.00000000000E+00  0.00000000000E+00  0.31584716869E+03  0.31584716870E+03  0.25500000000E-02 0. -1.
          2   -1    0    0  501    0  0.00000000000E+00 -0.00000000000E+00 -0.13634581908E+03  0.13634581911E+03  0.25500000000E-02 0.  1.
    5000001    1    1    2    0    0  0.83924427972E+02  0.90940271688E+02  0.11473839257E+03  0.23601555321E+03  0.16500000000E+03 0.  0.
   -5000001    1    1    2    0    0 -0.83924427972E+02 -0.90940271688E+02  0.64762957034E+02  0.21617743460E+03  0.16500000000E+03 0.  0.
<mgrwt>
<rscale>  0 0.41503947E+03</rscale>
<asrwt>0</asrwt>
<pdfrwt beam="1">  1        2 0.19477975E-01 0.41503947E+03</pdfrwt>
<pdfrwt beam="2">  1       -2 0.45121023E-01 0.41503947E+03</pdfrwt>
<totfact> 0.13602800E+03</totfact>
</mgrwt>
</event>
<event>
 4    1  0.5280257E-005  0.4123930E+03  0.7818608E-02  0.1039571E+00
         -2   -1    0    0    0  501 -0.00000000000E+00  0.00000000000E+00  0.53157210788E+02  0.53157210849E+02  0.25500000000E-02 0. -1.
          2   -1    0    0  501    0  0.00000000000E+00 -0.00000000000E+00 -0.79983493775E+03  0.79983493776E+03  0.25500000000E-02 0.  1.
    5000001    1    1    2    0    0 -0.23339219253E+02  0.11612812999E+03 -0.29987343558E+03  0.36218716032E+03  0.16500000000E+03 0.  0.
   -5000001    1    1    2    0    0  0.23339219253E+02 -0.11612812999E+03 -0.44680429138E+03  0.49080498829E+03  0.16500000000E+03 0.  0.
<mgrwt>
<rscale>  0 0.41239299E+03</rscale>
<asrwt>0</asrwt>
<pdfrwt beam="1">  1        2 0.11426213E+00 0.41239299E+03</pdfrwt>
<pdfrwt beam="2">  1       -2 0.75938877E-02 0.41239299E+03</pdfrwt>
<totfact> 0.40266859E+03</totfact>
</mgrwt>
</event>
<event>
 4    1  0.5280257E-005  0.7704297E+03  0.7818608E-02  0.9603834E-01
         -2   -1    0    0    0  501 -0.00000000000E+00  0.00000000000E+00  0.29423588196E+03  0.29423588197E+03  0.25500000000E-02 0. -1.
          2   -1    0    0  501    0  0.00000000000E+00 -0.00000000000E+00 -0.50432487676E+03  0.50432487677E+03  0.25500000000E-02 0.  1.
    5000001    1    1    2    0    0 -0.34416196922E+03  0.35373742826E+02 -0.14474055760E+03  0.40972379935E+03  0.16500000000E+03 0.  0.
   -5000001    1    1    2    0    0  0.34416196922E+03 -0.35373742826E+02 -0.65348437198E+02  0.38883695939E+03  0.16500000000E+03 0.  0.
<mgrwt>
<rscale>  0 0.77042969E+03</rscale>
<asrwt>0</asrwt>
<pdfrwt beam="1">  1        2 0.72046410E-01 0.77042969E+03</pdfrwt>
<pdfrwt beam="2">  1       -2 0.42033698E-01 0.77042969E+03</pdfrwt>
<totfact> 0.35870139E+02</totfact>
</mgrwt>
</event>
<event>
 4    1  0.5280257E-005  0.5134875E+03  0.7818608E-02  0.1010317E+00
          2   -1    0    0  501    0  0.00000000000E+00  0.00000000000E+00  0.76642776236E+03  0.76642776237E+03  0.25500000000E-02 0.  1.
         -2   -1    0    0    0  501 -0.00000000000E+00 -0.00000000000E+00 -0.86005966948E+02  0.86005966986E+02  0.25500000000E-02 0. -1.
    5000001    1    1    2    0    0  0.15606336790E+03 -0.11752731030E+03  0.30221277725E+03  0.39588635516E+03  0.16500000000E+03 0.  0.
   -5000001    1    1    2    0    0 -0.15606336790E+03  0.11752731030E+03  0.37820901816E+03  0.45654737419E+03  0.16500000000E+03 0.  0.
<mgrwt>
<rscale>  0 0.51348753E+03</rscale>
<asrwt>0</asrwt>
<pdfrwt beam="1">  1        2 0.10948968E+00 0.51348753E+03</pdfrwt>
<pdfrwt beam="2">  1       -2 0.12286566E-01 0.51348753E+03</pdfrwt>
<totfact> 0.19635133E+03</totfact>
</mgrwt>
</event>
<event>
 4    1  0.5280257E-005  0.6050270E+03  0.7818608E-02  0.9895031E-01
          2   -1    0    0  501    0  0.00000000000E+00  0.00000000000E+00  0.22120365643E+04  0.22120365643E+04  0.25500000000E-02 0.  1.
         -2   -1    0    0    0  501 -0.00000000000E+00 -0.00000000000E+00 -0.41371112498E+02  0.41371112576E+02  0.25500000000E-02 0. -1.
    5000001    1    1    2    0    0 -0.13734670734E+03  0.17196174477E+03  0.15542979810E+04  0.15784492939E+04  0.16500000000E+03 0.  0.
   -5000001    1    1    2    0    0  0.13734670734E+03 -0.17196174477E+03  0.61636747075E+03  0.67495838293E+03  0.16500000000E+03 0.  0.
<mgrwt>
<rscale>  0 0.60502699E+03</rscale>
<asrwt>0</asrwt>
<pdfrwt beam="1">  1        2 0.31600522E+00 0.60502699E+03</pdfrwt>
<pdfrwt beam="2">  1       -2 0.59101590E-02 0.60502699E+03</pdfrwt>
<totfact> 0.10247058E+03</totfact>
</mgrwt>
</event>
<event>
 4    1  0.5280257E-005  0.4355352E+03  0.7818608E-02  0.1032126E+00
         -2   -1    0    0    0  501 -0.00000000000E+00  0.00000000000E+00  0.33002143054E+02  0.33002143153E+02  0.25500000000E-02 0. -1.
          2   -1    0    0  501    0  0.00000000000E+00 -0.00000000000E+00 -0.14369587285E+04  0.14369587285E+04  0.25500000000E-02 0.  1.
    5000001    1    1    2    0    0 -0.12134354220E+03 -0.48397090375E+02 -0.89083693145E+03  0.91535893070E+03  0.16500000000E+03 0.  0.
   -5000001    1    1    2    0    0  0.12134354220E+03  0.48397090375E+02 -0.51311965403E+03  0.55460194098E+03  0.16500000000E+03 0.  0.
<mgrwt>
<rscale>  0 0.43553515E+03</rscale>
<asrwt>0</asrwt>
<pdfrwt beam="1">  1        2 0.20527978E+00 0.43553515E+03</pdfrwt>
<pdfrwt beam="2">  1       -2 0.47145928E-02 0.43553515E+03</pdfrwt>
<totfact> 0.36058639E+03</totfact>
</mgrwt>
</event>
<event>
 4    1  0.5280257E-005  0.1116865E+04  0.7818608E-02  0.9188908E-01
          2   -1    0    0  501    0  0.00000000000E+00  0.00000000000E+00  0.79326093507E+03  0.79326093507E+03  0.25500000000E-02 0.  1.
         -2   -1    0    0    0  501 -0.00000000000E+00 -0.00000000000E+00 -0.39311997670E+03  0.39311997671E+03  0.25500000000E-02 0. -1.
    5000001    1    1    2    0    0  0.74364882700E+02 -0.49357308514E+03 -0.69953127972E-02  0.52570859437E+03  0.16500000000E+03 0.  0.
   -5000001    1    1    2    0    0 -0.74364882700E+02  0.49357308514E+03  0.40014795368E+03  0.66067231740E+03  0.16500000000E+03 0.  0.
<mgrwt>
<rscale>  0 0.11168648E+04</rscale>
<asrwt>0</asrwt>
<pdfrwt beam="1">  1        2 0.11332299E+00 0.11168648E+04</pdfrwt>
<pdfrwt beam="2">  1       -2 0.56159997E-01 0.11168648E+04</pdfrwt>
<totfact> 0.11349795E+02</totfact>
</mgrwt>
</event>
<event>
 4    1  0.5280257E-005  0.5112480E+03  0.7818608E-02  0.1010884E+00
          2   -1    0    0  501    0  0.00000000000E+00  0.00000000000E+00  0.42192702100E+04  0.42192702100E+04  0.25500000000E-02 0.  1.
         -2   -1    0    0    0  501 -0.00000000000E+00 -0.00000000000E+00 -0.15486950452E+02  0.15486950662E+02  0.25500000000E-02 0. -1.
    5000001    1    1    2    0    0 -0.11781534848E+03 -0.14819672079E+03  0.17067307624E+04  0.17251080023E+04  0.16500000000E+03 0.  0.
   -5000001    1    1    2    0    0  0.11781534848E+03  0.14819672079E+03  0.24970524971E+04  0.25096491583E+04  0.16500000000E+03 0.  0.
<mgrwt>
<rscale>  0 0.51124800E+03</rscale>
<asrwt>0</asrwt>
<pdfrwt beam="1">  1        2 0.60275312E+00 0.51124800E+03</pdfrwt>
<pdfrwt beam="2">  1       -2 0.22124207E-02 0.51124800E+03</pdfrwt>
<totfact> 0.32519060E+02</totfact>
</mgrwt>
</event>
<event>
 4    1  0.5280257E-005  0.4695127E+03  0.7818608E-02  0.1022058E+00
          2   -1    0    0  501    0  0.00000000000E+00  0.00000000000E+00  0.11438549098E+03  0.11438549101E+03  0.25500000000E-02 0. -1.
         -2   -1    0    0    0  501 -0.00000000000E+00 -0.00000000000E+00 -0.48179658692E+03  0.48179658692E+03  0.25500000000E-02 0.  1.
    5000001    1    1    2    0    0  0.10866757028E+03  0.11601291308E+03 -0.24867486633E+03  0.33812989513E+03  0.16500000000E+03 0.  0.
   -5000001    1    1    2    0    0 -0.10866757028E+03 -0.11601291308E+03 -0.11873622960E+03  0.25805218281E+03  0.16500000000E+03 0.  0.
<mgrwt>
<rscale>  0 0.46951268E+03</rscale>
<asrwt>0</asrwt>
<pdfrwt beam="1">  1        2 0.16340785E-01 0.46951268E+03</pdfrwt>
<pdfrwt beam="2">  1       -2 0.68828083E-01 0.46951268E+03</pdfrwt>
<totfact> 0.70114200E+02</totfact>
</mgrwt>
</event>
<event>
 4    1  0.5280257E-005  0.7441937E+03  0.7818608E-02  0.9644504E-01
         -2   -1    0    0    0  501 -0.00000000000E+00  0.00000000000E+00  0.62823756979E+02  0.62823757031E+02  0.25500000000E-02 0. -1.
          2   -1    0    0  501    0  0.00000000000E+00 -0.00000000000E+00 -0.22038807832E+04  0.22038807832E+04  0.25500000000E-02 0.  1.
    5000001    1    1    2    0    0 -0.24537310979E+03 -0.14432023537E+03 -0.15997955346E+04  0.16332810676E+04  0.16500000000E+03 0.  0.
   -5000001    1    1    2    0    0  0.24537310979E+03  0.14432023537E+03 -0.54126149166E+03  0.63342347265E+03  0.16500000000E+03 0.  0.
<mgrwt>
<rscale>  0 0.74419371E+03</rscale>
<asrwt>0</asrwt>
<pdfrwt beam="1">  1        2 0.31484006E+00 0.74419371E+03</pdfrwt>
<pdfrwt beam="2">  1       -2 0.89748238E-02 0.74419371E+03</pdfrwt>
<totfact> 0.52788431E+02</totfact>
</mgrwt>
</event>
<event>
 4    1  0.5280257E-005  0.6082200E+03  0.7818608E-02  0.9888497E-01
          2   -1    0    0  501    0  0.00000000000E+00  0.00000000000E+00  0.13836693326E+04  0.13836693326E+04  0.25500000000E-02 0.  1.
         -2   -1    0    0    0  501 -0.00000000000E+00 -0.00000000000E+00 -0.66838877564E+02  0.66838877612E+02  0.25500000000E-02 0. -1.
    5000001    1    1    2    0    0  0.95725724875E+02  0.23649845486E+03  0.68886018808E+03  0.75289328081E+03  0.16500000000E+03 0.  0.
   -5000001    1    1    2    0    0 -0.95725724875E+02 -0.23649845486E+03  0.62797026693E+03  0.69761492938E+03  0.16500000000E+03 0.  0.
<mgrwt>
<rscale>  0 0.60822004E+03</rscale>
<asrwt>0</asrwt>
<pdfrwt beam="1">  1        2 0.19766703E+00 0.60822004E+03</pdfrwt>
<pdfrwt beam="2">  1       -2 0.95484120E-02 0.60822004E+03</pdfrwt>
<totfact> 0.12641288E+03</totfact>
</mgrwt>
</event>
<event>
 4    1  0.5280257E-005  0.6456184E+03  0.7818608E-02  0.9815036E-01
         -2   -1    0    0    0  501 -0.00000000000E+00  0.00000000000E+00  0.27539761478E+04  0.27539761478E+04  0.25500000000E-02 0. -1.
          2   -1    0    0  501    0  0.00000000000E+00 -0.00000000000E+00 -0.37838300948E+02  0.37838301034E+02  0.25500000000E-02 0.  1.
    5000001    1    1    2    0    0 -0.11019306066E+03  0.22721935902E+03  0.86106937792E+03  0.91237964758E+03  0.16500000000E+03 0.  0.
   -5000001    1    1    2    0    0  0.11019306066E+03 -0.22721935902E+03  0.18550684689E+04  0.18794348013E+04  0.16500000000E+03 0.  0.
<mgrwt>
<rscale>  0 0.64561840E+03</rscale>
<asrwt>0</asrwt>
<pdfrwt beam="1">  1        2 0.54054708E-02 0.64561840E+03</pdfrwt>
<pdfrwt beam="2">  1       -2 0.39342522E+00 0.64561840E+03</pdfrwt>
<totfact> 0.13166071E+01</totfact>
</mgrwt>
</event>
<event>
 4    1  0.5280257E-005  0.4995351E+03  0.7818608E-02  0.1013900E+00
         -2   -1    0    0    0  501 -0.00000000000E+00  0.00000000000E+00  0.10384039993E+03  0.10384039996E+03  0.25500000000E-02 0. -1.
          2   -1    0    0  501    0  0.00000000000E+00 -0.00000000000E+00 -0.60076634397E+03  0.60076634397E+03  0.25500000000E-02 0.  1.
    5000001    1    1    2    0    0  0.14134595178E+03 -0.89419221241E+02 -0.36801978575E+03  0.43662116064E+03  0.16500000000E+03 0.  0.
   -5000001    1    1    2    0    0 -0.14134595178E+03  0.89419221241E+02 -0.12890615828E+03  0.26798558330E+03  0.16500000000E+03 0.  0.
<mgrwt>
<rscale>  0 0.49953505E+03</rscale>
<asrwt>0</asrwt>
<pdfrwt beam="1">  1        2 0.85823761E-01 0.49953505E+03</pdfrwt>
<pdfrwt beam="2">  1       -2 0.14834343E-01 0.49953505E+03</pdfrwt>
<totfact> 0.19272502E+03</totfact>
</mgrwt>
</event>
<event>
 4    1  0.5280257E-005  0.8129331E+03  0.7818608E-02  0.9541483E-01
          2   -1    0    0  501    0  0.00000000000E+00  0.00000000000E+00  0.20790390124E+03  0.20790390126E+03  0.25500000000E-02 0.  1.
         -2   -1    0    0    0  501 -0.00000000000E+00 -0.00000000000E+00 -0.79467033417E+03  0.79467033418E+03  0.25500000000E-02 0. -1.
    5000001    1    1    2    0    0 -0.33235344925E+03  0.16565196977E+03 -0.30512676096E+03  0.50816014264E+03  0.16500000000E+03 0.  0.
   -5000001    1    1    2    0    0  0.33235344925E+03 -0.16565196977E+03 -0.28163967198E+03  0.49441409279E+03  0.16500000000E+03 0.  0.
<mgrwt>
<rscale>  0 0.81293312E+03</rscale>
<asrwt>0</asrwt>
<pdfrwt beam="1">  1        2 0.29700558E-01 0.81293312E+03</pdfrwt>
<pdfrwt beam="2">  1       -2 0.11352433E+00 0.81293312E+03</pdfrwt>
<totfact> 0.11028793E+02</totfact>
</mgrwt>
</event>
<event>
 4    1  0.5280257E-005  0.3801903E+03  0.7818608E-02  0.1050863E+00
          2   -1    0    0  501    0  0.00000000000E+00  0.00000000000E+00  0.11192789582E+03  0.11192789585E+03  0.25500000000E-02 0.  1.
         -2   -1    0    0    0  501 -0.00000000000E+00 -0.00000000000E+00 -0.32285221532E+03  0.32285221533E+03  0.25500000000E-02 0. -1.
    5000001    1    1    2    0    0  0.68052591884E+01  0.73535569203E+02 -0.17270437739E+03  0.25001118667E+03  0.16500000000E+03 0.  0.
   -5000001    1    1    2    0    0 -0.68052591884E+01 -0.73535569203E+02 -0.38219942112E+02  0.18476892451E+03  0.16500000000E+03 0.  0.
<mgrwt>
<rscale>  0 0.38019032E+03</rscale>
<asrwt>0</asrwt>
<pdfrwt beam="1">  1        2 0.15989700E-01 0.38019032E+03</pdfrwt>
<pdfrwt beam="2">  1       -2 0.46121745E-01 0.38019032E+03</pdfrwt>
<totfact> 0.16409890E+03</totfact>
</mgrwt>
</event>
<event>
 4    1  0.5280257E-005  0.4932930E+03  0.7818608E-02  0.1015545E+00
         -2   -1    0    0    0  501 -0.00000000000E+00  0.00000000000E+00  0.37786396907E+02  0.37786396993E+02  0.25500000000E-02 0. -1.
          2   -1    0    0  501    0  0.00000000000E+00 -0.00000000000E+00 -0.16099576499E+04  0.16099576499E+04  0.25500000000E-02 0.  1.
    5000001    1    1    2    0    0  0.81018776397E+02  0.62581281600E+02 -0.12940854846E+04  0.13085727722E+04  0.16500000000E+03 0.  0.
   -5000001    1    1    2    0    0 -0.81018776397E+02 -0.62581281600E+02 -0.27808576842E+03  0.33917127463E+03  0.16500000000E+03 0.  0.
<mgrwt>
<rscale>  0 0.49329301E+03</rscale>
<asrwt>0</asrwt>
<pdfrwt beam="1">  1        2 0.22999391E+00 0.49329301E+03</pdfrwt>
<pdfrwt beam="2">  1       -2 0.53980577E-02 0.49329301E+03</pdfrwt>
<totfact> 0.23822185E+03</totfact>
</mgrwt>
</event>
<event>
 4    1  0.5280257E-005  0.4266464E+03  0.7818608E-02  0.1034925E+00
          2   -1    0    0  501    0  0.00000000000E+00  0.00000000000E+00  0.24662940032E+03  0.24662940034E+03  0.25500000000E-02 0.  1.
         -2   -1    0    0    0  501 -0.00000000000E+00 -0.00000000000E+00 -0.18451485263E+03  0.18451485265E+03  0.25500000000E-02 0. -1.
    5000001    1    1    2    0    0 -0.11273900889E+03  0.68903999974E+02  0.20502701750E+01  0.21139311471E+03  0.16500000000E+03 0.  0.
   -5000001    1    1    2    0    0  0.11273900889E+03 -0.68903999974E+02  0.60064277519E+02  0.21975113827E+03  0.16500000000E+03 0.  0.
<mgrwt>
<rscale>  0 0.42664640E+03</rscale>
<asrwt>0</asrwt>
<pdfrwt beam="1">  1        2 0.35232772E-01 0.42664640E+03</pdfrwt>
<pdfrwt beam="2">  1       -2 0.26359265E-01 0.42664640E+03</pdfrwt>
<totfact> 0.19143255E+03</totfact>
</mgrwt>
</event>
<event>
 4    1  0.5280257E-005  0.3861533E+03  0.7818608E-02  0.1048683E+00
         -2   -1    0    0    0  501 -0.00000000000E+00  0.00000000000E+00  0.16218081334E+02  0.16218081534E+02  0.25500000000E-02 0. -1.
          2   -1    0    0  501    0  0.00000000000E+00 -0.00000000000E+00 -0.22985822507E+04  0.22985822507E+04  0.25500000000E-02 0.  1.
    5000001    1    1    2    0    0 -0.12877829887E+01  0.94343379105E+02 -0.93778675871E+03  0.95685491919E+03  0.16500000000E+03 0.  0.
   -5000001    1    1    2    0    0  0.12877829887E+01 -0.94343379105E+02 -0.13445774107E+04  0.13579454131E+04  0.16500000000E+03 0.  0.
<mgrwt>
<rscale>  0 0.38615331E+03</rscale>
<asrwt>0</asrwt>
<pdfrwt beam="1">  1        2 0.32836868E+00 0.38615331E+03</pdfrwt>
<pdfrwt beam="2">  1       -2 0.23168702E-02 0.38615331E+03</pdfrwt>
<totfact> 0.39119544E+03</totfact>
</mgrwt>
</event>
<event>
 4    1  0.5280257E-005  0.7641938E+03  0.7818608E-02  0.9613342E-01
         -2   -1    0    0    0  501 -0.00000000000E+00  0.00000000000E+00  0.72096940468E+02  0.72096940513E+02  0.25500000000E-02 0. -1.
          2   -1    0    0  501    0  0.00000000000E+00 -0.00000000000E+00 -0.20250238700E+04  0.20250238700E+04  0.25500000000E-02 0.  1.
    5000001    1    1    2    0    0  0.34966548370E+01 -0.33835734152E+03 -0.79703409846E+03  0.88146824745E+03  0.16500000000E+03 0.  0.
   -5000001    1    1    2    0    0 -0.34966548370E+01  0.33835734152E+03 -0.11558928311E+04  0.12156525631E+04  0.16500000000E+03 0.  0.
<mgrwt>
<rscale>  0 0.76419376E+03</rscale>
<asrwt>0</asrwt>
<pdfrwt beam="1">  1        2 0.28928909E+00 0.76419376E+03</pdfrwt>
<pdfrwt beam="2">  1       -2 0.10299564E-01 0.76419376E+03</pdfrwt>
<totfact> 0.51939679E+02</totfact>
</mgrwt>
</event>
<event>
 4    1  0.5280257E-005  0.5228871E+03  0.7818608E-02  0.1007972E+00
          2   -1    0    0  501    0  0.00000000000E+00  0.00000000000E+00  0.68158500057E+03  0.68158500057E+03  0.25500000000E-02 0.  1.
         -2   -1    0    0    0  501 -0.00000000000E+00 -0.00000000000E+00 -0.10028498629E+03  0.10028498633E+03  0.25500000000E-02 0. -1.
    5000001    1    1    2    0    0 -0.10982840572E+03  0.11849757565E+03  0.10736948953E+03  0.25467069211E+03  0.16500000000E+03 0.  0.
   -5000001    1    1    2    0    0  0.10982840572E+03 -0.11849757565E+03  0.47393052474E+03  0.52719929478E+03  0.16500000000E+03 0.  0.
<mgrwt>
<rscale>  0 0.52288715E+03</rscale>
<asrwt>0</asrwt>
<pdfrwt beam="1">  1        2 0.97369285E-01 0.52288715E+03</pdfrwt>
<pdfrwt beam="2">  1       -2 0.14326427E-01 0.52288715E+03</pdfrwt>
<totfact> 0.17584929E+03</totfact>
</mgrwt>
</event>
<event>
 4    1  0.5280257E-005  0.4233871E+03  0.7818608E-02  0.1035970E+00
          2   -1    0    0  501    0  0.00000000000E+00  0.00000000000E+00  0.95165370495E+02  0.95165370529E+02  0.25500000000E-02 0. -1.
         -2   -1    0    0    0  501 -0.00000000000E+00 -0.00000000000E+00 -0.47090821152E+03  0.47090821153E+03  0.25500000000E-02 0.  1.
    5000001    1    1    2    0    0 -0.11978791105E+03  0.53362276511E+02 -0.16138379176E+03  0.26545508930E+03  0.16500000000E+03 0.  0.
   -5000001    1    1    2    0    0  0.11978791105E+03 -0.53362276511E+02 -0.21435904926E+03  0.30061849276E+03  0.16500000000E+03 0.  0.
<mgrwt>
<rscale>  0 0.42338708E+03</rscale>
<asrwt>0</asrwt>
<pdfrwt beam="1">  1        2 0.13595053E-01 0.42338708E+03</pdfrwt>
<pdfrwt beam="2">  1       -2 0.67272601E-01 0.42338708E+03</pdfrwt>
<totfact> 0.91862171E+02</totfact>
</mgrwt>
</event>
<event>
 4    1  0.5280257E-005  0.4248655E+03  0.7818608E-02  0.1035494E+00
         -2   -1    0    0    0  501 -0.00000000000E+00  0.00000000000E+00  0.23627747592E+03  0.23627747593E+03  0.25500000000E-02 0. -1.
          2   -1    0    0  501    0  0.00000000000E+00 -0.00000000000E+00 -0.19099440917E+03  0.19099440919E+03  0.25500000000E-02 0.  1.
    5000001    1    1    2    0    0  0.12525269027E+03 -0.46323412964E+02  0.14313209187E+02  0.21275329132E+03  0.16500000000E+03 0.  0.
   -5000001    1    1    2    0    0 -0.12525269027E+03  0.46323412964E+02  0.30969857561E+02  0.21451859380E+03  0.16500000000E+03 0.  0.
<mgrwt>
<rscale>  0 0.42486552E+03</rscale>
<asrwt>0</asrwt>
<pdfrwt beam="1">  1        2 0.27284915E-01 0.42486552E+03</pdfrwt>
<pdfrwt beam="2">  1       -2 0.33753925E-01 0.42486552E+03</pdfrwt>
<totfact> 0.16161716E+03</totfact>
</mgrwt>
</event>
<event>
 4    1  0.5280257E-005  0.5823589E+03  0.7818608E-02  0.9942697E-01
         -2   -1    0    0    0  501 -0.00000000000E+00  0.00000000000E+00  0.76049214536E+02  0.76049214579E+02  0.25500000000E-02 0. -1.
          2   -1    0    0  501    0  0.00000000000E+00 -0.00000000000E+00 -0.11148763068E+04  0.11148763068E+04  0.25500000000E-02 0.  1.
    5000001    1    1    2    0    0  0.15259783185E+03 -0.16406363016E+03 -0.34400172062E+03  0.44245356459E+03  0.16500000000E+03 0.  0.
   -5000001    1    1    2    0    0 -0.15259783185E+03  0.16406363016E+03 -0.69482537162E+03  0.74847195677E+03  0.16500000000E+03 0.  0.
<mgrwt>
<rscale>  0 0.58235888E+03</rscale>
<asrwt>0</asrwt>
<pdfrwt beam="1">  1        2 0.15926803E+00 0.58235888E+03</pdfrwt>
<pdfrwt beam="2">  1       -2 0.10864174E-01 0.58235888E+03</pdfrwt>
<totfact> 0.14444626E+03</totfact>
</mgrwt>
</event>
<event>
 4    1  0.5280257E-005  0.4005752E+03  0.7818608E-02  0.1043581E+00
         -2   -1    0    0    0  501 -0.00000000000E+00  0.00000000000E+00  0.22471526120E+02  0.22471526265E+02  0.25500000000E-02 0. -1.
          2   -1    0    0  501    0  0.00000000000E+00 -0.00000000000E+00 -0.17851538474E+04  0.17851538474E+04  0.25500000000E-02 0.  1.
    5000001    1    1    2    0    0  0.11024334695E+03  0.48529989507E+00 -0.75889312120E+03  0.78440907724E+03  0.16500000000E+03 0.  0.
   -5000001    1    1    2    0    0 -0.11024334695E+03 -0.48529989507E+00 -0.10037892001E+04  0.10232162964E+04  0.16500000000E+03 0.  0.
<mgrwt>
<rscale>  0 0.40057524E+03</rscale>
<asrwt>0</asrwt>
<pdfrwt beam="1">  1        2 0.25502189E+00 0.40057524E+03</pdfrwt>
<pdfrwt beam="2">  1       -2 0.32102192E-02 0.40057524E+03</pdfrwt>
<totfact> 0.43085320E+03</totfact>
</mgrwt>
</event>
<event>
 4    1  0.5280257E-005  0.6302598E+03  0.7818608E-02  0.9844542E-01
         -2   -1    0    0    0  501 -0.00000000000E+00  0.00000000000E+00  0.20096026408E+03  0.20096026410E+03  0.25500000000E-02 0. -1.
          2   -1    0    0  501    0  0.00000000000E+00 -0.00000000000E+00 -0.49416156522E+03  0.49416156523E+03  0.25500000000E-02 0.  1.
    5000001    1    1    2    0    0 -0.12468943120E+03  0.22326815900E+03 -0.23678168997E+03  0.38559913613E+03  0.16500000000E+03 0.  0.
   -5000001    1    1    2    0    0  0.12468943120E+03 -0.22326815900E+03 -0.56419611173E+02  0.30952269320E+03  0.16500000000E+03 0.  0.
<mgrwt>
<rscale>  0 0.63025975E+03</rscale>
<asrwt>0</asrwt>
<pdfrwt beam="1">  1        2 0.70594509E-01 0.63025975E+03</pdfrwt>
<pdfrwt beam="2">  1       -2 0.28708609E-01 0.63025975E+03</pdfrwt>
<totfact> 0.76001157E+02</totfact>
</mgrwt>
</event>
<event>
 4    1  0.5280257E-005  0.4360006E+03  0.7818608E-02  0.1031981E+00
         -2   -1    0    0    0  501 -0.00000000000E+00  0.00000000000E+00  0.17043618770E+03  0.17043618772E+03  0.25500000000E-02 0. -1.
          2   -1    0    0  501    0  0.00000000000E+00 -0.00000000000E+00 -0.27883825693E+03  0.27883825694E+03  0.25500000000E-02 0.  1.
    5000001    1    1    2    0    0  0.83546881154E+02  0.11264930983E+03 -0.28353895179E+02  0.21840075945E+03  0.16500000000E+03 0.  0.
   -5000001    1    1    2    0    0 -0.83546881154E+02 -0.11264930983E+03 -0.80048174051E+02  0.23087368522E+03  0.16500000000E+03 0.  0.
<mgrwt>
<rscale>  0 0.43600059E+03</rscale>
<asrwt>0</asrwt>
<pdfrwt beam="1">  1        2 0.39834037E-01 0.43600059E+03</pdfrwt>
<pdfrwt beam="2">  1       -2 0.24348027E-01 0.43600059E+03</pdfrwt>
<totfact> 0.19281204E+03</totfact>
</mgrwt>
</event>
<event>
 4    1  0.5280257E-005  0.6590791E+03  0.7818608E-02  0.9789890E-01
          2   -1    0    0  501    0  0.00000000000E+00  0.00000000000E+00  0.87152037600E+03  0.87152037600E+03  0.25500000000E-02 0.  1.
         -2   -1    0    0    0  501 -0.00000000000E+00 -0.00000000000E+00 -0.12460560998E+03  0.12460561000E+03  0.25500000000E-02 0. -1.
    5000001    1    1    2    0    0  0.15166520074E+03  0.23766927526E+03  0.30788479235E+03  0.44889538077E+03  0.16500000000E+03 0.  0.
   -5000001    1    1    2    0    0 -0.15166520074E+03 -0.23766927526E+03  0.43902997367E+03  0.54723060523E+03  0.16500000000E+03 0.  0.
<mgrwt>
<rscale>  0 0.65907914E+03</rscale>
<asrwt>0</asrwt>
<pdfrwt beam="1">  1        2 0.12450292E+00 0.65907914E+03</pdfrwt>
<pdfrwt beam="2">  1       -2 0.17800801E-01 0.65907914E+03</pdfrwt>
<totfact> 0.89082030E+02</totfact>
</mgrwt>
</event>
<event>
 4    1  0.5280257E-005  0.5546904E+03  0.7818608E-02  0.1000414E+00
          2   -1    0    0  501    0  0.00000000000E+00  0.00000000000E+00  0.65501998767E+03  0.65501998768E+03  0.25500000000E-02 0.  1.
         -2   -1    0    0    0  501 -0.00000000000E+00 -0.00000000000E+00 -0.11743207882E+03  0.11743207885E+03  0.25500000000E-02 0. -1.
    5000001    1    1    2    0    0  0.17470177910E+03 -0.13821242068E+03  0.28060827252E+03  0.39444820631E+03  0.16500000000E+03 0.  0.
   -5000001    1    1    2    0    0 -0.17470177910E+03  0.13821242068E+03  0.25697963633E+03  0.37800386022E+03  0.16500000000E+03 0.  0.
<mgrwt>
<rscale>  0 0.55469040E+03</rscale>
<asrwt>0</asrwt>
<pdfrwt beam="1">  1        2 0.93574284E-01 0.55469040E+03</pdfrwt>
<pdfrwt beam="2">  1       -2 0.16776011E-01 0.55469040E+03</pdfrwt>
<totfact> 0.14136161E+03</totfact>
</mgrwt>
</event>
<event>
 4    1  0.5280257E-005  0.5511918E+03  0.7818608E-02  0.1001218E+00
         -2   -1    0    0    0  501 -0.00000000000E+00  0.00000000000E+00  0.16400371727E+03  0.16400371729E+03  0.25500000000E-02 0. -1.
          2   -1    0    0  501    0  0.00000000000E+00 -0.00000000000E+00 -0.46311820840E+03  0.46311820841E+03  0.25500000000E-02 0.  1.
    5000001    1    1    2    0    0 -0.35342109762E+02  0.12762174834E+03 -0.35049843239E+03  0.40940264591E+03  0.16500000000E+03 0.  0.
   -5000001    1    1    2    0    0  0.35342109762E+02 -0.12762174834E+03  0.51383941259E+02  0.21771927979E+03  0.16500000000E+03 0.  0.
<mgrwt>
<rscale>  0 0.55119183E+03</rscale>
<asrwt>0</asrwt>
<pdfrwt beam="1">  1        2 0.66159744E-01 0.55119183E+03</pdfrwt>
<pdfrwt beam="2">  1       -2 0.23429103E-01 0.55119183E+03</pdfrwt>
<totfact> 0.11812846E+03</totfact>
</mgrwt>
</event>
<event>
 4    1  0.5280257E-005  0.4670576E+03  0.7818608E-02  0.1022754E+00
          2   -1    0    0  501    0  0.00000000000E+00  0.00000000000E+00  0.17594537337E+04  0.17594537337E+04  0.25500000000E-02 0.  1.
         -2   -1    0    0    0  501 -0.00000000000E+00 -0.00000000000E+00 -0.30995817601E+02  0.30995817706E+02  0.25500000000E-02 0. -1.
    5000001    1    1    2    0    0 -0.13172681259E+03 -0.64242921500E+01  0.48246727353E+03  0.52668101799E+03  0.16500000000E+03 0.  0.
   -5000001    1    1    2    0    0  0.13172681259E+03  0.64242921500E+01  0.12459906426E+04  0.12637685334E+04  0.16500000000E+03 0.  0.
<mgrwt>
<rscale>  0 0.46705763E+03</rscale>
<asrwt>0</asrwt>
<pdfrwt beam="1">  1        2 0.25135060E+00 0.46705763E+03</pdfrwt>
<pdfrwt beam="2">  1       -2 0.44279728E-02 0.46705763E+03</pdfrwt>
<totfact> 0.27186428E+03</totfact>
</mgrwt>
</event>
<event>
 4    1  0.5280257E-005  0.7474915E+03  0.7818608E-02  0.9639294E-01
         -2   -1    0    0    0  501 -0.00000000000E+00  0.00000000000E+00  0.34918532176E+03  0.34918532177E+03  0.25500000000E-02 0. -1.
          2   -1    0    0  501    0  0.00000000000E+00 -0.00000000000E+00 -0.40003362209E+03  0.40003362210E+03  0.25500000000E-02 0.  1.
    5000001    1    1    2    0    0 -0.16963498055E+03 -0.69771852262E+02  0.25596783698E+03  0.35551184448E+03  0.16500000000E+03 0.  0.
   -5000001    1    1    2    0    0  0.16963498055E+03  0.69771852262E+02 -0.30681613731E+03  0.39370709939E+03  0.16500000000E+03 0.  0.
<mgrwt>
<rscale>  0 0.74749146E+03</rscale>
<asrwt>0</asrwt>
<pdfrwt beam="1">  1        2 0.57147660E-01 0.74749146E+03</pdfrwt>
<pdfrwt beam="2">  1       -2 0.49883618E-01 0.74749146E+03</pdfrwt>
<totfact> 0.33124699E+02</totfact>
</mgrwt>
</event>
<event>
 4    1  0.5280257E-005  0.5152586E+03  0.7818608E-02  0.1009871E+00
         -2   -1    0    0    0  501 -0.00000000000E+00  0.00000000000E+00  0.12275063279E+03  0.12275063282E+03  0.25500000000E-02 0. -1.
          2   -1    0    0  501    0  0.00000000000E+00 -0.00000000000E+00 -0.54071285463E+03  0.54071285463E+03  0.25500000000E-02 0.  1.
    5000001    1    1    2    0    0  0.13619084380E+03 -0.12335096600E+03 -0.11449629573E+03  0.27220912638E+03  0.16500000000E+03 0.  0.
   -5000001    1    1    2    0    0 -0.13619084380E+03  0.12335096600E+03 -0.30346592611E+03  0.39125436107E+03  0.16500000000E+03 0.  0.
<mgrwt>
<rscale>  0 0.51525856E+03</rscale>
<asrwt>0</asrwt>
<pdfrwt beam="1">  1        2 0.77244692E-01 0.51525856E+03</pdfrwt>
<pdfrwt beam="2">  1       -2 0.17535805E-01 0.51525856E+03</pdfrwt>
<totfact> 0.16409097E+03</totfact>
</mgrwt>
</event>
<event>
 4    1  0.5280257E-005  0.4374802E+03  0.7818608E-02  0.1031523E+00
         -2   -1    0    0    0  501 -0.00000000000E+00  0.00000000000E+00  0.17706405642E+03  0.17706405644E+03  0.25500000000E-02 0. -1.
          2   -1    0    0  501    0  0.00000000000E+00 -0.00000000000E+00 -0.27022560194E+03  0.27022560195E+03  0.25500000000E-02 0.  1.
    5000001    1    1    2    0    0 -0.12919841885E+03  0.59002490878E+02 -0.24922883628E+02  0.21913392136E+03  0.16500000000E+03 0.  0.
   -5000001    1    1    2    0    0  0.12919841885E+03 -0.59002490878E+02 -0.68238661889E+02  0.22815573703E+03  0.16500000000E+03 0.  0.
<mgrwt>
<rscale>  0 0.43748025E+03</rscale>
<asrwt>0</asrwt>
<pdfrwt beam="1">  1        2 0.38603657E-01 0.43748025E+03</pdfrwt>
<pdfrwt beam="2">  1       -2 0.25294865E-01 0.43748025E+03</pdfrwt>
<totfact> 0.18645508E+03</totfact>
</mgrwt>
</event>
<event>
 4    1  0.5280257E-005  0.4799965E+03  0.7818608E-02  0.1019136E+00
          2   -1    0    0  501    0  0.00000000000E+00  0.00000000000E+00  0.63682211836E+03  0.63682211837E+03  0.25500000000E-02 0.  1.
         -2   -1    0    0    0  501 -0.00000000000E+00 -0.00000000000E+00 -0.90447802313E+02  0.90447802349E+02  0.25500000000E-02 0. -1.
    5000001    1    1    2    0    0  0.13767496471E+02  0.17130041998E+03  0.22925327657E+03  0.33062885939E+03  0.16500000000E+03 0.  0.
   -5000001    1    1    2    0    0 -0.13767496471E+02 -0.17130041998E+03  0.31712103948E+03  0.39664106132E+03  0.16500000000E+03 0.  0.
<mgrwt>
<rscale>  0 0.47999650E+03</rscale>
<asrwt>0</asrwt>
<pdfrwt beam="1">  1        2 0.90974586E-01 0.47999650E+03</pdfrwt>
<pdfrwt beam="2">  1       -2 0.12921115E-01 0.47999650E+03</pdfrwt>
<totfact> 0.22633237E+03</totfact>
</mgrwt>
</event>
<event>
 4    1  0.5280257E-005  0.6658621E+03  0.7818608E-02  0.9777462E-01
          2   -1    0    0  501    0  0.00000000000E+00  0.00000000000E+00  0.17779789156E+04  0.17779789156E+04  0.25500000000E-02 0.  1.
         -2   -1    0    0    0  501 -0.00000000000E+00 -0.00000000000E+00 -0.62342190159E+02  0.62342190212E+02  0.25500000000E-02 0. -1.
    5000001    1    1    2    0    0 -0.27035016476E+03  0.80251536929E+02  0.68109438679E+03  0.75540987847E+03  0.16500000000E+03 0.  0.
   -5000001    1    1    2    0    0  0.27035016476E+03 -0.80251536929E+02  0.10345423387E+04  0.10849112274E+04  0.16500000000E+03 0.  0.
<mgrwt>
<rscale>  0 0.66586215E+03</rscale>
<asrwt>0</asrwt>
<pdfrwt beam="1">  1        2 0.25399702E+00 0.66586215E+03</pdfrwt>
<pdfrwt beam="2">  1       -2 0.89060260E-02 0.66586215E+03</pdfrwt>
<totfact> 0.88185563E+02</totfact>
</mgrwt>
</event>
<event>
 4    1  0.5280257E-005  0.5412229E+03  0.7818608E-02  0.1003546E+00
         -2   -1    0    0    0  501 -0.00000000000E+00  0.00000000000E+00  0.12796594839E+03  0.12796594842E+03  0.25500000000E-02 0. -1.
          2   -1    0    0  501    0  0.00000000000E+00 -0.00000000000E+00 -0.57226601494E+03  0.57226601495E+03  0.25500000000E-02 0.  1.
    5000001    1    1    2    0    0 -0.14651659594E+03 -0.29553263261E+02 -0.42118047539E+03  0.47640161745E+03  0.16500000000E+03 0.  0.
   -5000001    1    1    2    0    0  0.14651659594E+03  0.29553263261E+02 -0.23119591156E+02  0.22383034591E+03  0.16500000000E+03 0.  0.
<mgrwt>
<rscale>  0 0.54122292E+03</rscale>
<asrwt>0</asrwt>
<pdfrwt beam="1">  1        2 0.81752286E-01 0.54122292E+03</pdfrwt>
<pdfrwt beam="2">  1       -2 0.18280850E-01 0.54122292E+03</pdfrwt>
<totfact> 0.14312678E+03</totfact>
</mgrwt>
</event>
<event>
 4    1  0.5280257E-005  0.4099824E+03  0.7818608E-02  0.1040377E+00
          2   -1    0    0  501    0  0.00000000000E+00  0.00000000000E+00  0.11609358367E+04  0.11609358368E+04  0.25500000000E-02 0.  1.
         -2   -1    0    0    0  501 -0.00000000000E+00 -0.00000000000E+00 -0.36196136567E+02  0.36196136657E+02  0.25500000000E-02 0. -1.
    5000001    1    1    2    0    0 -0.11132837512E+03 -0.35389980930E+02  0.66138766280E+03  0.69159605144E+03  0.16500000000E+03 0.  0.
   -5000001    1    1    2    0    0  0.11132837512E+03  0.35389980930E+02  0.46335203738E+03  0.50553592197E+03  0.16500000000E+03 0.  0.
<mgrwt>
<rscale>  0 0.40998240E+03</rscale>
<asrwt>0</asrwt>
<pdfrwt beam="1">  1        2 0.16584797E+00 0.40998240E+03</pdfrwt>
<pdfrwt beam="2">  1       -2 0.51708768E-02 0.40998240E+03</pdfrwt>
<totfact> 0.44023878E+03</totfact>
</mgrwt>
</event>
<event>
 4    1  0.5280257E-005  0.5898167E+03  0.7818608E-02  0.9926761E-01
         -2   -1    0    0    0  501 -0.00000000000E+00  0.00000000000E+00  0.60807632155E+03  0.60807632155E+03  0.25500000000E-02 0. -1.
          2   -1    0    0  501    0  0.00000000000E+00 -0.00000000000E+00 -0.14302632482E+03  0.14302632484E+03  0.25500000000E-02 0.  1.
    5000001    1    1    2    0    0  0.15095311181E+03 -0.18403665602E+03  0.16174140611E+03  0.33172521034E+03  0.16500000000E+03 0.  0.
   -5000001    1    1    2    0    0 -0.15095311181E+03  0.18403665602E+03  0.30330859062E+03  0.41937743605E+03  0.16500000000E+03 0.  0.
<mgrwt>
<rscale>  0 0.58981665E+03</rscale>
<asrwt>0</asrwt>
<pdfrwt beam="1">  1        2 0.20432332E-01 0.58981665E+03</pdfrwt>
<pdfrwt beam="2">  1       -2 0.86868045E-01 0.58981665E+03</pdfrwt>
<totfact> 0.32108916E+02</totfact>
</mgrwt>
</event>
<event>
 4    1  0.5280257E-005  0.4965390E+03  0.7818608E-02  0.1014686E+00
         -2   -1    0    0    0  501 -0.00000000000E+00  0.00000000000E+00  0.54371277599E+02  0.54371277658E+02  0.25500000000E-02 0. -1.
          2   -1    0    0  501    0  0.00000000000E+00 -0.00000000000E+00 -0.11336454681E+04  0.11336454681E+04  0.25500000000E-02 0.  1.
    5000001    1    1    2    0    0  0.10677803705E+03  0.38292016204E+02 -0.18844748385E+03  0.27496414652E+03  0.16500000000E+03 0.  0.
   -5000001    1    1    2    0    0 -0.10677803705E+03 -0.38292016204E+02 -0.89082670663E+03  0.91305259922E+03  0.16500000000E+03 0.  0.
<mgrwt>
<rscale>  0 0.49653903E+03</rscale>
<asrwt>0</asrwt>
<pdfrwt beam="1">  1        2 0.16194934E+00 0.49653903E+03</pdfrwt>
<pdfrwt beam="2">  1       -2 0.77673261E-02 0.49653903E+03</pdfrwt>
<totfact> 0.24186593E+03</totfact>
</mgrwt>
</event>
<event>
 4    1  0.5280257E-005  0.5790989E+03  0.7818608E-02  0.9949744E-01
         -2   -1    0    0    0  501 -0.00000000000E+00  0.00000000000E+00  0.32058211849E+02  0.32058211951E+02  0.25500000000E-02 0. -1.
          2   -1    0    0  501    0  0.00000000000E+00 -0.00000000000E+00 -0.26152073905E+04  0.26152073905E+04  0.25500000000E-02 0.  1.
    5000001    1    1    2    0    0  0.19151742738E+03  0.11901523503E+03 -0.16388266347E+04  0.16624744479E+04  0.16500000000E+03 0.  0.
   -5000001    1    1    2    0    0 -0.19151742738E+03 -0.11901523503E+03 -0.94432254389E+03  0.98479115454E+03  0.16500000000E+03 0.  0.
<mgrwt>
<rscale>  0 0.57909886E+03</rscale>
<asrwt>0</asrwt>
<pdfrwt beam="1">  1        2 0.37360092E+00 0.57909886E+03</pdfrwt>
<pdfrwt beam="2">  1       -2 0.45797462E-02 0.57909886E+03</pdfrwt>
<totfact> 0.95037853E+02</totfact>
</mgrwt>
</event>
<event>
 4    1  0.5280257E-005  0.6708181E+03  0.7818608E-02  0.9768481E-01
          2   -1    0    0  501    0  0.00000000000E+00  0.00000000000E+00  0.16449028464E+04  0.16449028464E+04  0.25500000000E-02 0.  1.
         -2   -1    0    0    0  501 -0.00000000000E+00 -0.00000000000E+00 -0.68392627684E+02  0.68392627732E+02  0.25500000000E-02 0. -1.
    5000001    1    1    2    0    0  0.21162066224E+03 -0.10477997878E+03  0.34949472741E+03  0.45291689428E+03  0.16500000000E+03 0.  0.
   -5000001    1    1    2    0    0 -0.21162066224E+03  0.10477997878E+03  0.12270154913E+04  0.12603785799E+04  0.16500000000E+03 0.  0.
<mgrwt>
<rscale>  0 0.67081809E+03</rscale>
<asrwt>0</asrwt>
<pdfrwt beam="1">  1        2 0.23498615E+00 0.67081809E+03</pdfrwt>
<pdfrwt beam="2">  1       -2 0.97703742E-02 0.67081809E+03</pdfrwt>
<totfact> 0.88753646E+02</totfact>
</mgrwt>
</event>
<event>
 4    1  0.5280257E-005  0.3833250E+03  0.7818608E-02  0.1049712E+00
         -2   -1    0    0    0  501 -0.00000000000E+00  0.00000000000E+00  0.31711205545E+02  0.31711205647E+02  0.25500000000E-02 0. -1.
          2   -1    0    0  501    0  0.00000000000E+00 -0.00000000000E+00 -0.11584079332E+04  0.11584079332E+04  0.25500000000E-02 0.  1.
    5000001    1    1    2    0    0  0.43412767211E+02 -0.63745545405E+02 -0.37806749163E+03  0.41965246472E+03  0.16500000000E+03 0.  0.
   -5000001    1    1    2    0    0 -0.43412767211E+02  0.63745545405E+02 -0.74862923601E+03  0.77046667412E+03  0.16500000000E+03 0.  0.
<mgrwt>
<rscale>  0 0.38332499E+03</rscale>
<asrwt>0</asrwt>
<pdfrwt beam="1">  1        2 0.16548682E+00 0.38332499E+03</pdfrwt>
<pdfrwt beam="2">  1       -2 0.45301730E-02 0.38332499E+03</pdfrwt>
<totfact> 0.54056704E+03</totfact>
</mgrwt>
</event>
<event>
 4    1  0.5280257E-005  0.4909907E+03  0.7818608E-02  0.1016158E+00
          2   -1    0    0  501    0  0.00000000000E+00  0.00000000000E+00  0.18767167944E+04  0.18767167944E+04  0.25500000000E-02 0.  1.
         -2   -1    0    0    0  501 -0.00000000000E+00 -0.00000000000E+00 -0.32113506779E+02  0.32113506880E+02  0.25500000000E-02 0. -1.
    5000001    1    1    2    0    0  0.17826749190E+03  0.32650090512E+02  0.97695553545E+03  0.10072300856E+04  0.16500000000E+03 0.  0.
   -5000001    1    1    2    0    0 -0.17826749190E+03 -0.32650090512E+02  0.86764775214E+03  0.90160021566E+03  0.16500000000E+03 0.  0.
<mgrwt>
<rscale>  0 0.49099066E+03</rscale>
<asrwt>0</asrwt>
<pdfrwt beam="1">  1        2 0.26810244E+00 0.49099066E+03</pdfrwt>
<pdfrwt beam="2">  1       -2 0.45876432E-02 0.49099066E+03</pdfrwt>
<totfact> 0.22476144E+03</totfact>
</mgrwt>
</event>
<event>
 4    1  0.5280257E-005  0.9267803E+03  0.7818608E-02  0.9392710E-01
          2   -1    0    0  501    0  0.00000000000E+00  0.00000000000E+00  0.65959508487E+03  0.65959508488E+03  0.25500000000E-02 0.  1.
         -2   -1    0    0    0  501 -0.00000000000E+00 -0.00000000000E+00 -0.32554886052E+03  0.32554886053E+03  0.25500000000E-02 0. -1.
    5000001    1    1    2    0    0 -0.38435646649E+03  0.17438848263E+03  0.26988584507E+03  0.52745104566E+03  0.16500000000E+03 0.  0.
   -5000001    1    1    2    0    0  0.38435646649E+03 -0.17438848263E+03  0.64160379282E+02  0.45769289974E+03  0.16500000000E+03 0.  0.
<mgrwt>
<rscale>  0 0.92678029E+03</rscale>
<asrwt>0</asrwt>
<pdfrwt beam="1">  1        2 0.94227868E-01 0.92678029E+03</pdfrwt>
<pdfrwt beam="2">  1       -2 0.46506981E-01 0.92678029E+03</pdfrwt>
<totfact> 0.21248463E+02</totfact>
</mgrwt>
</event>
<event>
 4    1  0.5280257E-005  0.1058935E+04  0.7818608E-02  0.9246168E-01
         -2   -1    0    0    0  501 -0.00000000000E+00  0.00000000000E+00  0.17922810399E+03  0.17922810401E+03  0.25500000000E-02 0. -1.
          2   -1    0    0  501    0  0.00000000000E+00 -0.00000000000E+00 -0.15641279006E+04  0.15641279006E+04  0.25500000000E-02 0.  1.
    5000001    1    1    2    0    0  0.31357911153E+03 -0.49723184762E+02 -0.13349541559E+04  0.13820751979E+04  0.16500000000E+03 0.  0.
   -5000001    1    1    2    0    0 -0.31357911153E+03  0.49723184762E+02 -0.49945640732E+02  0.36128080674E+03  0.16500000000E+03 0.  0.
<mgrwt>
<rscale>  0 0.10589347E+04</rscale>
<asrwt>0</asrwt>
<pdfrwt beam="1">  1        2 0.22344684E+00 0.10589347E+04</pdfrwt>
<pdfrwt beam="2">  1       -2 0.25604016E-01 0.10589347E+04</pdfrwt>
<totfact> 0.18443129E+02</totfact>
</mgrwt>
</event>
<event>
 4    1  0.5280257E-005  0.4760762E+03  0.7818608E-02  0.1020219E+00
         -2   -1    0    0    0  501 -0.00000000000E+00  0.00000000000E+00  0.51747054804E+02  0.51747054867E+02  0.25500000000E-02 0. -1.
          2   -1    0    0  501    0  0.00000000000E+00 -0.00000000000E+00 -0.10949827376E+04  0.10949827376E+04  0.25500000000E-02 0.  1.
    5000001    1    1    2    0    0  0.86108802246E+02 -0.62789749030E+02 -0.84549632493E+03  0.86801285352E+03  0.16500000000E+03 0.  0.
   -5000001    1    1    2    0    0 -0.86108802246E+02  0.62789749030E+02 -0.19773935787E+03  0.27871693895E+03  0.16500000000E+03 0.  0.
<mgrwt>
<rscale>  0 0.47607618E+03</rscale>
<asrwt>0</asrwt>
<pdfrwt beam="1">  1        2 0.15642609E+00 0.47607618E+03</pdfrwt>
<pdfrwt beam="2">  1       -2 0.73924371E-02 0.47607618E+03</pdfrwt>
<totfact> 0.27525044E+03</totfact>
</mgrwt>
</event>
<event>
 4    1  0.5280257E-005  0.5657772E+03  0.7818608E-02  0.9979067E-01
         -2   -1    0    0    0  501 -0.00000000000E+00  0.00000000000E+00  0.15095802165E+03  0.15095802167E+03  0.25500000000E-02 0. -1.
          2   -1    0    0  501    0  0.00000000000E+00 -0.00000000000E+00 -0.53012059616E+03  0.53012059617E+03  0.25500000000E-02 0.  1.
    5000001    1    1    2    0    0  0.13706160286E+02 -0.22713123308E+03 -0.22811207745E+03  0.36198974536E+03  0.16500000000E+03 0.  0.
   -5000001    1    1    2    0    0 -0.13706160286E+02  0.22713123308E+03 -0.15105049707E+03  0.31908887247E+03  0.16500000000E+03 0.  0.
<mgrwt>
<rscale>  0 0.56577719E+03</rscale>
<asrwt>0</asrwt>
<pdfrwt beam="1">  1        2 0.75731513E-01 0.56577719E+03</pdfrwt>
<pdfrwt beam="2">  1       -2 0.21565432E-01 0.56577719E+03</pdfrwt>
<totfact> 0.11731123E+03</totfact>
</mgrwt>
</event>
<event>
 4    1  0.5280257E-005  0.6411638E+03  0.7818608E-02  0.9823502E-01
         -2   -1    0    0    0  501 -0.00000000000E+00  0.00000000000E+00  0.97282757141E+02  0.97282757174E+02  0.25500000000E-02 0. -1.
          2   -1    0    0  501    0  0.00000000000E+00 -0.00000000000E+00 -0.10564335686E+04  0.10564335686E+04  0.25500000000E-02 0.  1.
    5000001    1    1    2    0    0  0.18249372639E+03 -0.11940541510E+03 -0.17855104430E+03  0.32659927855E+03  0.16500000000E+03 0.  0.
   -5000001    1    1    2    0    0 -0.18249372639E+03  0.11940541510E+03 -0.78059976717E+03  0.82711704724E+03  0.16500000000E+03 0.  0.
<mgrwt>
<rscale>  0 0.64116385E+03</rscale>
<asrwt>0</asrwt>
<pdfrwt beam="1">  1        2 0.15091907E+00 0.64116385E+03</pdfrwt>
<pdfrwt beam="2">  1       -2 0.13897537E-01 0.64116385E+03</pdfrwt>
<totfact> 0.10393466E+03</totfact>
</mgrwt>
</event>
<event>
 4    1  0.5280257E-005  0.5609131E+03  0.7818608E-02  0.9989991E-01
         -2   -1    0    0    0  501 -0.00000000000E+00  0.00000000000E+00  0.41852118267E+02  0.41852118345E+02  0.25500000000E-02 0. -1.
          2   -1    0    0  501    0  0.00000000000E+00 -0.00000000000E+00 -0.18793760975E+04  0.18793760975E+04  0.25500000000E-02 0.  1.
    5000001    1    1    2    0    0 -0.15683945655E+03 -0.16292146228E+03 -0.86054876439E+03  0.90493712152E+03  0.16500000000E+03 0.  0.
   -5000001    1    1    2    0    0  0.15683945655E+03  0.16292146228E+03 -0.97697521488E+03  0.10162910944E+04  0.16500000000E+03 0.  0.
<mgrwt>
<rscale>  0 0.56091308E+03</rscale>
<asrwt>0</asrwt>
<pdfrwt beam="1">  1        2 0.26848225E+00 0.56091308E+03</pdfrwt>
<pdfrwt beam="2">  1       -2 0.59788752E-02 0.56091308E+03</pdfrwt>
<totfact> 0.14819633E+03</totfact>
</mgrwt>
</event>
<event>
 4    1  0.5280257E-005  0.4154197E+03  0.7818608E-02  0.1038567E+00
          2   -1    0    0  501    0  0.00000000000E+00  0.00000000000E+00  0.14866022578E+04  0.14866022578E+04  0.25500000000E-02 0.  1.
         -2   -1    0    0    0  501 -0.00000000000E+00 -0.00000000000E+00 -0.29021463876E+02  0.29021463988E+02  0.25500000000E-02 0. -1.
    5000001    1    1    2    0    0  0.56955249404E+02 -0.80944055630E+02  0.44331418725E+03  0.48326836146E+03  0.16500000000E+03 0.  0.
   -5000001    1    1    2    0    0 -0.56955249404E+02  0.80944055630E+02  0.10142666066E+04  0.10323553603E+04  0.16500000000E+03 0.  0.
<mgrwt>
<rscale>  0 0.41541966E+03</rscale>
<asrwt>0</asrwt>
<pdfrwt beam="1">  1        2 0.21237176E+00 0.41541966E+03</pdfrwt>
<pdfrwt beam="2">  1       -2 0.41459233E-02 0.41541966E+03</pdfrwt>
<totfact> 0.41370077E+03</totfact>
</mgrwt>
</event>
<event>
 4    1  0.5280257E-005  0.4257333E+03  0.7818608E-02  0.1035216E+00
          2   -1    0    0  501    0  0.00000000000E+00  0.00000000000E+00  0.34109164475E+03  0.34109164476E+03  0.25500000000E-02 0.  1.
         -2   -1    0    0    0  501 -0.00000000000E+00 -0.00000000000E+00 -0.13284468510E+03  0.13284468512E+03  0.25500000000E-02 0. -1.
    5000001    1    1    2    0    0  0.29301708637E+01 -0.57354238057E+02  0.23950316644E+03  0.29645380965E+03  0.16500000000E+03 0.  0.
   -5000001    1    1    2    0    0 -0.29301708637E+01  0.57354238057E+02 -0.31256206789E+02  0.17748252023E+03  0.16500000000E+03 0.  0.
<mgrwt>
<rscale>  0 0.42573331E+03</rscale>
<asrwt>0</asrwt>
<pdfrwt beam="1">  1        2 0.48727378E-01 0.42573331E+03</pdfrwt>
<pdfrwt beam="2">  1       -2 0.18977812E-01 0.42573331E+03</pdfrwt>
<totfact> 0.23895227E+03</totfact>
</mgrwt>
</event>
<event>
 4    1  0.5280257E-005  0.3971932E+03  0.7818608E-02  0.1044756E+00
         -2   -1    0    0    0  501 -0.00000000000E+00  0.00000000000E+00  0.30313896579E+03  0.30313896580E+03  0.25500000000E-02 0. -1.
          2   -1    0    0  501    0  0.00000000000E+00 -0.00000000000E+00 -0.13010736166E+03  0.13010736168E+03  0.25500000000E-02 0.  1.
    5000001    1    1    2    0    0 -0.19132188697E+02  0.87395897395E+02  0.15728901138E+02  0.18835201580E+03  0.16500000000E+03 0.  0.
   -5000001    1    1    2    0    0  0.19132188697E+02 -0.87395897395E+02  0.15730270299E+03  0.24489431168E+03  0.16500000000E+03 0.  0.
<mgrwt>
<rscale>  0 0.39719321E+03</rscale>
<asrwt>0</asrwt>
<pdfrwt beam="1">  1        2 0.18586766E-01 0.39719321E+03</pdfrwt>
<pdfrwt beam="2">  1       -2 0.43305567E-01 0.39719321E+03</pdfrwt>
<totfact> 0.15564275E+03</totfact>
</mgrwt>
</event>
<event>
 4    1  0.5280257E-005  0.3835066E+03  0.7818608E-02  0.1049645E+00
         -2   -1    0    0    0  501 -0.00000000000E+00  0.00000000000E+00  0.24465255206E+03  0.24465255208E+03  0.25500000000E-02 0. -1.
          2   -1    0    0  501    0  0.00000000000E+00 -0.00000000000E+00 -0.15029201051E+03  0.15029201053E+03  0.25500000000E-02 0.  1.
    5000001    1    1    2    0    0  0.14313320951E+02  0.70293105630E+02  0.11547816741E+03  0.21379008163E+03  0.16500000000E+03 0.  0.
   -5000001    1    1    2    0    0 -0.14313320951E+02 -0.70293105630E+02 -0.21117625851E+02  0.18115448098E+03  0.16500000000E+03 0.  0.
<mgrwt>
<rscale>  0 0.38350658E+03</rscale>
<asrwt>0</asrwt>
<pdfrwt beam="1">  1        2 0.21470287E-01 0.38350658E+03</pdfrwt>
<pdfrwt beam="2">  1       -2 0.34950364E-01 0.38350658E+03</pdfrwt>
<totfact> 0.19846564E+03</totfact>
</mgrwt>
</event>
<event>
 4    1  0.5280257E-005  0.7007128E+03  0.7818608E-02  0.9716014E-01
          2   -1    0    0  501    0  0.00000000000E+00  0.00000000000E+00  0.27122400618E+04  0.27122400618E+04  0.25500000000E-02 0.  1.
         -2   -1    0    0    0  501 -0.00000000000E+00 -0.00000000000E+00 -0.45257649798E+02  0.45257649870E+02  0.25500000000E-02 0. -1.
    5000001    1    1    2    0    0  0.24830716273E+03  0.13366627832E+02  0.20557991103E+04  0.20773468886E+04  0.16500000000E+03 0.  0.
   -5000001    1    1    2    0    0 -0.24830716273E+03 -0.13366627832E+02  0.61118330174E+03  0.68015082308E+03  0.16500000000E+03 0.  0.
<mgrwt>
<rscale>  0 0.70071281E+03</rscale>
<asrwt>0</asrwt>
<pdfrwt beam="1">  1        2 0.38746299E+00 0.70071281E+03</pdfrwt>
<pdfrwt beam="2">  1       -2 0.64653764E-02 0.70071281E+03</pdfrwt>
<totfact> 0.48892147E+02</totfact>
</mgrwt>
</event>
<event>
 4    1  0.5280257E-005  0.3881219E+03  0.7818608E-02  0.1047972E+00
         -2   -1    0    0    0  501 -0.00000000000E+00  0.00000000000E+00  0.26060234824E+02  0.26060234949E+02  0.25500000000E-02 0. -1.
          2   -1    0    0  501    0  0.00000000000E+00 -0.00000000000E+00 -0.14450999935E+04  0.14450999935E+04  0.25500000000E-02 0.  1.
    5000001    1    1    2    0    0 -0.64512061975E+02 -0.93690684614E+01 -0.41141861714E+03  0.44804002513E+03  0.16500000000E+03 0.  0.
   -5000001    1    1    2    0    0  0.64512061975E+02  0.93690684614E+01 -0.10076211415E+04  0.10231202033E+04  0.16500000000E+03 0.  0.
<mgrwt>
<rscale>  0 0.38812186E+03</rscale>
<asrwt>0</asrwt>
<pdfrwt beam="1">  1        2 0.20644281E+00 0.38812186E+03</pdfrwt>
<pdfrwt beam="2">  1       -2 0.37228916E-02 0.38812186E+03</pdfrwt>
<totfact> 0.51168984E+03</totfact>
</mgrwt>
</event>
<event>
 4    1  0.5280257E-005  0.6882914E+03  0.7818608E-02  0.9737468E-01
          2   -1    0    0  501    0  0.00000000000E+00  0.00000000000E+00  0.65921653433E+03  0.65921653434E+03  0.25500000000E-02 0.  1.
         -2   -1    0    0    0  501 -0.00000000000E+00 -0.00000000000E+00 -0.17966213705E+03  0.17966213707E+03  0.25500000000E-02 0. -1.
    5000001    1    1    2    0    0  0.17790433367E+03  0.18795522044E+03  0.42950919985E+03  0.52790176130E+03  0.16500000000E+03 0.  0.
   -5000001    1    1    2    0    0 -0.17790433367E+03 -0.18795522044E+03  0.50045197430E+02  0.31097691010E+03  0.16500000000E+03 0.  0.
<mgrwt>
<rscale>  0 0.68829137E+03</rscale>
<asrwt>0</asrwt>
<pdfrwt beam="1">  1        2 0.94173791E-01 0.68829137E+03</pdfrwt>
<pdfrwt beam="2">  1       -2 0.25666019E-01 0.68829137E+03</pdfrwt>
<totfact> 0.66451544E+02</totfact>
</mgrwt>
</event>
<event>
 4    1  0.5280257E-005  0.4457090E+03  0.7818608E-02  0.1029009E+00
         -2   -1    0    0    0  501 -0.00000000000E+00  0.00000000000E+00  0.14108987135E+02  0.14108987366E+02  0.25500000000E-02 0. -1.
          2   -1    0    0  501    0  0.00000000000E+00 -0.00000000000E+00 -0.35200345922E+04  0.35200345922E+04  0.25500000000E-02 0.  1.
    5000001    1    1    2    0    0 -0.10708201666E+03 -0.23728882513E+02 -0.94396405900E+03  0.96453240632E+03  0.16500000000E+03 0.  0.
   -5000001    1    1    2    0    0  0.10708201666E+03  0.23728882513E+02 -0.25619615460E+04  0.25696111732E+04  0.16500000000E+03 0.  0.
<mgrwt>
<rscale>  0 0.44570898E+03</rscale>
<asrwt>0</asrwt>
<pdfrwt beam="1">  1        2 0.50286152E+00 0.44570898E+03</pdfrwt>
<pdfrwt beam="2">  1       -2 0.20155719E-02 0.44570898E+03</pdfrwt>
<totfact> 0.10636757E+03</totfact>
</mgrwt>
</event>
<event>
 4    1  0.5280257E-005  0.5283078E+03  0.7818608E-02  0.1006643E+00
         -2   -1    0    0    0  501 -0.00000000000E+00  0.00000000000E+00  0.47388213198E+03  0.47388213199E+03  0.25500000000E-02 0.  1.
          2   -1    0    0  501    0  0.00000000000E+00 -0.00000000000E+00 -0.14724606217E+03  0.14724606219E+03  0.25500000000E-02 0. -1.
    5000001    1    1    2    0    0  0.11584814755E+03 -0.16902394686E+03  0.13543673483E+03  0.29590200581E+03  0.16500000000E+03 0.  0.
   -5000001    1    1    2    0    0 -0.11584814755E+03  0.16902394686E+03  0.19119933499E+03  0.32522618837E+03  0.16500000000E+03 0.  0.
<mgrwt>
<rscale>  0 0.52830778E+03</rscale>
<asrwt>0</asrwt>
<pdfrwt beam="1">  1        2 0.21035152E-01 0.52830778E+03</pdfrwt>
<pdfrwt beam="2">  1       -2 0.67697448E-01 0.52830778E+03</pdfrwt>
<totfact> 0.53974341E+02</totfact>
</mgrwt>
</event>
<event>
 4    1  0.5280257E-005  0.7273188E+03  0.7818608E-02  0.9671621E-01
          2   -1    0    0  501    0  0.00000000000E+00  0.00000000000E+00  0.63106686501E+03  0.63106686501E+03  0.25500000000E-02 0.  1.
         -2   -1    0    0    0  501 -0.00000000000E+00 -0.00000000000E+00 -0.20956283689E+03  0.20956283691E+03  0.25500000000E-02 0. -1.
    5000001    1    1    2    0    0 -0.19375980089E+03 -0.24388804666E+03  0.10738174100E+03  0.36848348409E+03  0.16500000000E+03 0.  0.
   -5000001    1    1    2    0    0  0.19375980089E+03  0.24388804666E+03  0.31412228712E+03  0.47214621783E+03  0.16500000000E+03 0.  0.
<mgrwt>
<rscale>  0 0.72731881E+03</rscale>
<asrwt>0</asrwt>
<pdfrwt beam="1">  1        2 0.90152407E-01 0.72731881E+03</pdfrwt>
<pdfrwt beam="2">  1       -2 0.29937549E-01 0.72731881E+03</pdfrwt>
<totfact> 0.52787287E+02</totfact>
</mgrwt>
</event>
<event>
 4    1  0.5280257E-005  0.5488909E+03  0.7818608E-02  0.1001751E+00
          2   -1    0    0  501    0  0.00000000000E+00  0.00000000000E+00  0.91781609518E+03  0.91781609519E+03  0.25500000000E-02 0.  1.
         -2   -1    0    0    0  501 -0.00000000000E+00 -0.00000000000E+00 -0.82064702573E+02  0.82064702613E+02  0.25500000000E-02 0. -1.
    5000001    1    1    2    0    0  0.14813552250E+03 -0.13526386572E+03  0.25642817545E+03  0.36499432264E+03  0.16500000000E+03 0.  0.
   -5000001    1    1    2    0    0 -0.14813552250E+03  0.13526386572E+03  0.57932321716E+03  0.63488647516E+03  0.16500000000E+03 0.  0.
<mgrwt>
<rscale>  0 0.54889090E+03</rscale>
<asrwt>0</asrwt>
<pdfrwt beam="1">  1        2 0.13111658E+00 0.54889090E+03</pdfrwt>
<pdfrwt beam="2">  1       -2 0.11723529E-01 0.54889090E+03</pdfrwt>
<totfact> 0.16786787E+03</totfact>
</mgrwt>
</event>
<event>
 4    1  0.5280257E-005  0.6135436E+03  0.7818608E-02  0.9877699E-01
          2   -1    0    0  501    0  0.00000000000E+00  0.00000000000E+00  0.15619141100E+04  0.15619141100E+04  0.25500000000E-02 0.  1.
         -2   -1    0    0    0  501 -0.00000000000E+00 -0.00000000000E+00 -0.60252317863E+02  0.60252317917E+02  0.25500000000E-02 0. -1.
    5000001    1    1    2    0    0  0.33295530846E+01  0.21614564035E+03  0.37548666656E+03  0.46362189393E+03  0.16500000000E+03 0.  0.
   -5000001    1    1    2    0    0 -0.33295530846E+01 -0.21614564035E+03  0.11261751256E+04  0.11585445340E+04  0.16500000000E+03 0.  0.
<mgrwt>
<rscale>  0 0.61354363E+03</rscale>
<asrwt>0</asrwt>
<pdfrwt beam="1">  1        2 0.22313058E+00 0.61354363E+03</pdfrwt>
<pdfrwt beam="2">  1       -2 0.86074742E-02 0.61354363E+03</pdfrwt>
<totfact> 0.12043264E+03</totfact>
</mgrwt>
</event>
<event>
 4    1  0.5280257E-005  0.8194779E+03  0.7818608E-02  0.9532244E-01
         -2   -1    0    0    0  501 -0.00000000000E+00  0.00000000000E+00  0.90682325392E+03  0.90682325392E+03  0.25500000000E-02 0. -1.
          2   -1    0    0  501    0  0.00000000000E+00 -0.00000000000E+00 -0.18513640406E+03  0.18513640408E+03  0.25500000000E-02 0.  1.
    5000001    1    1    2    0    0 -0.24817367873E+03 -0.57096226074E+02 -0.60458559632E+01  0.30349910415E+03  0.16500000000E+03 0.  0.
   -5000001    1    1    2    0    0  0.24817367873E+03  0.57096226074E+02  0.72773270582E+03  0.78846055385E+03  0.16500000000E+03 0.  0.
<mgrwt>
<rscale>  0 0.81947787E+03</rscale>
<asrwt>0</asrwt>
<pdfrwt beam="1">  1        2 0.26448058E-01 0.81947787E+03</pdfrwt>
<pdfrwt beam="2">  1       -2 0.12954618E+00 0.81947787E+03</pdfrwt>
<totfact> 0.90632432E+01</totfact>
</mgrwt>
</event>
<event>
 4    1  0.5280257E-005  0.6662022E+03  0.7818608E-02  0.9776843E-01
         -2   -1    0    0    0  501 -0.00000000000E+00  0.00000000000E+00  0.98665799479E+02  0.98665799512E+02  0.25500000000E-02 0. -1.
          2   -1    0    0  501    0  0.00000000000E+00 -0.00000000000E+00 -0.11245673279E+04  0.11245673279E+04  0.25500000000E-02 0.  1.
    5000001    1    1    2    0    0 -0.13464215195E+03 -0.25538260859E+03 -0.54886333703E+03  0.64173573112E+03  0.16500000000E+03 0.  0.
   -5000001    1    1    2    0    0  0.13464215195E+03  0.25538260859E+03 -0.47703819137E+03  0.58149739628E+03  0.16500000000E+03 0.  0.
<mgrwt>
<rscale>  0 0.66620218E+03</rscale>
<asrwt>0</asrwt>
<pdfrwt beam="1">  1        2 0.16065247E+00 0.66620218E+03</pdfrwt>
<pdfrwt beam="2">  1       -2 0.14095115E-01 0.66620218E+03</pdfrwt>
<totfact> 0.92522005E+02</totfact>
</mgrwt>
</event>
<event>
 4    1  0.5280257E-005  0.6493342E+03  0.7818608E-02  0.9808029E-01
          2   -1    0    0  501    0  0.00000000000E+00  0.00000000000E+00  0.37823726582E+03  0.37823726583E+03  0.25500000000E-02 0.  1.
         -2   -1    0    0    0  501 -0.00000000000E+00 -0.00000000000E+00 -0.27868411694E+03  0.27868411695E+03  0.25500000000E-02 0. -1.
    5000001    1    1    2    0    0  0.78063951320E+02  0.19734418931E+03 -0.13440840331E+03  0.30054837952E+03  0.16500000000E+03 0.  0.
   -5000001    1    1    2    0    0 -0.78063951320E+02 -0.19734418931E+03  0.23396155219E+03  0.35637300326E+03  0.16500000000E+03 0.  0.
<mgrwt>
<rscale>  0 0.64933418E+03</rscale>
<asrwt>0</asrwt>
<pdfrwt beam="1">  1        2 0.54033895E-01 0.64933418E+03</pdfrwt>
<pdfrwt beam="2">  1       -2 0.39812017E-01 0.64933418E+03</pdfrwt>
<totfact> 0.55325035E+02</totfact>
</mgrwt>
</event>
<event>
 4    1  0.5280257E-005  0.4017567E+03  0.7818608E-02  0.1043173E+00
         -2   -1    0    0    0  501 -0.00000000000E+00  0.00000000000E+00  0.28438278231E+02  0.28438278345E+02  0.25500000000E-02 0. -1.
          2   -1    0    0  501    0  0.00000000000E+00 -0.00000000000E+00 -0.14189365449E+04  0.14189365449E+04  0.25500000000E-02 0.  1.
    5000001    1    1    2    0    0 -0.95821194328E+02  0.61086247555E+02 -0.74793624710E+03  0.77430411380E+03  0.16500000000E+03 0.  0.
   -5000001    1    1    2    0    0  0.95821194328E+02 -0.61086247555E+02 -0.64256201957E+03  0.67307070945E+03  0.16500000000E+03 0.  0.
<mgrwt>
<rscale>  0 0.40175670E+03</rscale>
<asrwt>0</asrwt>
<pdfrwt beam="1">  1        2 0.20270518E+00 0.40175670E+03</pdfrwt>
<pdfrwt beam="2">  1       -2 0.40626121E-02 0.40175670E+03</pdfrwt>
<totfact> 0.46248883E+03</totfact>
</mgrwt>
</event>
<event>
 4    1  0.5280257E-005  0.8904928E+03  0.7818608E-02  0.9437545E-01
         -2   -1    0    0    0  501 -0.00000000000E+00  0.00000000000E+00  0.43910512278E+03  0.43910512279E+03  0.25500000000E-02 0. -1.
          2   -1    0    0  501    0  0.00000000000E+00 -0.00000000000E+00 -0.45147355248E+03  0.45147355249E+03  0.25500000000E-02 0.  1.
    5000001    1    1    2    0    0  0.86222230778E+02  0.39920465402E+03  0.58789126403E+02  0.44438698254E+03  0.16500000000E+03 0.  0.
   -5000001    1    1    2    0    0 -0.86222230778E+02 -0.39920465402E+03 -0.71157556100E+02  0.44619169273E+03  0.16500000000E+03 0.  0.
<mgrwt>
<rscale>  0 0.89049278E+03</rscale>
<asrwt>0</asrwt>
<pdfrwt beam="1">  1        2 0.64496221E-01 0.89049278E+03</pdfrwt>
<pdfrwt beam="2">  1       -2 0.62729304E-01 0.89049278E+03</pdfrwt>
<totfact> 0.17847955E+02</totfact>
</mgrwt>
</event>
<event>
 4    1  0.5280257E-005  0.4268646E+03  0.7818608E-02  0.1034855E+00
          2   -1    0    0  501    0  0.00000000000E+00  0.00000000000E+00  0.24924956750E+04  0.24924956750E+04  0.25500000000E-02 0.  1.
         -2   -1    0    0    0  501 -0.00000000000E+00 -0.00000000000E+00 -0.18276198782E+02  0.18276198960E+02  0.25500000000E-02 0. -1.
    5000001    1    1    2    0    0 -0.25479848353E+02 -0.12566646803E+03  0.14926211432E+04  0.15071775479E+04  0.16500000000E+03 0.  0.
   -5000001    1    1    2    0    0  0.25479848353E+02  0.12566646803E+03  0.98159833304E+03  0.10035943261E+04  0.16500000000E+03 0.  0.
<mgrwt>
<rscale>  0 0.42686460E+03</rscale>
<asrwt>0</asrwt>
<pdfrwt beam="1">  1        2 0.35607072E+00 0.42686460E+03</pdfrwt>
<pdfrwt beam="2">  1       -2 0.26108862E-02 0.42686460E+03</pdfrwt>
<totfact> 0.26096788E+03</totfact>
</mgrwt>
</event>
<event>
 4    1  0.5280257E-005  0.4910281E+03  0.7818608E-02  0.1016148E+00
          2   -1    0    0  501    0  0.00000000000E+00  0.00000000000E+00  0.28860401725E+03  0.28860401727E+03  0.25500000000E-02 0.  1.
         -2   -1    0    0    0  501 -0.00000000000E+00 -0.00000000000E+00 -0.20885760753E+03  0.20885760755E+03  0.25500000000E-02 0. -1.
    5000001    1    1    2    0    0 -0.15620549692E+03  0.43598899033E+02 -0.43368558802E+02  0.23538660361E+03  0.16500000000E+03 0.  0.
   -5000001    1    1    2    0    0  0.15620549692E+03 -0.43598899033E+02  0.12311496852E+03  0.26207502121E+03  0.16500000000E+03 0.  0.
<mgrwt>
<rscale>  0 0.49102808E+03</rscale>
<asrwt>0</asrwt>
<pdfrwt beam="1">  1        2 0.41229145E-01 0.49102808E+03</pdfrwt>
<pdfrwt beam="2">  1       -2 0.29836801E-01 0.49102808E+03</pdfrwt>
<totfact> 0.12871555E+03</totfact>
</mgrwt>
</event>
<event>
 4    1  0.5280257E-005  0.4762176E+03  0.7818608E-02  0.1020180E+00
         -2   -1    0    0    0  501 -0.00000000000E+00  0.00000000000E+00  0.54874401759E+02  0.54874401818E+02  0.25500000000E-02 0. -1.
          2   -1    0    0  501    0  0.00000000000E+00 -0.00000000000E+00 -0.10331921617E+04  0.10331921617E+04  0.25500000000E-02 0.  1.
    5000001    1    1    2    0    0 -0.16638259339E+03 -0.18363119323E+02 -0.57617474578E+03  0.62227221472E+03  0.16500000000E+03 0.  0.
   -5000001    1    1    2    0    0  0.16638259339E+03  0.18363119323E+02 -0.40214301414E+03  0.46579434878E+03  0.16500000000E+03 0.  0.
<mgrwt>
<rscale>  0 0.47621760E+03</rscale>
<asrwt>0</asrwt>
<pdfrwt beam="1">  1        2 0.14759887E+00 0.47621760E+03</pdfrwt>
<pdfrwt beam="2">  1       -2 0.78392009E-02 0.47621760E+03</pdfrwt>
<totfact> 0.27268347E+03</totfact>
</mgrwt>
</event>
<event>
 4    1  0.5280257E-005  0.6378540E+03  0.7818608E-02  0.9829841E-01
         -2   -1    0    0    0  501 -0.00000000000E+00  0.00000000000E+00  0.37750317105E+03  0.37750317106E+03  0.25500000000E-02 0. -1.
          2   -1    0    0  501    0  0.00000000000E+00 -0.00000000000E+00 -0.26943996571E+03  0.26943996572E+03  0.25500000000E-02 0.  1.
    5000001    1    1    2    0    0  0.23115633231E+03  0.12427185419E+03 -0.21953881143E+02  0.31077920878E+03  0.16500000000E+03 0.  0.
   -5000001    1    1    2    0    0 -0.23115633231E+03 -0.12427185419E+03  0.13001708649E+03  0.33616392800E+03  0.16500000000E+03 0.  0.
<mgrwt>
<rscale>  0 0.63785403E+03</rscale>
<asrwt>0</asrwt>
<pdfrwt beam="1">  1        2 0.38491424E-01 0.63785403E+03</pdfrwt>
<pdfrwt beam="2">  1       -2 0.53929024E-01 0.63785403E+03</pdfrwt>
<totfact> 0.43913840E+02</totfact>
</mgrwt>
</event>
<event>
 4    1  0.5280257E-005  0.4017794E+03  0.7818608E-02  0.1043165E+00
          2   -1    0    0  501    0  0.00000000000E+00  0.00000000000E+00  0.49690739221E+03  0.49690739222E+03  0.25500000000E-02 0.  1.
         -2   -1    0    0    0  501 -0.00000000000E+00 -0.00000000000E+00 -0.81215675865E+02  0.81215675905E+02  0.25500000000E-02 0. -1.
    5000001    1    1    2    0    0  0.21077817495E+02 -0.10920930882E+03  0.24753262187E+03  0.31759777457E+03  0.16500000000E+03 0.  0.
   -5000001    1    1    2    0    0 -0.21077817495E+02  0.10920930882E+03  0.16815909448E+03  0.26052529356E+03  0.16500000000E+03 0.  0.
<mgrwt>
<rscale>  0 0.40177939E+03</rscale>
<asrwt>0</asrwt>
<pdfrwt beam="1">  1        2 0.70986772E-01 0.40177939E+03</pdfrwt>
<pdfrwt beam="2">  1       -2 0.11602239E-01 0.40177939E+03</pdfrwt>
<totfact> 0.35832994E+03</totfact>
</mgrwt>
</event>
<event>
 4    1  0.5280257E-005  0.5642088E+03  0.7818608E-02  0.9982576E-01
          2   -1    0    0  501    0  0.00000000000E+00  0.00000000000E+00  0.52116275424E+03  0.52116275424E+03  0.25500000000E-02 0.  1.
         -2   -1    0    0    0  501 -0.00000000000E+00 -0.00000000000E+00 -0.15270255731E+03  0.15270255733E+03  0.25500000000E-02 0. -1.
    5000001    1    1    2    0    0 -0.13010357126E+03  0.18219567965E+03  0.12775745385E+03  0.30605419774E+03  0.16500000000E+03 0.  0.
   -5000001    1    1    2    0    0  0.13010357126E+03 -0.18219567965E+03  0.24070274308E+03  0.36781111384E+03  0.16500000000E+03 0.  0.
<mgrwt>
<rscale>  0 0.56420877E+03</rscale>
<asrwt>0</asrwt>
<pdfrwt beam="1">  1        2 0.74451821E-01 0.56420877E+03</pdfrwt>
<pdfrwt beam="2">  1       -2 0.21814651E-01 0.56420877E+03</pdfrwt>
<totfact> 0.11723148E+03</totfact>
</mgrwt>
</event>
<event>
 4    1  0.5280257E-005  0.3528670E+03  0.7818608E-02  0.1061444E+00
          2   -1    0    0  501    0  0.00000000000E+00  0.00000000000E+00  0.16381664037E+03  0.16381664039E+03  0.25500000000E-02 0.  1.
         -2   -1    0    0    0  501 -0.00000000000E+00 -0.00000000000E+00 -0.19002206110E+03  0.19002206112E+03  0.25500000000E-02 0. -1.
    5000001    1    1    2    0    0  0.41490874562E+02  0.46691473028E+02 -0.14586422353E+02  0.17702923499E+03  0.16500000000E+03 0.  0.
   -5000001    1    1    2    0    0 -0.41490874562E+02 -0.46691473028E+02 -0.11618998380E+02  0.17680946651E+03  0.16500000000E+03 0.  0.
<mgrwt>
<rscale>  0 0.35286698E+03</rscale>
<asrwt>0</asrwt>
<pdfrwt beam="1">  1        2 0.23402377E-01 0.35286698E+03</pdfrwt>
<pdfrwt beam="2">  1       -2 0.27146008E-01 0.35286698E+03</pdfrwt>
<totfact> 0.28569401E+03</totfact>
</mgrwt>
</event>
<event>
 4    1  0.5280257E-005  0.5265967E+03  0.7818608E-02  0.1007061E+00
         -2   -1    0    0    0  501 -0.00000000000E+00  0.00000000000E+00  0.74456083572E+02  0.74456083615E+02  0.25500000000E-02 0. -1.
          2   -1    0    0  501    0  0.00000000000E+00 -0.00000000000E+00 -0.93109944252E+03  0.93109944252E+03  0.25500000000E-02 0.  1.
    5000001    1    1    2    0    0 -0.20459440916E+03  0.57265375645E+00 -0.39862745333E+03  0.47748093861E+03  0.16500000000E+03 0.  0.
   -5000001    1    1    2    0    0  0.20459440916E+03 -0.57265375645E+00 -0.45801590562E+03  0.52807458753E+03  0.16500000000E+03 0.  0.
<mgrwt>
<rscale>  0 0.52659669E+03</rscale>
<asrwt>0</asrwt>
<pdfrwt beam="1">  1        2 0.13301420E+00 0.52659669E+03</pdfrwt>
<pdfrwt beam="2">  1       -2 0.10636584E-01 0.52659669E+03</pdfrwt>
<totfact> 0.19301473E+03</totfact>
</mgrwt>
</event>
<event>
 4    1  0.5280257E-005  0.5471895E+03  0.7818608E-02  0.1002147E+00
         -2   -1    0    0    0  501 -0.00000000000E+00  0.00000000000E+00  0.75504030008E+02  0.75504030051E+02  0.25500000000E-02 0. -1.
          2   -1    0    0  501    0  0.00000000000E+00 -0.00000000000E+00 -0.99139176788E+03  0.99139176788E+03  0.25500000000E-02 0.  1.
    5000001    1    1    2    0    0 -0.13007712486E+03  0.16473081201E+03 -0.34140062007E+03  0.43340014100E+03  0.16500000000E+03 0.  0.
   -5000001    1    1    2    0    0  0.13007712486E+03 -0.16473081201E+03 -0.57448711780E+03  0.63349565694E+03  0.16500000000E+03 0.  0.
<mgrwt>
<rscale>  0 0.54718945E+03</rscale>
<asrwt>0</asrwt>
<pdfrwt beam="1">  1        2 0.14162739E+00 0.54718945E+03</pdfrwt>
<pdfrwt beam="2">  1       -2 0.10786291E-01 0.54718945E+03</pdfrwt>
<totfact> 0.17308841E+03</totfact>
</mgrwt>
</event>
<event>
 4    1  0.5280257E-005  0.4483639E+03  0.7818608E-02  0.1028211E+00
         -2   -1    0    0    0  501 -0.00000000000E+00  0.00000000000E+00  0.60278088767E+02  0.60278088820E+02  0.25500000000E-02 0. -1.
          2   -1    0    0  501    0  0.00000000000E+00 -0.00000000000E+00 -0.83376153393E+03  0.83376153394E+03  0.25500000000E-02 0.  1.
    5000001    1    1    2    0    0 -0.10201624229E+02  0.80402992873E+02 -0.13088805877E+03  0.22566656449E+03  0.16500000000E+03 0.  0.
   -5000001    1    1    2    0    0  0.10201624229E+02 -0.80402992873E+02 -0.64259538640E+03  0.66837305827E+03  0.16500000000E+03 0.  0.
<mgrwt>
<rscale>  0 0.44836392E+03</rscale>
<asrwt>0</asrwt>
<pdfrwt beam="1">  1        2 0.11910878E+00 0.44836392E+03</pdfrwt>
<pdfrwt beam="2">  1       -2 0.86111561E-02 0.44836392E+03</pdfrwt>
<totfact> 0.31333187E+03</totfact>
</mgrwt>
</event>
<event>
 4    1  0.5280257E-005  0.3685220E+03  0.7818608E-02  0.1055260E+00
         -2   -1    0    0    0  501 -0.00000000000E+00  0.00000000000E+00  0.13410902436E+03  0.13410902438E+03  0.25500000000E-02 0.  1.
          2   -1    0    0  501    0  0.00000000000E+00 -0.00000000000E+00 -0.25316800283E+03  0.25316800284E+03  0.25500000000E-02 0. -1.
    5000001    1    1    2    0    0 -0.29601584425E+01 -0.66448221698E+02 -0.10996122323E+03  0.20914253350E+03  0.16500000000E+03 0.  0.
   -5000001    1    1    2    0    0  0.29601584425E+01  0.66448221698E+02 -0.90977552406E+01  0.17813449373E+03  0.16500000000E+03 0.  0.
<mgrwt>
<rscale>  0 0.36852199E+03</rscale>
<asrwt>0</asrwt>
<pdfrwt beam="1">  1        2 0.36166857E-01 0.36852199E+03</pdfrwt>
<pdfrwt beam="2">  1       -2 0.19158432E-01 0.36852199E+03</pdfrwt>
<totfact> 0.32468871E+03</totfact>
</mgrwt>
</event>
<event>
 4    1  0.5280257E-005  0.4711351E+03  0.7818608E-02  0.1021600E+00
         -2   -1    0    0    0  501 -0.00000000000E+00  0.00000000000E+00  0.34333575227E+02  0.34333575321E+02  0.25500000000E-02 0. -1.
          2   -1    0    0  501    0  0.00000000000E+00 -0.00000000000E+00 -0.16162622584E+04  0.16162622584E+04  0.25500000000E-02 0.  1.
    5000001    1    1    2    0    0 -0.10325768824E+03 -0.86619568279E+02 -0.11430904166E+04  0.11627750428E+04  0.16500000000E+03 0.  0.
   -5000001    1    1    2    0    0  0.10325768824E+03  0.86619568279E+02 -0.43883826664E+03  0.48782079092E+03  0.16500000000E+03 0.  0.
<mgrwt>
<rscale>  0 0.47113506E+03</rscale>
<asrwt>0</asrwt>
<pdfrwt beam="1">  1        2 0.23089456E+00 0.47113506E+03</pdfrwt>
<pdfrwt beam="2">  1       -2 0.49047975E-02 0.47113506E+03</pdfrwt>
<totfact> 0.27434404E+03</totfact>
</mgrwt>
</event>
<event>
 4    1  0.5280257E-005  0.5779667E+03  0.7818608E-02  0.9952203E-01
         -2   -1    0    0    0  501 -0.00000000000E+00  0.00000000000E+00  0.67691348863E+02  0.67691348911E+02  0.25500000000E-02 0. -1.
          2   -1    0    0  501    0  0.00000000000E+00 -0.00000000000E+00 -0.12337080683E+04  0.12337080683E+04  0.25500000000E-02 0.  1.
    5000001    1    1    2    0    0 -0.19171402331E+03  0.75637037355E+02 -0.31838845254E+03  0.41360782737E+03  0.16500000000E+03 0.  0.
   -5000001    1    1    2    0    0  0.19171402331E+03 -0.75637037355E+02 -0.84762826693E+03  0.88779158987E+03  0.16500000000E+03 0.  0.
<mgrwt>
<rscale>  0 0.57796665E+03</rscale>
<asrwt>0</asrwt>
<pdfrwt beam="1">  1        2 0.17624400E+00 0.57796665E+03</pdfrwt>
<pdfrwt beam="2">  1       -2 0.96701934E-02 0.57796665E+03</pdfrwt>
<totfact> 0.14950884E+03</totfact>
</mgrwt>
</event>
<event>
 4    1  0.5280257E-005  0.3727721E+03  0.7818608E-02  0.1053638E+00
         -2   -1    0    0    0  501 -0.00000000000E+00  0.00000000000E+00  0.77980222700E+02  0.77980222742E+02  0.25500000000E-02 0. -1.
          2   -1    0    0  501    0  0.00000000000E+00 -0.00000000000E+00 -0.44549437736E+03  0.44549437737E+03  0.25500000000E-02 0.  1.
    5000001    1    1    2    0    0 -0.46542721614E+02 -0.67663918211E+02 -0.22272717304E+03  0.28909691173E+03  0.16500000000E+03 0.  0.
   -5000001    1    1    2    0    0  0.46542721614E+02  0.67663918211E+02 -0.14478698162E+03  0.23437768838E+03  0.16500000000E+03 0.  0.
<mgrwt>
<rscale>  0 0.37277205E+03</rscale>
<asrwt>0</asrwt>
<pdfrwt beam="1">  1        2 0.63642053E-01 0.37277205E+03</pdfrwt>
<pdfrwt beam="2">  1       -2 0.11140032E-01 0.37277205E+03</pdfrwt>
<totfact> 0.43150101E+03</totfact>
</mgrwt>
</event>
<event>
 4    1  0.5280257E-005  0.9277990E+03  0.7818608E-02  0.9391483E-01
         -2   -1    0    0    0  501 -0.00000000000E+00  0.00000000000E+00  0.80163401463E+02  0.80163401504E+02  0.25500000000E-02 0. -1.
          2   -1    0    0  501    0  0.00000000000E+00 -0.00000000000E+00 -0.26845511699E+04  0.26845511699E+04  0.25500000000E-02 0.  1.
    5000001    1    1    2    0    0  0.35664632422E+03 -0.22315718578E+03 -0.98991863007E+03  0.10881909871E+04  0.16500000000E+03 0.  0.
   -5000001    1    1    2    0    0 -0.35664632422E+03  0.22315718578E+03 -0.16144691384E+04  0.16765235844E+04  0.16500000000E+03 0.  0.
<mgrwt>
<rscale>  0 0.92779902E+03</rscale>
<asrwt>0</asrwt>
<pdfrwt beam="1">  1        2 0.38350725E+00 0.92779902E+03</pdfrwt>
<pdfrwt beam="2">  1       -2 0.11451916E-01 0.92779902E+03</pdfrwt>
<totfact> 0.19728408E+02</totfact>
</mgrwt>
</event>
<event>
 4    1  0.5280257E-005  0.1276359E+04  0.7818608E-02  0.9048526E-01
         -2   -1    0    0    0  501 -0.00000000000E+00  0.00000000000E+00  0.43957033875E+03  0.43957033876E+03  0.25500000000E-02 0. -1.
          2   -1    0    0  501    0  0.00000000000E+00 -0.00000000000E+00 -0.92652543816E+03  0.92652543817E+03  0.25500000000E-02 0.  1.
    5000001    1    1    2    0    0 -0.34958206500E+03 -0.47244092764E+03 -0.44268131703E+03  0.75405556740E+03  0.16500000000E+03 0.  0.
   -5000001    1    1    2    0    0  0.34958206500E+03  0.47244092764E+03 -0.44273782387E+02  0.61204020953E+03  0.16500000000E+03 0.  0.
<mgrwt>
<rscale>  0 0.12763590E+04</rscale>
<asrwt>0</asrwt>
<pdfrwt beam="1">  1        2 0.13236078E+00 0.12763590E+04</pdfrwt>
<pdfrwt beam="2">  1       -2 0.62795763E-01 0.12763590E+04</pdfrwt>
<totfact> 0.72202960E+01</totfact>
</mgrwt>
</event>
<event>
 4    1  0.5280257E-005  0.8155930E+03  0.7818608E-02  0.9537717E-01
          2   -1    0    0  501    0  0.00000000000E+00  0.00000000000E+00  0.16784542673E+04  0.16784542673E+04  0.25500000000E-02 0.  1.
         -2   -1    0    0    0  501 -0.00000000000E+00 -0.00000000000E+00 -0.99078062135E+02  0.99078062168E+02  0.25500000000E-02 0. -1.
    5000001    1    1    2    0    0 -0.79281247919E+02 -0.36420997996E+03  0.81534353309E+03  0.91156157374E+03  0.16500000000E+03 0.  0.
   -5000001    1    1    2    0    0  0.79281247919E+02  0.36420997996E+03  0.76403267206E+03  0.86597075571E+03  0.16500000000E+03 0.  0.
<mgrwt>
<rscale>  0 0.81559303E+03</rscale>
<asrwt>0</asrwt>
<pdfrwt beam="1">  1        2 0.23977918E+00 0.81559303E+03</pdfrwt>
<pdfrwt beam="2">  1       -2 0.14154009E-01 0.81559303E+03</pdfrwt>
<totfact> 0.45911363E+02</totfact>
</mgrwt>
</event>
<event>
 4    1  0.5280257E-005  0.4402757E+03  0.7818608E-02  0.1030662E+00
          2   -1    0    0  501    0  0.00000000000E+00  0.00000000000E+00  0.58430559331E+03  0.58430559331E+03  0.25500000000E-02 0.  1.
         -2   -1    0    0    0  501 -0.00000000000E+00 -0.00000000000E+00 -0.82937204811E+02  0.82937204850E+02  0.25500000000E-02 0. -1.
    5000001    1    1    2    0    0 -0.83625098020E+02  0.45944453427E+02  0.41760813559E+03  0.45904858646E+03  0.16500000000E+03 0.  0.
   -5000001    1    1    2    0    0  0.83625098020E+02 -0.45944453427E+02  0.83760252907E+02  0.20819421170E+03  0.16500000000E+03 0.  0.
<mgrwt>
<rscale>  0 0.44027570E+03</rscale>
<asrwt>0</asrwt>
<pdfrwt beam="1">  1        2 0.83472232E-01 0.44027570E+03</pdfrwt>
<pdfrwt beam="2">  1       -2 0.11848172E-01 0.44027570E+03</pdfrwt>
<totfact> 0.28834588E+03</totfact>
</mgrwt>
</event>
<event>
 4    1  0.5280257E-005  0.5520218E+03  0.7818608E-02  0.1001027E+00
         -2   -1    0    0    0  501 -0.00000000000E+00  0.00000000000E+00  0.10514335297E+04  0.10514335297E+04  0.25500000000E-02 0. -1.
          2   -1    0    0  501    0  0.00000000000E+00 -0.00000000000E+00 -0.72455369666E+02  0.72455369710E+02  0.25500000000E-02 0.  1.
    5000001    1    1    2    0    0  0.10029631742E+03  0.19307366482E+03  0.57143990783E+03  0.63332879265E+03  0.16500000000E+03 0.  0.
   -5000001    1    1    2    0    0 -0.10029631742E+03 -0.19307366482E+03  0.40753825216E+03  0.49056010672E+03  0.16500000000E+03 0.  0.
<mgrwt>
<rscale>  0 0.55202176E+03</rscale>
<asrwt>0</asrwt>
<pdfrwt beam="1">  1        2 0.10350768E-01 0.55202176E+03</pdfrwt>
<pdfrwt beam="2">  1       -2 0.15020478E+00 0.55202176E+03</pdfrwt>
<totfact> 0.19313985E+02</totfact>
</mgrwt>
</event>
<event>
 4    1  0.5280257E-005  0.6073011E+03  0.7818608E-02  0.9890373E-01
          2   -1    0    0  501    0  0.00000000000E+00  0.00000000000E+00  0.13056522798E+04  0.13056522798E+04  0.25500000000E-02 0.  1.
         -2   -1    0    0    0  501 -0.00000000000E+00 -0.00000000000E+00 -0.70618842461E+02  0.70618842507E+02  0.25500000000E-02 0. -1.
    5000001    1    1    2    0    0 -0.96361815528E+02 -0.15437114999E+03  0.10220372349E+04  0.10511427881E+04  0.16500000000E+03 0.  0.
   -5000001    1    1    2    0    0  0.96361815528E+02  0.15437114999E+03  0.21299620237E+03  0.32512833415E+03  0.16500000000E+03 0.  0.
<mgrwt>
<rscale>  0 0.60730109E+03</rscale>
<asrwt>0</asrwt>
<pdfrwt beam="1">  1        2 0.18652175E+00 0.60730109E+03</pdfrwt>
<pdfrwt beam="2">  1       -2 0.10088406E-01 0.60730109E+03</pdfrwt>
<totfact> 0.12738095E+03</totfact>
</mgrwt>
</event>
<event>
 4    1  0.5280257E-005  0.4732352E+03  0.7818608E-02  0.1021011E+00
         -2   -1    0    0    0  501 -0.00000000000E+00  0.00000000000E+00  0.27408468914E+02  0.27408469033E+02  0.25500000000E-02 0. -1.
          2   -1    0    0  501    0  0.00000000000E+00 -0.00000000000E+00 -0.20427223910E+04  0.20427223910E+04  0.25500000000E-02 0.  1.
    5000001    1    1    2    0    0 -0.43225073734E+02 -0.80995798222E+02 -0.16314405335E+04  0.16423312518E+04  0.16500000000E+03 0.  0.
   -5000001    1    1    2    0    0  0.43225073734E+02  0.80995798222E+02 -0.38387338856E+03  0.42779960819E+03  0.16500000000E+03 0.  0.
<mgrwt>
<rscale>  0 0.47323522E+03</rscale>
<asrwt>0</asrwt>
<pdfrwt beam="1">  1        2 0.29181739E+00 0.47323522E+03</pdfrwt>
<pdfrwt beam="2">  1       -2 0.39154969E-02 0.47323522E+03</pdfrwt>
<totfact> 0.23695023E+03</totfact>
</mgrwt>
</event>
<event>
 4    1  0.5280257E-005  0.6690753E+03  0.7818608E-02  0.9771630E-01
          2   -1    0    0  501    0  0.00000000000E+00  0.00000000000E+00  0.48960876277E+03  0.48960876278E+03  0.25500000000E-02 0.  1.
         -2   -1    0    0    0  501 -0.00000000000E+00 -0.00000000000E+00 -0.22858133516E+03  0.22858133517E+03  0.25500000000E-02 0. -1.
    5000001    1    1    2    0    0  0.21255248785E+03  0.24341665007E+02  0.34227531961E+03  0.43606016920E+03  0.16500000000E+03 0.  0.
   -5000001    1    1    2    0    0 -0.21255248785E+03 -0.24341665007E+02 -0.81247891995E+02  0.28212992876E+03  0.16500000000E+03 0.  0.
<mgrwt>
<rscale>  0 0.66907526E+03</rscale>
<asrwt>0</asrwt>
<pdfrwt beam="1">  1        2 0.69944109E-01 0.66907526E+03</pdfrwt>
<pdfrwt beam="2">  1       -2 0.32654476E-01 0.66907526E+03</pdfrwt>
<totfact> 0.60429363E+02</totfact>
</mgrwt>
</event>
<event>
 4    1  0.5280257E-005  0.4607327E+03  0.7818608E-02  0.1024569E+00
         -2   -1    0    0    0  501 -0.00000000000E+00  0.00000000000E+00  0.44904676908E+02  0.44904676980E+02  0.25500000000E-02 0. -1.
          2   -1    0    0  501    0  0.00000000000E+00 -0.00000000000E+00 -0.11818067857E+04  0.11818067857E+04  0.25500000000E-02 0.  1.
    5000001    1    1    2    0    0 -0.14220619049E+03 -0.21516163063E+02 -0.37722875641E+03  0.43613309958E+03  0.16500000000E+03 0.  0.
   -5000001    1    1    2    0    0  0.14220619049E+03  0.21516163063E+02 -0.75967335240E+03  0.79057836312E+03  0.16500000000E+03 0.  0.
<mgrwt>
<rscale>  0 0.46073269E+03</rscale>
<asrwt>0</asrwt>
<pdfrwt beam="1">  1        2 0.16882952E+00 0.46073269E+03</pdfrwt>
<pdfrwt beam="2">  1       -2 0.64149546E-02 0.46073269E+03</pdfrwt>
<totfact> 0.30697228E+03</totfact>
</mgrwt>
</event>
<event>
 4    1  0.5280257E-005  0.3887005E+03  0.7818608E-02  0.1047764E+00
          2   -1    0    0  501    0  0.00000000000E+00  0.00000000000E+00  0.10597079154E+04  0.10597079154E+04  0.25500000000E-02 0.  1.
         -2   -1    0    0    0  501 -0.00000000000E+00 -0.00000000000E+00 -0.35643798837E+02  0.35643798928E+02  0.25500000000E-02 0. -1.
    5000001    1    1    2    0    0 -0.60521501152E+02 -0.82773278454E+02  0.49590587947E+03  0.53259920111E+03  0.16500000000E+03 0.  0.
   -5000001    1    1    2    0    0  0.60521501152E+02  0.82773278454E+02  0.52815823706E+03  0.56275251319E+03  0.16500000000E+03 0.  0.
<mgrwt>
<rscale>  0 0.38870048E+03</rscale>
<asrwt>0</asrwt>
<pdfrwt beam="1">  1        2 0.15138686E+00 0.38870048E+03</pdfrwt>
<pdfrwt beam="2">  1       -2 0.50919709E-02 0.38870048E+03</pdfrwt>
<totfact> 0.51454528E+03</totfact>
</mgrwt>
</event>
<event>
 4    1  0.5280257E-005  0.5147435E+03  0.7818608E-02  0.1010001E+00
         -2   -1    0    0    0  501 -0.00000000000E+00  0.00000000000E+00  0.33863852156E+03  0.33863852157E+03  0.25500000000E-02 0. -1.
          2   -1    0    0  501    0  0.00000000000E+00 -0.00000000000E+00 -0.19560744332E+03  0.19560744333E+03  0.25500000000E-02 0.  1.
    5000001    1    1    2    0    0  0.19161122689E+03 -0.47938439433E+02  0.69955537425E+02  0.26670533077E+03  0.16500000000E+03 0.  0.
   -5000001    1    1    2    0    0 -0.19161122689E+03  0.47938439433E+02  0.73075540814E+02  0.26754063413E+03  0.16500000000E+03 0.  0.
<mgrwt>
<rscale>  0 0.51474349E+03</rscale>
<asrwt>0</asrwt>
<pdfrwt beam="1">  1        2 0.27943920E-01 0.51474349E+03</pdfrwt>
<pdfrwt beam="2">  1       -2 0.48376932E-01 0.51474349E+03</pdfrwt>
<totfact> 0.78431374E+02</totfact>
</mgrwt>
</event>
<event>
 4    1  0.5280257E-005  0.6682225E+03  0.7818608E-02  0.9773174E-01
         -2   -1    0    0    0  501 -0.00000000000E+00  0.00000000000E+00  0.57641977453E+02  0.57641977509E+02  0.25500000000E-02 0. -1.
          2   -1    0    0  501    0  0.00000000000E+00 -0.00000000000E+00 -0.19366150203E+04  0.19366150203E+04  0.25500000000E-02 0.  1.
    5000001    1    1    2    0    0  0.16201055120E+03 -0.24032783998E+03 -0.99920701118E+03  0.10533966682E+04  0.16500000000E+03 0.  0.
   -5000001    1    1    2    0    0 -0.16201055120E+03  0.24032783998E+03 -0.87976603163E+03  0.94086032958E+03  0.16500000000E+03 0.  0.
<mgrwt>
<rscale>  0 0.66822248E+03</rscale>
<asrwt>0</asrwt>
<pdfrwt beam="1">  1        2 0.27665925E+00 0.66822248E+03</pdfrwt>
<pdfrwt beam="2">  1       -2 0.82345694E-02 0.66822248E+03</pdfrwt>
<totfact> 0.83130865E+02</totfact>
</mgrwt>
</event>
<event>
 4    1  0.5280257E-005  0.7232540E+03  0.7818608E-02  0.9678271E-01
          2   -1    0    0  501    0  0.00000000000E+00  0.00000000000E+00  0.30536390869E+04  0.30536390869E+04  0.25500000000E-02 0.  1.
         -2   -1    0    0    0  501 -0.00000000000E+00 -0.00000000000E+00 -0.42825657570E+02  0.42825657646E+02  0.25500000000E-02 0. -1.
    5000001    1    1    2    0    0 -0.12221095219E+03 -0.29151438756E+03  0.12473561569E+04  0.12973197513E+04  0.16500000000E+03 0.  0.
   -5000001    1    1    2    0    0  0.12221095219E+03  0.29151438756E+03  0.17634572725E+04  0.17991449933E+04  0.16500000000E+03 0.  0.
<mgrwt>
<rscale>  0 0.72325404E+03</rscale>
<asrwt>0</asrwt>
<pdfrwt beam="1">  1        2 0.43623417E+00 0.72325404E+03</pdfrwt>
<pdfrwt beam="2">  1       -2 0.61179509E-02 0.72325404E+03</pdfrwt>
<totfact> 0.34862520E+02</totfact>
</mgrwt>
</event>
<event>
 4    1  0.5280257E-005  0.4737738E+03  0.7818608E-02  0.1020860E+00
         -2   -1    0    0    0  501 -0.00000000000E+00  0.00000000000E+00  0.80758787191E+02  0.80758787232E+02  0.25500000000E-02 0. -1.
          2   -1    0    0  501    0  0.00000000000E+00 -0.00000000000E+00 -0.69485209581E+03  0.69485209582E+03  0.25500000000E-02 0.  1.
    5000001    1    1    2    0    0  0.21323927771E-01  0.16353258880E+03 -0.23118193426E+03  0.32773921764E+03  0.16500000000E+03 0.  0.
   -5000001    1    1    2    0    0 -0.21323927771E-01 -0.16353258880E+03 -0.38291137436E+03  0.44787166540E+03  0.16500000000E+03 0.  0.
<mgrwt>
<rscale>  0 0.47377384E+03</rscale>
<asrwt>0</asrwt>
<pdfrwt beam="1">  1        2 0.99264582E-01 0.47377384E+03</pdfrwt>
<pdfrwt beam="2">  1       -2 0.11536970E-01 0.47377384E+03</pdfrwt>
<totfact> 0.24552298E+03</totfact>
</mgrwt>
</event>
<event>
 4    1  0.5280257E-005  0.5912366E+03  0.7818608E-02  0.9923756E-01
          2   -1    0    0  501    0  0.00000000000E+00  0.00000000000E+00  0.16177817215E+04  0.16177817215E+04  0.25500000000E-02 0.  1.
         -2   -1    0    0    0  501 -0.00000000000E+00 -0.00000000000E+00 -0.54018530857E+02  0.54018530917E+02  0.25500000000E-02 0. -1.
    5000001    1    1    2    0    0  0.94740429794E+02  0.21665062312E+03  0.96626300758E+03  0.10083662238E+04  0.16500000000E+03 0.  0.
   -5000001    1    1    2    0    0 -0.94740429794E+02 -0.21665062312E+03  0.59750018306E+03  0.66343402859E+03  0.16500000000E+03 0.  0.
<mgrwt>
<rscale>  0 0.59123664E+03</rscale>
<asrwt>0</asrwt>
<pdfrwt beam="1">  1        2 0.23111171E+00 0.59123664E+03</pdfrwt>
<pdfrwt beam="2">  1       -2 0.77169318E-02 0.59123664E+03</pdfrwt>
<totfact> 0.13429981E+03</totfact>
</mgrwt>
</event>
<event>
 4    1  0.5280257E-005  0.1560081E+04  0.7818608E-02  0.8845454E-01
          2   -1    0    0  501    0  0.00000000000E+00  0.00000000000E+00  0.13661799465E+04  0.13661799465E+04  0.25500000000E-02 0.  1.
         -2   -1    0    0    0  501 -0.00000000000E+00 -0.00000000000E+00 -0.44537536136E+03  0.44537536137E+03  0.25500000000E-02 0. -1.
    5000001    1    1    2    0    0 -0.42012555035E+03  0.46533286229E+03  0.96414845790E+03  0.11618293333E+04  0.16500000000E+03 0.  0.
   -5000001    1    1    2    0    0  0.42012555035E+03 -0.46533286229E+03 -0.43343872747E+02  0.64972597461E+03  0.16500000000E+03 0.  0.
<mgrwt>
<rscale>  0 0.15600806E+04</rscale>
<asrwt>0</asrwt>
<pdfrwt beam="1">  1        2 0.19516856E+00 0.15600806E+04</pdfrwt>
<pdfrwt beam="2">  1       -2 0.63625053E-01 0.15600806E+04</pdfrwt>
<totfact> 0.38022529E+01</totfact>
</mgrwt>
</event>
<event>
 4    1  0.5280257E-005  0.5767575E+03  0.7818608E-02  0.9954836E-01
         -2   -1    0    0    0  501 -0.00000000000E+00  0.00000000000E+00  0.12710072489E+03  0.12710072492E+03  0.25500000000E-02 0. -1.
          2   -1    0    0  501    0  0.00000000000E+00 -0.00000000000E+00 -0.65430232349E+03  0.65430232349E+03  0.25500000000E-02 0.  1.
    5000001    1    1    2    0    0  0.19843163849E+03 -0.12739869651E+03 -0.28827775862E+03  0.40735072007E+03  0.16500000000E+03 0.  0.
   -5000001    1    1    2    0    0 -0.19843163849E+03  0.12739869651E+03 -0.23892383997E+03  0.37405232834E+03  0.16500000000E+03 0.  0.
<mgrwt>
<rscale>  0 0.57675749E+03</rscale>
<asrwt>0</asrwt>
<pdfrwt beam="1">  1        2 0.93471759E-01 0.57675749E+03</pdfrwt>
<pdfrwt beam="2">  1       -2 0.18157247E-01 0.57675749E+03</pdfrwt>
<totfact> 0.12361686E+03</totfact>
</mgrwt>
</event>
<event>
 4    1  0.5280257E-005  0.6519770E+03  0.7818608E-02  0.9803076E-01
         -2   -1    0    0    0  501 -0.00000000000E+00  0.00000000000E+00  0.33990876164E+03  0.33990876165E+03  0.25500000000E-02 0. -1.
          2   -1    0    0  501    0  0.00000000000E+00 -0.00000000000E+00 -0.31263835303E+03  0.31263835304E+03  0.25500000000E-02 0.  1.
    5000001    1    1    2    0    0 -0.65203592112E+02 -0.23612603781E+03  0.15172867262E+03  0.33204458172E+03  0.16500000000E+03 0.  0.
   -5000001    1    1    2    0    0  0.65203592112E+02  0.23612603781E+03 -0.12445826401E+03  0.32050253297E+03  0.16500000000E+03 0.  0.
<mgrwt>
<rscale>  0 0.65197704E+03</rscale>
<asrwt>0</asrwt>
<pdfrwt beam="1">  1        2 0.44662622E-01 0.65197704E+03</pdfrwt>
<pdfrwt beam="2">  1       -2 0.48558395E-01 0.65197704E+03</pdfrwt>
<totfact> 0.46115356E+02</totfact>
</mgrwt>
</event>
<event>
 4    1  0.5280257E-005  0.5193491E+03  0.7818608E-02  0.1008848E+00
         -2   -1    0    0    0  501 -0.00000000000E+00  0.00000000000E+00  0.18279542660E+03  0.18279542662E+03  0.25500000000E-02 0. -1.
          2   -1    0    0  501    0  0.00000000000E+00 -0.00000000000E+00 -0.36888714050E+03  0.36888714051E+03  0.25500000000E-02 0.  1.
    5000001    1    1    2    0    0 -0.12663508522E+03  0.20584440952E+02 -0.25673598898E+03  0.33105669009E+03  0.16500000000E+03 0.  0.
   -5000001    1    1    2    0    0  0.12663508522E+03 -0.20584440952E+02  0.70644275082E+02  0.22062587704E+03  0.16500000000E+03 0.  0.
<mgrwt>
<rscale>  0 0.51934914E+03</rscale>
<asrwt>0</asrwt>
<pdfrwt beam="1">  1        2 0.52698162E-01 0.51934914E+03</pdfrwt>
<pdfrwt beam="2">  1       -2 0.26113633E-01 0.51934914E+03</pdfrwt>
<totfact> 0.12528250E+03</totfact>
</mgrwt>
</event>
<event>
 4    1  0.5280257E-005  0.4492771E+03  0.7818608E-02  0.1027938E+00
         -2   -1    0    0    0  501 -0.00000000000E+00  0.00000000000E+00  0.50744875254E+02  0.50744875318E+02  0.25500000000E-02 0. -1.
          2   -1    0    0  501    0  0.00000000000E+00 -0.00000000000E+00 -0.99443515148E+03  0.99443515149E+03  0.25500000000E-02 0.  1.
    5000001    1    1    2    0    0 -0.11192552796E+03 -0.71448166698E+02 -0.29767362881E+03  0.36533101925E+03  0.16500000000E+03 0.  0.
   -5000001    1    1    2    0    0  0.11192552796E+03  0.71448166698E+02 -0.64601664742E+03  0.67984900756E+03  0.16500000000E+03 0.  0.
<mgrwt>
<rscale>  0 0.44927714E+03</rscale>
<asrwt>0</asrwt>
<pdfrwt beam="1">  1        2 0.14206215E+00 0.44927714E+03</pdfrwt>
<pdfrwt beam="2">  1       -2 0.72492685E-02 0.44927714E+03</pdfrwt>
<totfact> 0.32538694E+03</totfact>
</mgrwt>
</event>
<event>
 4    1  0.5280257E-005  0.3505514E+03  0.7818608E-02  0.1062389E+00
          2   -1    0    0  501    0  0.00000000000E+00  0.00000000000E+00  0.34587966544E+04  0.34587966544E+04  0.25500000000E-02 0.  1.
         -2   -1    0    0    0  501 -0.00000000000E+00 -0.00000000000E+00 -0.88821562442E+01  0.88821566103E+01  0.25500000000E-02 0. -1.
    5000001    1    1    2    0    0 -0.24145284650E+02 -0.49072995044E+02  0.15025683696E+04  0.15125897854E+04  0.16500000000E+03 0.  0.
   -5000001    1    1    2    0    0  0.24145284650E+02  0.49072995044E+02  0.19473461285E+04  0.19550890256E+04  0.16500000000E+03 0.  0.
<mgrwt>
<rscale>  0 0.35055141E+03</rscale>
<asrwt>0</asrwt>
<pdfrwt beam="1">  1        2 0.49411408E+00 0.35055141E+03</pdfrwt>
<pdfrwt beam="2">  1       -2 0.12688788E-02 0.35055141E+03</pdfrwt>
<totfact> 0.23164858E+03</totfact>
</mgrwt>
</event>
<event>
 4    1  0.5280257E-005  0.7232559E+03  0.7818608E-02  0.9678268E-01
          2   -1    0    0  501    0  0.00000000000E+00  0.00000000000E+00  0.57224601490E+03  0.57224601490E+03  0.25500000000E-02 0.  1.
         -2   -1    0    0    0  501 -0.00000000000E+00 -0.00000000000E+00 -0.22852893200E+03  0.22852893202E+03  0.25500000000E-02 0. -1.
    5000001    1    1    2    0    0  0.32062952383E+03 -0.21794800979E+02  0.19010069085E+03  0.40821756156E+03  0.16500000000E+03 0.  0.
   -5000001    1    1    2    0    0 -0.32062952383E+03  0.21794800979E+02  0.15361639204E+03  0.39255738536E+03  0.16500000000E+03 0.  0.
<mgrwt>
<rscale>  0 0.72325589E+03</rscale>
<asrwt>0</asrwt>
<pdfrwt beam="1">  1        2 0.81749432E-01 0.72325589E+03</pdfrwt>
<pdfrwt beam="2">  1       -2 0.32646990E-01 0.72325589E+03</pdfrwt>
<totfact> 0.50429846E+02</totfact>
</mgrwt>
</event>
<event>
 4    1  0.5280257E-005  0.4675972E+03  0.7818608E-02  0.1022601E+00
         -2   -1    0    0    0  501 -0.00000000000E+00  0.00000000000E+00  0.68371927447E+02  0.68371927495E+02  0.25500000000E-02 0. -1.
          2   -1    0    0  501    0  0.00000000000E+00 -0.00000000000E+00 -0.79947704165E+03  0.79947704166E+03  0.25500000000E-02 0.  1.
    5000001    1    1    2    0    0 -0.12953086774E+03  0.10320997093E+03 -0.37018971541E+03  0.43783098245E+03  0.16500000000E+03 0.  0.
   -5000001    1    1    2    0    0  0.12953086774E+03 -0.10320997093E+03 -0.36091539879E+03  0.43001798670E+03  0.16500000000E+03 0.  0.
<mgrwt>
<rscale>  0 0.46759720E+03</rscale>
<asrwt>0</asrwt>
<pdfrwt beam="1">  1        2 0.11421100E+00 0.46759720E+03</pdfrwt>
<pdfrwt beam="2">  1       -2 0.97674187E-02 0.46759720E+03</pdfrwt>
<totfact> 0.27029266E+03</totfact>
</mgrwt>
</event>
<event>
 4    1  0.5280257E-005  0.5081066E+03  0.7818608E-02  0.1011684E+00
         -2   -1    0    0    0  501 -0.00000000000E+00  0.00000000000E+00  0.25622496347E+04  0.25622496347E+04  0.25500000000E-02 0. -1.
          2   -1    0    0  501    0  0.00000000000E+00 -0.00000000000E+00 -0.25190000998E+02  0.25190001127E+02  0.25500000000E-02 0.  1.
    5000001    1    1    2    0    0  0.11630997386E+03 -0.15412548861E+03  0.12382338421E+04  0.12640137357E+04  0.16500000000E+03 0.  0.
   -5000001    1    1    2    0    0 -0.11630997386E+03  0.15412548861E+03  0.12988257916E+04  0.13234259001E+04  0.16500000000E+03 0.  0.
<mgrwt>
<rscale>  0 0.50810657E+03</rscale>
<asrwt>0</asrwt>
<pdfrwt beam="1">  1        2 0.35985717E-02 0.50810657E+03</pdfrwt>
<pdfrwt beam="2">  1       -2 0.36603565E+00 0.50810657E+03</pdfrwt>
<totfact> 0.34752719E+01</totfact>
</mgrwt>
</event>
<event>
 4    1  0.5280257E-005  0.4447874E+03  0.7818608E-02  0.1029288E+00
          2   -1    0    0  501    0  0.00000000000E+00  0.00000000000E+00  0.18328253499E+03  0.18328253501E+03  0.25500000000E-02 0.  1.
         -2   -1    0    0    0  501 -0.00000000000E+00 -0.00000000000E+00 -0.26985089216E+03  0.26985089217E+03  0.25500000000E-02 0. -1.
    5000001    1    1    2    0    0 -0.22348347623E+02  0.66762641914E+02 -0.17719356687E+03  0.25214927947E+03  0.16500000000E+03 0.  0.
   -5000001    1    1    2    0    0  0.22348347623E+02 -0.66762641914E+02  0.90625209703E+02  0.20098414771E+03  0.16500000000E+03 0.  0.
<mgrwt>
<rscale>  0 0.44478739E+03</rscale>
<asrwt>0</asrwt>
<pdfrwt beam="1">  1        2 0.26183219E-01 0.44478739E+03</pdfrwt>
<pdfrwt beam="2">  1       -2 0.38550127E-01 0.44478739E+03</pdfrwt>
<totfact> 0.13169489E+03</totfact>
</mgrwt>
</event>
<event>
 4    1  0.5280257E-005  0.4849670E+03  0.7818608E-02  0.1017779E+00
          2   -1    0    0  501    0  0.00000000000E+00  0.00000000000E+00  0.24275816833E+04  0.24275816833E+04  0.25500000000E-02 0.  1.
         -2   -1    0    0    0  501 -0.00000000000E+00 -0.00000000000E+00 -0.24220910752E+02  0.24220910886E+02  0.25500000000E-02 0. -1.
    5000001    1    1    2    0    0 -0.21789964187E+02 -0.16653592780E+03  0.90844549451E+03  0.93846003340E+03  0.16500000000E+03 0.  0.
   -5000001    1    1    2    0    0  0.21789964187E+02  0.16653592780E+03  0.14949152780E+04  0.15133425608E+04  0.16500000000E+03 0.  0.
<mgrwt>
<rscale>  0 0.48496697E+03</rscale>
<asrwt>0</asrwt>
<pdfrwt beam="1">  1        2 0.34679761E+00 0.48496697E+03</pdfrwt>
<pdfrwt beam="2">  1       -2 0.34601278E-02 0.48496697E+03</pdfrwt>
<totfact> 0.18336395E+03</totfact>
</mgrwt>
</event>
<event>
 4    1  0.5280257E-005  0.5252546E+03  0.7818608E-02  0.1007390E+00
         -2   -1    0    0    0  501 -0.00000000000E+00  0.00000000000E+00  0.21922433593E+03  0.21922433594E+03  0.25500000000E-02 0. -1.
          2   -1    0    0  501    0  0.00000000000E+00 -0.00000000000E+00 -0.31462331390E+03  0.31462331391E+03  0.25500000000E-02 0.  1.
    5000001    1    1    2    0    0  0.62818756959E+02  0.98645559850E+02  0.12258536411E+03  0.23649379315E+03  0.16500000000E+03 0.  0.
   -5000001    1    1    2    0    0 -0.62818756959E+02 -0.98645559850E+02 -0.21798434208E+03  0.29735385671E+03  0.16500000000E+03 0.  0.
<mgrwt>
<rscale>  0 0.52525456E+03</rscale>
<asrwt>0</asrwt>
<pdfrwt beam="1">  1        2 0.44946187E-01 0.52525456E+03</pdfrwt>
<pdfrwt beam="2">  1       -2 0.31317763E-01 0.52525456E+03</pdfrwt>
<totfact> 0.10706293E+03</totfact>
</mgrwt>
</event>
<event>
 4    1  0.5280257E-005  0.5123205E+03  0.7818608E-02  0.1010612E+00
          2   -1    0    0  501    0  0.00000000000E+00  0.00000000000E+00  0.31500565553E+04  0.31500565553E+04  0.25500000000E-02 0.  1.
         -2   -1    0    0    0  501 -0.00000000000E+00 -0.00000000000E+00 -0.20830759963E+02  0.20830760119E+02  0.25500000000E-02 0. -1.
    5000001    1    1    2    0    0  0.17398716086E+03 -0.86833738752E+02  0.14153704925E+04  0.14381621124E+04  0.16500000000E+03 0.  0.
   -5000001    1    1    2    0    0 -0.17398716086E+03  0.86833738752E+02  0.17138553028E+04  0.17327252031E+04  0.16500000000E+03 0.  0.
<mgrwt>
<rscale>  0 0.51232049E+03</rscale>
<asrwt>0</asrwt>
<pdfrwt beam="1">  1        2 0.45000786E+00 0.51232049E+03</pdfrwt>
<pdfrwt beam="2">  1       -2 0.29758243E-02 0.51232049E+03</pdfrwt>
<totfact> 0.95676886E+02</totfact>
</mgrwt>
</event>
<event>
 4    1  0.5280257E-005  0.4950245E+03  0.7818608E-02  0.1015086E+00
         -2   -1    0    0    0  501 -0.00000000000E+00  0.00000000000E+00  0.14307862798E+02  0.14307863026E+02  0.25500000000E-02 0. -1.
          2   -1    0    0  501    0  0.00000000000E+00 -0.00000000000E+00 -0.42817237728E+04  0.42817237728E+04  0.25500000000E-02 0.  1.
    5000001    1    1    2    0    0 -0.14430733527E+03 -0.51543220019E+02 -0.30253500955E+04  0.30337187594E+04  0.16500000000E+03 0.  0.
   -5000001    1    1    2    0    0  0.14430733527E+03  0.51543220019E+02 -0.12420658145E+04  0.12623128764E+04  0.16500000000E+03 0.  0.
<mgrwt>
<rscale>  0 0.49502451E+03</rscale>
<asrwt>0</asrwt>
<pdfrwt beam="1">  1        2 0.61167401E+00 0.49502451E+03</pdfrwt>
<pdfrwt beam="2">  1       -2 0.20439832E-02 0.49502451E+03</pdfrwt>
<totfact> 0.33141725E+02</totfact>
</mgrwt>
</event>
<event>
 4    1  0.5280257E-005  0.7279852E+03  0.7818608E-02  0.9670535E-01
          2   -1    0    0  501    0  0.00000000000E+00  0.00000000000E+00  0.28855436746E+04  0.28855436746E+04  0.25500000000E-02 0.  1.
         -2   -1    0    0    0  501 -0.00000000000E+00 -0.00000000000E+00 -0.45915308088E+02  0.45915308158E+02  0.25500000000E-02 0. -1.
    5000001    1    1    2    0    0  0.15044344677E+03  0.27909766722E+03  0.16969596794E+04  0.17341931531E+04  0.16500000000E+03 0.  0.
   -5000001    1    1    2    0    0 -0.15044344677E+03 -0.27909766722E+03  0.11426686871E+04  0.11972658297E+04  0.16500000000E+03 0.  0.
<mgrwt>
<rscale>  0 0.72798524E+03</rscale>
<asrwt>0</asrwt>
<pdfrwt beam="1">  1        2 0.41222066E+00 0.72798524E+03</pdfrwt>
<pdfrwt beam="2">  1       -2 0.65593276E-02 0.72798524E+03</pdfrwt>
<totfact> 0.38550741E+02</totfact>
</mgrwt>
</event>
<event>
 4    1  0.5280257E-005  0.4410116E+03  0.7818608E-02  0.1030437E+00
         -2   -1    0    0    0  501 -0.00000000000E+00  0.00000000000E+00  0.72547135057E+03  0.72547135058E+03  0.25500000000E-02 0. -1.
          2   -1    0    0  501    0  0.00000000000E+00 -0.00000000000E+00 -0.67022353892E+02  0.67022353940E+02  0.25500000000E-02 0.  1.
    5000001    1    1    2    0    0 -0.86780240147E+02  0.10992415192E+03  0.40511770585E+03  0.45930326023E+03  0.16500000000E+03 0.  0.
   -5000001    1    1    2    0    0  0.86780240147E+02 -0.10992415192E+03  0.25333129083E+03  0.33319044429E+03  0.16500000000E+03 0.  0.
<mgrwt>
<rscale>  0 0.44101155E+03</rscale>
<asrwt>0</asrwt>
<pdfrwt beam="1">  1        2 0.95746217E-02 0.44101155E+03</pdfrwt>
<pdfrwt beam="2">  1       -2 0.10363877E+00 0.44101155E+03</pdfrwt>
<totfact> 0.53714991E+02</totfact>
</mgrwt>
</event>
<event>
 4    1  0.5280257E-005  0.4808148E+03  0.7818608E-02  0.1018911E+00
         -2   -1    0    0    0  501 -0.00000000000E+00  0.00000000000E+00  0.20415118404E+03  0.20415118406E+03  0.25500000000E-02 0. -1.
          2   -1    0    0  501    0  0.00000000000E+00 -0.00000000000E+00 -0.28310258560E+03  0.28310258561E+03  0.25500000000E-02 0.  1.
    5000001    1    1    2    0    0 -0.13999498907E+03  0.23264514911E+02  0.64023762359E+02  0.22685651140E+03  0.16500000000E+03 0.  0.
   -5000001    1    1    2    0    0  0.13999498907E+03 -0.23264514911E+02 -0.14297516392E+03  0.26039725827E+03  0.16500000000E+03 0.  0.
<mgrwt>
<rscale>  0 0.48081484E+03</rscale>
<asrwt>0</asrwt>
<pdfrwt beam="1">  1        2 0.40443226E-01 0.48081484E+03</pdfrwt>
<pdfrwt beam="2">  1       -2 0.29164455E-01 0.48081484E+03</pdfrwt>
<totfact> 0.13706259E+03</totfact>
</mgrwt>
</event>
<event>
 4    1  0.5280257E-005  0.3610959E+03  0.7818608E-02  0.1058151E+00
          2   -1    0    0  501    0  0.00000000000E+00  0.00000000000E+00  0.50351816722E+03  0.50351816723E+03  0.25500000000E-02 0.  1.
         -2   -1    0    0    0  501 -0.00000000000E+00 -0.00000000000E+00 -0.64739590996E+02  0.64739591046E+02  0.25500000000E-02 0. -1.
    5000001    1    1    2    0    0  0.23478607093E+02  0.59200847933E+02  0.27649053669E+03  0.32821944224E+03  0.16500000000E+03 0.  0.
   -5000001    1    1    2    0    0 -0.23478607093E+02 -0.59200847933E+02  0.16228803954E+03  0.24003831603E+03  0.16500000000E+03 0.  0.
<mgrwt>
<rscale>  0 0.36109589E+03</rscale>
<asrwt>0</asrwt>
<pdfrwt beam="1">  1        2 0.71931164E-01 0.36109589E+03</pdfrwt>
<pdfrwt beam="2">  1       -2 0.92485133E-02 0.36109589E+03</pdfrwt>
<totfact> 0.50722585E+03</totfact>
</mgrwt>
</event>
<event>
 4    1  0.5280257E-005  0.9762691E+03  0.7818608E-02  0.9334962E-01
          2   -1    0    0  501    0  0.00000000000E+00  0.00000000000E+00  0.16180739486E+04  0.16180739486E+04  0.25500000000E-02 0.  1.
         -2   -1    0    0    0  501 -0.00000000000E+00 -0.00000000000E+00 -0.14725863301E+03  0.14725863304E+03  0.25500000000E-02 0. -1.
    5000001    1    1    2    0    0 -0.38752129764E+03 -0.14680799801E+03  0.10939920774E+04  0.11814266840E+04  0.16500000000E+03 0.  0.
   -5000001    1    1    2    0    0  0.38752129764E+03  0.14680799801E+03  0.37682323822E+03  0.58390589761E+03  0.16500000000E+03 0.  0.
<mgrwt>
<rscale>  0 0.97626914E+03</rscale>
<asrwt>0</asrwt>
<pdfrwt beam="1">  1        2 0.23115340E+00 0.97626914E+03</pdfrwt>
<pdfrwt beam="2">  1       -2 0.21036949E-01 0.97626914E+03</pdfrwt>
<totfact> 0.24696268E+02</totfact>
</mgrwt>
</event>
<event>
 4    1  0.5280257E-005  0.5373798E+03  0.7818608E-02  0.1004458E+00
         -2   -1    0    0    0  501 -0.00000000000E+00  0.00000000000E+00  0.57368213371E+02  0.57368213428E+02  0.25500000000E-02 0.  1.
          2   -1    0    0  501    0  0.00000000000E+00 -0.00000000000E+00 -0.12584368692E+04  0.12584368692E+04  0.25500000000E-02 0. -1.
    5000001    1    1    2    0    0 -0.16237401442E+03  0.91538275471E+02 -0.35294299463E+03  0.43190083804E+03  0.16500000000E+03 0.  0.
   -5000001    1    1    2    0    0  0.16237401442E+03 -0.91538275471E+02 -0.84812566119E+03  0.88390424459E+03  0.16500000000E+03 0.  0.
<mgrwt>
<rscale>  0 0.53737985E+03</rscale>
<asrwt>0</asrwt>
<pdfrwt beam="1">  1        2 0.17977668E+00 0.53737985E+03</pdfrwt>
<pdfrwt beam="2">  1       -2 0.81954598E-02 0.53737985E+03</pdfrwt>
<totfact> 0.18908980E+03</totfact>
</mgrwt>
</event>
<event>
 4    1  0.5280257E-005  0.4496036E+03  0.7818608E-02  0.1027840E+00
          2   -1    0    0  501    0  0.00000000000E+00  0.00000000000E+00  0.63080729373E+03  0.63080729373E+03  0.25500000000E-02 0.  1.
         -2   -1    0    0    0  501 -0.00000000000E+00 -0.00000000000E+00 -0.80112958455E+02  0.80112958496E+02  0.25500000000E-02 0. -1.
    5000001    1    1    2    0    0  0.92516036345E+02 -0.84661501477E+02  0.13764467699E+03  0.24879277304E+03  0.16500000000E+03 0.  0.
   -5000001    1    1    2    0    0 -0.92516036345E+02  0.84661501477E+02  0.41304965828E+03  0.46212747919E+03  0.16500000000E+03 0.  0.
<mgrwt>
<rscale>  0 0.44960355E+03</rscale>
<asrwt>0</asrwt>
<pdfrwt beam="1">  1        2 0.90115325E-01 0.44960355E+03</pdfrwt>
<pdfrwt beam="2">  1       -2 0.11444709E-01 0.44960355E+03</pdfrwt>
<totfact> 0.27907757E+03</totfact>
</mgrwt>
</event>
<event>
 4    1  0.5280257E-005  0.5487782E+03  0.7818608E-02  0.1001777E+00
         -2   -1    0    0    0  501 -0.00000000000E+00  0.00000000000E+00  0.39681185798E+02  0.39681185880E+02  0.25500000000E-02 0. -1.
          2   -1    0    0  501    0  0.00000000000E+00 -0.00000000000E+00 -0.18973570273E+04  0.18973570273E+04  0.25500000000E-02 0.  1.
    5000001    1    1    2    0    0  0.93832769590E+02 -0.22217622382E+02 -0.23386519048E+03  0.30202009654E+03  0.16500000000E+03 0.  0.
   -5000001    1    1    2    0    0 -0.93832769590E+02  0.22217622382E+02 -0.16238106510E+04  0.16350181166E+04  0.16500000000E+03 0.  0.
<mgrwt>
<rscale>  0 0.54877819E+03</rscale>
<asrwt>0</asrwt>
<pdfrwt beam="1">  1        2 0.27105095E+00 0.54877819E+03</pdfrwt>
<pdfrwt beam="2">  1       -2 0.56687420E-02 0.54877819E+03</pdfrwt>
<totfact> 0.15781697E+03</totfact>
</mgrwt>
</event>
<event>
 4    1  0.5280257E-005  0.3945710E+03  0.7818608E-02  0.1045676E+00
          2   -1    0    0  501    0  0.00000000000E+00  0.00000000000E+00  0.20930390691E+02  0.20930390847E+02  0.25500000000E-02 0.  1.
         -2   -1    0    0    0  501 -0.00000000000E+00 -0.00000000000E+00 -0.18595717011E+04  0.18595717011E+04  0.25500000000E-02 0. -1.
    5000001    1    1    2    0    0 -0.11143387780E+02  0.85288335717E+02 -0.12317820747E+04  0.12457569405E+04  0.16500000000E+03 0.  0.
   -5000001    1    1    2    0    0  0.11143387780E+02 -0.85288335717E+02 -0.60685923577E+03  0.63474515149E+03  0.16500000000E+03 0.  0.
<mgrwt>
<rscale>  0 0.39457097E+03</rscale>
<asrwt>0</asrwt>
<pdfrwt beam="1">  1        2 0.29900570E-02 0.39457097E+03</pdfrwt>
<pdfrwt beam="2">  1       -2 0.26565300E+00 0.39457097E+03</pdfrwt>
<totfact> 0.18180188E+02</totfact>
</mgrwt>
</event>
<event>
 4    1  0.5280257E-005  0.5070071E+03  0.7818608E-02  0.1011966E+00
         -2   -1    0    0    0  501 -0.00000000000E+00  0.00000000000E+00  0.62581298369E+02  0.62581298421E+02  0.25500000000E-02 0. -1.
          2   -1    0    0  501    0  0.00000000000E+00 -0.00000000000E+00 -0.10268889443E+04  0.10268889443E+04  0.25500000000E-02 0.  1.
    5000001    1    1    2    0    0  0.16105145271E+03  0.99466871266E+02 -0.55683333659E+03  0.61083516077E+03  0.16500000000E+03 0.  0.
   -5000001    1    1    2    0    0 -0.16105145271E+03 -0.99466871266E+02 -0.40747430931E+03  0.47863508192E+03  0.16500000000E+03 0.  0.
<mgrwt>
<rscale>  0 0.50700707E+03</rscale>
<asrwt>0</asrwt>
<pdfrwt beam="1">  1        2 0.14669841E+00 0.50700707E+03</pdfrwt>
<pdfrwt beam="2">  1       -2 0.89401861E-02 0.50700707E+03</pdfrwt>
<totfact> 0.22313512E+03</totfact>
</mgrwt>
</event>
<event>
 4    1  0.5280257E-005  0.6584414E+03  0.7818608E-02  0.9791067E-01
         -2   -1    0    0    0  501 -0.00000000000E+00  0.00000000000E+00  0.46873910784E+03  0.46873910785E+03  0.25500000000E-02 0. -1.
          2   -1    0    0  501    0  0.00000000000E+00 -0.00000000000E+00 -0.23122938502E+03  0.23122938503E+03  0.25500000000E-02 0.  1.
    5000001    1    1    2    0    0 -0.28237433933E+03 -0.11711581722E+02  0.80590438366E+02  0.33703448994E+03  0.16500000000E+03 0.  0.
   -5000001    1    1    2    0    0  0.28237433933E+03  0.11711581722E+02  0.15691928446E+03  0.36293400294E+03  0.16500000000E+03 0.  0.
<mgrwt>
<rscale>  0 0.65844136E+03</rscale>
<asrwt>0</asrwt>
<pdfrwt beam="1">  1        2 0.33032769E-01 0.65844136E+03</pdfrwt>
<pdfrwt beam="2">  1       -2 0.66962729E-01 0.65844136E+03</pdfrwt>
<totfact> 0.32988695E+02</totfact>
</mgrwt>
</event>
<event>
 4    1  0.5280257E-005  0.4238260E+03  0.7818608E-02  0.1035828E+00
          2   -1    0    0  501    0  0.00000000000E+00  0.00000000000E+00  0.60769236802E+03  0.60769236802E+03  0.25500000000E-02 0.  1.
         -2   -1    0    0    0  501 -0.00000000000E+00 -0.00000000000E+00 -0.73897772215E+02  0.73897772259E+02  0.25500000000E-02 0. -1.
    5000001    1    1    2    0    0  0.73574370092E+02  0.76493078019E+02  0.13806446049E+03  0.23989825796E+03  0.16500000000E+03 0.  0.
   -5000001    1    1    2    0    0 -0.73574370092E+02 -0.76493078019E+02  0.39573013531E+03  0.44169188233E+03  0.16500000000E+03 0.  0.
<mgrwt>
<rscale>  0 0.42382597E+03</rscale>
<asrwt>0</asrwt>
<pdfrwt beam="1">  1        2 0.86813203E-01 0.42382597E+03</pdfrwt>
<pdfrwt beam="2">  1       -2 0.10556824E-01 0.42382597E+03</pdfrwt>
<totfact> 0.33211328E+03</totfact>
</mgrwt>
</event>
<event>
 4    1  0.5280257E-005  0.4955448E+03  0.7818608E-02  0.1014948E+00
          2   -1    0    0  501    0  0.00000000000E+00  0.00000000000E+00  0.30823667507E+02  0.30823667613E+02  0.25500000000E-02 0.  1.
         -2   -1    0    0    0  501 -0.00000000000E+00 -0.00000000000E+00 -0.19916891403E+04  0.19916891403E+04  0.25500000000E-02 0. -1.
    5000001    1    1    2    0    0 -0.13338556499E+03  0.11728122545E+03 -0.11893254470E+04  0.12137819465E+04  0.16500000000E+03 0.  0.
   -5000001    1    1    2    0    0  0.13338556499E+03 -0.11728122545E+03 -0.77154002580E+03  0.80873086142E+03  0.16500000000E+03 0.  0.
<mgrwt>
<rscale>  0 0.49554481E+03</rscale>
<asrwt>0</asrwt>
<pdfrwt beam="1">  1        2 0.44033823E-02 0.49554481E+03</pdfrwt>
<pdfrwt beam="2">  1       -2 0.28452694E+00 0.49554481E+03</pdfrwt>
<totfact> 0.82233886E+01</totfact>
</mgrwt>
</event>
<event>
 4    1  0.5280257E-005  0.1054849E+04  0.7818608E-02  0.9250352E-01
         -2   -1    0    0    0  501 -0.00000000000E+00  0.00000000000E+00  0.65041700374E+03  0.65041700374E+03  0.25500000000E-02 0.  1.
          2   -1    0    0  501    0  0.00000000000E+00 -0.00000000000E+00 -0.42768943252E+03  0.42768943253E+03  0.25500000000E-02 0. -1.
    5000001    1    1    2    0    0  0.11560966820E+03 -0.32699521804E+03 -0.25807525319E+03  0.46273027166E+03  0.16500000000E+03 0.  0.
   -5000001    1    1    2    0    0 -0.11560966820E+03  0.32699521804E+03  0.48080282441E+03  0.61537616460E+03  0.16500000000E+03 0.  0.
<mgrwt>
<rscale>  0 0.10548488E+04</rscale>
<asrwt>0</asrwt>
<pdfrwt beam="1">  1        2 0.61098490E-01 0.10548488E+04</pdfrwt>
<pdfrwt beam="2">  1       -2 0.92916715E-01 0.10548488E+04</pdfrwt>
<totfact> 0.78438312E+01</totfact>
</mgrwt>
</event>
<event>
 4    1  0.5280257E-005  0.3780158E+03  0.7818608E-02  0.1051670E+00
          2   -1    0    0  501    0  0.00000000000E+00  0.00000000000E+00  0.51972738533E+03  0.51972738534E+03  0.25500000000E-02 0.  1.
         -2   -1    0    0    0  501 -0.00000000000E+00 -0.00000000000E+00 -0.68735991404E+02  0.68735991451E+02  0.25500000000E-02 0. -1.
    5000001    1    1    2    0    0  0.31637923073E+01  0.75042458461E+02  0.14227908508E+03  0.23045545818E+03  0.16500000000E+03 0.  0.
   -5000001    1    1    2    0    0 -0.31637923073E+01 -0.75042458461E+02  0.30871230885E+03  0.35800791861E+03  0.16500000000E+03 0.  0.
<mgrwt>
<rscale>  0 0.37801575E+03</rscale>
<asrwt>0</asrwt>
<pdfrwt beam="1">  1        2 0.74246767E-01 0.37801575E+03</pdfrwt>
<pdfrwt beam="2">  1       -2 0.98194277E-02 0.37801575E+03</pdfrwt>
<totfact> 0.44534348E+03</totfact>
</mgrwt>
</event>
<event>
 4    1  0.5280257E-005  0.7951159E+03  0.7818608E-02  0.9567114E-01
          2   -1    0    0  501    0  0.00000000000E+00  0.00000000000E+00  0.13841001674E+04  0.13841001674E+04  0.25500000000E-02 0.  1.
         -2   -1    0    0    0  501 -0.00000000000E+00 -0.00000000000E+00 -0.11419138041E+03  0.11419138044E+03  0.25500000000E-02 0. -1.
    5000001    1    1    2    0    0 -0.32493204194E+03  0.15882576080E+03  0.64355971057E+03  0.75643939297E+03  0.16500000000E+03 0.  0.
   -5000001    1    1    2    0    0  0.32493204194E+03 -0.15882576080E+03  0.62634907645E+03  0.74185215491E+03  0.16500000000E+03 0.  0.
<mgrwt>
<rscale>  0 0.79511586E+03</rscale>
<asrwt>0</asrwt>
<pdfrwt beam="1">  1        2 0.19772860E+00 0.79511586E+03</pdfrwt>
<pdfrwt beam="2">  1       -2 0.16313054E-01 0.79511586E+03</pdfrwt>
<totfact> 0.51564038E+02</totfact>
</mgrwt>
</event>
<event>
 4    1  0.5280257E-005  0.4301789E+03  0.7818608E-02  0.1033803E+00
          2   -1    0    0  501    0  0.00000000000E+00  0.00000000000E+00  0.40830812651E+03  0.40830812652E+03  0.25500000000E-02 0.  1.
         -2   -1    0    0    0  501 -0.00000000000E+00 -0.00000000000E+00 -0.11330528471E+03  0.11330528474E+03  0.25500000000E-02 0. -1.
    5000001    1    1    2    0    0  0.54759035727E+02  0.11074762115E+03  0.73002275958E+02  0.21867308906E+03  0.16500000000E+03 0.  0.
   -5000001    1    1    2    0    0 -0.54759035727E+02 -0.11074762115E+03  0.22200056584E+03  0.30294032220E+03  0.16500000000E+03 0.  0.
<mgrwt>
<rscale>  0 0.43017889E+03</rscale>
<asrwt>0</asrwt>
<pdfrwt beam="1">  1        2 0.58329734E-01 0.43017889E+03</pdfrwt>
<pdfrwt beam="2">  1       -2 0.16186469E-01 0.43017889E+03</pdfrwt>
<totfact> 0.25714362E+03</totfact>
</mgrwt>
</event>
<event>
 4    1  0.5280257E-005  0.5825450E+03  0.7818608E-02  0.9942296E-01
          2   -1    0    0  501    0  0.00000000000E+00  0.00000000000E+00  0.71296748233E+03  0.71296748233E+03  0.25500000000E-02 0.  1.
         -2   -1    0    0    0  501 -0.00000000000E+00 -0.00000000000E+00 -0.11899512621E+03  0.11899512624E+03  0.25500000000E-02 0. -1.
    5000001    1    1    2    0    0 -0.10292979401E+03 -0.11876769079E+03  0.37886426362E+02  0.23099932505E+03  0.16500000000E+03 0.  0.
   -5000001    1    1    2    0    0  0.10292979401E+03  0.11876769079E+03  0.55608592975E+03  0.60096328352E+03  0.16500000000E+03 0.  0.
<mgrwt>
<rscale>  0 0.58254495E+03</rscale>
<asrwt>0</asrwt>
<pdfrwt beam="1">  1        2 0.10185249E+00 0.58254495E+03</pdfrwt>
<pdfrwt beam="2">  1       -2 0.16999304E-01 0.58254495E+03</pdfrwt>
<totfact> 0.12467431E+03</totfact>
</mgrwt>
</event>
<event>
 4    1  0.5280257E-005  0.5973651E+03  0.7818608E-02  0.9910888E-01
         -2   -1    0    0    0  501 -0.00000000000E+00  0.00000000000E+00  0.13540369990E+03  0.13540369992E+03  0.25500000000E-02 0. -1.
          2   -1    0    0  501    0  0.00000000000E+00 -0.00000000000E+00 -0.65885389279E+03  0.65885389280E+03  0.25500000000E-02 0.  1.
    5000001    1    1    2    0    0 -0.12320756230E+03  0.13566231290E+03 -0.48580100324E+03  0.54480453495E+03  0.16500000000E+03 0.  0.
   -5000001    1    1    2    0    0  0.12320756230E+03 -0.13566231290E+03 -0.37649189654E+02  0.24945305777E+03  0.16500000000E+03 0.  0.
<mgrwt>
<rscale>  0 0.59736506E+03</rscale>
<asrwt>0</asrwt>
<pdfrwt beam="1">  1        2 0.94121983E-01 0.59736506E+03</pdfrwt>
<pdfrwt beam="2">  1       -2 0.19343386E-01 0.59736506E+03</pdfrwt>
<totfact> 0.10988017E+03</totfact>
</mgrwt>
</event>
<event>
 4    1  0.5280257E-005  0.4103703E+03  0.7818608E-02  0.1040247E+00
         -2   -1    0    0    0  501 -0.00000000000E+00  0.00000000000E+00  0.12488694911E+03  0.12488694914E+03  0.25500000000E-02 0.  1.
          2   -1    0    0  501    0  0.00000000000E+00 -0.00000000000E+00 -0.33711245846E+03  0.33711245847E+03  0.25500000000E-02 0. -1.
    5000001    1    1    2    0    0  0.71833922328E+02  0.97274213391E+02 -0.12403973405E+03  0.23923469776E+03  0.16500000000E+03 0.  0.
   -5000001    1    1    2    0    0 -0.71833922328E+02 -0.97274213391E+02 -0.88185775301E+02  0.22276470985E+03  0.16500000000E+03 0.  0.
<mgrwt>
<rscale>  0 0.41037030E+03</rscale>
<asrwt>0</asrwt>
<pdfrwt beam="1">  1        2 0.48158922E-01 0.41037030E+03</pdfrwt>
<pdfrwt beam="2">  1       -2 0.17840993E-01 0.41037030E+03</pdfrwt>
<totfact> 0.26884999E+03</totfact>
</mgrwt>
</event>
<event>
 4    1  0.5280257E-005  0.3490049E+03  0.7818608E-02  0.1063024E+00
         -2   -1    0    0    0  501 -0.00000000000E+00  0.00000000000E+00  0.12162331270E+02  0.12162331537E+02  0.25500000000E-02 0. -1.
          2   -1    0    0  501    0  0.00000000000E+00 -0.00000000000E+00 -0.25037229315E+04  0.25037229315E+04  0.25500000000E-02 0.  1.
    5000001    1    1    2    0    0  0.35021502981E+01 -0.55607492819E+02 -0.11662715640E+04  0.11792026202E+04  0.16500000000E+03 0.  0.
   -5000001    1    1    2    0    0 -0.35021502981E+01  0.55607492819E+02 -0.13252890361E+04  0.13366826428E+04  0.16500000000E+03 0.  0.
<mgrwt>
<rscale>  0 0.34900492E+03</rscale>
<asrwt>0</asrwt>
<pdfrwt beam="1">  1        2 0.35767438E+00 0.34900492E+03</pdfrwt>
<pdfrwt beam="2">  1       -2 0.17374775E-02 0.34900492E+03</pdfrwt>
<totfact> 0.47389830E+03</totfact>
</mgrwt>
</event>
<event>
 4    1  0.5280257E-005  0.4567540E+03  0.7818608E-02  0.1025727E+00
          2   -1    0    0  501    0  0.00000000000E+00  0.00000000000E+00  0.43877904054E+02  0.43877904128E+02  0.25500000000E-02 0.  1.
         -2   -1    0    0    0  501 -0.00000000000E+00 -0.00000000000E+00 -0.11886632091E+04  0.11886632091E+04  0.25500000000E-02 0. -1.
    5000001    1    1    2    0    0 -0.25834302761E+02  0.11314468749E+03 -0.86129278088E+03  0.88460125814E+03  0.16500000000E+03 0.  0.
   -5000001    1    1    2    0    0  0.25834302761E+02 -0.11314468749E+03 -0.28349252420E+03  0.34793985513E+03  0.16500000000E+03 0.  0.
<mgrwt>
<rscale>  0 0.45675398E+03</rscale>
<asrwt>0</asrwt>
<pdfrwt beam="1">  1        2 0.62682727E-02 0.45675398E+03</pdfrwt>
<pdfrwt beam="2">  1       -2 0.16980901E+00 0.45675398E+03</pdfrwt>
<totfact> 0.26642532E+02</totfact>
</mgrwt>
</event>
<event>
 4    1  0.5280257E-005  0.4714004E+03  0.7818608E-02  0.1021526E+00
         -2   -1    0    0    0  501 -0.00000000000E+00  0.00000000000E+00  0.16020465520E+03  0.16020465522E+03  0.25500000000E-02 0. -1.
          2   -1    0    0  501    0  0.00000000000E+00 -0.00000000000E+00 -0.34677263460E+03  0.34677263461E+03  0.25500000000E-02 0.  1.
    5000001    1    1    2    0    0  0.86541870708E+02  0.14435079530E+03 -0.95128939881E+02  0.25416758781E+03  0.16500000000E+03 0.  0.
   -5000001    1    1    2    0    0 -0.86541870708E+02 -0.14435079530E+03 -0.91439039514E+02  0.25280970202E+03  0.16500000000E+03 0.  0.
<mgrwt>
<rscale>  0 0.47140043E+03</rscale>
<asrwt>0</asrwt>
<pdfrwt beam="1">  1        2 0.49538947E-01 0.47140043E+03</pdfrwt>
<pdfrwt beam="2">  1       -2 0.22886379E-01 0.47140043E+03</pdfrwt>
<totfact> 0.16958008E+03</totfact>
</mgrwt>
</event>
<event>
 4    1  0.5280257E-005  0.4043538E+03  0.7818608E-02  0.1042282E+00
         -2   -1    0    0    0  501 -0.00000000000E+00  0.00000000000E+00  0.22814914882E+02  0.22814915025E+02  0.25500000000E-02 0. -1.
          2   -1    0    0  501    0  0.00000000000E+00 -0.00000000000E+00 -0.17916130680E+04  0.17916130680E+04  0.25500000000E-02 0.  1.
    5000001    1    1    2    0    0  0.44062014860E+02  0.82352434655E+02 -0.11993729686E+04  0.12142668168E+04  0.16500000000E+03 0.  0.
   -5000001    1    1    2    0    0 -0.44062014860E+02 -0.82352434655E+02 -0.56942518454E+03  0.60016116622E+03  0.16500000000E+03 0.  0.
<mgrwt>
<rscale>  0 0.40435380E+03</rscale>
<asrwt>0</asrwt>
<pdfrwt beam="1">  1        2 0.25594464E+00 0.40435380E+03</pdfrwt>
<pdfrwt beam="2">  1       -2 0.32592747E-02 0.40435380E+03</pdfrwt>
<totfact> 0.41798862E+03</totfact>
</mgrwt>
</event>
<event>
 4    1  0.5280257E-005  0.4358471E+03  0.7818608E-02  0.1032029E+00
          2   -1    0    0  501    0  0.00000000000E+00  0.00000000000E+00  0.12150650264E+04  0.12150650264E+04  0.25500000000E-02 0.  1.
         -2   -1    0    0    0  501 -0.00000000000E+00 -0.00000000000E+00 -0.39084873910E+02  0.39084873993E+02  0.25500000000E-02 0. -1.
    5000001    1    1    2    0    0 -0.11746697091E+03  0.23922255396E+02  0.80891949482E+03  0.83423408744E+03  0.16500000000E+03 0.  0.
   -5000001    1    1    2    0    0  0.11746697091E+03 -0.23922255396E+02  0.36706065769E+03  0.41991581297E+03  0.16500000000E+03 0.  0.
<mgrwt>
<rscale>  0 0.43584705E+03</rscale>
<asrwt>0</asrwt>
<pdfrwt beam="1">  1        2 0.17358074E+00 0.43584705E+03</pdfrwt>
<pdfrwt beam="2">  1       -2 0.55835527E-02 0.43584705E+03</pdfrwt>
<totfact> 0.36502888E+03</totfact>
</mgrwt>
</event>
<event>
 4    1  0.5280257E-005  0.5707681E+03  0.7818608E-02  0.9967980E-01
         -2   -1    0    0    0  501 -0.00000000000E+00  0.00000000000E+00  0.36412899846E+02  0.36412899935E+02  0.25500000000E-02 0.  1.
          2   -1    0    0  501    0  0.00000000000E+00 -0.00000000000E+00 -0.22366813082E+04  0.22366813082E+04  0.25500000000E-02 0. -1.
    5000001    1    1    2    0    0 -0.88629838670E+02 -0.93470561318E+02 -0.32761748776E+03  0.38878041671E+03  0.16500000000E+03 0.  0.
   -5000001    1    1    2    0    0  0.88629838670E+02  0.93470561318E+02 -0.18726509206E+04  0.18843137914E+04  0.16500000000E+03 0.  0.
<mgrwt>
<rscale>  0 0.57076809E+03</rscale>
<asrwt>0</asrwt>
<pdfrwt beam="1">  1        2 0.31952581E+00 0.57076809E+03</pdfrwt>
<pdfrwt beam="2">  1       -2 0.52018443E-02 0.57076809E+03</pdfrwt>
<totfact> 0.12176490E+03</totfact>
</mgrwt>
</event>
<event>
 4    1  0.5280257E-005  0.5695748E+03  0.7818608E-02  0.9970620E-01
          2   -1    0    0  501    0  0.00000000000E+00  0.00000000000E+00  0.10553797434E+04  0.10553797434E+04  0.25500000000E-02 0.  1.
         -2   -1    0    0    0  501 -0.00000000000E+00 -0.00000000000E+00 -0.76848042356E+02  0.76848042398E+02  0.25500000000E-02 0. -1.
    5000001    1    1    2    0    0  0.21013093249E+03  0.30100393394E+01  0.68519539173E+03  0.73544666290E+03  0.16500000000E+03 0.  0.
   -5000001    1    1    2    0    0 -0.21013093249E+03 -0.30100393394E+01  0.29333630930E+03  0.39678112289E+03  0.16500000000E+03 0.  0.
<mgrwt>
<rscale>  0 0.56957481E+03</rscale>
<asrwt>0</asrwt>
<pdfrwt beam="1">  1        2 0.15076852E+00 0.56957481E+03</pdfrwt>
<pdfrwt beam="2">  1       -2 0.10978293E-01 0.56957481E+03</pdfrwt>
<totfact> 0.15388446E+03</totfact>
</mgrwt>
</event>
<event>
 4    1  0.5280257E-005  0.5594233E+03  0.7818608E-02  0.9993360E-01
          2   -1    0    0  501    0  0.00000000000E+00  0.00000000000E+00  0.15293055237E+03  0.15293055239E+03  0.25500000000E-02 0.  1.
         -2   -1    0    0    0  501 -0.00000000000E+00 -0.00000000000E+00 -0.51159569689E+03  0.51159569690E+03  0.25500000000E-02 0. -1.
    5000001    1    1    2    0    0  0.14580469358E+03  0.59252905642E+02  0.13102435862E+02  0.22840006419E+03  0.16500000000E+03 0.  0.
   -5000001    1    1    2    0    0 -0.14580469358E+03 -0.59252905642E+02 -0.37176758038E+03  0.43612618509E+03  0.16500000000E+03 0.  0.
<mgrwt>
<rscale>  0 0.55942332E+03</rscale>
<asrwt>0</asrwt>
<pdfrwt beam="1">  1        2 0.21847222E-01 0.55942332E+03</pdfrwt>
<pdfrwt beam="2">  1       -2 0.73085099E-01 0.55942332E+03</pdfrwt>
<totfact> 0.43723551E+02</totfact>
</mgrwt>
</event>
<event>
 4    1  0.5280257E-005  0.6225513E+03  0.7818608E-02  0.9859693E-01
          2   -1    0    0  501    0  0.00000000000E+00  0.00000000000E+00  0.76785095372E+03  0.76785095372E+03  0.25500000000E-02 0.  1.
         -2   -1    0    0    0  501 -0.00000000000E+00 -0.00000000000E+00 -0.12618665062E+03  0.12618665065E+03  0.25500000000E-02 0. -1.
    5000001    1    1    2    0    0 -0.16509660120E+03 -0.20559369817E+03  0.33793808181E+03  0.45929598691E+03  0.16500000000E+03 0.  0.
   -5000001    1    1    2    0    0  0.16509660120E+03  0.20559369817E+03  0.30372622129E+03  0.43474161746E+03  0.16500000000E+03 0.  0.
<mgrwt>
<rscale>  0 0.62255133E+03</rscale>
<asrwt>0</asrwt>
<pdfrwt beam="1">  1        2 0.10969300E+00 0.62255133E+03</pdfrwt>
<pdfrwt beam="2">  1       -2 0.18026664E-01 0.62255133E+03</pdfrwt>
<totfact> 0.10274607E+03</totfact>
</mgrwt>
</event>
<event>
 4    1  0.5280257E-005  0.3816667E+03  0.7818608E-02  0.1050319E+00
          2   -1    0    0  501    0  0.00000000000E+00  0.00000000000E+00  0.42944781395E+02  0.42944781471E+02  0.25500000000E-02 0.  1.
         -2   -1    0    0    0  501 -0.00000000000E+00 -0.00000000000E+00 -0.84800452417E+03  0.84800452418E+03  0.25500000000E-02 0. -1.
    5000001    1    1    2    0    0 -0.13882526142E+02 -0.80894942459E+02 -0.51820824862E+03  0.55000136835E+03  0.16500000000E+03 0.  0.
   -5000001    1    1    2    0    0  0.13882526142E+02  0.80894942459E+02 -0.28685149416E+03  0.34094793730E+03  0.16500000000E+03 0.  0.
<mgrwt>
<rscale>  0 0.38166671E+03</rscale>
<asrwt>0</asrwt>
<pdfrwt beam="1">  1        2 0.61349693E-02 0.38166671E+03</pdfrwt>
<pdfrwt beam="2">  1       -2 0.12114349E+00 0.38166671E+03</pdfrwt>
<totfact> 0.65535753E+02</totfact>
</mgrwt>
</event>
<event>
 4    1  0.5280257E-005  0.6793694E+03  0.7818608E-02  0.9753179E-01
         -2   -1    0    0    0  501 -0.00000000000E+00  0.00000000000E+00  0.33873775891E+03  0.33873775892E+03  0.25500000000E-02 0. -1.
          2   -1    0    0  501    0  0.00000000000E+00 -0.00000000000E+00 -0.34063429866E+03  0.34063429867E+03  0.25500000000E-02 0.  1.
    5000001    1    1    2    0    0 -0.16511147216E+03  0.23729792879E+02  0.24468614921E+03  0.33900031405E+03  0.16500000000E+03 0.  0.
   -5000001    1    1    2    0    0  0.16511147216E+03 -0.23729792879E+02 -0.24658268895E+03  0.34037174354E+03  0.16500000000E+03 0.  0.
<mgrwt>
<rscale>  0 0.67936941E+03</rscale>
<asrwt>0</asrwt>
<pdfrwt beam="1">  1        2 0.48662042E-01 0.67936941E+03</pdfrwt>
<pdfrwt beam="2">  1       -2 0.48391109E-01 0.67936941E+03</pdfrwt>
<totfact> 0.42205592E+02</totfact>
</mgrwt>
</event>
<event>
 4    1  0.5280257E-005  0.9155264E+03  0.7818608E-02  0.9406378E-01
         -2   -1    0    0    0  501 -0.00000000000E+00  0.00000000000E+00  0.12058468636E+03  0.12058468639E+03  0.25500000000E-02 0.  1.
          2   -1    0    0  501    0  0.00000000000E+00 -0.00000000000E+00 -0.17377591143E+04  0.17377591143E+04  0.25500000000E-02 0. -1.
    5000001    1    1    2    0    0  0.34478238655E+02 -0.38720217031E+03 -0.11671681961E+04  0.12412174940E+04  0.16500000000E+03 0.  0.
   -5000001    1    1    2    0    0 -0.34478238655E+02  0.38720217031E+03 -0.45000623190E+03  0.61712630666E+03  0.16500000000E+03 0.  0.
<mgrwt>
<rscale>  0 0.91552638E+03</rscale>
<asrwt>0</asrwt>
<pdfrwt beam="1">  1        2 0.24825129E+00 0.91552638E+03</pdfrwt>
<pdfrwt beam="2">  1       -2 0.17226385E-01 0.91552638E+03</pdfrwt>
<totfact> 0.30455049E+02</totfact>
</mgrwt>
</event>
<event>
 4    1  0.5280257E-005  0.4855052E+03  0.7818608E-02  0.1017633E+00
         -2   -1    0    0    0  501 -0.00000000000E+00  0.00000000000E+00  0.15535592524E+02  0.15535592733E+02  0.25500000000E-02 0. -1.
          2   -1    0    0  501    0  0.00000000000E+00 -0.00000000000E+00 -0.37931498555E+04  0.37931498555E+04  0.25500000000E-02 0.  1.
    5000001    1    1    2    0    0  0.17650916148E+03 -0.96204693288E+01 -0.20562880079E+04  0.20704572947E+04  0.16500000000E+03 0.  0.
   -5000001    1    1    2    0    0 -0.17650916148E+03  0.96204693288E+01 -0.17213262551E+04  0.17382281536E+04  0.16500000000E+03 0.  0.
<mgrwt>
<rscale>  0 0.48550523E+03</rscale>
<asrwt>0</asrwt>
<pdfrwt beam="1">  1        2 0.54187796E+00 0.48550523E+03</pdfrwt>
<pdfrwt beam="2">  1       -2 0.22193728E-02 0.48550523E+03</pdfrwt>
<totfact> 0.62436474E+02</totfact>
</mgrwt>
</event>
<event>
 4    1  0.5280257E-005  0.4702180E+03  0.7818608E-02  0.1021859E+00
         -2   -1    0    0    0  501 -0.00000000000E+00  0.00000000000E+00  0.24726763911E+03  0.24726763912E+03  0.25500000000E-02 0. -1.
          2   -1    0    0  501    0  0.00000000000E+00 -0.00000000000E+00 -0.22354820793E+03  0.22354820795E+03  0.25500000000E-02 0.  1.
    5000001    1    1    2    0    0 -0.10614010949E+03 -0.48864324574E+02 -0.10828365034E+03  0.22935516996E+03  0.16500000000E+03 0.  0.
   -5000001    1    1    2    0    0  0.10614010949E+03  0.48864324574E+02  0.13200308152E+03  0.24146067710E+03  0.16500000000E+03 0.  0.
<mgrwt>
<rscale>  0 0.47021798E+03</rscale>
<asrwt>0</asrwt>
<pdfrwt beam="1">  1        2 0.31935458E-01 0.47021798E+03</pdfrwt>
<pdfrwt beam="2">  1       -2 0.35323948E-01 0.47021798E+03</pdfrwt>
<totfact> 0.12456674E+03</totfact>
</mgrwt>
</event>
<event>
 4    1  0.5280257E-005  0.7406332E+03  0.7818608E-02  0.9650161E-01
         -2   -1    0    0    0  501 -0.00000000000E+00  0.00000000000E+00  0.60999826352E+02  0.60999826406E+02  0.25500000000E-02 0. -1.
          2   -1    0    0  501    0  0.00000000000E+00 -0.00000000000E+00 -0.22481109103E+04  0.22481109103E+04  0.25500000000E-02 0.  1.
    5000001    1    1    2    0    0 -0.31172144427E+03 -0.71264813489E+02 -0.82067753493E+03  0.89609460929E+03  0.16500000000E+03 0.  0.
   -5000001    1    1    2    0    0  0.31172144427E+03  0.71264813489E+02 -0.13664335490E+04  0.14130161274E+04  0.16500000000E+03 0.  0.
<mgrwt>
<rscale>  0 0.74063318E+03</rscale>
<asrwt>0</asrwt>
<pdfrwt beam="1">  1        2 0.32115865E+00 0.74063318E+03</pdfrwt>
<pdfrwt beam="2">  1       -2 0.87142623E-02 0.74063318E+03</pdfrwt>
<totfact> 0.52578894E+02</totfact>
</mgrwt>
</event>
<event>
 4    1  0.5280257E-005  0.6334316E+03  0.7818608E-02  0.9838375E-01
         -2   -1    0    0    0  501 -0.00000000000E+00  0.00000000000E+00  0.71046778295E+02  0.71046778341E+02  0.25500000000E-02 0. -1.
          2   -1    0    0  501    0  0.00000000000E+00 -0.00000000000E+00 -0.14118710827E+04  0.14118710827E+04  0.25500000000E-02 0.  1.
    5000001    1    1    2    0    0 -0.25876744032E+03 -0.74750416417E+02 -0.61622832758E+03  0.69246701340E+03  0.16500000000E+03 0.  0.
   -5000001    1    1    2    0    0  0.25876744032E+03  0.74750416417E+02 -0.72459597685E+03  0.79045084767E+03  0.16500000000E+03 0.  0.
<mgrwt>
<rscale>  0 0.63343158E+03</rscale>
<asrwt>0</asrwt>
<pdfrwt beam="1">  1        2 0.20169585E+00 0.63343158E+03</pdfrwt>
<pdfrwt beam="2">  1       -2 0.10149541E-01 0.63343158E+03</pdfrwt>
<totfact> 0.11052168E+03</totfact>
</mgrwt>
</event>
<event>
 4    1  0.5280257E-005  0.7620777E+03  0.7818608E-02  0.9616591E-01
         -2   -1    0    0    0  501 -0.00000000000E+00  0.00000000000E+00  0.29653524551E+02  0.29653524661E+02  0.25500000000E-02 0. -1.
          2   -1    0    0  501    0  0.00000000000E+00 -0.00000000000E+00 -0.48962337814E+04  0.48962337814E+04  0.25500000000E-02 0.  1.
    5000001    1    1    2    0    0  0.20807560779E+03 -0.27117087491E+03 -0.26511952670E+04  0.26782252418E+04  0.16500000000E+03 0.  0.
   -5000001    1    1    2    0    0 -0.20807560779E+03  0.27117087491E+03 -0.22153849899E+04  0.22476620643E+04  0.16500000000E+03 0.  0.
<mgrwt>
<rscale>  0 0.76207766E+03</rscale>
<asrwt>0</asrwt>
<pdfrwt beam="1">  1        2 0.69946145E+00 0.76207766E+03</pdfrwt>
<pdfrwt beam="2">  1       -2 0.42362209E-02 0.76207766E+03</pdfrwt>
<totfact> 0.33500722E+01</totfact>
</mgrwt>
</event>
<event>
 4    1  0.5280257E-005  0.5544049E+03  0.7818608E-02  0.1000479E+00
          2   -1    0    0  501    0  0.00000000000E+00  0.00000000000E+00  0.50805882884E+03  0.50805882885E+03  0.25500000000E-02 0.  1.
         -2   -1    0    0    0  501 -0.00000000000E+00 -0.00000000000E+00 -0.15124467600E+03  0.15124467602E+03  0.25500000000E-02 0. -1.
    5000001    1    1    2    0    0  0.71165540673E+02 -0.11699477675E+03 -0.30514650670E+02  0.21658360019E+03  0.16500000000E+03 0.  0.
   -5000001    1    1    2    0    0 -0.71165540673E+02  0.11699477675E+03  0.38732880351E+03  0.44271990468E+03  0.16500000000E+03 0.  0.
<mgrwt>
<rscale>  0 0.55440488E+03</rscale>
<asrwt>0</asrwt>
<pdfrwt beam="1">  1        2 0.72579833E-01 0.55440488E+03</pdfrwt>
<pdfrwt beam="2">  1       -2 0.21606382E-01 0.55440488E+03</pdfrwt>
<totfact> 0.12274499E+03</totfact>
</mgrwt>
</event>
<event>
 4    1  0.5280257E-005  0.1049785E+04  0.7818608E-02  0.9255566E-01
          2   -1    0    0  501    0  0.00000000000E+00  0.00000000000E+00  0.21710156032E+04  0.21710156032E+04  0.25500000000E-02 0.  1.
         -2   -1    0    0    0  501 -0.00000000000E+00 -0.00000000000E+00 -0.12690484427E+03  0.12690484429E+03  0.25500000000E-02 0. -1.
    5000001    1    1    2    0    0 -0.36650217710E+03  0.22906449335E+03  0.47924606172E+03  0.66610522863E+03  0.16500000000E+03 0.  0.
   -5000001    1    1    2    0    0  0.36650217710E+03 -0.22906449335E+03  0.15648646972E+04  0.16318152188E+04  0.16500000000E+03 0.  0.
<mgrwt>
<rscale>  0 0.10497855E+04</rscale>
<asrwt>0</asrwt>
<pdfrwt beam="1">  1        2 0.31014506E+00 0.10497855E+04</pdfrwt>
<pdfrwt beam="2">  1       -2 0.18129265E-01 0.10497855E+04</pdfrwt>
<totfact> 0.16593319E+02</totfact>
</mgrwt>
</event>
<event>
 4    1  0.5280257E-005  0.7759967E+03  0.7818608E-02  0.9595426E-01
         -2   -1    0    0    0  501 -0.00000000000E+00  0.00000000000E+00  0.19026531149E+03  0.19026531151E+03  0.25500000000E-02 0. -1.
          2   -1    0    0  501    0  0.00000000000E+00 -0.00000000000E+00 -0.79122517717E+03  0.79122517717E+03  0.25500000000E-02 0.  1.
    5000001    1    1    2    0    0  0.10822259502E+02  0.35084636369E+03 -0.31358845842E+03  0.49877150426E+03  0.16500000000E+03 0.  0.
   -5000001    1    1    2    0    0 -0.10822259502E+02 -0.35084636369E+03 -0.28737140726E+03  0.48271898442E+03  0.16500000000E+03 0.  0.
<mgrwt>
<rscale>  0 0.77599666E+03</rscale>
<asrwt>0</asrwt>
<pdfrwt beam="1">  1        2 0.11303217E+00 0.77599666E+03</pdfrwt>
<pdfrwt beam="2">  1       -2 0.27180759E-01 0.77599666E+03</pdfrwt>
<totfact> 0.47588213E+02</totfact>
</mgrwt>
</event>
<event>
 4    1  0.5280257E-005  0.6822860E+03  0.7818608E-02  0.9748014E-01
          2   -1    0    0  501    0  0.00000000000E+00  0.00000000000E+00  0.10510837809E+04  0.10510837809E+04  0.25500000000E-02 0.  1.
         -2   -1    0    0    0  501 -0.00000000000E+00 -0.00000000000E+00 -0.11072243568E+03  0.11072243571E+03  0.25500000000E-02 0. -1.
    5000001    1    1    2    0    0  0.26601562271E+03  0.84717630984E+02  0.28987391142E+03  0.43496353071E+03  0.16500000000E+03 0.  0.
   -5000001    1    1    2    0    0 -0.26601562271E+03 -0.84717630984E+02  0.65048743381E+03  0.72684268592E+03  0.16500000000E+03 0.  0.
<mgrwt>
<rscale>  0 0.68228603E+03</rscale>
<asrwt>0</asrwt>
<pdfrwt beam="1">  1        2 0.15015482E+00 0.68228603E+03</pdfrwt>
<pdfrwt beam="2">  1       -2 0.15817491E-01 0.68228603E+03</pdfrwt>
<totfact> 0.84088145E+02</totfact>
</mgrwt>
</event>
<event>
 4    1  0.5280257E-005  0.4609711E+03  0.7818608E-02  0.1024500E+00
         -2   -1    0    0    0  501 -0.00000000000E+00  0.00000000000E+00  0.81608688198E+02  0.81608688238E+02  0.25500000000E-02 0. -1.
          2   -1    0    0  501    0  0.00000000000E+00 -0.00000000000E+00 -0.65095513665E+03  0.65095513666E+03  0.25500000000E-02 0.  1.
    5000001    1    1    2    0    0  0.82557522570E+02  0.41971576593E+02 -0.49382482730E+03  0.52883392273E+03  0.16500000000E+03 0.  0.
   -5000001    1    1    2    0    0 -0.82557522570E+02 -0.41971576593E+02 -0.75521621158E+02  0.20372990217E+03  0.16500000000E+03 0.  0.
<mgrwt>
<rscale>  0 0.46097113E+03</rscale>
<asrwt>0</asrwt>
<pdfrwt beam="1">  1        2 0.92993588E-01 0.46097113E+03</pdfrwt>
<pdfrwt beam="2">  1       -2 0.11658384E-01 0.46097113E+03</pdfrwt>
<totfact> 0.26096035E+03</totfact>
</mgrwt>
</event>
<event>
 4    1  0.5280257E-005  0.1011627E+04  0.7818608E-02  0.9295883E-01
         -2   -1    0    0    0  501 -0.00000000000E+00  0.00000000000E+00  0.39919877621E+03  0.39919877621E+03  0.25500000000E-02 0. -1.
          2   -1    0    0  501    0  0.00000000000E+00 -0.00000000000E+00 -0.64090257957E+03  0.64090257958E+03  0.25500000000E-02 0.  1.
    5000001    1    1    2    0    0 -0.46283772454E+03 -0.76577549247E+02 -0.25840665585E+02  0.49797150552E+03  0.16500000000E+03 0.  0.
   -5000001    1    1    2    0    0  0.46283772454E+03  0.76577549247E+02 -0.21586313778E+03  0.54212985028E+03  0.16500000000E+03 0.  0.
<mgrwt>
<rscale>  0 0.10116275E+04</rscale>
<asrwt>0</asrwt>
<pdfrwt beam="1">  1        2 0.91557511E-01 0.10116275E+04</pdfrwt>
<pdfrwt beam="2">  1       -2 0.57028397E-01 0.10116275E+04</pdfrwt>
<totfact> 0.14424638E+02</totfact>
</mgrwt>
</event>
<event>
 4    1  0.5280257E-005  0.4140583E+03  0.7818608E-02  0.1039018E+00
          2   -1    0    0  501    0  0.00000000000E+00  0.00000000000E+00  0.30958649559E+04  0.30958649559E+04  0.25500000000E-02 0.  1.
         -2   -1    0    0    0  501 -0.00000000000E+00 -0.00000000000E+00 -0.13844621158E+02  0.13844621393E+02  0.25500000000E-02 0. -1.
    5000001    1    1    2    0    0 -0.37096569064E+02  0.10025979642E+03  0.20281916477E+04  0.20376983443E+04  0.16500000000E+03 0.  0.
   -5000001    1    1    2    0    0  0.37096569064E+02 -0.10025979642E+03  0.10538286870E+04  0.10720112331E+04  0.16500000000E+03 0.  0.
<mgrwt>
<rscale>  0 0.41405834E+03</rscale>
<asrwt>0</asrwt>
<pdfrwt beam="1">  1        2 0.44226655E+00 0.41405834E+03</pdfrwt>
<pdfrwt beam="2">  1       -2 0.19778025E-02 0.41405834E+03</pdfrwt>
<totfact> 0.19099427E+03</totfact>
</mgrwt>
</event>
<event>
 4    1  0.5280257E-005  0.1006819E+04  0.7818608E-02  0.9301097E-01
          2   -1    0    0  501    0  0.00000000000E+00  0.00000000000E+00  0.24099471674E+04  0.24099471674E+04  0.25500000000E-02 0.  1.
         -2   -1    0    0    0  501 -0.00000000000E+00 -0.00000000000E+00 -0.10515638316E+03  0.10515638319E+03  0.25500000000E-02 0. -1.
    5000001    1    1    2    0    0  0.32189427328E+03  0.34967690084E+03  0.11086635251E+04  0.12174767637E+04  0.16500000000E+03 0.  0.
   -5000001    1    1    2    0    0 -0.32189427328E+03 -0.34967690084E+03  0.11961272592E+04  0.12976267870E+04  0.16500000000E+03 0.  0.
<mgrwt>
<rscale>  0 0.10068194E+04</rscale>
<asrwt>0</asrwt>
<pdfrwt beam="1">  1        2 0.34427819E+00 0.10068194E+04</pdfrwt>
<pdfrwt beam="2">  1       -2 0.15022340E-01 0.10068194E+04</pdfrwt>
<totfact> 0.17320477E+02</totfact>
</mgrwt>
</event>
<event>
 4    1  0.5280257E-005  0.4210871E+03  0.7818608E-02  0.1036713E+00
         -2   -1    0    0    0  501 -0.00000000000E+00  0.00000000000E+00  0.60999400837E+02  0.60999400890E+02  0.25500000000E-02 0. -1.
          2   -1    0    0  501    0  0.00000000000E+00 -0.00000000000E+00 -0.72670526142E+03  0.72670526143E+03  0.25500000000E-02 0.  1.
    5000001    1    1    2    0    0  0.12354584791E+03  0.26860960053E+01 -0.25276846142E+03  0.32617125369E+03  0.16500000000E+03 0.  0.
   -5000001    1    1    2    0    0 -0.12354584791E+03 -0.26860960053E+01 -0.41293739917E+03  0.46153340863E+03  0.16500000000E+03 0.  0.
<mgrwt>
<rscale>  0 0.42108710E+03</rscale>
<asrwt>0</asrwt>
<pdfrwt beam="1">  1        2 0.10381503E+00 0.42108710E+03</pdfrwt>
<pdfrwt beam="2">  1       -2 0.87142005E-02 0.42108710E+03</pdfrwt>
<totfact> 0.36488980E+03</totfact>
</mgrwt>
</event>
<event>
 4    1  0.5280257E-005  0.1575469E+04  0.7818608E-02  0.8835762E-01
          2   -1    0    0  501    0  0.00000000000E+00  0.00000000000E+00  0.33133305462E+04  0.33133305462E+04  0.25500000000E-02 0.  1.
         -2   -1    0    0    0  501 -0.00000000000E+00 -0.00000000000E+00 -0.18728153360E+03  0.18728153362E+03  0.25500000000E-02 0. -1.
    5000001    1    1    2    0    0  0.65505088788E+03 -0.10705360284E+03  0.24314300527E+04  0.25257927945E+04  0.16500000000E+03 0.  0.
   -5000001    1    1    2    0    0 -0.65505088788E+03  0.10705360284E+03  0.69461895992E+03  0.97481928534E+03  0.16500000000E+03 0.  0.
<mgrwt>
<rscale>  0 0.15754690E+04</rscale>
<asrwt>0</asrwt>
<pdfrwt beam="1">  1        2 0.47333293E+00 0.15754690E+04</pdfrwt>
<pdfrwt beam="2">  1       -2 0.26754505E-01 0.15754690E+04</pdfrwt>
<totfact> 0.19126265E+01</totfact>
</mgrwt>
</event>
<event>
 4    1  0.5280257E-005  0.7763757E+03  0.7818608E-02  0.9594856E-01
          2   -1    0    0  501    0  0.00000000000E+00  0.00000000000E+00  0.23553291826E+03  0.23553291827E+03  0.25500000000E-02 0.  1.
         -2   -1    0    0    0  501 -0.00000000000E+00 -0.00000000000E+00 -0.63978230351E+03  0.63978230352E+03  0.25500000000E-02 0. -1.
    5000001    1    1    2    0    0  0.29415931510E+03 -0.17458265897E+03 -0.11153603143E+03  0.39582078493E+03  0.16500000000E+03 0.  0.
   -5000001    1    1    2    0    0 -0.29415931510E+03  0.17458265897E+03 -0.29271335382E+03  0.47949443686E+03  0.16500000000E+03 0.  0.
<mgrwt>
<rscale>  0 0.77637566E+03</rscale>
<asrwt>0</asrwt>
<pdfrwt beam="1">  1        2 0.33647560E-01 0.77637566E+03</pdfrwt>
<pdfrwt beam="2">  1       -2 0.91397471E-01 0.77637566E+03</pdfrwt>
<totfact> 0.16070894E+02</totfact>
</mgrwt>
</event>
<event>
 4    1  0.5280257E-005  0.6415865E+03  0.7818608E-02  0.9822696E-01
         -2   -1    0    0    0  501 -0.00000000000E+00  0.00000000000E+00  0.65267711873E+02  0.65267711923E+02  0.25500000000E-02 0. -1.
          2   -1    0    0  501    0  0.00000000000E+00 -0.00000000000E+00 -0.15767107807E+04  0.15767107807E+04  0.25500000000E-02 0.  1.
    5000001    1    1    2    0    0  0.10749735924E+03 -0.21002094146E+03 -0.39361899700E+03  0.48767344904E+03  0.16500000000E+03 0.  0.
   -5000001    1    1    2    0    0 -0.10749735924E+03  0.21002094146E+03 -0.11178240719E+04  0.11543050436E+04  0.16500000000E+03 0.  0.
<mgrwt>
<rscale>  0 0.64158649E+03</rscale>
<asrwt>0</asrwt>
<pdfrwt beam="1">  1        2 0.22524437E+00 0.64158649E+03</pdfrwt>
<pdfrwt beam="2">  1       -2 0.93239598E-02 0.64158649E+03</pdfrwt>
<totfact> 0.10392921E+03</totfact>
</mgrwt>
</event>
<event>
 4    1  0.5280257E-005  0.5151734E+03  0.7818608E-02  0.1009893E+00
         -2   -1    0    0    0  501 -0.00000000000E+00  0.00000000000E+00  0.10977141868E+04  0.10977141868E+04  0.25500000000E-02 0. -1.
          2   -1    0    0  501    0  0.00000000000E+00 -0.00000000000E+00 -0.60444605187E+02  0.60444605241E+02  0.25500000000E-02 0.  1.
    5000001    1    1    2    0    0 -0.18945365719E+03  0.56861287644E+02  0.51881476963E+03  0.57924058857E+03  0.16500000000E+03 0.  0.
   -5000001    1    1    2    0    0  0.18945365719E+03 -0.56861287644E+02  0.51845481202E+03  0.57891820352E+03  0.16500000000E+03 0.  0.
<mgrwt>
<rscale>  0 0.51517337E+03</rscale>
<asrwt>0</asrwt>
<pdfrwt beam="1">  1        2 0.86349437E-02 0.51517337E+03</pdfrwt>
<pdfrwt beam="2">  1       -2 0.15681631E+00 0.51517337E+03</pdfrwt>
<totfact> 0.21734863E+02</totfact>
</mgrwt>
</event>
<event>
 4    1  0.5280257E-005  0.7702752E+03  0.7818608E-02  0.9604068E-01
          2   -1    0    0  501    0  0.00000000000E+00  0.00000000000E+00  0.34436395715E+04  0.34436395715E+04  0.25500000000E-02 0.  1.
         -2   -1    0    0    0  501 -0.00000000000E+00 -0.00000000000E+00 -0.43073899848E+02  0.43073899923E+02  0.25500000000E-02 0. -1.
    5000001    1    1    2    0    0  0.22165518863E+03  0.21424913008E+03  0.96937978302E+03  0.10305124337E+04  0.16500000000E+03 0.  0.
   -5000001    1    1    2    0    0 -0.22165518863E+03 -0.21424913008E+03  0.24311858886E+04  0.24562010377E+04  0.16500000000E+03 0.  0.
<mgrwt>
<rscale>  0 0.77027524E+03</rscale>
<asrwt>0</asrwt>
<pdfrwt beam="1">  1        2 0.49194862E+00 0.77027524E+03</pdfrwt>
<pdfrwt beam="2">  1       -2 0.61534129E-02 0.77027524E+03</pdfrwt>
<totfact> 0.20600181E+02</totfact>
</mgrwt>
</event>
<event>
 4    1  0.5280257E-005  0.3898804E+03  0.7818608E-02  0.1047341E+00
          2   -1    0    0  501    0  0.00000000000E+00  0.00000000000E+00  0.61466683874E+03  0.61466683875E+03  0.25500000000E-02 0.  1.
         -2   -1    0    0    0  501 -0.00000000000E+00 -0.00000000000E+00 -0.61824842881E+02  0.61824842933E+02  0.25500000000E-02 0. -1.
    5000001    1    1    2    0    0  0.71068622400E+02 -0.28141414403E+02  0.15454159921E+03  0.23864365523E+03  0.16500000000E+03 0.  0.
   -5000001    1    1    2    0    0 -0.71068622400E+02  0.28141414403E+02  0.39830039666E+03  0.43784802646E+03  0.16500000000E+03 0.  0.
<mgrwt>
<rscale>  0 0.38988040E+03</rscale>
<asrwt>0</asrwt>
<pdfrwt beam="1">  1        2 0.87809551E-01 0.38988040E+03</pdfrwt>
<pdfrwt beam="2">  1       -2 0.88321202E-02 0.38988040E+03</pdfrwt>
<totfact> 0.43548727E+03</totfact>
</mgrwt>
</event>
<event>
 4    1  0.5280257E-005  0.9650487E+03  0.7818608E-02  0.9347732E-01
         -2   -1    0    0    0  501 -0.00000000000E+00  0.00000000000E+00  0.59472879399E+03  0.59472879399E+03  0.25500000000E-02 0. -1.
          2   -1    0    0  501    0  0.00000000000E+00 -0.00000000000E+00 -0.39148892741E+03  0.39148892742E+03  0.25500000000E-02 0.  1.
    5000001    1    1    2    0    0  0.14882728219E+03 -0.41678595199E+03  0.20250030164E+03  0.51389829914E+03  0.16500000000E+03 0.  0.
   -5000001    1    1    2    0    0 -0.14882728219E+03  0.41678595199E+03  0.73956493589E+00  0.47231942227E+03  0.16500000000E+03 0.  0.
<mgrwt>
<rscale>  0 0.96504868E+03</rscale>
<asrwt>0</asrwt>
<pdfrwt beam="1">  1        2 0.55926989E-01 0.96504868E+03</pdfrwt>
<pdfrwt beam="2">  1       -2 0.84961257E-01 0.96504868E+03</pdfrwt>
<totfact> 0.10696572E+02</totfact>
</mgrwt>
</event>
<event>
 4    1  0.5280257E-005  0.4293630E+03  0.7818608E-02  0.1034061E+00
          2   -1    0    0  501    0  0.00000000000E+00  0.00000000000E+00  0.98380088274E+02  0.98380088307E+02  0.25500000000E-02 0.  1.
         -2   -1    0    0    0  501 -0.00000000000E+00 -0.00000000000E+00 -0.46847018986E+03  0.46847018987E+03  0.25500000000E-02 0. -1.
    5000001    1    1    2    0    0  0.82466516797E+02  0.69574420441E+02 -0.72851761334E+02  0.21017541603E+03  0.16500000000E+03 0.  0.
   -5000001    1    1    2    0    0 -0.82466516797E+02 -0.69574420441E+02 -0.29723834025E+03  0.35667486215E+03  0.16500000000E+03 0.  0.
<mgrwt>
<rscale>  0 0.42936296E+03</rscale>
<asrwt>0</asrwt>
<pdfrwt beam="1">  1        2 0.14054299E-01 0.42936296E+03</pdfrwt>
<pdfrwt beam="2">  1       -2 0.66924312E-01 0.42936296E+03</pdfrwt>
<totfact> 0.89226725E+02</totfact>
</mgrwt>
</event>
<event>
 4    1  0.5280257E-005  0.3862109E+03  0.7818608E-02  0.1048662E+00
         -2   -1    0    0    0  501 -0.00000000000E+00  0.00000000000E+00  0.19996603257E+02  0.19996603419E+02  0.25500000000E-02 0. -1.
          2   -1    0    0  501    0  0.00000000000E+00 -0.00000000000E+00 -0.18648019772E+04  0.18648019772E+04  0.25500000000E-02 0.  1.
    5000001    1    1    2    0    0 -0.72067065152E+02  0.48649245460E+02 -0.11666237809E+04  0.11814383002E+04  0.16500000000E+03 0.  0.
   -5000001    1    1    2    0    0  0.72067065152E+02 -0.48649245460E+02 -0.67818159303E+03  0.70336028043E+03  0.16500000000E+03 0.  0.
<mgrwt>
<rscale>  0 0.38621085E+03</rscale>
<asrwt>0</asrwt>
<pdfrwt beam="1">  1        2 0.26640017E+00 0.38621085E+03</pdfrwt>
<pdfrwt beam="2">  1       -2 0.28566588E-02 0.38621085E+03</pdfrwt>
<totfact> 0.46888452E+03</totfact>
</mgrwt>
</event>
<event>
 4    1  0.5280257E-005  0.5872981E+03  0.7818608E-02  0.9932115E-01
          2   -1    0    0  501    0  0.00000000000E+00  0.00000000000E+00  0.42921000029E+03  0.42921000029E+03  0.25500000000E-02 0.  1.
         -2   -1    0    0    0  501 -0.00000000000E+00 -0.00000000000E+00 -0.20090345273E+03  0.20090345275E+03  0.25500000000E-02 0. -1.
    5000001    1    1    2    0    0 -0.22000691963E+03 -0.93907069824E+02  0.68846955162E+02  0.29864106497E+03  0.16500000000E+03 0.  0.
   -5000001    1    1    2    0    0  0.22000691963E+03  0.93907069824E+02  0.15945959239E+03  0.33147238807E+03  0.16500000000E+03 0.  0.
<mgrwt>
<rscale>  0 0.58729812E+03</rscale>
<asrwt>0</asrwt>
<pdfrwt beam="1">  1        2 0.61315714E-01 0.58729812E+03</pdfrwt>
<pdfrwt beam="2">  1       -2 0.28700493E-01 0.58729812E+03</pdfrwt>
<totfact> 0.89177009E+02</totfact>
</mgrwt>
</event>
<event>
 4    1  0.5280257E-005  0.3946171E+03  0.7818608E-02  0.1045660E+00
         -2   -1    0    0    0  501 -0.00000000000E+00  0.00000000000E+00  0.91688035151E+02  0.91688035187E+02  0.25500000000E-02 0. -1.
          2   -1    0    0  501    0  0.00000000000E+00 -0.00000000000E+00 -0.42459907124E+03  0.42459907125E+03  0.25500000000E-02 0.  1.
    5000001    1    1    2    0    0  0.87681929726E+02 -0.59753527965E+02 -0.13879289730E+03  0.24030620725E+03  0.16500000000E+03 0.  0.
   -5000001    1    1    2    0    0 -0.87681929726E+02  0.59753527965E+02 -0.19411813879E+03  0.27598089918E+03  0.16500000000E+03 0.  0.
<mgrwt>
<rscale>  0 0.39461705E+03</rscale>
<asrwt>0</asrwt>
<pdfrwt beam="1">  1        2 0.60657009E-01 0.39461705E+03</pdfrwt>
<pdfrwt beam="2">  1       -2 0.13098291E-01 0.39461705E+03</pdfrwt>
<totfact> 0.34983221E+03</totfact>
</mgrwt>
</event>
<event>
 4    1  0.5280257E-005  0.4987678E+03  0.7818608E-02  0.1014101E+00
          2   -1    0    0  501    0  0.00000000000E+00  0.00000000000E+00  0.20550147310E+03  0.20550147312E+03  0.25500000000E-02 0.  1.
         -2   -1    0    0    0  501 -0.00000000000E+00 -0.00000000000E+00 -0.30263690092E+03  0.30263690093E+03  0.25500000000E-02 0. -1.
    5000001    1    1    2    0    0 -0.61512135266E+02  0.17347030605E+03 -0.14907015077E+02  0.24763462796E+03  0.16500000000E+03 0.  0.
   -5000001    1    1    2    0    0  0.61512135266E+02 -0.17347030605E+03 -0.82228412743E+02  0.26050374609E+03  0.16500000000E+03 0.  0.
<mgrwt>
<rscale>  0 0.49876780E+03</rscale>
<asrwt>0</asrwt>
<pdfrwt beam="1">  1        2 0.29357353E-01 0.49876780E+03</pdfrwt>
<pdfrwt beam="2">  1       -2 0.43233843E-01 0.49876780E+03</pdfrwt>
<totfact> 0.92752123E+02</totfact>
</mgrwt>
</event>
<event>
 4    1  0.5280257E-005  0.4581472E+03  0.7818608E-02  0.1025320E+00
         -2   -1    0    0    0  501 -0.00000000000E+00  0.00000000000E+00  0.47603914631E+03  0.47603914631E+03  0.25500000000E-02 0. -1.
          2   -1    0    0  501    0  0.00000000000E+00 -0.00000000000E+00 -0.11023191145E+03  0.11023191148E+03  0.25500000000E-02 0.  1.
    5000001    1    1    2    0    0 -0.13451525382E+03 -0.37910916813E+02  0.27966896427E+03  0.35351282961E+03  0.16500000000E+03 0.  0.
   -5000001    1    1    2    0    0  0.13451525382E+03  0.37910916813E+02  0.86138270593E+02  0.23275822818E+03  0.16500000000E+03 0.  0.
<mgrwt>
<rscale>  0 0.45814716E+03</rscale>
<asrwt>0</asrwt>
<pdfrwt beam="1">  1        2 0.15747416E-01 0.45814716E+03</pdfrwt>
<pdfrwt beam="2">  1       -2 0.68005592E-01 0.45814716E+03</pdfrwt>
<totfact> 0.75199168E+02</totfact>
</mgrwt>
</event>
<event>
 4    1  0.5280257E-005  0.5322306E+03  0.7818608E-02  0.1005693E+00
         -2   -1    0    0    0  501 -0.00000000000E+00  0.00000000000E+00  0.73333170891E+02  0.73333170935E+02  0.25500000000E-02 0. -1.
          2   -1    0    0  501    0  0.00000000000E+00 -0.00000000000E+00 -0.96569344959E+03  0.96569344960E+03  0.25500000000E-02 0.  1.
    5000001    1    1    2    0    0  0.84876003476E+02  0.93348286108E+02 -0.12141688376E+03  0.24059280568E+03  0.16500000000E+03 0.  0.
   -5000001    1    1    2    0    0 -0.84876003476E+02 -0.93348286108E+02 -0.77094339494E+03  0.79843381485E+03  0.16500000000E+03 0.  0.
<mgrwt>
<rscale>  0 0.53223064E+03</rscale>
<asrwt>0</asrwt>
<pdfrwt beam="1">  1        2 0.13795620E+00 0.53223064E+03</pdfrwt>
<pdfrwt beam="2">  1       -2 0.10476168E-01 0.53223064E+03</pdfrwt>
<totfact> 0.18823547E+03</totfact>
</mgrwt>
</event>
<event>
 4    1  0.5280257E-005  0.7317252E+03  0.7818608E-02  0.9664465E-01
         -2   -1    0    0    0  501 -0.00000000000E+00  0.00000000000E+00  0.85084100887E+02  0.85084100925E+02  0.25500000000E-02 0. -1.
          2   -1    0    0  501    0  0.00000000000E+00 -0.00000000000E+00 -0.15732132412E+04  0.15732132412E+04  0.25500000000E-02 0.  1.
    5000001    1    1    2    0    0  0.26430194390E+03 -0.14413632715E+03 -0.45740301404E+03  0.57190323973E+03  0.16500000000E+03 0.  0.
   -5000001    1    1    2    0    0 -0.26430194390E+03  0.14413632715E+03 -0.10307261263E+04  0.10863941024E+04  0.16500000000E+03 0.  0.
<mgrwt>
<rscale>  0 0.73172518E+03</rscale>
<asrwt>0</asrwt>
<pdfrwt beam="1">  1        2 0.22474473E+00 0.73172518E+03</pdfrwt>
<pdfrwt beam="2">  1       -2 0.12154873E-01 0.73172518E+03</pdfrwt>
<totfact> 0.67389494E+02</totfact>
</mgrwt>
</event>
<event>
 4    1  0.5280257E-005  0.4022497E+03  0.7818608E-02  0.1043003E+00
          2   -1    0    0  501    0  0.00000000000E+00  0.00000000000E+00  0.55243663967E+03  0.55243663968E+03  0.25500000000E-02 0.  1.
         -2   -1    0    0    0  501 -0.00000000000E+00 -0.00000000000E+00 -0.73223237775E+02  0.73223237820E+02  0.25500000000E-02 0. -1.
    5000001    1    1    2    0    0  0.16092160430E+02  0.11253253129E+03  0.21250201248E+03  0.29206956968E+03  0.16500000000E+03 0.  0.
   -5000001    1    1    2    0    0 -0.16092160430E+02 -0.11253253129E+03  0.26671138942E+03  0.33359030782E+03  0.16500000000E+03 0.  0.
<mgrwt>
<rscale>  0 0.40224967E+03</rscale>
<asrwt>0</asrwt>
<pdfrwt beam="1">  1        2 0.78919523E-01 0.40224967E+03</pdfrwt>
<pdfrwt beam="2">  1       -2 0.10460462E-01 0.40224967E+03</pdfrwt>
<totfact> 0.37590827E+03</totfact>
</mgrwt>
</event>
<event>
 4    1  0.5280257E-005  0.4676817E+03  0.7818608E-02  0.1022577E+00
         -2   -1    0    0    0  501 -0.00000000000E+00  0.00000000000E+00  0.13360712207E+03  0.13360712210E+03  0.25500000000E-02 0. -1.
          2   -1    0    0  501    0  0.00000000000E+00 -0.00000000000E+00 -0.40927113947E+03  0.40927113947E+03  0.25500000000E-02 0.  1.
    5000001    1    1    2    0    0 -0.15161780770E+03  0.63838515798E+02 -0.11481378739E+03  0.25975088351E+03  0.16500000000E+03 0.  0.
   -5000001    1    1    2    0    0  0.15161780770E+03 -0.63838515798E+02 -0.16085023001E+03  0.28312737806E+03  0.16500000000E+03 0.  0.
<mgrwt>
<rscale>  0 0.46768168E+03</rscale>
<asrwt>0</asrwt>
<pdfrwt beam="1">  1        2 0.58467305E-01 0.46768168E+03</pdfrwt>
<pdfrwt beam="2">  1       -2 0.19086732E-01 0.46768168E+03</pdfrwt>
<totfact> 0.19389078E+03</totfact>
</mgrwt>
</event>
<event>
 4    1  0.5280257E-005  0.6103060E+03  0.7818608E-02  0.9884252E-01
         -2   -1    0    0    0  501 -0.00000000000E+00  0.00000000000E+00  0.90499095900E+02  0.90499095936E+02  0.25500000000E-02 0. -1.
          2   -1    0    0  501    0  0.00000000000E+00 -0.00000000000E+00 -0.10289423822E+04  0.10289423822E+04  0.25500000000E-02 0.  1.
    5000001    1    1    2    0    0  0.12347562373E+03  0.15161343187E+03 -0.16416273720E+03  0.30398563562E+03  0.16500000000E+03 0.  0.
   -5000001    1    1    2    0    0 -0.12347562373E+03 -0.15161343187E+03 -0.77428054910E+03  0.81545584252E+03  0.16500000000E+03 0.  0.
<mgrwt>
<rscale>  0 0.61030601E+03</rscale>
<asrwt>0</asrwt>
<pdfrwt beam="1">  1        2 0.14699176E+00 0.61030601E+03</pdfrwt>
<pdfrwt beam="2">  1       -2 0.12928443E-01 0.61030601E+03</pdfrwt>
<totfact> 0.12184902E+03</totfact>
</mgrwt>
</event>
<event>
 4    1  0.5280257E-005  0.6179589E+03  0.7818608E-02  0.9868832E-01
         -2   -1    0    0    0  501 -0.00000000000E+00  0.00000000000E+00  0.55016529193E+03  0.55016529194E+03  0.25500000000E-02 0. -1.
          2   -1    0    0  501    0  0.00000000000E+00 -0.00000000000E+00 -0.17352655553E+03  0.17352655555E+03  0.25500000000E-02 0.  1.
    5000001    1    1    2    0    0  0.15770536479E+03  0.19059856445E+03  0.90027181875E+02  0.31069066342E+03  0.16500000000E+03 0.  0.
   -5000001    1    1    2    0    0 -0.15770536479E+03 -0.19059856445E+03  0.28661155453E+03  0.41300118407E+03  0.16500000000E+03 0.  0.
<mgrwt>
<rscale>  0 0.61795886E+03</rscale>
<asrwt>0</asrwt>
<pdfrwt beam="1">  1        2 0.24789508E-01 0.61795886E+03</pdfrwt>
<pdfrwt beam="2">  1       -2 0.78595043E-01 0.61795886E+03</pdfrwt>
<totfact> 0.32155315E+02</totfact>
</mgrwt>
</event>
<event>
 4    1  0.5280257E-005  0.9402641E+03  0.7818608E-02  0.9376603E-01
          2   -1    0    0  501    0  0.00000000000E+00  0.00000000000E+00  0.19909405030E+04  0.19909405030E+04  0.25500000000E-02 0.  1.
         -2   -1    0    0    0  501 -0.00000000000E+00 -0.00000000000E+00 -0.11101494067E+03  0.11101494070E+03  0.25500000000E-02 0. -1.
    5000001    1    1    2    0    0 -0.33463857438E+03 -0.28530137839E+03  0.98573804353E+03  0.10919177361E+04  0.16500000000E+03 0.  0.
   -5000001    1    1    2    0    0  0.33463857438E+03  0.28530137839E+03  0.89418751878E+03  0.10100377076E+04  0.16500000000E+03 0.  0.
<mgrwt>
<rscale>  0 0.94026409E+03</rscale>
<asrwt>0</asrwt>
<pdfrwt beam="1">  1        2 0.28442007E+00 0.94026409E+03</pdfrwt>
<pdfrwt beam="2">  1       -2 0.15859277E-01 0.94026409E+03</pdfrwt>
<totfact> 0.26010175E+02</totfact>
</mgrwt>
</event>
<event>
 4    1  0.5280257E-005  0.7414467E+03  0.7818608E-02  0.9648866E-01
         -2   -1    0    0    0  501 -0.00000000000E+00  0.00000000000E+00  0.21123934858E+03  0.21123934859E+03  0.25500000000E-02 0. -1.
          2   -1    0    0  501    0  0.00000000000E+00 -0.00000000000E+00 -0.65061641761E+03  0.65061641761E+03  0.25500000000E-02 0.  1.
    5000001    1    1    2    0    0 -0.24127961791E+03 -0.21384477740E+03 -0.31169687257E+03  0.47783405405E+03  0.16500000000E+03 0.  0.
   -5000001    1    1    2    0    0  0.24127961791E+03  0.21384477740E+03 -0.12768019646E+03  0.38402171216E+03  0.16500000000E+03 0.  0.
<mgrwt>
<rscale>  0 0.74144666E+03</rscale>
<asrwt>0</asrwt>
<pdfrwt beam="1">  1        2 0.92945202E-01 0.74144666E+03</pdfrwt>
<pdfrwt beam="2">  1       -2 0.30177050E-01 0.74144666E+03</pdfrwt>
<totfact> 0.50118236E+02</totfact>
</mgrwt>
</event>
<event>
 4    1  0.5280257E-005  0.4939939E+03  0.7818608E-02  0.1015359E+00
         -2   -1    0    0    0  501 -0.00000000000E+00  0.00000000000E+00  0.53534053670E+02  0.53534053731E+02  0.25500000000E-02 0.  1.
          2   -1    0    0  501    0  0.00000000000E+00 -0.00000000000E+00 -0.11396017550E+04  0.11396017550E+04  0.25500000000E-02 0. -1.
    5000001    1    1    2    0    0 -0.15669982030E+03 -0.50174103349E+02 -0.34518347562E+03  0.41647197525E+03  0.16500000000E+03 0.  0.
   -5000001    1    1    2    0    0  0.15669982030E+03  0.50174103349E+02 -0.74088422570E+03  0.77666383347E+03  0.16500000000E+03 0.  0.
<mgrwt>
<rscale>  0 0.49399393E+03</rscale>
<asrwt>0</asrwt>
<pdfrwt beam="1">  1        2 0.16280024E+00 0.49399393E+03</pdfrwt>
<pdfrwt beam="2">  1       -2 0.76477227E-02 0.49399393E+03</pdfrwt>
<totfact> 0.24595689E+03</totfact>
</mgrwt>
</event>
<event>
 4    1  0.5280257E-005  0.3589102E+03  0.7818608E-02  0.1059016E+00
         -2   -1    0    0    0  501 -0.00000000000E+00  0.00000000000E+00  0.14962104491E+03  0.14962104493E+03  0.25500000000E-02 0. -1.
          2   -1    0    0  501    0  0.00000000000E+00 -0.00000000000E+00 -0.21523803556E+03  0.21523803558E+03  0.25500000000E-02 0.  1.
    5000001    1    1    2    0    0  0.45974306714E+02 -0.44467176845E+02 -0.63104692548E+02  0.18787806928E+03  0.16500000000E+03 0.  0.
   -5000001    1    1    2    0    0 -0.45974306714E+02  0.44467176845E+02 -0.25122981045E+01  0.17698101123E+03  0.16500000000E+03 0.  0.
<mgrwt>
<rscale>  0 0.35891024E+03</rscale>
<asrwt>0</asrwt>
<pdfrwt beam="1">  1        2 0.30748291E-01 0.35891024E+03</pdfrwt>
<pdfrwt beam="2">  1       -2 0.21374435E-01 0.35891024E+03</pdfrwt>
<totfact> 0.32117050E+03</totfact>
</mgrwt>
</event>
<event>
 4    1  0.5280257E-005  0.7465283E+03  0.7818608E-02  0.9640813E-01
          2   -1    0    0  501    0  0.00000000000E+00  0.00000000000E+00  0.25077014102E+03  0.25077014103E+03  0.25500000000E-02 0.  1.
         -2   -1    0    0    0  501 -0.00000000000E+00 -0.00000000000E+00 -0.55559302934E+03  0.55559302935E+03  0.25500000000E-02 0. -1.
    5000001    1    1    2    0    0 -0.14807649685E+03  0.28568692846E+03 -0.25233252730E+03  0.44095393676E+03  0.16500000000E+03 0.  0.
   -5000001    1    1    2    0    0  0.14807649685E+03 -0.28568692846E+03 -0.52490361023E+02  0.36540923362E+03  0.16500000000E+03 0.  0.
<mgrwt>
<rscale>  0 0.74652834E+03</rscale>
<asrwt>0</asrwt>
<pdfrwt beam="1">  1        2 0.35824306E-01 0.74652834E+03</pdfrwt>
<pdfrwt beam="2">  1       -2 0.79370432E-01 0.74652834E+03</pdfrwt>
<totfact> 0.20680454E+02</totfact>
</mgrwt>
</event>
<event>
 4    1  0.5280257E-005  0.5050179E+03  0.7818608E-02  0.1012477E+00
         -2   -1    0    0    0  501 -0.00000000000E+00  0.00000000000E+00  0.27448880588E+03  0.27448880589E+03  0.25500000000E-02 0. -1.
          2   -1    0    0  501    0  0.00000000000E+00 -0.00000000000E+00 -0.23228918495E+03  0.23228918496E+03  0.25500000000E-02 0.  1.
    5000001    1    1    2    0    0  0.18016295649E+03 -0.39193446402E+02  0.71683462425E+02  0.25760111785E+03  0.16500000000E+03 0.  0.
   -5000001    1    1    2    0    0 -0.18016295649E+03  0.39193446402E+02 -0.29483841491E+02  0.24917687301E+03  0.16500000000E+03 0.  0.
<mgrwt>
<rscale>  0 0.50501794E+03</rscale>
<asrwt>0</asrwt>
<pdfrwt beam="1">  1        2 0.33184169E-01 0.50501794E+03</pdfrwt>
<pdfrwt beam="2">  1       -2 0.39212687E-01 0.50501794E+03</pdfrwt>
<totfact> 0.97822545E+02</totfact>
</mgrwt>
</event>
<event>
 4    1  0.5280257E-005  0.3543499E+03  0.7818608E-02  0.1060844E+00
          2   -1    0    0  501    0  0.00000000000E+00  0.00000000000E+00  0.16870271191E+04  0.16870271191E+04  0.25500000000E-02 0.  1.
         -2   -1    0    0    0  501 -0.00000000000E+00 -0.00000000000E+00 -0.18607270304E+02  0.18607270479E+02  0.25500000000E-02 0. -1.
    5000001    1    1    2    0    0 -0.50134374599E+02  0.40403948827E+02  0.81266474679E+03  0.83174210263E+03  0.16500000000E+03 0.  0.
   -5000001    1    1    2    0    0  0.50134374599E+02 -0.40403948827E+02  0.85575510198E+03  0.87389228693E+03  0.16500000000E+03 0.  0.
<mgrwt>
<rscale>  0 0.35434994E+03</rscale>
<asrwt>0</asrwt>
<pdfrwt beam="1">  1        2 0.24100376E+00 0.35434994E+03</pdfrwt>
<pdfrwt beam="2">  1       -2 0.26581828E-02 0.35434994E+03</pdfrwt>
<totfact> 0.63985536E+03</totfact>
</mgrwt>
</event>
<event>
 4    1  0.5280257E-005  0.7414185E+03  0.7818608E-02  0.9648910E-01
          2   -1    0    0  501    0  0.00000000000E+00  0.00000000000E+00  0.15225319778E+04  0.15225319778E+04  0.25500000000E-02 0.  1.
         -2   -1    0    0    0  501 -0.00000000000E+00 -0.00000000000E+00 -0.90261067945E+02  0.90261067981E+02  0.25500000000E-02 0. -1.
    5000001    1    1    2    0    0 -0.25478249874E+03  0.21159660545E+03  0.76541009941E+03  0.85015578889E+03  0.16500000000E+03 0.  0.
   -5000001    1    1    2    0    0  0.25478249874E+03 -0.21159660545E+03  0.66686081049E+03  0.76263725694E+03  0.16500000000E+03 0.  0.
<mgrwt>
<rscale>  0 0.74141854E+03</rscale>
<asrwt>0</asrwt>
<pdfrwt beam="1">  1        2 0.21750456E+00 0.74141854E+03</pdfrwt>
<pdfrwt beam="2">  1       -2 0.12894439E-01 0.74141854E+03</pdfrwt>
<totfact> 0.64899077E+02</totfact>
</mgrwt>
</event>
<event>
 4    1  0.5280257E-005  0.6219269E+03  0.7818608E-02  0.9860931E-01
          2   -1    0    0  501    0  0.00000000000E+00  0.00000000000E+00  0.41828124062E+03  0.41828124063E+03  0.25500000000E-02 0.  1.
         -2   -1    0    0    0  501 -0.00000000000E+00 -0.00000000000E+00 -0.23118005438E+03  0.23118005439E+03  0.25500000000E-02 0. -1.
    5000001    1    1    2    0    0 -0.64391184840E+02  0.24340545935E+03  0.12118498193E+02  0.30127114088E+03  0.16500000000E+03 0.  0.
   -5000001    1    1    2    0    0  0.64391184840E+02 -0.24340545935E+03  0.17498268805E+03  0.34819015415E+03  0.16500000000E+03 0.  0.
<mgrwt>
<rscale>  0 0.62192694E+03</rscale>
<asrwt>0</asrwt>
<pdfrwt beam="1">  1        2 0.59754463E-01 0.62192694E+03</pdfrwt>
<pdfrwt beam="2">  1       -2 0.33025722E-01 0.62192694E+03</pdfrwt>
<totfact> 0.70703102E+02</totfact>
</mgrwt>
</event>
<event>
 4    1  0.5280257E-005  0.4235252E+03  0.7818608E-02  0.1035925E+00
          2   -1    0    0  501    0  0.00000000000E+00  0.00000000000E+00  0.17366040120E+04  0.17366040120E+04  0.25500000000E-02 0.  1.
         -2   -1    0    0    0  501 -0.00000000000E+00 -0.00000000000E+00 -0.25822464923E+02  0.25822465049E+02  0.25500000000E-02 0. -1.
    5000001    1    1    2    0    0  0.68191325213E+02 -0.59967774747E+02  0.45253214995E+03  0.49015970620E+03  0.16500000000E+03 0.  0.
   -5000001    1    1    2    0    0 -0.68191325213E+02  0.59967774747E+02  0.12582493971E+04  0.12722667708E+04  0.16500000000E+03 0.  0.
<mgrwt>
<rscale>  0 0.42352519E+03</rscale>
<asrwt>0</asrwt>
<pdfrwt beam="1">  1        2 0.24808638E+00 0.42352519E+03</pdfrwt>
<pdfrwt beam="2">  1       -2 0.36889221E-02 0.42352519E+03</pdfrwt>
<totfact> 0.36909334E+03</totfact>
</mgrwt>
</event>
<event>
 4    1  0.5280257E-005  0.5088866E+03  0.7818608E-02  0.1011485E+00
         -2   -1    0    0    0  501 -0.00000000000E+00  0.00000000000E+00  0.24541083078E+02  0.24541083211E+02  0.25500000000E-02 0. -1.
          2   -1    0    0  501    0  0.00000000000E+00 -0.00000000000E+00 -0.26380823403E+04  0.26380823403E+04  0.25500000000E-02 0.  1.
    5000001    1    1    2    0    0 -0.77190305102E+01 -0.18669960937E+03 -0.15735678342E+04  0.15931908412E+04  0.16500000000E+03 0.  0.
   -5000001    1    1    2    0    0  0.77190305102E+01  0.18669960937E+03 -0.10399734230E+04  0.10694325823E+04  0.16500000000E+03 0.  0.
<mgrwt>
<rscale>  0 0.50888662E+03</rscale>
<asrwt>0</asrwt>
<pdfrwt beam="1">  1        2 0.37686872E+00 0.50888662E+03</pdfrwt>
<pdfrwt beam="2">  1       -2 0.35058707E-02 0.50888662E+03</pdfrwt>
<totfact> 0.14004347E+03</totfact>
</mgrwt>
</event>
<event>
 4    1  0.5280257E-005  0.5639783E+03  0.7818608E-02  0.9983093E-01
         -2   -1    0    0    0  501 -0.00000000000E+00  0.00000000000E+00  0.20328694973E+03  0.20328694974E+03  0.25500000000E-02 0. -1.
          2   -1    0    0  501    0  0.00000000000E+00 -0.00000000000E+00 -0.39116081256E+03  0.39116081257E+03  0.25500000000E-02 0.  1.
    5000001    1    1    2    0    0  0.19436715726E+02  0.20441472851E+03 -0.20002096629E+03  0.33075149902E+03  0.16500000000E+03 0.  0.
   -5000001    1    1    2    0    0 -0.19436715726E+02 -0.20441472851E+03  0.12147103454E+02  0.26369626329E+03  0.16500000000E+03 0.  0.
<mgrwt>
<rscale>  0 0.56397833E+03</rscale>
<asrwt>0</asrwt>
<pdfrwt beam="1">  1        2 0.55880116E-01 0.56397833E+03</pdfrwt>
<pdfrwt beam="2">  1       -2 0.29040993E-01 0.56397833E+03</pdfrwt>
<totfact> 0.96776765E+02</totfact>
</mgrwt>
</event>
<event>
 4    1  0.5280257E-005  0.4332823E+03  0.7818608E-02  0.1032828E+00
          2   -1    0    0  501    0  0.00000000000E+00  0.00000000000E+00  0.44619698860E+03  0.44619698861E+03  0.25500000000E-02 0.  1.
         -2   -1    0    0    0  501 -0.00000000000E+00 -0.00000000000E+00 -0.10518535946E+03  0.10518535949E+03  0.25500000000E-02 0. -1.
    5000001    1    1    2    0    0 -0.51476788340E+02 -0.12810888835E+03  0.13814537586E+03  0.25567731985E+03  0.16500000000E+03 0.  0.
   -5000001    1    1    2    0    0  0.51476788340E+02  0.12810888835E+03  0.20286625328E+03  0.29570502825E+03  0.16500000000E+03 0.  0.
<mgrwt>
<rscale>  0 0.43328231E+03</rscale>
<asrwt>0</asrwt>
<pdfrwt beam="1">  1        2 0.63742427E-01 0.43328231E+03</pdfrwt>
<pdfrwt beam="2">  1       -2 0.15026480E-01 0.43328231E+03</pdfrwt>
<totfact> 0.26413414E+03</totfact>
</mgrwt>
</event>
<event>
 4    1  0.5280257E-005  0.6474561E+03  0.7818608E-02  0.9811564E-01
         -2   -1    0    0    0  501 -0.00000000000E+00  0.00000000000E+00  0.12861045118E+03  0.12861045120E+03  0.25500000000E-02 0. -1.
          2   -1    0    0  501    0  0.00000000000E+00 -0.00000000000E+00 -0.81486268054E+03  0.81486268054E+03  0.25500000000E-02 0.  1.
    5000001    1    1    2    0    0 -0.17181671521E+03 -0.17823309563E+03 -0.15715839274E+03  0.33646958319E+03  0.16500000000E+03 0.  0.
   -5000001    1    1    2    0    0  0.17181671521E+03  0.17823309563E+03 -0.52909383662E+03  0.60700354855E+03  0.16500000000E+03 0.  0.
<mgrwt>
<rscale>  0 0.64745612E+03</rscale>
<asrwt>0</asrwt>
<pdfrwt beam="1">  1        2 0.11640895E+00 0.64745612E+03</pdfrwt>
<pdfrwt beam="2">  1       -2 0.18372922E-01 0.64745612E+03</pdfrwt>
<totfact> 0.92129535E+02</totfact>
</mgrwt>
</event>
<event>
 4    1  0.5280257E-005  0.4402906E+03  0.7818608E-02  0.1030658E+00
         -2   -1    0    0    0  501 -0.00000000000E+00  0.00000000000E+00  0.10215909300E+02  0.10215909619E+02  0.25500000000E-02 0. -1.
          2   -1    0    0  501    0  0.00000000000E+00 -0.00000000000E+00 -0.47439676617E+04  0.47439676617E+04  0.25500000000E-02 0.  1.
    5000001    1    1    2    0    0 -0.37011883325E+01  0.13294531617E+03 -0.30103023995E+04  0.30177530867E+04  0.16500000000E+03 0.  0.
   -5000001    1    1    2    0    0  0.37011883325E+01 -0.13294531617E+03 -0.17234493530E+04  0.17364304847E+04  0.16500000000E+03 0.  0.
<mgrwt>
<rscale>  0 0.44029056E+03</rscale>
<asrwt>0</asrwt>
<pdfrwt beam="1">  1        2 0.67770826E+00 0.44029056E+03</pdfrwt>
<pdfrwt beam="2">  1       -2 0.14594187E-02 0.44029056E+03</pdfrwt>
<totfact> 0.24258064E+02</totfact>
</mgrwt>
</event>
<event>
 4    1  0.5280257E-005  0.7890047E+03  0.7818608E-02  0.9576070E-01
          2   -1    0    0  501    0  0.00000000000E+00  0.00000000000E+00  0.16314443192E+04  0.16314443192E+04  0.25500000000E-02 0.  1.
         -2   -1    0    0    0  501 -0.00000000000E+00 -0.00000000000E+00 -0.95395301510E+02  0.95395301544E+02  0.25500000000E-02 0. -1.
    5000001    1    1    2    0    0 -0.37982100344E+02  0.15428812478E+03  0.65069817142E+02  0.23813136395E+03  0.16500000000E+03 0.  0.
   -5000001    1    1    2    0    0  0.37982100344E+02 -0.15428812478E+03  0.14709792005E+04  0.14887082568E+04  0.16500000000E+03 0.  0.
<mgrwt>
<rscale>  0 0.78900475E+03</rscale>
<asrwt>0</asrwt>
<pdfrwt beam="1">  1        2 0.23306348E+00 0.78900475E+03</pdfrwt>
<pdfrwt beam="2">  1       -2 0.13627900E-01 0.78900475E+03</pdfrwt>
<totfact> 0.51812171E+02</totfact>
</mgrwt>
</event>
<event>
 4    1  0.5280257E-005  0.1230759E+04  0.7818608E-02  0.9086351E-01
         -2   -1    0    0    0  501 -0.00000000000E+00  0.00000000000E+00  0.66250312558E+03  0.66250312559E+03  0.25500000000E-02 0. -1.
          2   -1    0    0  501    0  0.00000000000E+00 -0.00000000000E+00 -0.57160816861E+03  0.57160816861E+03  0.25500000000E-02 0.  1.
    5000001    1    1    2    0    0  0.45819003717E+02  0.53224411299E+03  0.30321570514E+03  0.63604083262E+03  0.16500000000E+03 0.  0.
   -5000001    1    1    2    0    0 -0.45819003717E+02 -0.53224411299E+03 -0.21232074816E+03  0.59807046158E+03  0.16500000000E+03 0.  0.
<mgrwt>
<rscale>  0 0.12307594E+04</rscale>
<asrwt>0</asrwt>
<pdfrwt beam="1">  1        2 0.81658310E-01 0.12307594E+04</pdfrwt>
<pdfrwt beam="2">  1       -2 0.94643304E-01 0.12307594E+04</pdfrwt>
<totfact> 0.53282878E+01</totfact>
</mgrwt>
</event>
<event>
 4    1  0.5280257E-005  0.5397005E+03  0.7818608E-02  0.1003906E+00
          2   -1    0    0  501    0  0.00000000000E+00  0.00000000000E+00  0.34720411616E+04  0.34720411616E+04  0.25500000000E-02 0.  1.
         -2   -1    0    0    0  501 -0.00000000000E+00 -0.00000000000E+00 -0.20973012120E+02  0.20973012275E+02  0.25500000000E-02 0. -1.
    5000001    1    1    2    0    0 -0.18270645864E+03  0.10616233465E+03  0.15268837988E+04  0.15502423121E+04  0.16500000000E+03 0.  0.
   -5000001    1    1    2    0    0  0.18270645864E+03 -0.10616233465E+03  0.19241843507E+04  0.19427718617E+04  0.16500000000E+03 0.  0.
<mgrwt>
<rscale>  0 0.53970052E+03</rscale>
<asrwt>0</asrwt>
<pdfrwt beam="1">  1        2 0.49600567E+00 0.53970052E+03</pdfrwt>
<pdfrwt beam="2">  1       -2 0.29961459E-02 0.53970052E+03</pdfrwt>
<totfact> 0.61841178E+02</totfact>
</mgrwt>
</event>
<event>
 4    1  0.5280257E-005  0.7297193E+03  0.7818608E-02  0.9667716E-01
          2   -1    0    0  501    0  0.00000000000E+00  0.00000000000E+00  0.14550517177E+04  0.14550517177E+04  0.25500000000E-02 0.  1.
         -2   -1    0    0    0  501 -0.00000000000E+00 -0.00000000000E+00 -0.91489908048E+02  0.91489908083E+02  0.25500000000E-02 0. -1.
    5000001    1    1    2    0    0  0.21436539667E+03  0.10627188539E+03  0.11492501901E+04  0.11854312449E+04  0.16500000000E+03 0.  0.
   -5000001    1    1    2    0    0 -0.21436539667E+03 -0.10627188539E+03  0.21431161955E+03  0.36111038089E+03  0.16500000000E+03 0.  0.
<mgrwt>
<rscale>  0 0.72971926E+03</rscale>
<asrwt>0</asrwt>
<pdfrwt beam="1">  1        2 0.20786453E+00 0.72971926E+03</pdfrwt>
<pdfrwt beam="2">  1       -2 0.13069987E-01 0.72971926E+03</pdfrwt>
<totfact> 0.68895632E+02</totfact>
</mgrwt>
</event>
<event>
 4    1  0.5280257E-005  0.6280233E+03  0.7818608E-02  0.9848914E-01
          2   -1    0    0  501    0  0.00000000000E+00  0.00000000000E+00  0.27144168996E+04  0.27144168996E+04  0.25500000000E-02 0.  1.
         -2   -1    0    0    0  501 -0.00000000000E+00 -0.00000000000E+00 -0.36325779073E+02  0.36325779162E+02  0.25500000000E-02 0. -1.
    5000001    1    1    2    0    0  0.19174522565E+02 -0.17297388982E+03  0.45118270065E+03  0.51095837232E+03  0.16500000000E+03 0.  0.
   -5000001    1    1    2    0    0 -0.19174522565E+02  0.17297388982E+03  0.22269084199E+04  0.22397843065E+04  0.16500000000E+03 0.  0.
<mgrwt>
<rscale>  0 0.62802328E+03</rscale>
<asrwt>0</asrwt>
<pdfrwt beam="1">  1        2 0.38777387E+00 0.62802328E+03</pdfrwt>
<pdfrwt beam="2">  1       -2 0.51893967E-02 0.62802328E+03</pdfrwt>
<totfact> 0.69236284E+02</totfact>
</mgrwt>
</event>
<event>
 4    1  0.5280257E-005  0.4213104E+03  0.7818608E-02  0.1036641E+00
          2   -1    0    0  501    0  0.00000000000E+00  0.00000000000E+00  0.14353040966E+04  0.14353040966E+04  0.25500000000E-02 0.  1.
         -2   -1    0    0    0  501 -0.00000000000E+00 -0.00000000000E+00 -0.30917225886E+02  0.30917225992E+02  0.25500000000E-02 0. -1.
    5000001    1    1    2    0    0  0.12731120523E+03  0.26269583792E+02  0.75748142989E+03  0.78606701409E+03  0.16500000000E+03 0.  0.
   -5000001    1    1    2    0    0 -0.12731120523E+03 -0.26269583792E+02  0.64690544079E+03  0.68015430847E+03  0.16500000000E+03 0.  0.
<mgrwt>
<rscale>  0 0.42131044E+03</rscale>
<asrwt>0</asrwt>
<pdfrwt beam="1">  1        2 0.20504345E+00 0.42131044E+03</pdfrwt>
<pdfrwt beam="2">  1       -2 0.44167464E-02 0.42131044E+03</pdfrwt>
<totfact> 0.39928740E+03</totfact>
</mgrwt>
</event>
<event>
 4    1  0.5280257E-005  0.3889922E+03  0.7818608E-02  0.1047659E+00
         -2   -1    0    0    0  501 -0.00000000000E+00  0.00000000000E+00  0.12743546906E+02  0.12743547161E+02  0.25500000000E-02 0. -1.
          2   -1    0    0  501    0  0.00000000000E+00 -0.00000000000E+00 -0.29684612529E+04  0.29684612529E+04  0.25500000000E-02 0.  1.
    5000001    1    1    2    0    0  0.89454356331E+02 -0.23501206313E+02 -0.18248014739E+04  0.18345789183E+04  0.16500000000E+03 0.  0.
   -5000001    1    1    2    0    0 -0.89454356331E+02  0.23501206313E+02 -0.11309162321E+04  0.11466258817E+04  0.16500000000E+03 0.  0.
<mgrwt>
<rscale>  0 0.38899216E+03</rscale>
<asrwt>0</asrwt>
<pdfrwt beam="1">  1        2 0.42406545E+00 0.38899216E+03</pdfrwt>
<pdfrwt beam="2">  1       -2 0.18205086E-02 0.38899216E+03</pdfrwt>
<totfact> 0.25362502E+03</totfact>
</mgrwt>
</event>
<event>
 4    1  0.5280257E-005  0.4371540E+03  0.7818608E-02  0.1031624E+00
         -2   -1    0    0    0  501 -0.00000000000E+00  0.00000000000E+00  0.14814064567E+03  0.14814064570E+03  0.25500000000E-02 0. -1.
          2   -1    0    0  501    0  0.00000000000E+00 -0.00000000000E+00 -0.32250366542E+03  0.32250366543E+03  0.25500000000E-02 0.  1.
    5000001    1    1    2    0    0 -0.10791818471E+03 -0.64325475534E+02 -0.12850192165E+02  0.20778409187E+03  0.16500000000E+03 0.  0.
   -5000001    1    1    2    0    0  0.10791818471E+03  0.64325475534E+02 -0.16151282758E+03  0.26286021925E+03  0.16500000000E+03 0.  0.
<mgrwt>
<rscale>  0 0.43715398E+03</rscale>
<asrwt>0</asrwt>
<pdfrwt beam="1">  1        2 0.46071952E-01 0.43715398E+03</pdfrwt>
<pdfrwt beam="2">  1       -2 0.21162950E-01 0.43715398E+03</pdfrwt>
<totfact> 0.21046455E+03</totfact>
</mgrwt>
</event>
<event>
 4    1  0.5280257E-005  0.7119582E+03  0.7818608E-02  0.9696998E-01
          2   -1    0    0  501    0  0.00000000000E+00  0.00000000000E+00  0.39568607931E+03  0.39568607932E+03  0.25500000000E-02 0.  1.
         -2   -1    0    0    0  501 -0.00000000000E+00 -0.00000000000E+00 -0.32025666752E+03  0.32025666753E+03  0.25500000000E-02 0. -1.
    5000001    1    1    2    0    0  0.87324921362E+02  0.20180587553E+03  0.26513267905E+03  0.38193139540E+03  0.16500000000E+03 0.  0.
   -5000001    1    1    2    0    0 -0.87324921362E+02 -0.20180587553E+03 -0.18970326726E+03  0.33401135145E+03  0.16500000000E+03 0.  0.
<mgrwt>
<rscale>  0 0.71195816E+03</rscale>
<asrwt>0</asrwt>
<pdfrwt beam="1">  1        2 0.56526583E-01 0.71195816E+03</pdfrwt>
<pdfrwt beam="2">  1       -2 0.45750952E-01 0.71195816E+03</pdfrwt>
<totfact> 0.39953882E+02</totfact>
</mgrwt>
</event>
<event>
 4    1  0.5280257E-005  0.5066614E+03  0.7818608E-02  0.1012055E+00
         -2   -1    0    0    0  501 -0.00000000000E+00  0.00000000000E+00  0.24742239321E+03  0.24742239323E+03  0.25500000000E-02 0. -1.
          2   -1    0    0  501    0  0.00000000000E+00 -0.00000000000E+00 -0.25938011054E+03  0.25938011055E+03  0.25500000000E-02 0.  1.
    5000001    1    1    2    0    0  0.37927988478E+02  0.93198610204E+02  0.15785604987E+03  0.24953566024E+03  0.16500000000E+03 0.  0.
   -5000001    1    1    2    0    0 -0.37927988478E+02 -0.93198610204E+02 -0.16981376719E+03  0.25726684353E+03  0.16500000000E+03 0.  0.
<mgrwt>
<rscale>  0 0.50666142E+03</rscale>
<asrwt>0</asrwt>
<pdfrwt beam="1">  1        2 0.37054302E-01 0.50666142E+03</pdfrwt>
<pdfrwt beam="2">  1       -2 0.35346056E-01 0.50666142E+03</pdfrwt>
<totfact> 0.10555647E+03</totfact>
</mgrwt>
</event>
<event>
 4    1  0.5280257E-005  0.3447192E+03  0.7818608E-02  0.1064804E+00
          2   -1    0    0  501    0  0.00000000000E+00  0.00000000000E+00  0.31380835807E+04  0.31380835807E+04  0.25500000000E-02 0.  1.
         -2   -1    0    0    0  501 -0.00000000000E+00 -0.00000000000E+00 -0.94668698564E+01  0.94668701998E+01  0.25500000000E-02 0. -1.
    5000001    1    1    2    0    0 -0.43241744471E+02  0.21902738702E+02  0.16697087984E+04  0.16785416438E+04  0.16500000000E+03 0.  0.
   -5000001    1    1    2    0    0  0.43241744471E+02 -0.21902738702E+02  0.14589079125E+04  0.14690088072E+04  0.16500000000E+03 0.  0.
<mgrwt>
<rscale>  0 0.34471919E+03</rscale>
<asrwt>0</asrwt>
<pdfrwt beam="1">  1        2 0.44829773E+00 0.34471919E+03</pdfrwt>
<pdfrwt beam="2">  1       -2 0.13524098E-02 0.34471919E+03</pdfrwt>
<totfact> 0.31961681E+03</totfact>
</mgrwt>
</event>
<event>
 4    1  0.5280257E-005  0.4644313E+03  0.7818608E-02  0.1023504E+00
         -2   -1    0    0    0  501 -0.00000000000E+00  0.00000000000E+00  0.32069579351E+03  0.32069579352E+03  0.25500000000E-02 0. -1.
          2   -1    0    0  501    0  0.00000000000E+00 -0.00000000000E+00 -0.16814721127E+03  0.16814721129E+03  0.25500000000E-02 0.  1.
    5000001    1    1    2    0    0 -0.14936857553E+02 -0.14666031260E+03  0.20947856523E+01  0.22127301040E+03  0.16500000000E+03 0.  0.
   -5000001    1    1    2    0    0  0.14936857553E+02  0.14666031260E+03  0.15045379659E+03  0.26756999442E+03  0.16500000000E+03 0.  0.
<mgrwt>
<rscale>  0 0.46443128E+03</rscale>
<asrwt>0</asrwt>
<pdfrwt beam="1">  1        2 0.24021031E-01 0.46443128E+03</pdfrwt>
<pdfrwt beam="2">  1       -2 0.45813684E-01 0.46443128E+03</pdfrwt>
<totfact> 0.10376298E+03</totfact>
</mgrwt>
</event>
<event>
 4    1  0.5280257E-005  0.6135362E+03  0.7818608E-02  0.9877714E-01
         -2   -1    0    0    0  501 -0.00000000000E+00  0.00000000000E+00  0.55854493313E+02  0.55854493371E+02  0.25500000000E-02 0. -1.
          2   -1    0    0  501    0  0.00000000000E+00 -0.00000000000E+00 -0.16848539037E+04  0.16848539037E+04  0.25500000000E-02 0.  1.
    5000001    1    1    2    0    0 -0.20422858159E+03  0.13348295848E+03 -0.57118588670E+03  0.64265490811E+03  0.16500000000E+03 0.  0.
   -5000001    1    1    2    0    0  0.20422858159E+03 -0.13348295848E+03 -0.10578135237E+04  0.10980534890E+04  0.16500000000E+03 0.  0.
<mgrwt>
<rscale>  0 0.61353618E+03</rscale>
<asrwt>0</asrwt>
<pdfrwt beam="1">  1        2 0.24069338E+00 0.61353618E+03</pdfrwt>
<pdfrwt beam="2">  1       -2 0.79792143E-02 0.61353618E+03</pdfrwt>
<totfact> 0.11756706E+03</totfact>
</mgrwt>
</event>
<event>
 4    1  0.5280257E-005  0.5347774E+03  0.7818608E-02  0.1005080E+00
          2   -1    0    0  501    0  0.00000000000E+00  0.00000000000E+00  0.28394227533E+03  0.28394227534E+03  0.25500000000E-02 0.  1.
         -2   -1    0    0    0  501 -0.00000000000E+00 -0.00000000000E+00 -0.25180018720E+03  0.25180018722E+03  0.25500000000E-02 0. -1.
    5000001    1    1    2    0    0 -0.64727624969E+01 -0.17117500738E+03  0.13847557157E+03  0.27521494096E+03  0.16500000000E+03 0.  0.
   -5000001    1    1    2    0    0  0.64727624969E+01  0.17117500738E+03 -0.10633348345E+03  0.26052752159E+03  0.16500000000E+03 0.  0.
<mgrwt>
<rscale>  0 0.53477740E+03</rscale>
<asrwt>0</asrwt>
<pdfrwt beam="1">  1        2 0.40563182E-01 0.53477740E+03</pdfrwt>
<pdfrwt beam="2">  1       -2 0.35971455E-01 0.53477740E+03</pdfrwt>
<totfact> 0.92402733E+02</totfact>
</mgrwt>
</event>
<event>
 4    1  0.5280257E-005  0.4364358E+03  0.7818608E-02  0.1031846E+00
         -2   -1    0    0    0  501 -0.00000000000E+00  0.00000000000E+00  0.12482195597E+03  0.12482195599E+03  0.25500000000E-02 0. -1.
          2   -1    0    0  501    0  0.00000000000E+00 -0.00000000000E+00 -0.38149580253E+03  0.38149580253E+03  0.25500000000E-02 0.  1.
    5000001    1    1    2    0    0 -0.13356223235E+03 -0.49776067188E+02 -0.13855161047E+03  0.25833713542E+03  0.16500000000E+03 0.  0.
   -5000001    1    1    2    0    0  0.13356223235E+03  0.49776067188E+02 -0.11812223609E+03  0.24798062310E+03  0.16500000000E+03 0.  0.
<mgrwt>
<rscale>  0 0.43643580E+03</rscale>
<asrwt>0</asrwt>
<pdfrwt beam="1">  1        2 0.54499400E-01 0.43643580E+03</pdfrwt>
<pdfrwt beam="2">  1       -2 0.17831708E-01 0.43643580E+03</pdfrwt>
<totfact> 0.23521402E+03</totfact>
</mgrwt>
</event>
<event>
 4    1  0.5280257E-005  0.5261139E+03  0.7818608E-02  0.1007179E+00
         -2   -1    0    0    0  501 -0.00000000000E+00  0.00000000000E+00  0.63064807511E+02  0.63064807563E+02  0.25500000000E-02 0. -1.
          2   -1    0    0  501    0  0.00000000000E+00 -0.00000000000E+00 -0.10972676142E+04  0.10972676142E+04  0.25500000000E-02 0.  1.
    5000001    1    1    2    0    0 -0.94361395836E+02  0.17172206474E+03 -0.64908831575E+03  0.69780597746E+03  0.16500000000E+03 0.  0.
   -5000001    1    1    2    0    0  0.94361395836E+02 -0.17172206474E+03 -0.38511449091E+03  0.46252644427E+03  0.16500000000E+03 0.  0.
<mgrwt>
<rscale>  0 0.52611395E+03</rscale>
<asrwt>0</asrwt>
<pdfrwt beam="1">  1        2 0.15675250E+00 0.52611395E+03</pdfrwt>
<pdfrwt beam="2">  1       -2 0.90092589E-02 0.52611395E+03</pdfrwt>
<totfact> 0.20032958E+03</totfact>
</mgrwt>
</event>
<event>
 4    1  0.5280257E-005  0.1016598E+04  0.7818608E-02  0.9290525E-01
         -2   -1    0    0    0  501 -0.00000000000E+00  0.00000000000E+00  0.31659615816E+03  0.31659615817E+03  0.25500000000E-02 0. -1.
          2   -1    0    0  501    0  0.00000000000E+00 -0.00000000000E+00 -0.81608059987E+03  0.81608059987E+03  0.25500000000E-02 0.  1.
    5000001    1    1    2    0    0  0.39140992375E+03 -0.25900122260E+03 -0.13363373012E+03  0.51513720070E+03  0.16500000000E+03 0.  0.
   -5000001    1    1    2    0    0 -0.39140992375E+03  0.25900122260E+03 -0.36585071159E+03  0.61753955735E+03  0.16500000000E+03 0.  0.
<mgrwt>
<rscale>  0 0.10165982E+04</rscale>
<asrwt>0</asrwt>
<pdfrwt beam="1">  1        2 0.11658294E+00 0.10165982E+04</pdfrwt>
<pdfrwt beam="2">  1       -2 0.45228023E-01 0.10165982E+04</pdfrwt>
<totfact> 0.17115616E+02</totfact>
</mgrwt>
</event>
<event>
 4    1  0.5280257E-005  0.3950739E+03  0.7818608E-02  0.1045499E+00
          2   -1    0    0  501    0  0.00000000000E+00  0.00000000000E+00  0.54634057657E+03  0.54634057657E+03  0.25500000000E-02 0. -1.
         -2   -1    0    0    0  501 -0.00000000000E+00 -0.00000000000E+00 -0.71422206382E+02  0.71422206427E+02  0.25500000000E-02 0.  1.
    5000001    1    1    2    0    0 -0.57622879705E+02 -0.65238100251E+02  0.33903047560E+03  0.38696649645E+03  0.16500000000E+03 0.  0.
   -5000001    1    1    2    0    0  0.57622879705E+02  0.65238100251E+02  0.13588789458E+03  0.23079628655E+03  0.16500000000E+03 0.  0.
<mgrwt>
<rscale>  0 0.39507391E+03</rscale>
<asrwt>0</asrwt>
<pdfrwt beam="1">  1        2 0.78048652E-01 0.39507391E+03</pdfrwt>
<pdfrwt beam="2">  1       -2 0.10203173E-01 0.39507391E+03</pdfrwt>
<totfact> 0.39612457E+03</totfact>
</mgrwt>
</event>
<event>
 4    1  0.5280257E-005  0.5490207E+03  0.7818608E-02  0.1001721E+00
         -2   -1    0    0    0  501 -0.00000000000E+00  0.00000000000E+00  0.69270752429E+03  0.69270752429E+03  0.25500000000E-02 0. -1.
          2   -1    0    0  501    0  0.00000000000E+00 -0.00000000000E+00 -0.10878463773E+03  0.10878463776E+03  0.25500000000E-02 0.  1.
    5000001    1    1    2    0    0  0.19172646768E+03  0.79180440927E+02  0.18768266252E+03  0.32477432541E+03  0.16500000000E+03 0.  0.
   -5000001    1    1    2    0    0 -0.19172646768E+03 -0.79180440927E+02  0.39624022404E+03  0.47671783665E+03  0.16500000000E+03 0.  0.
<mgrwt>
<rscale>  0 0.54902072E+03</rscale>
<asrwt>0</asrwt>
<pdfrwt beam="1">  1        2 0.15540662E-01 0.54902072E+03</pdfrwt>
<pdfrwt beam="2">  1       -2 0.98958219E-01 0.54902072E+03</pdfrwt>
<totfact> 0.32894288E+02</totfact>
</mgrwt>
</event>
<event>
 4    1  0.5280257E-005  0.4115784E+03  0.7818608E-02  0.1039843E+00
         -2   -1    0    0    0  501 -0.00000000000E+00  0.00000000000E+00  0.26831557984E+02  0.26831558105E+02  0.25500000000E-02 0. -1.
          2   -1    0    0  501    0  0.00000000000E+00 -0.00000000000E+00 -0.15783351978E+04  0.15783351978E+04  0.25500000000E-02 0.  1.
    5000001    1    1    2    0    0  0.11230155328E+03 -0.80553054672E+01 -0.96870131297E+03  0.98908228200E+03  0.16500000000E+03 0.  0.
   -5000001    1    1    2    0    0 -0.11230155328E+03  0.80553054672E+01 -0.58280232686E+03  0.61608447393E+03  0.16500000000E+03 0.  0.
<mgrwt>
<rscale>  0 0.41157839E+03</rscale>
<asrwt>0</asrwt>
<pdfrwt beam="1">  1        2 0.22547640E+00 0.41157839E+03</pdfrwt>
<pdfrwt beam="2">  1       -2 0.38330807E-02 0.41157839E+03</pdfrwt>
<totfact> 0.41843256E+03</totfact>
</mgrwt>
</event>
<event>
 4    1  0.5280257E-005  0.4172939E+03  0.7818608E-02  0.1037951E+00
          2   -1    0    0  501    0  0.00000000000E+00  0.00000000000E+00  0.19290227699E+04  0.19290227699E+04  0.25500000000E-02 0.  1.
         -2   -1    0    0    0  501 -0.00000000000E+00 -0.00000000000E+00 -0.22567671377E+02  0.22567671521E+02  0.25500000000E-02 0. -1.
    5000001    1    1    2    0    0 -0.12570498905E+03  0.22456878799E+02  0.96061687979E+03  0.98301365475E+03  0.16500000000E+03 0.  0.
   -5000001    1    1    2    0    0  0.12570498905E+03 -0.22456878799E+02  0.94583821871E+03  0.96857678666E+03  0.16500000000E+03 0.  0.
<mgrwt>
<rscale>  0 0.41729391E+03</rscale>
<asrwt>0</asrwt>
<pdfrwt beam="1">  1        2 0.27557464E+00 0.41729391E+03</pdfrwt>
<pdfrwt beam="2">  1       -2 0.32239536E-02 0.41729391E+03</pdfrwt>
<totfact> 0.36306698E+03</totfact>
</mgrwt>
</event>
<event>
 4    1  0.5280257E-005  0.6597029E+03  0.7818608E-02  0.9788741E-01
          2   -1    0    0  501    0  0.00000000000E+00  0.00000000000E+00  0.28323272208E+04  0.28323272208E+04  0.25500000000E-02 0.  1.
         -2   -1    0    0    0  501 -0.00000000000E+00 -0.00000000000E+00 -0.38414333617E+02  0.38414333702E+02  0.25500000000E-02 0. -1.
    5000001    1    1    2    0    0  0.14200289999E+03  0.18232304784E+03  0.21273258826E+04  0.21461935906E+04  0.16500000000E+03 0.  0.
   -5000001    1    1    2    0    0 -0.14200289999E+03 -0.18232304784E+03  0.66658700459E+03  0.72454796395E+03  0.16500000000E+03 0.  0.
<mgrwt>
<rscale>  0 0.65970285E+03</rscale>
<asrwt>0</asrwt>
<pdfrwt beam="1">  1        2 0.40461829E+00 0.65970285E+03</pdfrwt>
<pdfrwt beam="2">  1       -2 0.54877604E-02 0.65970285E+03</pdfrwt>
<totfact> 0.54819337E+02</totfact>
</mgrwt>
</event>
<event>
 4    1  0.5280257E-005  0.5314012E+03  0.7818608E-02  0.1005893E+00
          2   -1    0    0  501    0  0.00000000000E+00  0.00000000000E+00  0.31824462375E+03  0.31824462376E+03  0.25500000000E-02 0.  1.
         -2   -1    0    0    0  501 -0.00000000000E+00 -0.00000000000E+00 -0.22183188152E+03  0.22183188153E+03  0.25500000000E-02 0. -1.
    5000001    1    1    2    0    0  0.80359343918E+02  0.18307985393E+03 -0.11019737198E+02  0.25946539592E+03  0.16500000000E+03 0.  0.
   -5000001    1    1    2    0    0 -0.80359343918E+02 -0.18307985393E+03  0.10743247943E+03  0.28061110938E+03  0.16500000000E+03 0.  0.
<mgrwt>
<rscale>  0 0.53140118E+03</rscale>
<asrwt>0</asrwt>
<pdfrwt beam="1">  1        2 0.45463517E-01 0.53140118E+03</pdfrwt>
<pdfrwt beam="2">  1       -2 0.31690269E-01 0.53140118E+03</pdfrwt>
<totfact> 0.10342682E+03</totfact>
</mgrwt>
</event>
<event>
 4    1  0.5280257E-005  0.8478807E+03  0.7818608E-02  0.9493186E-01
          2   -1    0    0  501    0  0.00000000000E+00  0.00000000000E+00  0.34580698520E+04  0.34580698520E+04  0.25500000000E-02 0.  1.
         -2   -1    0    0    0  501 -0.00000000000E+00 -0.00000000000E+00 -0.51972750934E+02  0.51972750997E+02  0.25500000000E-02 0. -1.
    5000001    1    1    2    0    0 -0.31572512559E+03  0.22636333497E+03  0.15386157919E+04  0.15954580124E+04  0.16500000000E+03 0.  0.
   -5000001    1    1    2    0    0  0.31572512559E+03 -0.22636333497E+03  0.18674813091E+04  0.19145845905E+04  0.16500000000E+03 0.  0.
<mgrwt>
<rscale>  0 0.84788066E+03</rscale>
<asrwt>0</asrwt>
<pdfrwt beam="1">  1        2 0.49400993E+00 0.84788066E+03</pdfrwt>
<pdfrwt beam="2">  1       -2 0.74246794E-02 0.84788066E+03</pdfrwt>
<totfact> 0.14866600E+02</totfact>
</mgrwt>
</event>
<event>
 4    1  0.5280257E-005  0.5422629E+03  0.7818608E-02  0.1003301E+00
         -2   -1    0    0    0  501 -0.00000000000E+00  0.00000000000E+00  0.84728945396E+02  0.84728945434E+02  0.25500000000E-02 0. -1.
          2   -1    0    0  501    0  0.00000000000E+00 -0.00000000000E+00 -0.86761690483E+03  0.86761690483E+03  0.25500000000E-02 0.  1.
    5000001    1    1    2    0    0 -0.71788018420E+02  0.19653039452E+03 -0.30346423339E+03  0.40384806116E+03  0.16500000000E+03 0.  0.
   -5000001    1    1    2    0    0  0.71788018420E+02 -0.19653039452E+03 -0.47942372604E+03  0.54849778910E+03  0.16500000000E+03 0.  0.
<mgrwt>
<rscale>  0 0.54226291E+03</rscale>
<asrwt>0</asrwt>
<pdfrwt beam="1">  1        2 0.12394527E+00 0.54226291E+03</pdfrwt>
<pdfrwt beam="2">  1       -2 0.12104136E-01 0.54226291E+03</pdfrwt>
<totfact> 0.17165959E+03</totfact>
</mgrwt>
</event>
<event>
 4    1  0.5280257E-005  0.4856115E+03  0.7818608E-02  0.1017604E+00
         -2   -1    0    0    0  501 -0.00000000000E+00  0.00000000000E+00  0.16737288627E+03  0.16737288629E+03  0.25500000000E-02 0. -1.
          2   -1    0    0  501    0  0.00000000000E+00 -0.00000000000E+00 -0.35223527799E+03  0.35223527800E+03  0.25500000000E-02 0.  1.
    5000001    1    1    2    0    0  0.12890830715E+02  0.51443040603E+02 -0.27438627150E+03  0.32453872794E+03  0.16500000000E+03 0.  0.
   -5000001    1    1    2    0    0 -0.12890830715E+02 -0.51443040603E+02  0.89523879783E+02  0.19506943634E+03  0.16500000000E+03 0.  0.
<mgrwt>
<rscale>  0 0.48561151E+03</rscale>
<asrwt>0</asrwt>
<pdfrwt beam="1">  1        2 0.50319325E-01 0.48561151E+03</pdfrwt>
<pdfrwt beam="2">  1       -2 0.23910413E-01 0.48561151E+03</pdfrwt>
<totfact> 0.15429807E+03</totfact>
</mgrwt>
</event>
<event>
 4    1  0.5280257E-005  0.4289890E+03  0.7818608E-02  0.1034180E+00
         -2   -1    0    0    0  501 -0.00000000000E+00  0.00000000000E+00  0.27283525076E+03  0.27283525077E+03  0.25500000000E-02 0. -1.
          2   -1    0    0  501    0  0.00000000000E+00 -0.00000000000E+00 -0.16862880116E+03  0.16862880118E+03  0.25500000000E-02 0.  1.
    5000001    1    1    2    0    0  0.77731327728E+02 -0.47909885617E+02  0.15727786593E+03  0.24555822846E+03  0.16500000000E+03 0.  0.
   -5000001    1    1    2    0    0 -0.77731327728E+02  0.47909885617E+02 -0.53071416332E+02  0.19590582350E+03  0.16500000000E+03 0.  0.
<mgrwt>
<rscale>  0 0.42898896E+03</rscale>
<asrwt>0</asrwt>
<pdfrwt beam="1">  1        2 0.24089829E-01 0.42898896E+03</pdfrwt>
<pdfrwt beam="2">  1       -2 0.38976464E-01 0.42898896E+03</pdfrwt>
<totfact> 0.14167565E+03</totfact>
</mgrwt>
</event>
<event>
 4    1  0.5280257E-005  0.7170511E+03  0.7818608E-02  0.9688509E-01
         -2   -1    0    0    0  501 -0.00000000000E+00  0.00000000000E+00  0.10374097688E+03  0.10374097691E+03  0.25500000000E-02 0. -1.
          2   -1    0    0  501    0  0.00000000000E+00 -0.00000000000E+00 -0.12390530405E+04  0.12390530405E+04  0.25500000000E-02 0.  1.
    5000001    1    1    2    0    0  0.90357484798E+02  0.25204150379E+03 -0.24532872346E+03  0.39887413710E+03  0.16500000000E+03 0.  0.
   -5000001    1    1    2    0    0 -0.90357484798E+02 -0.25204150379E+03 -0.88998334020E+03  0.94391988036E+03  0.16500000000E+03 0.  0.
<mgrwt>
<rscale>  0 0.71705111E+03</rscale>
<asrwt>0</asrwt>
<pdfrwt beam="1">  1        2 0.17700757E+00 0.71705111E+03</pdfrwt>
<pdfrwt beam="2">  1       -2 0.14820140E-01 0.71705111E+03</pdfrwt>
<totfact> 0.73098715E+02</totfact>
</mgrwt>
</event>
<event>
 4    1  0.5280257E-005  0.4358372E+03  0.7818608E-02  0.1032032E+00
          2   -1    0    0  501    0  0.00000000000E+00  0.00000000000E+00  0.25158965353E+04  0.25158965353E+04  0.25500000000E-02 0.  1.
         -2   -1    0    0    0  501 -0.00000000000E+00 -0.00000000000E+00 -0.18875381416E+02  0.18875381588E+02  0.25500000000E-02 0. -1.
    5000001    1    1    2    0    0 -0.13635556175E+03  0.38022419388E+02  0.11612796472E+04  0.11814541729E+04  0.16500000000E+03 0.  0.
   -5000001    1    1    2    0    0  0.13635556175E+03 -0.38022419388E+02  0.13357415067E+04  0.13533177441E+04  0.16500000000E+03 0.  0.
<mgrwt>
<rscale>  0 0.43583716E+03</rscale>
<asrwt>0</asrwt>
<pdfrwt beam="1">  1        2 0.35941394E+00 0.43583716E+03</pdfrwt>
<pdfrwt beam="2">  1       -2 0.26964820E-02 0.43583716E+03</pdfrwt>
<totfact> 0.24179808E+03</totfact>
</mgrwt>
</event>
<event>
 4    1  0.5280257E-005  0.3627567E+03  0.7818608E-02  0.1057498E+00
          2   -1    0    0  501    0  0.00000000000E+00  0.00000000000E+00  0.11721668035E+04  0.11721668035E+04  0.25500000000E-02 0.  1.
         -2   -1    0    0    0  501 -0.00000000000E+00 -0.00000000000E+00 -0.28066059424E+02  0.28066059540E+02  0.25500000000E-02 0. -1.
    5000001    1    1    2    0    0  0.74363302382E+02 -0.56190272152E+01  0.60700773403E+03  0.63343891843E+03  0.16500000000E+03 0.  0.
   -5000001    1    1    2    0    0 -0.74363302382E+02  0.56190272152E+01  0.53709301001E+03  0.56679394458E+03  0.16500000000E+03 0.  0.
<mgrwt>
<rscale>  0 0.36275669E+03</rscale>
<asrwt>0</asrwt>
<pdfrwt beam="1">  1        2 0.16745240E+00 0.36275669E+03</pdfrwt>
<pdfrwt beam="2">  1       -2 0.40094372E-02 0.36275669E+03</pdfrwt>
<totfact> 0.63905271E+03</totfact>
</mgrwt>
</event>
<event>
 4    1  0.5280257E-005  0.9865078E+03  0.7818608E-02  0.9323468E-01
          2   -1    0    0  501    0  0.00000000000E+00  0.00000000000E+00  0.20626361730E+04  0.20626361730E+04  0.25500000000E-02 0.  1.
         -2   -1    0    0    0  501 -0.00000000000E+00 -0.00000000000E+00 -0.11795555973E+03  0.11795555976E+03  0.25500000000E-02 0. -1.
    5000001    1    1    2    0    0 -0.44316901928E+03  0.10184042397E+03  0.11855526083E+04  0.12804414233E+04  0.16500000000E+03 0.  0.
   -5000001    1    1    2    0    0  0.44316901928E+03 -0.10184042397E+03  0.75912800501E+03  0.90015030944E+03  0.16500000000E+03 0.  0.
<mgrwt>
<rscale>  0 0.98650779E+03</rscale>
<asrwt>0</asrwt>
<pdfrwt beam="1">  1        2 0.29466232E+00 0.98650779E+03</pdfrwt>
<pdfrwt beam="2">  1       -2 0.16850794E-01 0.98650779E+03</pdfrwt>
<totfact> 0.21484119E+02</totfact>
</mgrwt>
</event>
<event>
 4    1  0.5280257E-005  0.3544472E+03  0.7818608E-02  0.1060804E+00
          2   -1    0    0  501    0  0.00000000000E+00  0.00000000000E+00  0.42453257166E+03  0.42453257167E+03  0.25500000000E-02 0.  1.
         -2   -1    0    0    0  501 -0.00000000000E+00 -0.00000000000E+00 -0.73983046079E+02  0.73983046123E+02  0.25500000000E-02 0. -1.
    5000001    1    1    2    0    0 -0.37777695909E+02  0.26727662976E+02  0.23882572341E+03  0.29394599578E+03  0.16500000000E+03 0.  0.
   -5000001    1    1    2    0    0  0.37777695909E+02 -0.26727662976E+02  0.11172380218E+03  0.20456962201E+03  0.16500000000E+03 0.  0.
<mgrwt>
<rscale>  0 0.35444725E+03</rscale>
<asrwt>0</asrwt>
<pdfrwt beam="1">  1        2 0.60647509E-01 0.35444725E+03</pdfrwt>
<pdfrwt beam="2">  1       -2 0.10569007E-01 0.35444725E+03</pdfrwt>
<totfact> 0.49467610E+03</totfact>
</mgrwt>
</event>
<event>
 4    1  0.5280257E-005  0.5254312E+03  0.7818608E-02  0.1007346E+00
          2   -1    0    0  501    0  0.00000000000E+00  0.00000000000E+00  0.25621198651E+03  0.25621198652E+03  0.25500000000E-02 0.  1.
         -2   -1    0    0    0  501 -0.00000000000E+00 -0.00000000000E+00 -0.26938430241E+03  0.26938430242E+03  0.25500000000E-02 0. -1.
    5000001    1    1    2    0    0 -0.13482631544E+03  0.77884183818E+02  0.12593341020E+03  0.25947698401E+03  0.16500000000E+03 0.  0.
   -5000001    1    1    2    0    0  0.13482631544E+03 -0.77884183818E+02 -0.13910572610E+03  0.26611930493E+03  0.16500000000E+03 0.  0.
<mgrwt>
<rscale>  0 0.52543120E+03</rscale>
<asrwt>0</asrwt>
<pdfrwt beam="1">  1        2 0.36601712E-01 0.52543120E+03</pdfrwt>
<pdfrwt beam="2">  1       -2 0.38483472E-01 0.52543120E+03</pdfrwt>
<totfact> 0.90977626E+02</totfact>
</mgrwt>
</event>
<event>
 4    1  0.5280257E-005  0.5215046E+03  0.7818608E-02  0.1008313E+00
          2   -1    0    0  501    0  0.00000000000E+00  0.00000000000E+00  0.49653302641E+03  0.49653302641E+03  0.25500000000E-02 0.  1.
         -2   -1    0    0    0  501 -0.00000000000E+00 -0.00000000000E+00 -0.13693303251E+03  0.13693303254E+03  0.25500000000E-02 0. -1.
    5000001    1    1    2    0    0 -0.43688621531E+01  0.20156921660E+03  0.16663100562E+03  0.30925738159E+03  0.16500000000E+03 0.  0.
   -5000001    1    1    2    0    0  0.43688621531E+01 -0.20156921660E+03  0.19296898828E+03  0.32420867736E+03  0.16500000000E+03 0.  0.
<mgrwt>
<rscale>  0 0.52150464E+03</rscale>
<asrwt>0</asrwt>
<pdfrwt beam="1">  1        2 0.70933289E-01 0.52150464E+03</pdfrwt>
<pdfrwt beam="2">  1       -2 0.19561862E-01 0.52150464E+03</pdfrwt>
<totfact> 0.14983784E+03</totfact>
</mgrwt>
</event>
<event>
 4    1  0.5280257E-005  0.3643517E+03  0.7818608E-02  0.1056874E+00
         -2   -1    0    0    0  501 -0.00000000000E+00  0.00000000000E+00  0.11736630904E+03  0.11736630907E+03  0.25500000000E-02 0. -1.
          2   -1    0    0  501    0  0.00000000000E+00 -0.00000000000E+00 -0.28277315117E+03  0.28277315118E+03  0.25500000000E-02 0.  1.
    5000001    1    1    2    0    0 -0.23228218291E+02  0.19242372638E+02 -0.16077172913E+03  0.23234105947E+03  0.16500000000E+03 0.  0.
   -5000001    1    1    2    0    0  0.23228218291E+02 -0.19242372638E+02 -0.46351130026E+01  0.16779840077E+03  0.16500000000E+03 0.  0.
<mgrwt>
<rscale>  0 0.36435170E+03</rscale>
<asrwt>0</asrwt>
<pdfrwt beam="1">  1        2 0.40396164E-01 0.36435170E+03</pdfrwt>
<pdfrwt beam="2">  1       -2 0.16766616E-01 0.36435170E+03</pdfrwt>
<totfact> 0.36081959E+03</totfact>
</mgrwt>
</event>
<event>
 4    1  0.5280257E-005  0.5874035E+03  0.7818608E-02  0.9931890E-01
         -2   -1    0    0    0  501 -0.00000000000E+00  0.00000000000E+00  0.37035287849E+02  0.37035287936E+02  0.25500000000E-02 0. -1.
          2   -1    0    0  501    0  0.00000000000E+00 -0.00000000000E+00 -0.23291491155E+04  0.23291491155E+04  0.25500000000E-02 0.  1.
    5000001    1    1    2    0    0  0.31261571878E+01  0.21053133432E+03 -0.65762102742E+03  0.70994621718E+03  0.16500000000E+03 0.  0.
   -5000001    1    1    2    0    0 -0.31261571878E+01 -0.21053133432E+03 -0.16344928002E+04  0.16562381863E+04  0.16500000000E+03 0.  0.
<mgrwt>
<rscale>  0 0.58740347E+03</rscale>
<asrwt>0</asrwt>
<pdfrwt beam="1">  1        2 0.33273550E+00 0.58740347E+03</pdfrwt>
<pdfrwt beam="2">  1       -2 0.52907569E-02 0.58740347E+03</pdfrwt>
<totfact> 0.10639452E+03</totfact>
</mgrwt>
</event>
<event>
 4    1  0.5280257E-005  0.5832111E+03  0.7818608E-02  0.9940863E-01
          2   -1    0    0  501    0  0.00000000000E+00  0.00000000000E+00  0.21102474051E+03  0.21102474052E+03  0.25500000000E-02 0.  1.
         -2   -1    0    0    0  501 -0.00000000000E+00 -0.00000000000E+00 -0.40295646621E+03  0.40295646621E+03  0.25500000000E-02 0. -1.
    5000001    1    1    2    0    0 -0.28974374889E+02  0.23598447707E+03 -0.58292413590E+02  0.29521380947E+03  0.16500000000E+03 0.  0.
   -5000001    1    1    2    0    0  0.28974374889E+02 -0.23598447707E+03 -0.13363931211E+03  0.31876739727E+03  0.16500000000E+03 0.  0.
<mgrwt>
<rscale>  0 0.58321106E+03</rscale>
<asrwt>0</asrwt>
<pdfrwt beam="1">  1        2 0.30146392E-01 0.58321106E+03</pdfrwt>
<pdfrwt beam="2">  1       -2 0.57565209E-01 0.58321106E+03</pdfrwt>
<totfact> 0.50431499E+02</totfact>
</mgrwt>
</event>
<event>
 4    1  0.5280257E-005  0.6020830E+03  0.7818608E-02  0.9901094E-01
          2   -1    0    0  501    0  0.00000000000E+00  0.00000000000E+00  0.14907342227E+03  0.14907342229E+03  0.25500000000E-02 0.  1.
         -2   -1    0    0    0  501 -0.00000000000E+00 -0.00000000000E+00 -0.60792851840E+03  0.60792851841E+03  0.25500000000E-02 0. -1.
    5000001    1    1    2    0    0  0.23325565200E+02  0.20866807791E+03 -0.54691395992E+02  0.27258502807E+03  0.16500000000E+03 0.  0.
   -5000001    1    1    2    0    0 -0.23325565200E+02 -0.20866807791E+03 -0.40416370014E+03  0.48441691263E+03  0.16500000000E+03 0.  0.
<mgrwt>
<rscale>  0 0.60208300E+03</rscale>
<asrwt>0</asrwt>
<pdfrwt beam="1">  1        2 0.21296204E-01 0.60208300E+03</pdfrwt>
<pdfrwt beam="2">  1       -2 0.86846930E-01 0.60208300E+03</pdfrwt>
<totfact> 0.30604794E+02</totfact>
</mgrwt>
</event>
<event>
 4    1  0.5280257E-005  0.4570706E+03  0.7818608E-02  0.1025634E+00
          2   -1    0    0  501    0  0.00000000000E+00  0.00000000000E+00  0.34343185706E+03  0.34343185707E+03  0.25500000000E-02 0.  1.
         -2   -1    0    0    0  501 -0.00000000000E+00 -0.00000000000E+00 -0.15207786776E+03  0.15207786778E+03  0.25500000000E-02 0. -1.
    5000001    1    1    2    0    0 -0.14490543496E+03  0.62787572431E+02  0.10431721622E+03  0.25109150908E+03  0.16500000000E+03 0.  0.
   -5000001    1    1    2    0    0  0.14490543496E+03 -0.62787572431E+02  0.87036773074E+02  0.24441821577E+03  0.16500000000E+03 0.  0.
<mgrwt>
<rscale>  0 0.45707061E+03</rscale>
<asrwt>0</asrwt>
<pdfrwt beam="1">  1        2 0.49061694E-01 0.45707061E+03</pdfrwt>
<pdfrwt beam="2">  1       -2 0.21725410E-01 0.45707061E+03</pdfrwt>
<totfact> 0.18775956E+03</totfact>
</mgrwt>
</event>
<event>
 4    1  0.5280257E-005  0.6310817E+03  0.7818608E-02  0.9842940E-01
          2   -1    0    0  501    0  0.00000000000E+00  0.00000000000E+00  0.44221695112E+03  0.44221695113E+03  0.25500000000E-02 0.  1.
         -2   -1    0    0    0  501 -0.00000000000E+00 -0.00000000000E+00 -0.22515197147E+03  0.22515197148E+03  0.25500000000E-02 0. -1.
    5000001    1    1    2    0    0 -0.24740645099E+02 -0.25446862970E+03  0.20216128748E+02  0.30495913642E+03  0.16500000000E+03 0.  0.
   -5000001    1    1    2    0    0  0.24740645099E+02  0.25446862970E+03  0.19684885090E+03  0.36240978619E+03  0.16500000000E+03 0.  0.
<mgrwt>
<rscale>  0 0.63108167E+03</rscale>
<asrwt>0</asrwt>
<pdfrwt beam="1">  1        2 0.63173850E-01 0.63108167E+03</pdfrwt>
<pdfrwt beam="2">  1       -2 0.32164568E-01 0.63108167E+03</pdfrwt>
<totfact> 0.69795988E+02</totfact>
</mgrwt>
</event>
<event>
 4    1  0.5280257E-005  0.5435580E+03  0.7818608E-02  0.1002996E+00
          2   -1    0    0  501    0  0.00000000000E+00  0.00000000000E+00  0.60382610891E+03  0.60382610892E+03  0.25500000000E-02 0.  1.
         -2   -1    0    0    0  501 -0.00000000000E+00 -0.00000000000E+00 -0.12232633341E+03  0.12232633344E+03  0.25500000000E-02 0. -1.
    5000001    1    1    2    0    0 -0.16872783353E+03 -0.37635120192E+02  0.67834870410E+02  0.24841910901E+03  0.16500000000E+03 0.  0.
   -5000001    1    1    2    0    0  0.16872783353E+03  0.37635120192E+02  0.41366490509E+03  0.47773333334E+03  0.16500000000E+03 0.  0.
<mgrwt>
<rscale>  0 0.54355803E+03</rscale>
<asrwt>0</asrwt>
<pdfrwt beam="1">  1        2 0.86260872E-01 0.54355803E+03</pdfrwt>
<pdfrwt beam="2">  1       -2 0.17475191E-01 0.54355803E+03</pdfrwt>
<totfact> 0.14522224E+03</totfact>
</mgrwt>
</event>
<event>
 4    1  0.5280257E-005  0.4106209E+03  0.7818608E-02  0.1040163E+00
         -2   -1    0    0    0  501 -0.00000000000E+00  0.00000000000E+00  0.12325370898E+03  0.12325370901E+03  0.25500000000E-02 0. -1.
          2   -1    0    0  501    0  0.00000000000E+00 -0.00000000000E+00 -0.34199688458E+03  0.34199688459E+03  0.25500000000E-02 0.  1.
    5000001    1    1    2    0    0 -0.80295975864E+02 -0.71573232702E+02 -0.17502167726E+03  0.26349147783E+03  0.16500000000E+03 0.  0.
   -5000001    1    1    2    0    0  0.80295975864E+02  0.71573232702E+02 -0.43721498338E+02  0.20175911577E+03  0.16500000000E+03 0.  0.
<mgrwt>
<rscale>  0 0.41062092E+03</rscale>
<asrwt>0</asrwt>
<pdfrwt beam="1">  1        2 0.48856697E-01 0.41062092E+03</pdfrwt>
<pdfrwt beam="2">  1       -2 0.17607673E-01 0.41062092E+03</pdfrwt>
<totfact> 0.27065568E+03</totfact>
</mgrwt>
</event>
<event>
 4    1  0.5280257E-005  0.7779557E+03  0.7818608E-02  0.9592485E-01
         -2   -1    0    0    0  501 -0.00000000000E+00  0.00000000000E+00  0.25775780676E+03  0.25775780677E+03  0.25500000000E-02 0. -1.
          2   -1    0    0  501    0  0.00000000000E+00 -0.00000000000E+00 -0.58699981095E+03  0.58699981095E+03  0.25500000000E-02 0.  1.
    5000001    1    1    2    0    0  0.32315183589E+03 -0.88291908374E+02 -0.46384863963E+02  0.37629659277E+03  0.16500000000E+03 0.  0.
   -5000001    1    1    2    0    0 -0.32315183589E+03  0.88291908374E+02 -0.28285714023E+03  0.46846102495E+03  0.16500000000E+03 0.  0.
<mgrwt>
<rscale>  0 0.77795574E+03</rscale>
<asrwt>0</asrwt>
<pdfrwt beam="1">  1        2 0.83857116E-01 0.77795574E+03</pdfrwt>
<pdfrwt beam="2">  1       -2 0.36822544E-01 0.77795574E+03</pdfrwt>
<totfact> 0.38874790E+02</totfact>
</mgrwt>
</event>
<event>
 4    1  0.5280257E-005  0.4921338E+03  0.7818608E-02  0.1015853E+00
         -2   -1    0    0    0  501 -0.00000000000E+00  0.00000000000E+00  0.25594572949E+02  0.25594573076E+02  0.25500000000E-02 0.  1.
          2   -1    0    0  501    0  0.00000000000E+00 -0.00000000000E+00 -0.23656939906E+04  0.23656939906E+04  0.25500000000E-02 0. -1.
    5000001    1    1    2    0    0 -0.14069270531E+02 -0.16619377507E+03 -0.15305881505E+04  0.15484648532E+04  0.16500000000E+03 0.  0.
   -5000001    1    1    2    0    0  0.14069270531E+02  0.16619377507E+03 -0.80951126716E+03  0.84282371045E+03  0.16500000000E+03 0.  0.
<mgrwt>
<rscale>  0 0.49213383E+03</rscale>
<asrwt>0</asrwt>
<pdfrwt beam="1">  1        2 0.33795614E+00 0.49213383E+03</pdfrwt>
<pdfrwt beam="2">  1       -2 0.36563691E-02 0.49213383E+03</pdfrwt>
<totfact> 0.18111518E+03</totfact>
</mgrwt>
</event>
<event>
 4    1  0.5280257E-005  0.5378969E+03  0.7818608E-02  0.1004335E+00
         -2   -1    0    0    0  501 -0.00000000000E+00  0.00000000000E+00  0.46221185616E+02  0.46221185686E+02  0.25500000000E-02 0. -1.
          2   -1    0    0  501    0  0.00000000000E+00 -0.00000000000E+00 -0.15649375914E+04  0.15649375914E+04  0.25500000000E-02 0.  1.
    5000001    1    1    2    0    0 -0.20764057589E+03  0.44456966211E+02 -0.77179510735E+03  0.81730270911E+03  0.16500000000E+03 0.  0.
   -5000001    1    1    2    0    0  0.20764057589E+03 -0.44456966211E+02 -0.74692129845E+03  0.79385606799E+03  0.16500000000E+03 0.  0.
<mgrwt>
<rscale>  0 0.53789691E+03</rscale>
<asrwt>0</asrwt>
<pdfrwt beam="1">  1        2 0.22356248E+00 0.53789691E+03</pdfrwt>
<pdfrwt beam="2">  1       -2 0.66030275E-02 0.53789691E+03</pdfrwt>
<totfact> 0.18322380E+03</totfact>
</mgrwt>
</event>
<event>
 4    1  0.5280257E-005  0.3530426E+03  0.7818608E-02  0.1061373E+00
         -2   -1    0    0    0  501 -0.00000000000E+00  0.00000000000E+00  0.23452871639E+03  0.23452871640E+03  0.25500000000E-02 0. -1.
          2   -1    0    0  501    0  0.00000000000E+00 -0.00000000000E+00 -0.13286124891E+03  0.13286124893E+03  0.25500000000E-02 0.  1.
    5000001    1    1    2    0    0 -0.10161571350E+02  0.31489622553E+02 -0.46228992932E+01  0.16834852259E+03  0.16500000000E+03 0.  0.
   -5000001    1    1    2    0    0  0.10161571350E+02 -0.31489622553E+02  0.10629036677E+03  0.19904144274E+03  0.16500000000E+03 0.  0.
<mgrwt>
<rscale>  0 0.35304265E+03</rscale>
<asrwt>0</asrwt>
<pdfrwt beam="1">  1        2 0.18980179E-01 0.35304265E+03</pdfrwt>
<pdfrwt beam="2">  1       -2 0.33504102E-01 0.35304265E+03</pdfrwt>
<totfact> 0.24725458E+03</totfact>
</mgrwt>
</event>
<event>
 4    1  0.5280257E-005  0.4393032E+03  0.7818608E-02  0.1030961E+00
          2   -1    0    0  501    0  0.00000000000E+00  0.00000000000E+00  0.75424241556E+03  0.75424241557E+03  0.25500000000E-02 0.  1.
         -2   -1    0    0    0  501 -0.00000000000E+00 -0.00000000000E+00 -0.63967274983E+02  0.63967275034E+02  0.25500000000E-02 0. -1.
    5000001    1    1    2    0    0 -0.10977048508E+03 -0.85759476343E+02  0.27022861215E+03  0.34590858619E+03  0.16500000000E+03 0.  0.
   -5000001    1    1    2    0    0  0.10977048508E+03  0.85759476343E+02  0.42004652843E+03  0.47230110441E+03  0.16500000000E+03 0.  0.
<mgrwt>
<rscale>  0 0.43930323E+03</rscale>
<asrwt>0</asrwt>
<pdfrwt beam="1">  1        2 0.10774891E+00 0.43930323E+03</pdfrwt>
<pdfrwt beam="2">  1       -2 0.91381825E-02 0.43930323E+03</pdfrwt>
<totfact> 0.32331641E+03</totfact>
</mgrwt>
</event>
<event>
 4    1  0.5280257E-005  0.9600599E+03  0.7818608E-02  0.9353469E-01
         -2   -1    0    0    0  501 -0.00000000000E+00  0.00000000000E+00  0.13033898939E+03  0.13033898942E+03  0.25500000000E-02 0. -1.
          2   -1    0    0  501    0  0.00000000000E+00 -0.00000000000E+00 -0.17679186966E+04  0.17679186966E+04  0.25500000000E-02 0.  1.
    5000001    1    1    2    0    0  0.40448722625E+03  0.10955073339E+03 -0.49035288230E+03  0.66579443417E+03  0.16500000000E+03 0.  0.
   -5000001    1    1    2    0    0 -0.40448722625E+03 -0.10955073339E+03 -0.11472268249E+04  0.12324632518E+04  0.16500000000E+03 0.  0.
<mgrwt>
<rscale>  0 0.96005987E+03</rscale>
<asrwt>0</asrwt>
<pdfrwt beam="1">  1        2 0.25255980E+00 0.96005987E+03</pdfrwt>
<pdfrwt beam="2">  1       -2 0.18619857E-01 0.96005987E+03</pdfrwt>
<totfact> 0.25616441E+02</totfact>
</mgrwt>
</event>
<event>
 4    1  0.5280257E-005  0.5925672E+03  0.7818608E-02  0.9920948E-01
          2   -1    0    0  501    0  0.00000000000E+00  0.00000000000E+00  0.12803860648E+04  0.12803860648E+04  0.25500000000E-02 0.  1.
         -2   -1    0    0    0  501 -0.00000000000E+00 -0.00000000000E+00 -0.68560540296E+02  0.68560540344E+02  0.25500000000E-02 0. -1.
    5000001    1    1    2    0    0  0.23850946652E+03 -0.49573153219E+02  0.52657294252E+03  0.60319841424E+03  0.16500000000E+03 0.  0.
   -5000001    1    1    2    0    0 -0.23850946652E+03  0.49573153219E+02  0.68525258202E+03  0.74574819095E+03  0.16500000000E+03 0.  0.
<mgrwt>
<rscale>  0 0.59256716E+03</rscale>
<asrwt>0</asrwt>
<pdfrwt beam="1">  1        2 0.18291231E+00 0.59256716E+03</pdfrwt>
<pdfrwt beam="2">  1       -2 0.97943624E-02 0.59256716E+03</pdfrwt>
<totfact> 0.13799813E+03</totfact>
</mgrwt>
</event>
<event>
 4    1  0.5280257E-005  0.4107439E+03  0.7818608E-02  0.1040122E+00
          2   -1    0    0  501    0  0.00000000000E+00  0.00000000000E+00  0.84077785057E+03  0.84077785057E+03  0.25500000000E-02 0.  1.
         -2   -1    0    0    0  501 -0.00000000000E+00 -0.00000000000E+00 -0.50165025019E+02  0.50165025084E+02  0.25500000000E-02 0. -1.
    5000001    1    1    2    0    0  0.88901841261E+02 -0.61546667370E+02  0.27143770902E+03  0.33555172406E+03  0.16500000000E+03 0.  0.
   -5000001    1    1    2    0    0 -0.88901841261E+02  0.61546667370E+02  0.51917511653E+03  0.55539115159E+03  0.16500000000E+03 0.  0.
<mgrwt>
<rscale>  0 0.41074392E+03</rscale>
<asrwt>0</asrwt>
<pdfrwt beam="1">  1        2 0.12011111E+00 0.41074392E+03</pdfrwt>
<pdfrwt beam="2">  1       -2 0.71664326E-02 0.41074392E+03</pdfrwt>
<totfact> 0.41390216E+03</totfact>
</mgrwt>
</event>
<event>
 4    1  0.5280257E-005  0.5588882E+03  0.7818608E-02  0.9994573E-01
          2   -1    0    0  501    0  0.00000000000E+00  0.00000000000E+00  0.27702411132E+03  0.27702411133E+03  0.25500000000E-02 0.  1.
         -2   -1    0    0    0  501 -0.00000000000E+00 -0.00000000000E+00 -0.28188522817E+03  0.28188522819E+03  0.25500000000E-02 0. -1.
    5000001    1    1    2    0    0 -0.97784017574E+02  0.19714452179E+03 -0.51791601645E+02  0.27988398769E+03  0.16500000000E+03 0.  0.
   -5000001    1    1    2    0    0  0.97784017574E+02 -0.19714452179E+03  0.46930484792E+02  0.27902535183E+03  0.16500000000E+03 0.  0.
<mgrwt>
<rscale>  0 0.55888820E+03</rscale>
<asrwt>0</asrwt>
<pdfrwt beam="1">  1        2 0.39574873E-01 0.55888820E+03</pdfrwt>
<pdfrwt beam="2">  1       -2 0.40269318E-01 0.55888820E+03</pdfrwt>
<totfact> 0.76437619E+02</totfact>
</mgrwt>
</event>
<event>
 4    1  0.5280257E-005  0.3690708E+03  0.7818608E-02  0.1055049E+00
          2   -1    0    0  501    0  0.00000000000E+00  0.00000000000E+00  0.57252833430E+03  0.57252833430E+03  0.25500000000E-02 0.  1.
         -2   -1    0    0    0  501 -0.00000000000E+00 -0.00000000000E+00 -0.59478841621E+02  0.59478841676E+02  0.25500000000E-02 0. -1.
    5000001    1    1    2    0    0 -0.69461802015E+02  0.24436072805E+02  0.32074098405E+03  0.36813291410E+03  0.16500000000E+03 0.  0.
   -5000001    1    1    2    0    0  0.69461802015E+02 -0.24436072805E+02  0.19230850863E+03  0.26387426188E+03  0.16500000000E+03 0.  0.
<mgrwt>
<rscale>  0 0.36907084E+03</rscale>
<asrwt>0</asrwt>
<pdfrwt beam="1">  1        2 0.81789761E-01 0.36907084E+03</pdfrwt>
<pdfrwt beam="2">  1       -2 0.84969775E-02 0.36907084E+03</pdfrwt>
<totfact> 0.50199378E+03</totfact>
</mgrwt>
</event>
<event>
 4    1  0.5280257E-005  0.5081144E+03  0.7818608E-02  0.1011682E+00
         -2   -1    0    0    0  501 -0.00000000000E+00  0.00000000000E+00  0.10756509249E+04  0.10756509249E+04  0.25500000000E-02 0. -1.
          2   -1    0    0  501    0  0.00000000000E+00 -0.00000000000E+00 -0.60005589550E+02  0.60005589604E+02  0.25500000000E-02 0.  1.
    5000001    1    1    2    0    0  0.18930877471E+02  0.14928151107E+03  0.23705302112E+03  0.32567235451E+03  0.16500000000E+03 0.  0.
   -5000001    1    1    2    0    0 -0.18930877471E+02 -0.14928151107E+03  0.77859231427E+03  0.80998416003E+03  0.16500000000E+03 0.  0.
<mgrwt>
<rscale>  0 0.50811443E+03</rscale>
<asrwt>0</asrwt>
<pdfrwt beam="1">  1        2 0.85722272E-02 0.50811443E+03</pdfrwt>
<pdfrwt beam="2">  1       -2 0.15366442E+00 0.50811443E+03</pdfrwt>
<totfact> 0.23158944E+02</totfact>
</mgrwt>
</event>
<event>
 4    1  0.5280257E-005  0.1531370E+04  0.7818608E-02  0.8863856E-01
         -2   -1    0    0    0  501 -0.00000000000E+00  0.00000000000E+00  0.57676175771E+03  0.57676175772E+03  0.25500000000E-02 0. -1.
          2   -1    0    0  501    0  0.00000000000E+00 -0.00000000000E+00 -0.10164912994E+04  0.10164912994E+04  0.25500000000E-02 0.  1.
    5000001    1    1    2    0    0  0.67413288625E+03  0.19300039686E+03 -0.48985881284E+03  0.87114347729E+03  0.16500000000E+03 0.  0.
   -5000001    1    1    2    0    0 -0.67413288625E+03 -0.19300039686E+03  0.50129271122E+02  0.72210957987E+03  0.16500000000E+03 0.  0.
<mgrwt>
<rscale>  0 0.15313697E+04</rscale>
<asrwt>0</asrwt>
<pdfrwt beam="1">  1        2 0.14521304E+00 0.15313697E+04</pdfrwt>
<pdfrwt beam="2">  1       -2 0.82394537E-01 0.15313697E+04</pdfrwt>
<totfact> 0.34275080E+01</totfact>
</mgrwt>
</event>
<event>
 4    1  0.5280257E-005  0.8639247E+03  0.7818608E-02  0.9471836E-01
         -2   -1    0    0    0  501 -0.00000000000E+00  0.00000000000E+00  0.89403082539E+03  0.89403082539E+03  0.25500000000E-02 0. -1.
          2   -1    0    0  501    0  0.00000000000E+00 -0.00000000000E+00 -0.20870810199E+03  0.20870810201E+03  0.25500000000E-02 0.  1.
    5000001    1    1    2    0    0  0.11658655352E+03 -0.35277302723E+03  0.52906046063E+03  0.66721151384E+03  0.16500000000E+03 0.  0.
   -5000001    1    1    2    0    0 -0.11658655352E+03  0.35277302723E+03  0.15626226276E+03  0.43552741356E+03  0.16500000000E+03 0.  0.
<mgrwt>
<rscale>  0 0.86392471E+03</rscale>
<asrwt>0</asrwt>
<pdfrwt beam="1">  1        2 0.29815443E-01 0.86392471E+03</pdfrwt>
<pdfrwt beam="2">  1       -2 0.12771869E+00 0.86392471E+03</pdfrwt>
<totfact> 0.81797354E+01</totfact>
</mgrwt>
</event>
<event>
 4    1  0.5280257E-005  0.6213908E+03  0.7818608E-02  0.9861995E-01
         -2   -1    0    0    0  501 -0.00000000000E+00  0.00000000000E+00  0.38926404237E+03  0.38926404238E+03  0.25500000000E-02 0. -1.
          2   -1    0    0  501    0  0.00000000000E+00 -0.00000000000E+00 -0.24798493943E+03  0.24798493944E+03  0.25500000000E-02 0.  1.
    5000001    1    1    2    0    0 -0.99524421108E+02  0.23985118705E+03  0.26257875468E+02  0.30878500344E+03  0.16500000000E+03 0.  0.
   -5000001    1    1    2    0    0  0.99524421108E+02 -0.23985118705E+03  0.11502122748E+03  0.32846397838E+03  0.16500000000E+03 0.  0.
<mgrwt>
<rscale>  0 0.62139076E+03</rscale>
<asrwt>0</asrwt>
<pdfrwt beam="1">  1        2 0.35426420E-01 0.62139076E+03</pdfrwt>
<pdfrwt beam="2">  1       -2 0.55609149E-01 0.62139076E+03</pdfrwt>
<totfact> 0.45214404E+02</totfact>
</mgrwt>
</event>
<event>
 4    1  0.5280257E-005  0.7506972E+03  0.7818608E-02  0.9634257E-01
         -2   -1    0    0    0  501 -0.00000000000E+00  0.00000000000E+00  0.85132271896E+03  0.85132271896E+03  0.25500000000E-02 0. -1.
          2   -1    0    0  501    0  0.00000000000E+00 -0.00000000000E+00 -0.16549139000E+03  0.16549139002E+03  0.25500000000E-02 0.  1.
    5000001    1    1    2    0    0 -0.20729298397E+03  0.20754963818E+03  0.11783191542E+03  0.35659023234E+03  0.16500000000E+03 0.  0.
   -5000001    1    1    2    0    0  0.20729298397E+03 -0.20754963818E+03  0.56799941353E+03  0.66022387664E+03  0.16500000000E+03 0.  0.
<mgrwt>
<rscale>  0 0.75069722E+03</rscale>
<asrwt>0</asrwt>
<pdfrwt beam="1">  1        2 0.23641626E-01 0.75069722E+03</pdfrwt>
<pdfrwt beam="2">  1       -2 0.12161754E+00 0.75069722E+03</pdfrwt>
<totfact> 0.12116957E+02</totfact>
</mgrwt>
</event>
<event>
 4    1  0.5280257E-005  0.3362702E+03  0.7818608E-02  0.1068396E+00
         -2   -1    0    0    0  501 -0.00000000000E+00  0.00000000000E+00  0.36915773470E+02  0.36915773558E+02  0.25500000000E-02 0. -1.
          2   -1    0    0  501    0  0.00000000000E+00 -0.00000000000E+00 -0.76578153372E+03  0.76578153373E+03  0.25500000000E-02 0.  1.
    5000001    1    1    2    0    0  0.77282738056E+01 -0.30835976060E+02 -0.37831769939E+03  0.41395635677E+03  0.16500000000E+03 0.  0.
   -5000001    1    1    2    0    0 -0.77282738056E+01  0.30835976060E+02 -0.35054806086E+03  0.38874095052E+03  0.16500000000E+03 0.  0.
<mgrwt>
<rscale>  0 0.33627023E+03</rscale>
<asrwt>0</asrwt>
<pdfrwt beam="1">  1        2 0.10939735E+00 0.33627023E+03</pdfrwt>
<pdfrwt beam="2">  1       -2 0.52736824E-02 0.33627023E+03</pdfrwt>
<totfact> 0.74555934E+03</totfact>
</mgrwt>
</event>
<event>
 4    1  0.5280257E-005  0.3719910E+03  0.7818608E-02  0.1053934E+00
          2   -1    0    0  501    0  0.00000000000E+00  0.00000000000E+00  0.93702010110E+03  0.93702010110E+03  0.25500000000E-02 0.  1.
         -2   -1    0    0    0  501 -0.00000000000E+00 -0.00000000000E+00 -0.36919514209E+02  0.36919514297E+02  0.25500000000E-02 0. -1.
    5000001    1    1    2    0    0 -0.41610302420E+02  0.66887317674E+02  0.36072480080E+03  0.40441650862E+03  0.16500000000E+03 0.  0.
   -5000001    1    1    2    0    0  0.41610302420E+02 -0.66887317674E+02  0.53937578610E+03  0.56952310678E+03  0.16500000000E+03 0.  0.
<mgrwt>
<rscale>  0 0.37199101E+03</rscale>
<asrwt>0</asrwt>
<pdfrwt beam="1">  1        2 0.13386001E+00 0.37199101E+03</pdfrwt>
<pdfrwt beam="2">  1       -2 0.52742163E-02 0.37199101E+03</pdfrwt>
<totfact> 0.57704849E+03</totfact>
</mgrwt>
</event>
<event>
 4    1  0.5280257E-005  0.5965336E+03  0.7818608E-02  0.9912624E-01
          2   -1    0    0  501    0  0.00000000000E+00  0.00000000000E+00  0.16107214114E+03  0.16107214116E+03  0.25500000000E-02 0. -1.
         -2   -1    0    0    0  501 -0.00000000000E+00 -0.00000000000E+00 -0.55231825208E+03  0.55231825209E+03  0.25500000000E-02 0.  1.
    5000001    1    1    2    0    0 -0.21187138194E+03 -0.11007490742E+03 -0.27788898828E+03  0.40181246563E+03  0.16500000000E+03 0.  0.
   -5000001    1    1    2    0    0  0.21187138194E+03  0.11007490742E+03 -0.11335712266E+03  0.31157792763E+03  0.16500000000E+03 0.  0.
<mgrwt>
<rscale>  0 0.59653360E+03</rscale>
<asrwt>0</asrwt>
<pdfrwt beam="1">  1        2 0.23010306E-01 0.59653360E+03</pdfrwt>
<pdfrwt beam="2">  1       -2 0.78902607E-01 0.59653360E+03</pdfrwt>
<totfact> 0.34741762E+02</totfact>
</mgrwt>
</event>
<event>
 4    1  0.5280257E-005  0.5841138E+03  0.7818608E-02  0.9938924E-01
          2   -1    0    0  501    0  0.00000000000E+00  0.00000000000E+00  0.19843491575E+03  0.19843491577E+03  0.25500000000E-02 0.  1.
         -2   -1    0    0    0  501 -0.00000000000E+00 -0.00000000000E+00 -0.42984994851E+03  0.42984994852E+03  0.25500000000E-02 0. -1.
    5000001    1    1    2    0    0  0.18319746719E+03 -0.15554185277E+03 -0.13487827384E+03  0.32120356272E+03  0.16500000000E+03 0.  0.
   -5000001    1    1    2    0    0 -0.18319746719E+03  0.15554185277E+03 -0.96536758915E+02  0.30708130156E+03  0.16500000000E+03 0.  0.
<mgrwt>
<rscale>  0 0.58411382E+03</rscale>
<asrwt>0</asrwt>
<pdfrwt beam="1">  1        2 0.28347845E-01 0.58411382E+03</pdfrwt>
<pdfrwt beam="2">  1       -2 0.61407135E-01 0.58411382E+03</pdfrwt>
<totfact> 0.47197159E+02</totfact>
</mgrwt>
</event>
<event>
 4    1  0.5280257E-005  0.1619242E+04  0.7818608E-02  0.8808813E-01
          2   -1    0    0  501    0  0.00000000000E+00  0.00000000000E+00  0.11184654844E+04  0.11184654844E+04  0.25500000000E-02 0.  1.
         -2   -1    0    0    0  501 -0.00000000000E+00 -0.00000000000E+00 -0.58605838683E+03  0.58605838684E+03  0.25500000000E-02 0. -1.
    5000001    1    1    2    0    0  0.56123091272E+03  0.53433510989E+03  0.44161393005E+03  0.90705127213E+03  0.16500000000E+03 0.  0.
   -5000001    1    1    2    0    0 -0.56123091272E+03 -0.53433510989E+03  0.90793167510E+02  0.79747259910E+03  0.16500000000E+03 0.  0.
<mgrwt>
<rscale>  0 0.16192419E+04</rscale>
<asrwt>0</asrwt>
<pdfrwt beam="1">  1        2 0.15978078E+00 0.16192419E+04</pdfrwt>
<pdfrwt beam="2">  1       -2 0.83722628E-01 0.16192419E+04</pdfrwt>
<totfact> 0.28524449E+01</totfact>
</mgrwt>
</event>
<event>
 4    1  0.5280257E-005  0.4673846E+03  0.7818608E-02  0.1022661E+00
          2   -1    0    0  501    0  0.00000000000E+00  0.00000000000E+00  0.19133882031E+04  0.19133882031E+04  0.25500000000E-02 0.  1.
         -2   -1    0    0    0  501 -0.00000000000E+00 -0.00000000000E+00 -0.28542089920E+02  0.28542090033E+02  0.25500000000E-02 0. -1.
    5000001    1    1    2    0    0 -0.81808141557E+02 -0.14349814536E+03  0.90029477497E+03  0.93007525049E+03  0.16500000000E+03 0.  0.
   -5000001    1    1    2    0    0  0.81808141557E+02  0.14349814536E+03  0.98455133826E+03  0.10118550427E+04  0.16500000000E+03 0.  0.
<mgrwt>
<rscale>  0 0.46738463E+03</rscale>
<asrwt>0</asrwt>
<pdfrwt beam="1">  1        2 0.27334127E+00 0.46738463E+03</pdfrwt>
<pdfrwt beam="2">  1       -2 0.40774400E-02 0.46738463E+03</pdfrwt>
<totfact> 0.25838392E+03</totfact>
</mgrwt>
</event>
<event>
 4    1  0.5280257E-005  0.5542898E+03  0.7818608E-02  0.1000506E+00
          2   -1    0    0  501    0  0.00000000000E+00  0.00000000000E+00  0.44885103616E+02  0.44885103689E+02  0.25500000000E-02 0.  1.
         -2   -1    0    0    0  501 -0.00000000000E+00 -0.00000000000E+00 -0.17112425711E+04  0.17112425711E+04  0.25500000000E-02 0. -1.
    5000001    1    1    2    0    0  0.15614252472E+02  0.20218812159E+03 -0.11245965801E+04  0.11545849079E+04  0.16500000000E+03 0.  0.
   -5000001    1    1    2    0    0 -0.15614252472E+02 -0.20218812159E+03 -0.54176088732E+03  0.60154276691E+03  0.16500000000E+03 0.  0.
<mgrwt>
<rscale>  0 0.55428982E+03</rscale>
<asrwt>0</asrwt>
<pdfrwt beam="1">  1        2 0.64121587E-02 0.55428982E+03</pdfrwt>
<pdfrwt beam="2">  1       -2 0.24446318E+00 0.55428982E+03</pdfrwt>
<totfact> 0.85725426E+01</totfact>
</mgrwt>
</event>
<event>
 4    1  0.5280257E-005  0.4993433E+03  0.7818608E-02  0.1013950E+00
         -2   -1    0    0    0  501 -0.00000000000E+00  0.00000000000E+00  0.25000372442E+03  0.25000372443E+03  0.25500000000E-02 0. -1.
          2   -1    0    0  501    0  0.00000000000E+00 -0.00000000000E+00 -0.24934006112E+03  0.24934006114E+03  0.25500000000E-02 0.  1.
    5000001    1    1    2    0    0  0.10700093419E+03 -0.32737278186E+02  0.15063171367E+03  0.24987165198E+03  0.16500000000E+03 0.  0.
   -5000001    1    1    2    0    0 -0.10700093419E+03  0.32737278186E+02 -0.14996805038E+03  0.24947213358E+03  0.16500000000E+03 0.  0.
<mgrwt>
<rscale>  0 0.49934334E+03</rscale>
<asrwt>0</asrwt>
<pdfrwt beam="1">  1        2 0.35620009E-01 0.49934334E+03</pdfrwt>
<pdfrwt beam="2">  1       -2 0.35714818E-01 0.49934334E+03</pdfrwt>
<totfact> 0.10811680E+03</totfact>
</mgrwt>
</event>
<event>
 4    1  0.5280257E-005  0.8020722E+03  0.7818608E-02  0.9557022E-01
         -2   -1    0    0    0  501 -0.00000000000E+00  0.00000000000E+00  0.53607803379E+02  0.53607803439E+02  0.25500000000E-02 0. -1.
          2   -1    0    0  501    0  0.00000000000E+00 -0.00000000000E+00 -0.30001222563E+04  0.30001222563E+04  0.25500000000E-02 0.  1.
    5000001    1    1    2    0    0  0.21300355807E+03  0.29195721207E+03 -0.16816329368E+04  0.17279247274E+04  0.16500000000E+03 0.  0.
   -5000001    1    1    2    0    0 -0.21300355807E+03 -0.29195721207E+03 -0.12648815161E+04  0.13258053323E+04  0.16500000000E+03 0.  0.
<mgrwt>
<rscale>  0 0.80207223E+03</rscale>
<asrwt>0</asrwt>
<pdfrwt beam="1">  1        2 0.42858879E+00 0.80207223E+03</pdfrwt>
<pdfrwt beam="2">  1       -2 0.76582595E-02 0.80207223E+03</pdfrwt>
<totfact> 0.25934127E+02</totfact>
</mgrwt>
</event>
<event>
 4    1  0.5280257E-005  0.3984148E+03  0.7818608E-02  0.1044330E+00
         -2   -1    0    0    0  501 -0.00000000000E+00  0.00000000000E+00  0.34496562005E+02  0.34496562099E+02  0.25500000000E-02 0. -1.
          2   -1    0    0  501    0  0.00000000000E+00 -0.00000000000E+00 -0.11503632948E+04  0.11503632948E+04  0.25500000000E-02 0.  1.
    5000001    1    1    2    0    0  0.10771444282E+03 -0.28247482502E+02 -0.53523436024E+03  0.57105266118E+03  0.16500000000E+03 0.  0.
   -5000001    1    1    2    0    0 -0.10771444282E+03  0.28247482502E+02 -0.58063237251E+03  0.61380719567E+03  0.16500000000E+03 0.  0.
<mgrwt>
<rscale>  0 0.39841475E+03</rscale>
<asrwt>0</asrwt>
<pdfrwt beam="1">  1        2 0.16433759E+00 0.39841475E+03</pdfrwt>
<pdfrwt beam="2">  1       -2 0.49280810E-02 0.39841475E+03</pdfrwt>
<totfact> 0.48038398E+03</totfact>
</mgrwt>
</event>
<event>
 4    1  0.5280257E-005  0.3652643E+03  0.7818608E-02  0.1056519E+00
         -2   -1    0    0    0  501 -0.00000000000E+00  0.00000000000E+00  0.48270365702E+03  0.48270365703E+03  0.25500000000E-02 0. -1.
          2   -1    0    0  501    0  0.00000000000E+00 -0.00000000000E+00 -0.69099351491E+02  0.69099351538E+02  0.25500000000E-02 0.  1.
    5000001    1    1    2    0    0 -0.14277426291E+02  0.75145571448E+02  0.18157726163E+03  0.25699417065E+03  0.16500000000E+03 0.  0.
   -5000001    1    1    2    0    0  0.14277426291E+02 -0.75145571448E+02  0.23202704390E+03  0.29480883791E+03  0.16500000000E+03 0.  0.
<mgrwt>
<rscale>  0 0.36526434E+03</rscale>
<asrwt>0</asrwt>
<pdfrwt beam="1">  1        2 0.98713359E-02 0.36526434E+03</pdfrwt>
<pdfrwt beam="2">  1       -2 0.68957665E-01 0.36526434E+03</pdfrwt>
<totfact> 0.12916519E+03</totfact>
</mgrwt>
</event>
<event>
 4    1  0.5280257E-005  0.3972977E+03  0.7818608E-02  0.1044719E+00
         -2   -1    0    0    0  501 -0.00000000000E+00  0.00000000000E+00  0.26396597083E+03  0.26396597084E+03  0.25500000000E-02 0. -1.
          2   -1    0    0  501    0  0.00000000000E+00 -0.00000000000E+00 -0.14949413477E+03  0.14949413479E+03  0.25500000000E-02 0.  1.
    5000001    1    1    2    0    0 -0.24360598795E+02  0.10169937737E+03  0.19711293938E+02  0.19634087002E+03  0.16500000000E+03 0.  0.
   -5000001    1    1    2    0    0  0.24360598795E+02 -0.10169937737E+03  0.94760542124E+02  0.21711923561E+03  0.16500000000E+03 0.  0.
<mgrwt>
<rscale>  0 0.39729769E+03</rscale>
<asrwt>0</asrwt>
<pdfrwt beam="1">  1        2 0.21356305E-01 0.39729769E+03</pdfrwt>
<pdfrwt beam="2">  1       -2 0.37709424E-01 0.39729769E+03</pdfrwt>
<totfact> 0.17304985E+03</totfact>
</mgrwt>
</event>
<event>
 4    1  0.5280257E-005  0.5433756E+03  0.7818608E-02  0.1003039E+00
         -2   -1    0    0    0  501 -0.00000000000E+00  0.00000000000E+00  0.92034224004E+02  0.92034224040E+02  0.25500000000E-02 0. -1.
          2   -1    0    0  501    0  0.00000000000E+00 -0.00000000000E+00 -0.80203064206E+03  0.80203064207E+03  0.25500000000E-02 0.  1.
    5000001    1    1    2    0    0 -0.21413856437E+03  0.22194821957E+02 -0.32943724929E+03  0.42673391720E+03  0.16500000000E+03 0.  0.
   -5000001    1    1    2    0    0  0.21413856437E+03 -0.22194821957E+02 -0.38055916877E+03  0.46733094890E+03  0.16500000000E+03 0.  0.
<mgrwt>
<rscale>  0 0.54337563E+03</rscale>
<asrwt>0</asrwt>
<pdfrwt beam="1">  1        2 0.11457580E+00 0.54337563E+03</pdfrwt>
<pdfrwt beam="2">  1       -2 0.13147747E-01 0.54337563E+03</pdfrwt>
<totfact> 0.16577977E+03</totfact>
</mgrwt>
</event>
<event>
 4    1  0.5280257E-005  0.6166315E+03  0.7818608E-02  0.9871489E-01
         -2   -1    0    0    0  501 -0.00000000000E+00  0.00000000000E+00  0.83243715445E+02  0.83243715484E+02  0.25500000000E-02 0. -1.
          2   -1    0    0  501    0  0.00000000000E+00 -0.00000000000E+00 -0.11419312101E+04  0.11419312101E+04  0.25500000000E-02 0.  1.
    5000001    1    1    2    0    0  0.24510837660E+03  0.78518469173E+02 -0.60857857050E+03  0.68105516865E+03  0.16500000000E+03 0.  0.
   -5000001    1    1    2    0    0 -0.24510837660E+03 -0.78518469173E+02 -0.45010892415E+03  0.54411975692E+03  0.16500000000E+03 0.  0.
<mgrwt>
<rscale>  0 0.61663148E+03</rscale>
<asrwt>0</asrwt>
<pdfrwt beam="1">  1        2 0.16313302E+00 0.61663148E+03</pdfrwt>
<pdfrwt beam="2">  1       -2 0.11891960E-01 0.61663148E+03</pdfrwt>
<totfact> 0.12008065E+03</totfact>
</mgrwt>
</event>
<event>
 4    1  0.5280257E-005  0.1002795E+04  0.7818608E-02  0.9305484E-01
          2   -1    0    0  501    0  0.00000000000E+00  0.00000000000E+00  0.73894585205E+03  0.73894585205E+03  0.25500000000E-02 0.  1.
         -2   -1    0    0    0  501 -0.00000000000E+00 -0.00000000000E+00 -0.34021381456E+03  0.34021381457E+03  0.25500000000E-02 0. -1.
    5000001    1    1    2    0    0  0.24214453199E+03  0.39807647942E+03  0.10884299911E+03  0.50613304209E+03  0.16500000000E+03 0.  0.
   -5000001    1    1    2    0    0 -0.24214453199E+03 -0.39807647942E+03  0.28988903838E+03  0.57302662453E+03  0.16500000000E+03 0.  0.
<mgrwt>
<rscale>  0 0.10027953E+04</rscale>
<asrwt>0</asrwt>
<pdfrwt beam="1">  1        2 0.10556369E+00 0.10027953E+04</pdfrwt>
<pdfrwt beam="2">  1       -2 0.48601974E-01 0.10027953E+04</pdfrwt>
<totfact> 0.16829030E+02</totfact>
</mgrwt>
</event>
<event>
 4    1  0.5280257E-005  0.5989573E+03  0.7818608E-02  0.9907572E-01
         -2   -1    0    0    0  501 -0.00000000000E+00  0.00000000000E+00  0.19208507899E+03  0.19208507901E+03  0.25500000000E-02 0. -1.
          2   -1    0    0  501    0  0.00000000000E+00 -0.00000000000E+00 -0.46691535179E+03  0.46691535180E+03  0.25500000000E-02 0.  1.
    5000001    1    1    2    0    0 -0.19592349907E+03 -0.65992020851E+01  0.33151053474E+02  0.25836710182E+03  0.16500000000E+03 0.  0.
   -5000001    1    1    2    0    0  0.19592349907E+03  0.65992020851E+01 -0.30798132628E+03  0.40063332898E+03  0.16500000000E+03 0.  0.
<mgrwt>
<rscale>  0 0.59895733E+03</rscale>
<asrwt>0</asrwt>
<pdfrwt beam="1">  1        2 0.66702193E-01 0.59895733E+03</pdfrwt>
<pdfrwt beam="2">  1       -2 0.27440726E-01 0.59895733E+03</pdfrwt>
<totfact> 0.88064324E+02</totfact>
</mgrwt>
</event>
<event>
 4    1  0.5280257E-005  0.1183960E+04  0.7818608E-02  0.9127013E-01
          2   -1    0    0  501    0  0.00000000000E+00  0.00000000000E+00  0.21931002940E+04  0.21931002940E+04  0.25500000000E-02 0.  1.
         -2   -1    0    0    0  501 -0.00000000000E+00 -0.00000000000E+00 -0.15979224812E+03  0.15979224814E+03  0.25500000000E-02 0. -1.
    5000001    1    1    2    0    0  0.34035942911E+03  0.11424734978E+03  0.14061794491E+03  0.41939886069E+03  0.16500000000E+03 0.  0.
   -5000001    1    1    2    0    0 -0.34035942911E+03 -0.11424734978E+03  0.18926901009E+04  0.19334936814E+04  0.16500000000E+03 0.  0.
<mgrwt>
<rscale>  0 0.11839602E+04</rscale>
<asrwt>0</asrwt>
<pdfrwt beam="1">  1        2 0.31330003E+00 0.11839602E+04</pdfrwt>
<pdfrwt beam="2">  1       -2 0.22827465E-01 0.11839602E+04</pdfrwt>
<totfact> 0.10666806E+02</totfact>
</mgrwt>
</event>
<event>
 4    1  0.5280257E-005  0.3842361E+03  0.7818608E-02  0.1049379E+00
         -2   -1    0    0    0  501 -0.00000000000E+00  0.00000000000E+00  0.10729486942E+03  0.10729486945E+03  0.25500000000E-02 0. -1.
          2   -1    0    0  501    0  0.00000000000E+00 -0.00000000000E+00 -0.34399908999E+03  0.34399909000E+03  0.25500000000E-02 0.  1.
    5000001    1    1    2    0    0 -0.82412459404E+02  0.40915028822E+02 -0.15935093313E+03  0.24715091126E+03  0.16500000000E+03 0.  0.
   -5000001    1    1    2    0    0  0.82412459404E+02 -0.40915028822E+02 -0.77353287440E+02  0.20414304819E+03  0.16500000000E+03 0.  0.
<mgrwt>
<rscale>  0 0.38423606E+03</rscale>
<asrwt>0</asrwt>
<pdfrwt beam="1">  1        2 0.49142727E-01 0.38423606E+03</pdfrwt>
<pdfrwt beam="2">  1       -2 0.15327839E-01 0.38423606E+03</pdfrwt>
<totfact> 0.33927524E+03</totfact>
</mgrwt>
</event>
<event>
 4    1  0.5280257E-005  0.4197484E+03  0.7818608E-02  0.1037148E+00
          2   -1    0    0  501    0  0.00000000000E+00  0.00000000000E+00  0.19146507976E+03  0.19146507977E+03  0.25500000000E-02 0.  1.
         -2   -1    0    0    0  501 -0.00000000000E+00 -0.00000000000E+00 -0.23005337637E+03  0.23005337638E+03  0.25500000000E-02 0. -1.
    5000001    1    1    2    0    0  0.71870295296E+02 -0.44182991983E+02  0.79633760619E+02  0.20170278123E+03  0.16500000000E+03 0.  0.
   -5000001    1    1    2    0    0 -0.71870295296E+02  0.44182991983E+02 -0.11822205723E+03  0.21981567492E+03  0.16500000000E+03 0.  0.
<mgrwt>
<rscale>  0 0.41974844E+03</rscale>
<asrwt>0</asrwt>
<pdfrwt beam="1">  1        2 0.27352154E-01 0.41974844E+03</pdfrwt>
<pdfrwt beam="2">  1       -2 0.32864768E-01 0.41974844E+03</pdfrwt>
<totfact> 0.16938273E+03</totfact>
</mgrwt>
</event>
<event>
 4    1  0.5280257E-005  0.5526559E+03  0.7818608E-02  0.1000881E+00
          2   -1    0    0  501    0  0.00000000000E+00  0.00000000000E+00  0.10028178914E+04  0.10028178914E+04  0.25500000000E-02 0.  1.
         -2   -1    0    0    0  501 -0.00000000000E+00 -0.00000000000E+00 -0.76142562243E+02  0.76142562285E+02  0.25500000000E-02 0. -1.
    5000001    1    1    2    0    0 -0.19278542622E+03  0.86151120550E+02  0.33173504286E+03  0.42645207796E+03  0.16500000000E+03 0.  0.
   -5000001    1    1    2    0    0  0.19278542622E+03 -0.86151120550E+02  0.59494028628E+03  0.65250837571E+03  0.16500000000E+03 0.  0.
<mgrwt>
<rscale>  0 0.55265586E+03</rscale>
<asrwt>0</asrwt>
<pdfrwt beam="1">  1        2 0.14325969E+00 0.55265586E+03</pdfrwt>
<pdfrwt beam="2">  1       -2 0.10877510E-01 0.55265586E+03</pdfrwt>
<totfact> 0.16800867E+03</totfact>
</mgrwt>
</event>
<event>
 4    1  0.5280257E-005  0.4606388E+03  0.7818608E-02  0.1024596E+00
          2   -1    0    0  501    0  0.00000000000E+00  0.00000000000E+00  0.11979668228E+04  0.11979668228E+04  0.25500000000E-02 0.  1.
         -2   -1    0    0    0  501 -0.00000000000E+00 -0.00000000000E+00 -0.44280878902E+02  0.44280878975E+02  0.25500000000E-02 0. -1.
    5000001    1    1    2    0    0 -0.26310329958E+00 -0.95188652540E+02  0.92598218616E+03  0.94537239112E+03  0.16500000000E+03 0.  0.
   -5000001    1    1    2    0    0  0.26310329958E+00  0.95188652540E+02  0.22770375776E+03  0.29687531068E+03  0.16500000000E+03 0.  0.
<mgrwt>
<rscale>  0 0.46063879E+03</rscale>
<asrwt>0</asrwt>
<pdfrwt beam="1">  1        2 0.17113810E+00 0.46063879E+03</pdfrwt>
<pdfrwt beam="2">  1       -2 0.63258406E-02 0.46063879E+03</pdfrwt>
<totfact> 0.30731978E+03</totfact>
</mgrwt>
</event>
<event>
 4    1  0.5280257E-005  0.1056197E+04  0.7818608E-02  0.9248970E-01
          2   -1    0    0  501    0  0.00000000000E+00  0.00000000000E+00  0.18854514936E+04  0.18854514936E+04  0.25500000000E-02 0.  1.
         -2   -1    0    0    0  501 -0.00000000000E+00 -0.00000000000E+00 -0.14791567185E+03  0.14791567187E+03  0.25500000000E-02 0. -1.
    5000001    1    1    2    0    0  0.25236803595E+03  0.43177580193E+03  0.79314843003E+03  0.95206585947E+03  0.16500000000E+03 0.  0.
   -5000001    1    1    2    0    0 -0.25236803595E+03 -0.43177580193E+03  0.94438739168E+03  0.10813013060E+04  0.16500000000E+03 0.  0.
<mgrwt>
<rscale>  0 0.10561966E+04</rscale>
<asrwt>0</asrwt>
<pdfrwt beam="1">  1        2 0.26935021E+00 0.10561966E+04</pdfrwt>
<pdfrwt beam="2">  1       -2 0.21130810E-01 0.10561966E+04</pdfrwt>
<totfact> 0.17748348E+02</totfact>
</mgrwt>
</event>
<event>
 4    1  0.5280257E-005  0.3523021E+03  0.7818608E-02  0.1061674E+00
          2   -1    0    0  501    0  0.00000000000E+00  0.00000000000E+00  0.84908675678E+03  0.84908675678E+03  0.25500000000E-02 0.  1.
         -2   -1    0    0    0  501 -0.00000000000E+00 -0.00000000000E+00 -0.36544185994E+02  0.36544186083E+02  0.25500000000E-02 0. -1.
    5000001    1    1    2    0    0 -0.53050815372E+02  0.31041503380E+02  0.39339893739E+03  0.43100543834E+03  0.16500000000E+03 0.  0.
   -5000001    1    1    2    0    0  0.53050815372E+02 -0.31041503380E+02  0.41914363340E+03  0.45462550452E+03  0.16500000000E+03 0.  0.
<mgrwt>
<rscale>  0 0.35230205E+03</rscale>
<asrwt>0</asrwt>
<pdfrwt beam="1">  1        2 0.12129810E+00 0.35230205E+03</pdfrwt>
<pdfrwt beam="2">  1       -2 0.52205984E-02 0.35230205E+03</pdfrwt>
<totfact> 0.66599923E+03</totfact>
</mgrwt>
</event>
<event>
 4    1  0.5280257E-005  0.6161676E+03  0.7818608E-02  0.9872420E-01
         -2   -1    0    0    0  501 -0.00000000000E+00  0.00000000000E+00  0.15915926362E+03  0.15915926364E+03  0.25500000000E-02 0. -1.
          2   -1    0    0  501    0  0.00000000000E+00 -0.00000000000E+00 -0.59635632947E+03  0.59635632948E+03  0.25500000000E-02 0.  1.
    5000001    1    1    2    0    0 -0.20663355803E+03 -0.14613950896E+03 -0.29253920985E+03  0.42054532774E+03  0.16500000000E+03 0.  0.
   -5000001    1    1    2    0    0  0.20663355803E+03  0.14613950896E+03 -0.14465785601E+03  0.33497026538E+03  0.16500000000E+03 0.  0.
<mgrwt>
<rscale>  0 0.61616762E+03</rscale>
<asrwt>0</asrwt>
<pdfrwt beam="1">  1        2 0.85193760E-01 0.61616762E+03</pdfrwt>
<pdfrwt beam="2">  1       -2 0.22737038E-01 0.61616762E+03</pdfrwt>
<totfact> 0.93153925E+02</totfact>
</mgrwt>
</event>
<event>
 4    1  0.5280257E-005  0.4486233E+03  0.7818608E-02  0.1028133E+00
         -2   -1    0    0    0  501 -0.00000000000E+00  0.00000000000E+00  0.58843684542E+02  0.58843684598E+02  0.25500000000E-02 0. -1.
          2   -1    0    0  501    0  0.00000000000E+00 -0.00000000000E+00 -0.85507406582E+03  0.85507406583E+03  0.25500000000E-02 0.  1.
    5000001    1    1    2    0    0  0.95143268121E+02  0.11224090842E+03 -0.47543196990E+03  0.52431938834E+03  0.16500000000E+03 0.  0.
   -5000001    1    1    2    0    0 -0.95143268121E+02 -0.11224090842E+03 -0.32079841138E+03  0.38959836208E+03  0.16500000000E+03 0.  0.
<mgrwt>
<rscale>  0 0.44862327E+03</rscale>
<asrwt>0</asrwt>
<pdfrwt beam="1">  1        2 0.12215343E+00 0.44862327E+03</pdfrwt>
<pdfrwt beam="2">  1       -2 0.84062411E-02 0.44862327E+03</pdfrwt>
<totfact> 0.31513588E+03</totfact>
</mgrwt>
</event>
<event>
 4    1  0.5280257E-005  0.6971704E+03  0.7818608E-02  0.9722083E-01
          2   -1    0    0  501    0  0.00000000000E+00  0.00000000000E+00  0.42120701127E+03  0.42120701128E+03  0.25500000000E-02 0.  1.
         -2   -1    0    0    0  501 -0.00000000000E+00 -0.00000000000E+00 -0.28848439021E+03  0.28848439022E+03  0.25500000000E-02 0. -1.
    5000001    1    1    2    0    0  0.28462591467E+03  0.31326119421E+02  0.17922826041E+03  0.37595346307E+03  0.16500000000E+03 0.  0.
   -5000001    1    1    2    0    0 -0.28462591467E+03 -0.31326119421E+02 -0.46505639353E+02  0.33373793844E+03  0.16500000000E+03 0.  0.
<mgrwt>
<rscale>  0 0.69717042E+03</rscale>
<asrwt>0</asrwt>
<pdfrwt beam="1">  1        2 0.60172430E-01 0.69717042E+03</pdfrwt>
<pdfrwt beam="2">  1       -2 0.41212056E-01 0.69717042E+03</pdfrwt>
<totfact> 0.45820877E+02</totfact>
</mgrwt>
</event>
<event>
 4    1  0.5280257E-005  0.3991611E+03  0.7818608E-02  0.1044071E+00
         -2   -1    0    0    0  501 -0.00000000000E+00  0.00000000000E+00  0.20392042125E+03  0.20392042127E+03  0.25500000000E-02 0. -1.
          2   -1    0    0  501    0  0.00000000000E+00 -0.00000000000E+00 -0.19533303014E+03  0.19533303015E+03  0.25500000000E-02 0.  1.
    5000001    1    1    2    0    0 -0.83533905420E+01  0.96915102895E+02  0.60387662659E+02  0.20083322958E+03  0.16500000000E+03 0.  0.
   -5000001    1    1    2    0    0  0.83533905420E+01 -0.96915102895E+02 -0.51800271543E+02  0.19842022184E+03  0.16500000000E+03 0.  0.
<mgrwt>
<rscale>  0 0.39916109E+03</rscale>
<asrwt>0</asrwt>
<pdfrwt beam="1">  1        2 0.27904718E-01 0.39916109E+03</pdfrwt>
<pdfrwt beam="2">  1       -2 0.29131489E-01 0.39916109E+03</pdfrwt>
<totfact> 0.20669266E+03</totfact>
</mgrwt>
</event>
<event>
 4    1  0.5280257E-005  0.4635050E+03  0.7818608E-02  0.1023770E+00
          2   -1    0    0  501    0  0.00000000000E+00  0.00000000000E+00  0.11720165357E+04  0.11720165357E+04  0.25500000000E-02 0.  1.
         -2   -1    0    0    0  501 -0.00000000000E+00 -0.00000000000E+00 -0.45826336803E+02  0.45826336874E+02  0.25500000000E-02 0. -1.
    5000001    1    1    2    0    0 -0.15162979327E+03 -0.20145404983E+02  0.41711603518E+03  0.47392849498E+03  0.16500000000E+03 0.  0.
   -5000001    1    1    2    0    0  0.15162979327E+03  0.20145404983E+02  0.70907416374E+03  0.74391437762E+03  0.16500000000E+03 0.  0.
<mgrwt>
<rscale>  0 0.46350501E+03</rscale>
<asrwt>0</asrwt>
<pdfrwt beam="1">  1        2 0.16743095E+00 0.46350501E+03</pdfrwt>
<pdfrwt beam="2">  1       -2 0.65466190E-02 0.46350501E+03</pdfrwt>
<totfact> 0.30115036E+03</totfact>
</mgrwt>
</event>
<event>
 4    1  0.5280257E-005  0.4697234E+03  0.7818608E-02  0.1021998E+00
          2   -1    0    0  501    0  0.00000000000E+00  0.00000000000E+00  0.24409976063E+04  0.24409976063E+04  0.25500000000E-02 0.  1.
         -2   -1    0    0    0  501 -0.00000000000E+00 -0.00000000000E+00 -0.22597322351E+02  0.22597322495E+02  0.25500000000E-02 0. -1.
    5000001    1    1    2    0    0 -0.13866320601E+03  0.78292869750E+02  0.94291453895E+03  0.97039687031E+03  0.16500000000E+03 0.  0.
   -5000001    1    1    2    0    0  0.13866320601E+03 -0.78292869750E+02  0.14754857450E+04  0.14931980585E+04  0.16500000000E+03 0.  0.
<mgrwt>
<rscale>  0 0.46972337E+03</rscale>
<asrwt>0</asrwt>
<pdfrwt beam="1">  1        2 0.34871412E+00 0.46972337E+03</pdfrwt>
<pdfrwt beam="2">  1       -2 0.32281873E-02 0.46972337E+03</pdfrwt>
<totfact> 0.20074722E+03</totfact>
</mgrwt>
</event>
<event>
 4    1  0.5280257E-005  0.5765279E+03  0.7818608E-02  0.9955336E-01
          2   -1    0    0  501    0  0.00000000000E+00  0.00000000000E+00  0.34047830335E+04  0.34047830335E+04  0.25500000000E-02 0.  1.
         -2   -1    0    0    0  501 -0.00000000000E+00 -0.00000000000E+00 -0.24405700085E+02  0.24405700218E+02  0.25500000000E-02 0. -1.
    5000001    1    1    2    0    0  0.12769675039E+03  0.18150822076E+03  0.12062604009E+04  0.12375543823E+04  0.16500000000E+03 0.  0.
   -5000001    1    1    2    0    0 -0.12769675039E+03 -0.18150822076E+03  0.21741169325E+04  0.21916343515E+04  0.16500000000E+03 0.  0.
<mgrwt>
<rscale>  0 0.57652793E+03</rscale>
<asrwt>0</asrwt>
<pdfrwt beam="1">  1        2 0.48639772E+00 0.57652793E+03</pdfrwt>
<pdfrwt beam="2">  1       -2 0.34865275E-02 0.57652793E+03</pdfrwt>
<totfact> 0.53529570E+02</totfact>
</mgrwt>
</event>
<event>
 4    1  0.5280257E-005  0.4731204E+03  0.7818608E-02  0.1021043E+00
         -2   -1    0    0    0  501 -0.00000000000E+00  0.00000000000E+00  0.46086641328E+02  0.46086641398E+02  0.25500000000E-02 0. -1.
          2   -1    0    0  501    0  0.00000000000E+00 -0.00000000000E+00 -0.12142506532E+04  0.12142506532E+04  0.25500000000E-02 0.  1.
    5000001    1    1    2    0    0  0.79809600427E+02  0.14352103212E+03 -0.47207610193E+03  0.52635416309E+03  0.16500000000E+03 0.  0.
   -5000001    1    1    2    0    0 -0.79809600427E+02 -0.14352103212E+03 -0.69608790991E+03  0.73398313148E+03  0.16500000000E+03 0.  0.
<mgrwt>
<rscale>  0 0.47312043E+03</rscale>
<asrwt>0</asrwt>
<pdfrwt beam="1">  1        2 0.17346436E+00 0.47312043E+03</pdfrwt>
<pdfrwt beam="2">  1       -2 0.65838067E-02 0.47312043E+03</pdfrwt>
<totfact> 0.28276921E+03</totfact>
</mgrwt>
</event>
<event>
 4    1  0.5280257E-005  0.3572079E+03  0.7818608E-02  0.1059695E+00
         -2   -1    0    0    0  501 -0.00000000000E+00  0.00000000000E+00  0.56362312075E+02  0.56362312132E+02  0.25500000000E-02 0. -1.
          2   -1    0    0  501    0  0.00000000000E+00 -0.00000000000E+00 -0.56596996000E+03  0.56596996001E+03  0.25500000000E-02 0.  1.
    5000001    1    1    2    0    0  0.38779265996E+02 -0.46300350385E+02 -0.19897625238E+03  0.26545075424E+03  0.16500000000E+03 0.  0.
   -5000001    1    1    2    0    0 -0.38779265996E+02  0.46300350385E+02 -0.31063139555E+03  0.35688151790E+03  0.16500000000E+03 0.  0.
<mgrwt>
<rscale>  0 0.35720793E+03</rscale>
<asrwt>0</asrwt>
<pdfrwt beam="1">  1        2 0.80852848E-01 0.35720793E+03</pdfrwt>
<pdfrwt beam="2">  1       -2 0.80517592E-02 0.35720793E+03</pdfrwt>
<totfact> 0.55330025E+03</totfact>
</mgrwt>
</event>
<event>
 4    1  0.5280257E-005  0.4045141E+03  0.7818608E-02  0.1042228E+00
         -2   -1    0    0    0  501 -0.00000000000E+00  0.00000000000E+00  0.28744565940E+02  0.28744566053E+02  0.25500000000E-02 0. -1.
          2   -1    0    0  501    0  0.00000000000E+00 -0.00000000000E+00 -0.14231530626E+04  0.14231530626E+04  0.25500000000E-02 0.  1.
    5000001    1    1    2    0    0  0.38395475266E+02 -0.10879677346E+03 -0.76642787465E+03  0.79243147178E+03  0.16500000000E+03 0.  0.
   -5000001    1    1    2    0    0 -0.38395475266E+02  0.10879677346E+03 -0.62798062205E+03  0.65946615691E+03  0.16500000000E+03 0.  0.
<mgrwt>
<rscale>  0 0.40451411E+03</rscale>
<asrwt>0</asrwt>
<pdfrwt beam="1">  1        2 0.20330754E+00 0.40451411E+03</pdfrwt>
<pdfrwt beam="2">  1       -2 0.41063675E-02 0.40451411E+03</pdfrwt>
<totfact> 0.45273062E+03</totfact>
</mgrwt>
</event>
<event>
 4    1  0.5280257E-005  0.4351730E+03  0.7818608E-02  0.1032238E+00
         -2   -1    0    0    0  501 -0.00000000000E+00  0.00000000000E+00  0.40638193535E+02  0.40638193615E+02  0.25500000000E-02 0. -1.
          2   -1    0    0  501    0  0.00000000000E+00 -0.00000000000E+00 -0.11650097974E+04  0.11650097974E+04  0.25500000000E-02 0.  1.
    5000001    1    1    2    0    0 -0.12085353414E+03  0.73873150541E+02 -0.58293214536E+03  0.62217176502E+03  0.16500000000E+03 0.  0.
   -5000001    1    1    2    0    0  0.12085353414E+03 -0.73873150541E+02 -0.54143945849E+03  0.58347622599E+03  0.16500000000E+03 0.  0.
<mgrwt>
<rscale>  0 0.43517304E+03</rscale>
<asrwt>0</asrwt>
<pdfrwt beam="1">  1        2 0.16642995E+00 0.43517304E+03</pdfrwt>
<pdfrwt beam="2">  1       -2 0.58054570E-02 0.43517304E+03</pdfrwt>
<totfact> 0.36635626E+03</totfact>
</mgrwt>
</event>
<event>
 4    1  0.5280257E-005  0.4192880E+03  0.7818608E-02  0.1037298E+00
         -2   -1    0    0    0  501 -0.00000000000E+00  0.00000000000E+00  0.20908158877E+02  0.20908159033E+02  0.25500000000E-02 0. -1.
          2   -1    0    0  501    0  0.00000000000E+00 -0.00000000000E+00 -0.21020794646E+04  0.21020794646E+04  0.25500000000E-02 0.  1.
    5000001    1    1    2    0    0  0.12577133455E+03  0.22366551967E+02 -0.11427242072E+04  0.11616205512E+04  0.16500000000E+03 0.  0.
   -5000001    1    1    2    0    0 -0.12577133455E+03 -0.22366551967E+02 -0.93844709850E+03  0.96136707242E+03  0.16500000000E+03 0.  0.
<mgrwt>
<rscale>  0 0.41928802E+03</rscale>
<asrwt>0</asrwt>
<pdfrwt beam="1">  1        2 0.30029693E+00 0.41928802E+03</pdfrwt>
<pdfrwt beam="2">  1       -2 0.29868812E-02 0.41928802E+03</pdfrwt>
<totfact> 0.33436404E+03</totfact>
</mgrwt>
</event>
<event>
 4    1  0.5280257E-005  0.3850224E+03  0.7818608E-02  0.1049093E+00
         -2   -1    0    0    0  501 -0.00000000000E+00  0.00000000000E+00  0.22765656770E+03  0.22765656771E+03  0.25500000000E-02 0. -1.
          2   -1    0    0  501    0  0.00000000000E+00 -0.00000000000E+00 -0.16279155878E+03  0.16279155880E+03  0.25500000000E-02 0.  1.
    5000001    1    1    2    0    0 -0.48006896433E+02  0.73357908403E+02 -0.14583782966E+02  0.18741326409E+03  0.16500000000E+03 0.  0.
   -5000001    1    1    2    0    0  0.48006896433E+02 -0.73357908403E+02  0.79448791878E+02  0.20303486243E+03  0.16500000000E+03 0.  0.
<mgrwt>
<rscale>  0 0.38502243E+03</rscale>
<asrwt>0</asrwt>
<pdfrwt beam="1">  1        2 0.23255937E-01 0.38502243E+03</pdfrwt>
<pdfrwt beam="2">  1       -2 0.32522367E-01 0.38502243E+03</pdfrwt>
<totfact> 0.20721416E+03</totfact>
</mgrwt>
</event>
<event>
 4    1  0.5280257E-005  0.6083582E+03  0.7818608E-02  0.9888216E-01
          2   -1    0    0  501    0  0.00000000000E+00  0.00000000000E+00  0.62578889849E+03  0.62578889849E+03  0.25500000000E-02 0.  1.
         -2   -1    0    0    0  501 -0.00000000000E+00 -0.00000000000E+00 -0.14785324238E+03  0.14785324240E+03  0.25500000000E-02 0. -1.
    5000001    1    1    2    0    0  0.11332562385E+03 -0.22060217067E+03  0.16065924301E+03  0.33844409744E+03  0.16500000000E+03 0.  0.
   -5000001    1    1    2    0    0 -0.11332562385E+03  0.22060217067E+03  0.31727641309E+03  0.43519804346E+03  0.16500000000E+03 0.  0.
<mgrwt>
<rscale>  0 0.60835818E+03</rscale>
<asrwt>0</asrwt>
<pdfrwt beam="1">  1        2 0.89398412E-01 0.60835818E+03</pdfrwt>
<pdfrwt beam="2">  1       -2 0.21121892E-01 0.60835818E+03</pdfrwt>
<totfact> 0.10022006E+03</totfact>
</mgrwt>
</event>
<event>
 4    1  0.5280257E-005  0.5684712E+03  0.7818608E-02  0.9973067E-01
         -2   -1    0    0    0  501 -0.00000000000E+00  0.00000000000E+00  0.29925893698E+02  0.29925893807E+02  0.25500000000E-02 0. -1.
          2   -1    0    0  501    0  0.00000000000E+00 -0.00000000000E+00 -0.26996644638E+04  0.26996644638E+04  0.25500000000E-02 0.  1.
    5000001    1    1    2    0    0  0.11756089159E+03  0.18701207353E+03 -0.16665225738E+04  0.16891762986E+04  0.16500000000E+03 0.  0.
   -5000001    1    1    2    0    0 -0.11756089159E+03 -0.18701207353E+03 -0.10032159963E+04  0.10404140590E+04  0.16500000000E+03 0.  0.
<mgrwt>
<rscale>  0 0.56847118E+03</rscale>
<asrwt>0</asrwt>
<pdfrwt beam="1">  1        2 0.38566620E+00 0.56847118E+03</pdfrwt>
<pdfrwt beam="2">  1       -2 0.42751294E-02 0.56847118E+03</pdfrwt>
<totfact> 0.95589685E+02</totfact>
</mgrwt>
</event>
<event>
 4    1  0.5280257E-005  0.4518661E+03  0.7818608E-02  0.1027167E+00
          2   -1    0    0  501    0  0.00000000000E+00  0.00000000000E+00  0.56719407977E+03  0.56719407977E+03  0.25500000000E-02 0.  1.
         -2   -1    0    0    0  501 -0.00000000000E+00 -0.00000000000E+00 -0.89996942602E+02  0.89996942638E+02  0.25500000000E-02 0. -1.
    5000001    1    1    2    0    0  0.20905061936E+02 -0.14237862382E+03  0.15746428349E+03  0.26968258140E+03  0.16500000000E+03 0.  0.
   -5000001    1    1    2    0    0 -0.20905061936E+02  0.14237862382E+03  0.31973285368E+03  0.38750844101E+03  0.16500000000E+03 0.  0.
<mgrwt>
<rscale>  0 0.45186606E+03</rscale>
<asrwt>0</asrwt>
<pdfrwt beam="1">  1        2 0.81027724E-01 0.45186606E+03</pdfrwt>
<pdfrwt beam="2">  1       -2 0.12856706E-01 0.45186606E+03</pdfrwt>
<totfact> 0.26108533E+03</totfact>
</mgrwt>
</event>
<event>
 4    1  0.5280257E-005  0.6676137E+03  0.7818608E-02  0.9774278E-01
         -2   -1    0    0    0  501 -0.00000000000E+00  0.00000000000E+00  0.14669454857E+03  0.14669454859E+03  0.25500000000E-02 0. -1.
          2   -1    0    0  501    0  0.00000000000E+00 -0.00000000000E+00 -0.75958528762E+03  0.75958528762E+03  0.25500000000E-02 0.  1.
    5000001    1    1    2    0    0 -0.44741120834E+02  0.27378789223E+03 -0.19093535638E+03  0.37502385009E+03  0.16500000000E+03 0.  0.
   -5000001    1    1    2    0    0  0.44741120834E+02 -0.27378789223E+03 -0.42195538267E+03  0.53125598612E+03  0.16500000000E+03 0.  0.
<mgrwt>
<rscale>  0 0.66761372E+03</rscale>
<asrwt>0</asrwt>
<pdfrwt beam="1">  1        2 0.10851218E+00 0.66761372E+03</pdfrwt>
<pdfrwt beam="2">  1       -2 0.20956364E-01 0.66761372E+03</pdfrwt>
<totfact> 0.80096229E+02</totfact>
</mgrwt>
</event>
<event>
 4    1  0.5280257E-005  0.3697870E+03  0.7818608E-02  0.1054774E+00
         -2   -1    0    0    0  501 -0.00000000000E+00  0.00000000000E+00  0.38783515284E+03  0.38783515285E+03  0.25500000000E-02 0. -1.
          2   -1    0    0  501    0  0.00000000000E+00 -0.00000000000E+00 -0.88144672586E+02  0.88144672623E+02  0.25500000000E-02 0.  1.
    5000001    1    1    2    0    0  0.33332701308E+02 -0.71237695070E+02  0.18567224865E+03  0.26054761963E+03  0.16500000000E+03 0.  0.
   -5000001    1    1    2    0    0 -0.33332701308E+02  0.71237695070E+02  0.11401823160E+03  0.21543220584E+03  0.16500000000E+03 0.  0.
<mgrwt>
<rscale>  0 0.36978698E+03</rscale>
<asrwt>0</asrwt>
<pdfrwt beam="1">  1        2 0.12592096E-01 0.36978698E+03</pdfrwt>
<pdfrwt beam="2">  1       -2 0.55405021E-01 0.36978698E+03</pdfrwt>
<totfact> 0.15121581E+03</totfact>
</mgrwt>
</event>
<event>
 4    1  0.5280257E-005  0.5234491E+03  0.7818608E-02  0.1007833E+00
          2   -1    0    0  501    0  0.00000000000E+00  0.00000000000E+00  0.20280340521E+04  0.20280340521E+04  0.25500000000E-02 0.  1.
         -2   -1    0    0    0  501 -0.00000000000E+00 -0.00000000000E+00 -0.33776426354E+02  0.33776426451E+02  0.25500000000E-02 0. -1.
    5000001    1    1    2    0    0 -0.15900749856E+03 -0.73821920210E+02  0.14015456608E+04  0.14220718335E+04  0.16500000000E+03 0.  0.
   -5000001    1    1    2    0    0  0.15900749856E+03  0.73821920210E+02  0.59271196493E+03  0.63973864497E+03  0.16500000000E+03 0.  0.
<mgrwt>
<rscale>  0 0.52344911E+03</rscale>
<asrwt>0</asrwt>
<pdfrwt beam="1">  1        2 0.28971927E+00 0.52344911E+03</pdfrwt>
<pdfrwt beam="2">  1       -2 0.48252018E-02 0.52344911E+03</pdfrwt>
<totfact> 0.17449441E+03</totfact>
</mgrwt>
</event>
<event>
 4    1  0.5280257E-005  0.4966573E+03  0.7818608E-02  0.1014655E+00
          2   -1    0    0  501    0  0.00000000000E+00  0.00000000000E+00  0.16270178159E+04  0.16270178159E+04  0.25500000000E-02 0.  1.
         -2   -1    0    0    0  501 -0.00000000000E+00 -0.00000000000E+00 -0.37901926241E+02  0.37901926327E+02  0.25500000000E-02 0. -1.
    5000001    1    1    2    0    0  0.23686844605E+02 -0.17250874178E+03  0.57933986947E+03  0.62704068206E+03  0.16500000000E+03 0.  0.
   -5000001    1    1    2    0    0 -0.23686844605E+02  0.17250874178E+03  0.10097760202E+04  0.10378790602E+04  0.16500000000E+03 0.  0.
<mgrwt>
<rscale>  0 0.49665726E+03</rscale>
<asrwt>0</asrwt>
<pdfrwt beam="1">  1        2 0.23243110E+00 0.49665726E+03</pdfrwt>
<pdfrwt beam="2">  1       -2 0.54145612E-02 0.49665726E+03</pdfrwt>
<totfact> 0.23238324E+03</totfact>
</mgrwt>
</event>
<event>
 4    1  0.5280257E-005  0.4262811E+03  0.7818608E-02  0.1035041E+00
         -2   -1    0    0    0  501 -0.00000000000E+00  0.00000000000E+00  0.14043219064E+02  0.14043219295E+02  0.25500000000E-02 0. -1.
          2   -1    0    0  501    0  0.00000000000E+00 -0.00000000000E+00 -0.32349339782E+04  0.32349339782E+04  0.25500000000E-02 0.  1.
    5000001    1    1    2    0    0 -0.22865299539E+02  0.11143632974E+03 -0.10575185141E+04  0.10763416210E+04  0.16500000000E+03 0.  0.
   -5000001    1    1    2    0    0  0.22865299539E+02 -0.11143632974E+03 -0.21633722450E+04  0.21726355764E+04  0.16500000000E+03 0.  0.
<mgrwt>
<rscale>  0 0.42628107E+03</rscale>
<asrwt>0</asrwt>
<pdfrwt beam="1">  1        2 0.46213295E+00 0.42628107E+03</pdfrwt>
<pdfrwt beam="2">  1       -2 0.20061762E-02 0.42628107E+03</pdfrwt>
<totfact> 0.15650435E+03</totfact>
</mgrwt>
</event>
<event>
 4    1  0.5280257E-005  0.5938259E+03  0.7818608E-02  0.9918299E-01
         -2   -1    0    0    0  501 -0.00000000000E+00  0.00000000000E+00  0.48720735245E+02  0.48720735312E+02  0.25500000000E-02 0. -1.
          2   -1    0    0  501    0  0.00000000000E+00 -0.00000000000E+00 -0.18094413540E+04  0.18094413540E+04  0.25500000000E-02 0.  1.
    5000001    1    1    2    0    0 -0.12775349309E+03  0.19269803785E+03 -0.11509685986E+04  0.11854987152E+04  0.16500000000E+03 0.  0.
   -5000001    1    1    2    0    0  0.12775349309E+03 -0.19269803785E+03 -0.60975202014E+03  0.67266337410E+03  0.16500000000E+03 0.  0.
<mgrwt>
<rscale>  0 0.59382594E+03</rscale>
<asrwt>0</asrwt>
<pdfrwt beam="1">  1        2 0.25849158E+00 0.59382594E+03</pdfrwt>
<pdfrwt beam="2">  1       -2 0.69601061E-02 0.59382594E+03</pdfrwt>
<totfact> 0.12637882E+03</totfact>
</mgrwt>
</event>
<event>
 4    1  0.5280257E-005  0.4040216E+03  0.7818608E-02  0.1042396E+00
          2   -1    0    0  501    0  0.00000000000E+00  0.00000000000E+00  0.43549534252E+03  0.43549534253E+03  0.25500000000E-02 0.  1.
         -2   -1    0    0    0  501 -0.00000000000E+00 -0.00000000000E+00 -0.93705639430E+02  0.93705639465E+02  0.25500000000E-02 0. -1.
    5000001    1    1    2    0    0 -0.38932652166E+02 -0.10013334094E+03  0.11172093559E+03  0.22638243046E+03  0.16500000000E+03 0.  0.
   -5000001    1    1    2    0    0  0.38932652166E+02  0.10013334094E+03  0.23006876750E+03  0.30281855153E+03  0.16500000000E+03 0.  0.
<mgrwt>
<rscale>  0 0.40402163E+03</rscale>
<asrwt>0</asrwt>
<pdfrwt beam="1">  1        2 0.62213620E-01 0.40402163E+03</pdfrwt>
<pdfrwt beam="2">  1       -2 0.13386520E-01 0.40402163E+03</pdfrwt>
<totfact> 0.32836534E+03</totfact>
</mgrwt>
</event>
<event>
 4    1  0.5280257E-005  0.3868003E+03  0.7818608E-02  0.1048449E+00
          2   -1    0    0  501    0  0.00000000000E+00  0.00000000000E+00  0.10034873715E+04  0.10034873715E+04  0.25500000000E-02 0.  1.
         -2   -1    0    0    0  501 -0.00000000000E+00 -0.00000000000E+00 -0.37273629343E+02  0.37273629430E+02  0.25500000000E-02 0. -1.
    5000001    1    1    2    0    0  0.20655822787E+01  0.10015775584E+03  0.51525741474E+03  0.55022817642E+03  0.16500000000E+03 0.  0.
   -5000001    1    1    2    0    0 -0.20655822787E+01 -0.10015775584E+03  0.45095632741E+03  0.49053282451E+03  0.16500000000E+03 0.  0.
<mgrwt>
<rscale>  0 0.38680029E+03</rscale>
<asrwt>0</asrwt>
<pdfrwt beam="1">  1        2 0.14335536E+00 0.38680029E+03</pdfrwt>
<pdfrwt beam="2">  1       -2 0.53248035E-02 0.38680029E+03</pdfrwt>
<totfact> 0.51843555E+03</totfact>
</mgrwt>
</event>
<event>
 4    1  0.5280257E-005  0.5264959E+03  0.7818608E-02  0.1007085E+00
         -2   -1    0    0    0  501 -0.00000000000E+00  0.00000000000E+00  0.62826571785E+02  0.62826571837E+02  0.25500000000E-02 0. -1.
          2   -1    0    0  501    0  0.00000000000E+00 -0.00000000000E+00 -0.11030282739E+04  0.11030282740E+04  0.25500000000E-02 0.  1.
    5000001    1    1    2    0    0 -0.41806426492E+02  0.19009144037E+03 -0.66347063704E+03  0.71084514433E+03  0.16500000000E+03 0.  0.
   -5000001    1    1    2    0    0  0.41806426492E+02 -0.19009144037E+03 -0.37673106512E+03  0.45500970146E+03  0.16500000000E+03 0.  0.
<mgrwt>
<rscale>  0 0.52649591E+03</rscale>
<asrwt>0</asrwt>
<pdfrwt beam="1">  1        2 0.15757546E+00 0.52649591E+03</pdfrwt>
<pdfrwt beam="2">  1       -2 0.89752252E-02 0.52649591E+03</pdfrwt>
<totfact> 0.20000609E+03</totfact>
</mgrwt>
</event>
<event>
 4    1  0.5280257E-005  0.5440856E+03  0.7818608E-02  0.1002872E+00
         -2   -1    0    0    0  501 -0.00000000000E+00  0.00000000000E+00  0.19724326922E+03  0.19724326924E+03  0.25500000000E-02 0.  1.
          2   -1    0    0  501    0  0.00000000000E+00 -0.00000000000E+00 -0.37520821895E+03  0.37520821896E+03  0.25500000000E-02 0. -1.
    5000001    1    1    2    0    0  0.12948134571E+03 -0.80514993593E+02  0.72424115113E+02  0.23604731629E+03  0.16500000000E+03 0.  0.
   -5000001    1    1    2    0    0 -0.12948134571E+03  0.80514993593E+02 -0.25038906485E+03  0.33640417191E+03  0.16500000000E+03 0.  0.
<mgrwt>
<rscale>  0 0.54408564E+03</rscale>
<asrwt>0</asrwt>
<pdfrwt beam="1">  1        2 0.53601174E-01 0.54408564E+03</pdfrwt>
<pdfrwt beam="2">  1       -2 0.28177610E-01 0.54408564E+03</pdfrwt>
<totfact> 0.10710847E+03</totfact>
</mgrwt>
</event>
<event>
 4    1  0.5280257E-005  0.4289788E+03  0.7818608E-02  0.1034183E+00
         -2   -1    0    0    0  501 -0.00000000000E+00  0.00000000000E+00  0.19055262647E+02  0.19055262818E+02  0.25500000000E-02 0. -1.
          2   -1    0    0  501    0  0.00000000000E+00 -0.00000000000E+00 -0.24143303937E+04  0.24143303937E+04  0.25500000000E-02 0.  1.
    5000001    1    1    2    0    0  0.12137188046E+03 -0.60651582351E+02 -0.13068907448E+04  0.13242349363E+04  0.16500000000E+03 0.  0.
   -5000001    1    1    2    0    0 -0.12137188046E+03  0.60651582351E+02 -0.10883843862E+04  0.11091507202E+04  0.16500000000E+03 0.  0.
<mgrwt>
<rscale>  0 0.42897879E+03</rscale>
<asrwt>0</asrwt>
<pdfrwt beam="1">  1        2 0.34490415E+00 0.42897879E+03</pdfrwt>
<pdfrwt beam="2">  1       -2 0.27221819E-02 0.42897879E+03</pdfrwt>
<totfact> 0.26841890E+03</totfact>
</mgrwt>
</event>
<event>
 4    1  0.5280257E-005  0.7159698E+03  0.7818608E-02  0.9690305E-01
          2   -1    0    0  501    0  0.00000000000E+00  0.00000000000E+00  0.12553168418E+04  0.12553168418E+04  0.25500000000E-02 0.  1.
         -2   -1    0    0    0  501 -0.00000000000E+00 -0.00000000000E+00 -0.10208832529E+03  0.10208832532E+03  0.25500000000E-02 0. -1.
    5000001    1    1    2    0    0 -0.18284738813E+02 -0.18284323717E+03  0.85279731248E+02  0.26127306331E+03  0.16500000000E+03 0.  0.
   -5000001    1    1    2    0    0  0.18284738813E+02  0.18284323717E+03  0.10679487853E+04  0.10961321038E+04  0.16500000000E+03 0.  0.
<mgrwt>
<rscale>  0 0.71596982E+03</rscale>
<asrwt>0</asrwt>
<pdfrwt beam="1">  1        2 0.17933097E+00 0.71596982E+03</pdfrwt>
<pdfrwt beam="2">  1       -2 0.14584047E-01 0.71596982E+03</pdfrwt>
<totfact> 0.73561351E+02</totfact>
</mgrwt>
</event>
<event>
 4    1  0.5280257E-005  0.8574495E+03  0.7818608E-02  0.9480393E-01
          2   -1    0    0  501    0  0.00000000000E+00  0.00000000000E+00  0.10042310725E+04  0.10042310725E+04  0.25500000000E-02 0.  1.
         -2   -1    0    0    0  501 -0.00000000000E+00 -0.00000000000E+00 -0.18303048551E+03  0.18303048553E+03  0.25500000000E-02 0. -1.
    5000001    1    1    2    0    0 -0.28407326242E+03  0.24339610292E+03  0.58921721971E+03  0.71717585943E+03  0.16500000000E+03 0.  0.
   -5000001    1    1    2    0    0  0.28407326242E+03 -0.24339610292E+03  0.23198336727E+03  0.47008569860E+03  0.16500000000E+03 0.  0.
<mgrwt>
<rscale>  0 0.85744948E+03</rscale>
<asrwt>0</asrwt>
<pdfrwt beam="1">  1        2 0.14346158E+00 0.85744948E+03</pdfrwt>
<pdfrwt beam="2">  1       -2 0.26147212E-01 0.85744948E+03</pdfrwt>
<totfact> 0.36917401E+02</totfact>
</mgrwt>
</event>
<event>
 4    1  0.5280257E-005  0.5602365E+03  0.7818608E-02  0.9991520E-01
         -2   -1    0    0    0  501 -0.00000000000E+00  0.00000000000E+00  0.89970316703E+02  0.89970316739E+02  0.25500000000E-02 0. -1.
          2   -1    0    0  501    0  0.00000000000E+00 -0.00000000000E+00 -0.87213455100E+03  0.87213455101E+03  0.25500000000E-02 0.  1.
    5000001    1    1    2    0    0 -0.22153407061E+03  0.46055233736E+02 -0.37984806792E+03  0.47191946739E+03  0.16500000000E+03 0.  0.
   -5000001    1    1    2    0    0  0.22153407061E+03 -0.46055233736E+02 -0.40231616638E+03  0.49018540036E+03  0.16500000000E+03 0.  0.
<mgrwt>
<rscale>  0 0.56023646E+03</rscale>
<asrwt>0</asrwt>
<pdfrwt beam="1">  1        2 0.12459065E+00 0.56023646E+03</pdfrwt>
<pdfrwt beam="2">  1       -2 0.12852903E-01 0.56023646E+03</pdfrwt>
<totfact> 0.15439928E+03</totfact>
</mgrwt>
</event>
<event>
 4    1  0.5280257E-005  0.5649703E+03  0.7818608E-02  0.9980871E-01
         -2   -1    0    0    0  501 -0.00000000000E+00  0.00000000000E+00  0.34384157538E+02  0.34384157633E+02  0.25500000000E-02 0. -1.
          2   -1    0    0  501    0  0.00000000000E+00 -0.00000000000E+00 -0.23207741451E+04  0.23207741451E+04  0.25500000000E-02 0.  1.
    5000001    1    1    2    0    0 -0.19614802723E+03  0.18063375172E+02 -0.16324117636E+04  0.16525112707E+04  0.16500000000E+03 0.  0.
   -5000001    1    1    2    0    0  0.19614802723E+03 -0.18063375172E+02 -0.65397822404E+03  0.70264703204E+03  0.16500000000E+03 0.  0.
<mgrwt>
<rscale>  0 0.56497031E+03</rscale>
<asrwt>0</asrwt>
<pdfrwt beam="1">  1        2 0.33153907E+00 0.56497031E+03</pdfrwt>
<pdfrwt beam="2">  1       -2 0.49120240E-02 0.56497031E+03</pdfrwt>
<totfact> 0.12073894E+03</totfact>
</mgrwt>
</event>
<event>
 4    1  0.5280257E-005  0.3944606E+03  0.7818608E-02  0.1045715E+00
          2   -1    0    0  501    0  0.00000000000E+00  0.00000000000E+00  0.16122774255E+04  0.16122774255E+04  0.25500000000E-02 0.  1.
         -2   -1    0    0    0  501 -0.00000000000E+00 -0.00000000000E+00 -0.24127227990E+02  0.24127228125E+02  0.25500000000E-02 0. -1.
    5000001    1    1    2    0    0  0.70862343795E+02  0.66576257099E+02  0.98957795784E+03  0.10079401790E+04  0.16500000000E+03 0.  0.
   -5000001    1    1    2    0    0 -0.70862343795E+02 -0.66576257099E+02  0.59857223967E+03  0.62846447464E+03  0.16500000000E+03 0.  0.
<mgrwt>
<rscale>  0 0.39446057E+03</rscale>
<asrwt>0</asrwt>
<pdfrwt beam="1">  1        2 0.23032542E+00 0.39446057E+03</pdfrwt>
<pdfrwt beam="2">  1       -2 0.34467457E-02 0.39446057E+03</pdfrwt>
<totfact> 0.47240937E+03</totfact>
</mgrwt>
</event>
<event>
 4    1  0.5280257E-005  0.3974215E+03  0.7818608E-02  0.1044676E+00
         -2   -1    0    0    0  501 -0.00000000000E+00  0.00000000000E+00  0.13062493844E+03  0.13062493846E+03  0.25500000000E-02 0. -1.
          2   -1    0    0  501    0  0.00000000000E+00 -0.00000000000E+00 -0.30228496615E+03  0.30228496616E+03  0.25500000000E-02 0.  1.
    5000001    1    1    2    0    0 -0.78080107588E+01 -0.99351801551E+02 -0.13840152835E+03  0.23730092405E+03  0.16500000000E+03 0.  0.
   -5000001    1    1    2    0    0  0.78080107588E+01  0.99351801551E+02 -0.33258499359E+02  0.19560898058E+03  0.16500000000E+03 0.  0.
<mgrwt>
<rscale>  0 0.39742146E+03</rscale>
<asrwt>0</asrwt>
<pdfrwt beam="1">  1        2 0.43183566E-01 0.39742146E+03</pdfrwt>
<pdfrwt beam="2">  1       -2 0.18660706E-01 0.39742146E+03</pdfrwt>
<totfact> 0.28029787E+03</totfact>
</mgrwt>
</event>
<event>
 4    1  0.5280257E-005  0.4260766E+03  0.7818608E-02  0.1035107E+00
         -2   -1    0    0    0  501 -0.00000000000E+00  0.00000000000E+00  0.34167354907E+02  0.34167355002E+02  0.25500000000E-02 0. -1.
          2   -1    0    0  501    0  0.00000000000E+00 -0.00000000000E+00 -0.13283241643E+04  0.13283241643E+04  0.25500000000E-02 0.  1.
    5000001    1    1    2    0    0 -0.11727043013E+03 -0.27663193745E+02 -0.84007907650E+03  0.86456663181E+03  0.16500000000E+03 0.  0.
   -5000001    1    1    2    0    0  0.11727043013E+03  0.27663193745E+02 -0.45407773286E+03  0.49792488746E+03  0.16500000000E+03 0.  0.
<mgrwt>
<rscale>  0 0.42607663E+03</rscale>
<asrwt>0</asrwt>
<pdfrwt beam="1">  1        2 0.18976056E+00 0.42607663E+03</pdfrwt>
<pdfrwt beam="2">  1       -2 0.48810515E-02 0.42607663E+03</pdfrwt>
<totfact> 0.38997566E+03</totfact>
</mgrwt>
</event>
<event>
 4    1  0.5280257E-005  0.6266633E+03  0.7818608E-02  0.9851582E-01
          2   -1    0    0  501    0  0.00000000000E+00  0.00000000000E+00  0.26890467541E+03  0.26890467543E+03  0.25500000000E-02 0. -1.
         -2   -1    0    0    0  501 -0.00000000000E+00 -0.00000000000E+00 -0.36509855177E+03  0.36509855178E+03  0.25500000000E-02 0.  1.
    5000001    1    1    2    0    0 -0.32086698184E+02  0.26189557577E+03 -0.85032890926E+02  0.32260570570E+03  0.16500000000E+03 0.  0.
   -5000001    1    1    2    0    0  0.32086698184E+02 -0.26189557577E+03 -0.11160985431E+02  0.31139752151E+03  0.16500000000E+03 0.  0.
<mgrwt>
<rscale>  0 0.62666325E+03</rscale>
<asrwt>0</asrwt>
<pdfrwt beam="1">  1        2 0.38414954E-01 0.62666325E+03</pdfrwt>
<pdfrwt beam="2">  1       -2 0.52156936E-01 0.62666325E+03</pdfrwt>
<totfact> 0.47145363E+02</totfact>
</mgrwt>
</event>
<event>
 4    1  0.5280257E-005  0.5073381E+03  0.7818608E-02  0.1011881E+00
          2   -1    0    0  501    0  0.00000000000E+00  0.00000000000E+00  0.16771498425E+04  0.16771498425E+04  0.25500000000E-02 0.  1.
         -2   -1    0    0    0  501 -0.00000000000E+00 -0.00000000000E+00 -0.38367458870E+02  0.38367458954E+02  0.25500000000E-02 0. -1.
    5000001    1    1    2    0    0  0.17725530922E+03  0.48744261155E+02  0.62433549112E+03  0.67142777208E+03  0.16500000000E+03 0.  0.
   -5000001    1    1    2    0    0 -0.17725530922E+03 -0.48744261155E+02  0.10144468925E+04  0.10440895294E+04  0.16500000000E+03 0.  0.
<mgrwt>
<rscale>  0 0.50733806E+03</rscale>
<asrwt>0</asrwt>
<pdfrwt beam="1">  1        2 0.23959277E+00 0.50733806E+03</pdfrwt>
<pdfrwt beam="2">  1       -2 0.54810671E-02 0.50733806E+03</pdfrwt>
<totfact> 0.21498473E+03</totfact>
</mgrwt>
</event>
<event>
 4    1  0.5280257E-005  0.6097045E+03  0.7818608E-02  0.9885474E-01
         -2   -1    0    0    0  501 -0.00000000000E+00  0.00000000000E+00  0.40620152642E+02  0.40620152722E+02  0.25500000000E-02 0.  1.
          2   -1    0    0  501    0  0.00000000000E+00 -0.00000000000E+00 -0.22879008775E+04  0.22879008775E+04  0.25500000000E-02 0. -1.
    5000001    1    1    2    0    0  0.32630140166E+02 -0.21464436942E+03 -0.16441170167E+04  0.16665781398E+04  0.16500000000E+03 0.  0.
   -5000001    1    1    2    0    0 -0.32630140166E+02  0.21464436942E+03 -0.60316370809E+03  0.66194289038E+03  0.16500000000E+03 0.  0.
<mgrwt>
<rscale>  0 0.60970446E+03</rscale>
<asrwt>0</asrwt>
<pdfrwt beam="1">  1        2 0.32684290E+00 0.60970446E+03</pdfrwt>
<pdfrwt beam="2">  1       -2 0.58028804E-02 0.60970446E+03</pdfrwt>
<totfact> 0.96515878E+02</totfact>
</mgrwt>
</event>
<event>
 4    1  0.5280257E-005  0.9285380E+03  0.7818608E-02  0.9390594E-01
         -2   -1    0    0    0  501 -0.00000000000E+00  0.00000000000E+00  0.93975484595E+03  0.93975484596E+03  0.25500000000E-02 0. -1.
          2   -1    0    0  501    0  0.00000000000E+00 -0.00000000000E+00 -0.22936375437E+03  0.22936375439E+03  0.25500000000E-02 0.  1.
    5000001    1    1    2    0    0 -0.37945088927E+03 -0.18520142041E+03  0.22904594886E+03  0.50790706845E+03  0.16500000000E+03 0.  0.
   -5000001    1    1    2    0    0  0.37945088927E+03  0.18520142041E+03  0.48134514272E+03  0.66121153189E+03  0.16500000000E+03 0.  0.
<mgrwt>
<rscale>  0 0.92853799E+03</rscale>
<asrwt>0</asrwt>
<pdfrwt beam="1">  1        2 0.32766250E-01 0.92853799E+03</pdfrwt>
<pdfrwt beam="2">  1       -2 0.13425069E+00 0.92853799E+03</pdfrwt>
<totfact> 0.64584576E+01</totfact>
</mgrwt>
</event>
<event>
 4    1  0.5280257E-005  0.5285307E+03  0.7818608E-02  0.1006589E+00
          2   -1    0    0  501    0  0.00000000000E+00  0.00000000000E+00  0.33090646012E+03  0.33090646013E+03  0.25500000000E-02 0.  1.
         -2   -1    0    0    0  501 -0.00000000000E+00 -0.00000000000E+00 -0.21104508327E+03  0.21104508329E+03  0.25500000000E-02 0. -1.
    5000001    1    1    2    0    0  0.56542509494E+02  0.47094125514E+02  0.25769135248E+03  0.31471375118E+03  0.16500000000E+03 0.  0.
   -5000001    1    1    2    0    0 -0.56542509494E+02 -0.47094125514E+02 -0.13782997564E+03  0.22723779224E+03  0.16500000000E+03 0.  0.
<mgrwt>
<rscale>  0 0.52853072E+03</rscale>
<asrwt>0</asrwt>
<pdfrwt beam="1">  1        2 0.47272351E-01 0.52853072E+03</pdfrwt>
<pdfrwt beam="2">  1       -2 0.30149298E-01 0.52853072E+03</pdfrwt>
<totfact> 0.10866466E+03</totfact>
</mgrwt>
</event>
<event>
 4    1  0.5280257E-005  0.4878011E+03  0.7818608E-02  0.1017013E+00
          2   -1    0    0  501    0  0.00000000000E+00  0.00000000000E+00  0.27374904267E+03  0.27374904269E+03  0.25500000000E-02 0.  1.
         -2   -1    0    0    0  501 -0.00000000000E+00 -0.00000000000E+00 -0.21730662790E+03  0.21730662791E+03  0.25500000000E-02 0. -1.
    5000001    1    1    2    0    0  0.11414575920E+03 -0.62778629745E+02  0.15270737357E+03  0.25983639591E+03  0.16500000000E+03 0.  0.
   -5000001    1    1    2    0    0 -0.11414575920E+03  0.62778629745E+02 -0.96264958795E+02  0.23121927469E+03  0.16500000000E+03 0.  0.
<mgrwt>
<rscale>  0 0.48780111E+03</rscale>
<asrwt>0</asrwt>
<pdfrwt beam="1">  1        2 0.39107006E-01 0.48780111E+03</pdfrwt>
<pdfrwt beam="2">  1       -2 0.31043804E-01 0.48780111E+03</pdfrwt>
<totfact> 0.12678769E+03</totfact>
</mgrwt>
</event>
<event>
 4    1  0.5280257E-005  0.4785812E+03  0.7818608E-02  0.1019526E+00
          2   -1    0    0  501    0  0.00000000000E+00  0.00000000000E+00  0.92211617533E+02  0.92211617568E+02  0.25500000000E-02 0.  1.
         -2   -1    0    0    0  501 -0.00000000000E+00 -0.00000000000E+00 -0.62096293077E+03  0.62096293077E+03  0.25500000000E-02 0. -1.
    5000001    1    1    2    0    0  0.16390025023E+03  0.36937537664E+02 -0.20102399376E+03  0.30961802238E+03  0.16500000000E+03 0.  0.
   -5000001    1    1    2    0    0 -0.16390025023E+03 -0.36937537664E+02 -0.32772731948E+03  0.40355652596E+03  0.16500000000E+03 0.  0.
<mgrwt>
<rscale>  0 0.47858122E+03</rscale>
<asrwt>0</asrwt>
<pdfrwt beam="1">  1        2 0.13173089E-01 0.47858122E+03</pdfrwt>
<pdfrwt beam="2">  1       -2 0.88708988E-01 0.47858122E+03</pdfrwt>
<totfact> 0.51815329E+02</totfact>
</mgrwt>
</event>
<event>
 4    1  0.5280257E-005  0.4271557E+03  0.7818608E-02  0.1034762E+00
         -2   -1    0    0    0  501 -0.00000000000E+00  0.00000000000E+00  0.36231100170E+03  0.36231100171E+03  0.25500000000E-02 0. -1.
          2   -1    0    0  501    0  0.00000000000E+00 -0.00000000000E+00 -0.12590152014E+03  0.12590152017E+03  0.25500000000E-02 0.  1.
    5000001    1    1    2    0    0  0.11659116073E+03 -0.68992423058E+02  0.12516190937E+03  0.24747516392E+03  0.16500000000E+03 0.  0.
   -5000001    1    1    2    0    0 -0.11659116073E+03  0.68992423058E+02  0.11124757219E+03  0.24073735796E+03  0.16500000000E+03 0.  0.
<mgrwt>
<rscale>  0 0.42715574E+03</rscale>
<asrwt>0</asrwt>
<pdfrwt beam="1">  1        2 0.17985931E-01 0.42715574E+03</pdfrwt>
<pdfrwt beam="2">  1       -2 0.51758715E-01 0.42715574E+03</pdfrwt>
<totfact> 0.11350996E+03</totfact>
</mgrwt>
</event>
<event>
 4    1  0.5280257E-005  0.4421355E+03  0.7818608E-02  0.1030094E+00
          2   -1    0    0  501    0  0.00000000000E+00  0.00000000000E+00  0.11768301279E+04  0.11768301279E+04  0.25500000000E-02 0.  1.
         -2   -1    0    0    0  501 -0.00000000000E+00 -0.00000000000E+00 -0.41527611480E+02  0.41527611558E+02  0.25500000000E-02 0. -1.
    5000001    1    1    2    0    0 -0.71152237144E+02  0.12796069065E+03  0.60752359503E+03  0.64633311669E+03  0.16500000000E+03 0.  0.
   -5000001    1    1    2    0    0  0.71152237144E+02 -0.12796069065E+03  0.52777892143E+03  0.57202462282E+03  0.16500000000E+03 0.  0.
<mgrwt>
<rscale>  0 0.44213547E+03</rscale>
<asrwt>0</asrwt>
<pdfrwt beam="1">  1        2 0.16811860E+00 0.44213547E+03</pdfrwt>
<pdfrwt beam="2">  1       -2 0.59325156E-02 0.44213547E+03</pdfrwt>
<totfact> 0.34892188E+03</totfact>
</mgrwt>
</event>
<event>
 4    1  0.5280257E-005  0.4592783E+03  0.7818608E-02  0.1024991E+00
         -2   -1    0    0    0  501 -0.00000000000E+00  0.00000000000E+00  0.13206355693E+03  0.13206355695E+03  0.25500000000E-02 0. -1.
          2   -1    0    0  501    0  0.00000000000E+00 -0.00000000000E+00 -0.39930872841E+03  0.39930872842E+03  0.25500000000E-02 0.  1.
    5000001    1    1    2    0    0 -0.72074181349E+02  0.13737443570E+03 -0.17756786167E+03  0.28778771465E+03  0.16500000000E+03 0.  0.
   -5000001    1    1    2    0    0  0.72074181349E+02 -0.13737443570E+03 -0.89677309813E+02  0.24358457073E+03  0.16500000000E+03 0.  0.
<mgrwt>
<rscale>  0 0.45927826E+03</rscale>
<asrwt>0</asrwt>
<pdfrwt beam="1">  1        2 0.57044103E-01 0.45927826E+03</pdfrwt>
<pdfrwt beam="2">  1       -2 0.18866223E-01 0.45927826E+03</pdfrwt>
<totfact> 0.20322342E+03</totfact>
</mgrwt>
</event>
<event>
 4    1  0.5280257E-005  0.8589526E+03  0.7818608E-02  0.9478399E-01
         -2   -1    0    0    0  501 -0.00000000000E+00  0.00000000000E+00  0.33795555932E+03  0.33795555933E+03  0.25500000000E-02 0. -1.
          2   -1    0    0  501    0  0.00000000000E+00 -0.00000000000E+00 -0.54578155275E+03  0.54578155275E+03  0.25500000000E-02 0.  1.
    5000001    1    1    2    0    0 -0.55045402677E+02  0.21874798395E+03 -0.43942715051E+03  0.52077048442E+03  0.16500000000E+03 0.  0.
   -5000001    1    1    2    0    0  0.55045402677E+02 -0.21874798395E+03  0.23160115708E+03  0.36296662767E+03  0.16500000000E+03 0.  0.
<mgrwt>
<rscale>  0 0.85895264E+03</rscale>
<asrwt>0</asrwt>
<pdfrwt beam="1">  1        2 0.77968793E-01 0.85895264E+03</pdfrwt>
<pdfrwt beam="2">  1       -2 0.48279366E-01 0.85895264E+03</pdfrwt>
<totfact> 0.24757150E+02</totfact>
</mgrwt>
</event>
<event>
 4    1  0.5280257E-005  0.3752141E+03  0.7818608E-02  0.1052717E+00
          2   -1    0    0  501    0  0.00000000000E+00  0.00000000000E+00  0.84758307490E+03  0.84758307490E+03  0.25500000000E-02 0.  1.
         -2   -1    0    0    0  501 -0.00000000000E+00 -0.00000000000E+00 -0.41525617961E+02  0.41525618040E+02  0.25500000000E-02 0. -1.
    5000001    1    1    2    0    0 -0.86330851864E+02  0.72007024001E+01  0.45421133419E+03  0.49095600842E+03  0.16500000000E+03 0.  0.
   -5000001    1    1    2    0    0  0.86330851864E+02 -0.72007024001E+01  0.35184612274E+03  0.39815268452E+03  0.16500000000E+03 0.  0.
<mgrwt>
<rscale>  0 0.37521413E+03</rscale>
<asrwt>0</asrwt>
<pdfrwt beam="1">  1        2 0.12108329E+00 0.37521413E+03</pdfrwt>
<pdfrwt beam="2">  1       -2 0.59322314E-02 0.37521413E+03</pdfrwt>
<totfact> 0.54899697E+03</totfact>
</mgrwt>
</event>
<event>
 4    1  0.5280257E-005  0.5666168E+03  0.7818608E-02  0.9977193E-01
          2   -1    0    0  501    0  0.00000000000E+00  0.00000000000E+00  0.68806889237E+03  0.68806889238E+03  0.25500000000E-02 0.  1.
         -2   -1    0    0    0  501 -0.00000000000E+00 -0.00000000000E+00 -0.11665062075E+03  0.11665062077E+03  0.25500000000E-02 0. -1.
    5000001    1    1    2    0    0  0.84627055647E+02  0.13890353023E+03  0.54153758005E+02  0.23793603923E+03  0.16500000000E+03 0.  0.
   -5000001    1    1    2    0    0 -0.84627055647E+02 -0.13890353023E+03  0.51726451362E+03  0.56678347392E+03  0.16500000000E+03 0.  0.
<mgrwt>
<rscale>  0 0.56661685E+03</rscale>
<asrwt>0</asrwt>
<pdfrwt beam="1">  1        2 0.98295552E-01 0.56661685E+03</pdfrwt>
<pdfrwt beam="2">  1       -2 0.16664375E-01 0.56661685E+03</pdfrwt>
<totfact> 0.13471985E+03</totfact>
</mgrwt>
</event>
<event>
 4    1  0.5280257E-005  0.6935725E+03  0.7818608E-02  0.9728288E-01
         -2   -1    0    0    0  501 -0.00000000000E+00  0.00000000000E+00  0.38646238514E+03  0.38646238515E+03  0.25500000000E-02 0. -1.
          2   -1    0    0  501    0  0.00000000000E+00 -0.00000000000E+00 -0.31118350430E+03  0.31118350431E+03  0.25500000000E-02 0.  1.
    5000001    1    1    2    0    0  0.73239139798E+02  0.28987328912E+03 -0.23090835346E+02  0.34226989645E+03  0.16500000000E+03 0.  0.
   -5000001    1    1    2    0    0 -0.73239139798E+02 -0.28987328912E+03  0.98369716190E+02  0.35537599301E+03  0.16500000000E+03 0.  0.
<mgrwt>
<rscale>  0 0.69357255E+03</rscale>
<asrwt>0</asrwt>
<pdfrwt beam="1">  1        2 0.44454786E-01 0.69357255E+03</pdfrwt>
<pdfrwt beam="2">  1       -2 0.55208912E-01 0.69357255E+03</pdfrwt>
<totfact> 0.35619774E+02</totfact>
</mgrwt>
</event>
<event>
 4    1  0.5280257E-005  0.8467243E+03  0.7818608E-02  0.9494744E-01
          2   -1    0    0  501    0  0.00000000000E+00  0.00000000000E+00  0.17725216964E+03  0.17725216966E+03  0.25500000000E-02 0.  1.
         -2   -1    0    0    0  501 -0.00000000000E+00 -0.00000000000E+00 -0.10111893429E+04  0.10111893429E+04  0.25500000000E-02 0. -1.
    5000001    1    1    2    0    0 -0.27478923162E+03 -0.27416512918E+03 -0.46824935027E+03  0.63020480314E+03  0.16500000000E+03 0.  0.
   -5000001    1    1    2    0    0  0.27478923162E+03  0.27416512918E+03 -0.36568782302E+03  0.55823670945E+03  0.16500000000E+03 0.  0.
<mgrwt>
<rscale>  0 0.84672429E+03</rscale>
<asrwt>0</asrwt>
<pdfrwt beam="1">  1        2 0.25321739E-01 0.84672429E+03</pdfrwt>
<pdfrwt beam="2">  1       -2 0.14445562E+00 0.84672429E+03</pdfrwt>
<totfact> 0.71907906E+01</totfact>
</mgrwt>
</event>
<event>
 4    1  0.5280257E-005  0.3945647E+03  0.7818608E-02  0.1045678E+00
         -2   -1    0    0    0  501 -0.00000000000E+00  0.00000000000E+00  0.98297671477E+02  0.98297671510E+02  0.25500000000E-02 0. -1.
          2   -1    0    0  501    0  0.00000000000E+00 -0.00000000000E+00 -0.39594357728E+03  0.39594357729E+03  0.25500000000E-02 0.  1.
    5000001    1    1    2    0    0  0.29090126666E+02  0.55946608710E+02 -0.25887631277E+03  0.31339783631E+03  0.16500000000E+03 0.  0.
   -5000001    1    1    2    0    0 -0.29090126666E+02 -0.55946608710E+02 -0.38769593041E+02  0.18084341249E+03  0.16500000000E+03 0.  0.
<mgrwt>
<rscale>  0 0.39456473E+03</rscale>
<asrwt>0</asrwt>
<pdfrwt beam="1">  1        2 0.56563367E-01 0.39456473E+03</pdfrwt>
<pdfrwt beam="2">  1       -2 0.14042525E-01 0.39456473E+03</pdfrwt>
<totfact> 0.33674336E+03</totfact>
</mgrwt>
</event>
<event>
 4    1  0.5280257E-005  0.5316854E+03  0.7818608E-02  0.1005824E+00
         -2   -1    0    0    0  501 -0.00000000000E+00  0.00000000000E+00  0.17387966867E+02  0.17387967054E+02  0.25500000000E-02 0.  1.
          2   -1    0    0  501    0  0.00000000000E+00 -0.00000000000E+00 -0.40644399714E+04  0.40644399714E+04  0.25500000000E-02 0. -1.
    5000001    1    1    2    0    0  0.18429690006E+03 -0.58143130330E+02 -0.26231981350E+04  0.26354770775E+04  0.16500000000E+03 0.  0.
   -5000001    1    1    2    0    0 -0.18429690006E+03  0.58143130330E+02 -0.14238538696E+04  0.14463508610E+04  0.16500000000E+03 0.  0.
<mgrwt>
<rscale>  0 0.53168543E+03</rscale>
<asrwt>0</asrwt>
<pdfrwt beam="1">  1        2 0.58063367E+00 0.53168543E+03</pdfrwt>
<pdfrwt beam="2">  1       -2 0.24839979E-02 0.53168543E+03</pdfrwt>
<totfact> 0.34838830E+02</totfact>
</mgrwt>
</event>
<event>
 4    1  0.5280257E-005  0.4891728E+03  0.7818608E-02  0.1016644E+00
          2   -1    0    0  501    0  0.00000000000E+00  0.00000000000E+00  0.22863481042E+04  0.22863481042E+04  0.25500000000E-02 0.  1.
         -2   -1    0    0    0  501 -0.00000000000E+00 -0.00000000000E+00 -0.26165092924E+02  0.26165093048E+02  0.25500000000E-02 0. -1.
    5000001    1    1    2    0    0 -0.27533582849E+02 -0.17822260021E+03  0.11713357830E+04  0.11965675534E+04  0.16500000000E+03 0.  0.
   -5000001    1    1    2    0    0  0.27533582849E+02  0.17822260021E+03  0.10888472283E+04  0.11159456438E+04  0.16500000000E+03 0.  0.
<mgrwt>
<rscale>  0 0.48917282E+03</rscale>
<asrwt>0</asrwt>
<pdfrwt beam="1">  1        2 0.32662127E+00 0.48917282E+03</pdfrwt>
<pdfrwt beam="2">  1       -2 0.37378692E-02 0.48917282E+03</pdfrwt>
<totfact> 0.19203299E+03</totfact>
</mgrwt>
</event>
<event>
 4    1  0.5280257E-005  0.5657431E+03  0.7818608E-02  0.9979143E-01
         -2   -1    0    0    0  501 -0.00000000000E+00  0.00000000000E+00  0.41410363438E+02  0.41410363516E+02  0.25500000000E-02 0.  1.
          2   -1    0    0  501    0  0.00000000000E+00 -0.00000000000E+00 -0.19322776211E+04  0.19322776211E+04  0.25500000000E-02 0. -1.
    5000001    1    1    2    0    0  0.11361020618E+03 -0.12818830379E+03 -0.41118022864E+03  0.47500915844E+03  0.16500000000E+03 0.  0.
   -5000001    1    1    2    0    0 -0.11361020618E+03  0.12818830379E+03 -0.14796870290E+04  0.14986788262E+04  0.16500000000E+03 0.  0.
<mgrwt>
<rscale>  0 0.56574312E+03</rscale>
<asrwt>0</asrwt>
<pdfrwt beam="1">  1        2 0.27603960E+00 0.56574312E+03</pdfrwt>
<pdfrwt beam="2">  1       -2 0.59157674E-02 0.56574312E+03</pdfrwt>
<totfact> 0.14170900E+03</totfact>
</mgrwt>
</event>
<event>
 4    1  0.5280257E-005  0.9342414E+03  0.7818608E-02  0.9383762E-01
         -2   -1    0    0    0  501 -0.00000000000E+00  0.00000000000E+00  0.60990346631E+02  0.60990346684E+02  0.25500000000E-02 0. -1.
          2   -1    0    0  501    0  0.00000000000E+00 -0.00000000000E+00 -0.35776442523E+04  0.35776442523E+04  0.25500000000E-02 0.  1.
    5000001    1    1    2    0    0 -0.29160194370E+03  0.29048813598E+03 -0.11864258338E+04  0.12665884532E+04  0.16500000000E+03 0.  0.
   -5000001    1    1    2    0    0  0.29160194370E+03 -0.29048813598E+03 -0.23302280719E+04  0.23720461458E+04  0.16500000000E+03 0.  0.
<mgrwt>
<rscale>  0 0.93424143E+03</rscale>
<asrwt>0</asrwt>
<pdfrwt beam="1">  1        2 0.51109190E+00 0.93424143E+03</pdfrwt>
<pdfrwt beam="2">  1       -2 0.87129089E-02 0.93424143E+03</pdfrwt>
<totfact> 0.96490518E+01</totfact>
</mgrwt>
</event>
<event>
 4    1  0.5280257E-005  0.4424880E+03  0.7818608E-02  0.1029986E+00
         -2   -1    0    0    0  501 -0.00000000000E+00  0.00000000000E+00  0.55877053738E+02  0.55877053796E+02  0.25500000000E-02 0. -1.
          2   -1    0    0  501    0  0.00000000000E+00 -0.00000000000E+00 -0.87601089139E+03  0.87601089139E+03  0.25500000000E-02 0.  1.
    5000001    1    1    2    0    0  0.13211926833E+03  0.56445303664E+02 -0.34078133050E+03  0.40496726854E+03  0.16500000000E+03 0.  0.
   -5000001    1    1    2    0    0 -0.13211926833E+03 -0.56445303664E+02 -0.47935250715E+03  0.52692067665E+03  0.16500000000E+03 0.  0.
<mgrwt>
<rscale>  0 0.44248800E+03</rscale>
<asrwt>0</asrwt>
<pdfrwt beam="1">  1        2 0.12514440E+00 0.44248800E+03</pdfrwt>
<pdfrwt beam="2">  1       -2 0.79824368E-02 0.44248800E+03</pdfrwt>
<totfact> 0.33142645E+03</totfact>
</mgrwt>
</event>
<event>
 4    1  0.5280257E-005  0.5698315E+03  0.7818608E-02  0.9970051E-01
          2   -1    0    0  501    0  0.00000000000E+00  0.00000000000E+00  0.75412238133E+03  0.75412238133E+03  0.25500000000E-02 0.  1.
         -2   -1    0    0    0  501 -0.00000000000E+00 -0.00000000000E+00 -0.10764432333E+03  0.10764432336E+03  0.25500000000E-02 0. -1.
    5000001    1    1    2    0    0  0.23095801549E+03  0.24402316475E+02  0.31739836746E+03  0.42650181903E+03  0.16500000000E+03 0.  0.
   -5000001    1    1    2    0    0 -0.23095801549E+03 -0.24402316475E+02  0.32907969054E+03  0.43526488567E+03  0.16500000000E+03 0.  0.
<mgrwt>
<rscale>  0 0.56983153E+03</rscale>
<asrwt>0</asrwt>
<pdfrwt beam="1">  1        2 0.10773177E+00 0.56983153E+03</pdfrwt>
<pdfrwt beam="2">  1       -2 0.15377761E-01 0.56983153E+03</pdfrwt>
<totfact> 0.13786606E+03</totfact>
</mgrwt>
</event>
<event>
 4    1  0.5280257E-005  0.7935383E+03  0.7818608E-02  0.9569418E-01
          2   -1    0    0  501    0  0.00000000000E+00  0.00000000000E+00  0.18768715437E+04  0.18768715437E+04  0.25500000000E-02 0.  1.
         -2   -1    0    0    0  501 -0.00000000000E+00 -0.00000000000E+00 -0.83876684281E+02  0.83876684320E+02  0.25500000000E-02 0. -1.
    5000001    1    1    2    0    0  0.34840817238E+03  0.91878740470E+02  0.94407764306E+03  0.10238835645E+04  0.16500000000E+03 0.  0.
   -5000001    1    1    2    0    0 -0.34840817238E+03 -0.91878740470E+02  0.84891721640E+03  0.93686466356E+03  0.16500000000E+03 0.  0.
<mgrwt>
<rscale>  0 0.79353831E+03</rscale>
<asrwt>0</asrwt>
<pdfrwt beam="1">  1        2 0.26812450E+00 0.79353831E+03</pdfrwt>
<pdfrwt beam="2">  1       -2 0.11982384E-01 0.79353831E+03</pdfrwt>
<totfact> 0.48060725E+02</totfact>
</mgrwt>
</event>
<event>
 4    1  0.5280257E-005  0.5784258E+03  0.7818608E-02  0.9951205E-01
          2   -1    0    0  501    0  0.00000000000E+00  0.00000000000E+00  0.13495388105E+03  0.13495388107E+03  0.25500000000E-02 0.  1.
         -2   -1    0    0    0  501 -0.00000000000E+00 -0.00000000000E+00 -0.61979765509E+03  0.61979765510E+03  0.25500000000E-02 0. -1.
    5000001    1    1    2    0    0 -0.21964686193E+03  0.89920448699E+02 -0.25470871445E+03  0.38526868581E+03  0.16500000000E+03 0.  0.
   -5000001    1    1    2    0    0  0.21964686193E+03 -0.89920448699E+02 -0.23013505960E+03  0.36948285036E+03  0.16500000000E+03 0.  0.
<mgrwt>
<rscale>  0 0.57842579E+03</rscale>
<asrwt>0</asrwt>
<pdfrwt beam="1">  1        2 0.19279126E-01 0.57842579E+03</pdfrwt>
<pdfrwt beam="2">  1       -2 0.88542520E-01 0.57842579E+03</pdfrwt>
<totfact> 0.32912105E+02</totfact>
</mgrwt>
</event>
<event>
 4    1  0.5280257E-005  0.4818470E+03  0.7818608E-02  0.1018629E+00
         -2   -1    0    0    0  501 -0.00000000000E+00  0.00000000000E+00  0.71222623354E+02  0.71222623399E+02  0.25500000000E-02 0. -1.
          2   -1    0    0  501    0  0.00000000000E+00 -0.00000000000E+00 -0.81496752934E+03  0.81496752935E+03  0.25500000000E-02 0.  1.
    5000001    1    1    2    0    0 -0.16869513671E+03 -0.46365049329E+02 -0.39861037233E+03  0.46553517147E+03  0.16500000000E+03 0.  0.
   -5000001    1    1    2    0    0  0.16869513671E+03  0.46365049329E+02 -0.34513453366E+03  0.42065498127E+03  0.16500000000E+03 0.  0.
<mgrwt>
<rscale>  0 0.48184697E+03</rscale>
<asrwt>0</asrwt>
<pdfrwt beam="1">  1        2 0.11642393E+00 0.48184697E+03</pdfrwt>
<pdfrwt beam="2">  1       -2 0.10174661E-01 0.48184697E+03</pdfrwt>
<totfact> 0.24701438E+03</totfact>
</mgrwt>
</event>
<event>
 4    1  0.5280257E-005  0.3591255E+03  0.7818608E-02  0.1058931E+00
          2   -1    0    0  501    0  0.00000000000E+00  0.00000000000E+00  0.91375820227E+03  0.91375820228E+03  0.25500000000E-02 0.  1.
         -2   -1    0    0    0  501 -0.00000000000E+00 -0.00000000000E+00 -0.35285896268E+02  0.35285896361E+02  0.25500000000E-02 0. -1.
    5000001    1    1    2    0    0 -0.65150361313E+02  0.13771876355E+02  0.37539854311E+03  0.41543146285E+03  0.16500000000E+03 0.  0.
   -5000001    1    1    2    0    0  0.65150361313E+02 -0.13771876355E+02  0.50307376290E+03  0.53361263579E+03  0.16500000000E+03 0.  0.
<mgrwt>
<rscale>  0 0.35912548E+03</rscale>
<asrwt>0</asrwt>
<pdfrwt beam="1">  1        2 0.13053689E+00 0.35912548E+03</pdfrwt>
<pdfrwt beam="2">  1       -2 0.50408421E-02 0.35912548E+03</pdfrwt>
<totfact> 0.63909076E+03</totfact>
</mgrwt>
</event>
<event>
 4    1  0.5280257E-005  0.4108675E+03  0.7818608E-02  0.1040080E+00
          2   -1    0    0  501    0  0.00000000000E+00  0.00000000000E+00  0.34117161984E+03  0.34117161985E+03  0.25500000000E-02 0.  1.
         -2   -1    0    0    0  501 -0.00000000000E+00 -0.00000000000E+00 -0.12370028858E+03  0.12370028860E+03  0.25500000000E-02 0. -1.
    5000001    1    1    2    0    0 -0.72544530921E+01 -0.11943857332E+03  0.13779909490E+03  0.24603209230E+03  0.16500000000E+03 0.  0.
   -5000001    1    1    2    0    0  0.72544530921E+01  0.11943857332E+03  0.79672236367E+02  0.21883981615E+03  0.16500000000E+03 0.  0.
<mgrwt>
<rscale>  0 0.41086751E+03</rscale>
<asrwt>0</asrwt>
<pdfrwt beam="1">  1        2 0.48738803E-01 0.41086751E+03</pdfrwt>
<pdfrwt beam="2">  1       -2 0.17671470E-01 0.41086751E+03</pdfrwt>
<totfact> 0.26970984E+03</totfact>
</mgrwt>
</event>
<event>
 4    1  0.5280257E-005  0.3658011E+03  0.7818608E-02  0.1056310E+00
         -2   -1    0    0    0  501 -0.00000000000E+00  0.00000000000E+00  0.14264635189E+02  0.14264635417E+02  0.25500000000E-02 0. -1.
          2   -1    0    0  501    0  0.00000000000E+00 -0.00000000000E+00 -0.23451436067E+04  0.23451436067E+04  0.25500000000E-02 0.  1.
    5000001    1    1    2    0    0  0.36255348670E+02  0.34469718440E+02 -0.15590997286E+04  0.15686043400E+04  0.16500000000E+03 0.  0.
   -5000001    1    1    2    0    0 -0.36255348670E+02 -0.34469718440E+02 -0.77177924300E+03  0.79080390220E+03  0.16500000000E+03 0.  0.
<mgrwt>
<rscale>  0 0.36580114E+03</rscale>
<asrwt>0</asrwt>
<pdfrwt beam="1">  1        2 0.33502027E+00 0.36580114E+03</pdfrwt>
<pdfrwt beam="2">  1       -2 0.20378065E-02 0.36580114E+03</pdfrwt>
<totfact> 0.44915634E+03</totfact>
</mgrwt>
</event>
<event>
 4    1  0.5280257E-005  0.5971521E+03  0.7818608E-02  0.9911332E-01
          2   -1    0    0  501    0  0.00000000000E+00  0.00000000000E+00  0.71311457519E+02  0.71311457565E+02  0.25500000000E-02 0.  1.
         -2   -1    0    0    0  501 -0.00000000000E+00 -0.00000000000E+00 -0.12501169914E+04  0.12501169914E+04  0.25500000000E-02 0. -1.
    5000001    1    1    2    0    0 -0.16543235501E+03  0.29314919583E+02 -0.99560678254E+03  0.10230762894E+04  0.16500000000E+03 0.  0.
   -5000001    1    1    2    0    0  0.16543235501E+03 -0.29314919583E+02 -0.18319875133E+03  0.29835215951E+03  0.16500000000E+03 0.  0.
<mgrwt>
<rscale>  0 0.59715212E+03</rscale>
<asrwt>0</asrwt>
<pdfrwt beam="1">  1        2 0.10187352E-01 0.59715212E+03</pdfrwt>
<pdfrwt beam="2">  1       -2 0.17858813E+00 0.59715212E+03</pdfrwt>
<totfact> 0.12292251E+02</totfact>
</mgrwt>
</event>
<event>
 4    1  0.5280257E-005  0.3493705E+03  0.7818608E-02  0.1062874E+00
         -2   -1    0    0    0  501 -0.00000000000E+00  0.00000000000E+00  0.42600177426E+02  0.42600177503E+02  0.25500000000E-02 0. -1.
          2   -1    0    0  501    0  0.00000000000E+00 -0.00000000000E+00 -0.71630990859E+03  0.71630990859E+03  0.25500000000E-02 0.  1.
    5000001    1    1    2    0    0  0.36262132526E+02 -0.24834386647E+02 -0.41691059848E+03  0.45052318047E+03  0.16500000000E+03 0.  0.
   -5000001    1    1    2    0    0 -0.36262132526E+02  0.24834386647E+02 -0.25679913268E+03  0.30838690562E+03  0.16500000000E+03 0.  0.
<mgrwt>
<rscale>  0 0.34937046E+03</rscale>
<asrwt>0</asrwt>
<pdfrwt beam="1">  1        2 0.10232998E+00 0.34937046E+03</pdfrwt>
<pdfrwt beam="2">  1       -2 0.60857401E-02 0.34937046E+03</pdfrwt>
<totfact> 0.64943371E+03</totfact>
</mgrwt>
</event>
<event>
 4    1  0.5280257E-005  0.7182118E+03  0.7818608E-02  0.9686585E-01
          2   -1    0    0  501    0  0.00000000000E+00  0.00000000000E+00  0.93283311519E+03  0.93283311519E+03  0.25500000000E-02 0.  1.
         -2   -1    0    0    0  501 -0.00000000000E+00 -0.00000000000E+00 -0.13824236560E+03  0.13824236562E+03  0.25500000000E-02 0. -1.
    5000001    1    1    2    0    0 -0.27162031415E+03 -0.16183944780E+03  0.33468785486E+03  0.48909156824E+03  0.16500000000E+03 0.  0.
   -5000001    1    1    2    0    0  0.27162031415E+03  0.16183944780E+03  0.45990289473E+03  0.58198391258E+03  0.16500000000E+03 0.  0.
<mgrwt>
<rscale>  0 0.71821183E+03</rscale>
<asrwt>0</asrwt>
<pdfrwt beam="1">  1        2 0.13326188E+00 0.71821183E+03</pdfrwt>
<pdfrwt beam="2">  1       -2 0.19748909E-01 0.71821183E+03</pdfrwt>
<totfact> 0.67797933E+02</totfact>
</mgrwt>
</event>
<event>
 4    1  0.5280257E-005  0.5462111E+03  0.7818608E-02  0.1002375E+00
          2   -1    0    0  501    0  0.00000000000E+00  0.00000000000E+00  0.16900745097E+03  0.16900745099E+03  0.25500000000E-02 0.  1.
         -2   -1    0    0    0  501 -0.00000000000E+00 -0.00000000000E+00 -0.44132166782E+03  0.44132166782E+03  0.25500000000E-02 0. -1.
    5000001    1    1    2    0    0  0.26702945506E-01 -0.13852215488E+03 -0.32370928608E+03  0.38884584349E+03  0.16500000000E+03 0.  0.
   -5000001    1    1    2    0    0 -0.26702945506E-01  0.13852215488E+03  0.51395069229E+02  0.22148327532E+03  0.16500000000E+03 0.  0.
<mgrwt>
<rscale>  0 0.54621113E+03</rscale>
<asrwt>0</asrwt>
<pdfrwt beam="1">  1        2 0.24143922E-01 0.54621113E+03</pdfrwt>
<pdfrwt beam="2">  1       -2 0.63045952E-01 0.54621113E+03</pdfrwt>
<totfact> 0.53600089E+02</totfact>
</mgrwt>
</event>
<event>
 4    1  0.5280257E-005  0.8895931E+03  0.7818608E-02  0.9438685E-01
          2   -1    0    0  501    0  0.00000000000E+00  0.00000000000E+00  0.32889344645E+04  0.32889344645E+04  0.25500000000E-02 0.  1.
         -2   -1    0    0    0  501 -0.00000000000E+00 -0.00000000000E+00 -0.60154422911E+02  0.60154422965E+02  0.25500000000E-02 0. -1.
    5000001    1    1    2    0    0 -0.26264594996E+03 -0.27597713349E+03  0.22152490882E+04  0.22538189359E+04  0.16500000000E+03 0.  0.
   -5000001    1    1    2    0    0  0.26264594996E+03  0.27597713349E+03  0.10135309534E+04  0.10952699516E+04  0.16500000000E+03 0.  0.
<mgrwt>
<rscale>  0 0.88959306E+03</rscale>
<asrwt>0</asrwt>
<pdfrwt beam="1">  1        2 0.46984771E+00 0.88959306E+03</pdfrwt>
<pdfrwt beam="2">  1       -2 0.85934903E-02 0.88959306E+03</pdfrwt>
<totfact> 0.14702873E+02</totfact>
</mgrwt>
</event>
<event>
 4    1  0.5280257E-005  0.4543025E+03  0.7818608E-02  0.1026447E+00
         -2   -1    0    0    0  501 -0.00000000000E+00  0.00000000000E+00  0.23646944308E+02  0.23646944446E+02  0.25500000000E-02 0.  1.
          2   -1    0    0  501    0  0.00000000000E+00 -0.00000000000E+00 -0.21820026518E+04  0.21820026518E+04  0.25500000000E-02 0. -1.
    5000001    1    1    2    0    0 -0.12088125447E+03  0.30232950618E+02 -0.15358182439E+04  0.15496738326E+04  0.16500000000E+03 0.  0.
   -5000001    1    1    2    0    0  0.12088125447E+03 -0.30232950618E+02 -0.62253746357E+03  0.65597576368E+03  0.16500000000E+03 0.  0.
<mgrwt>
<rscale>  0 0.45430252E+03</rscale>
<asrwt>0</asrwt>
<pdfrwt beam="1">  1        2 0.31171454E+00 0.45430252E+03</pdfrwt>
<pdfrwt beam="2">  1       -2 0.33781363E-02 0.45430252E+03</pdfrwt>
<totfact> 0.25301006E+03</totfact>
</mgrwt>
</event>
<event>
 4    1  0.5280257E-005  0.3989785E+03  0.7818608E-02  0.1044134E+00
          2   -1    0    0  501    0  0.00000000000E+00  0.00000000000E+00  0.53952102187E+03  0.53952102188E+03  0.25500000000E-02 0.  1.
         -2   -1    0    0    0  501 -0.00000000000E+00 -0.00000000000E+00 -0.73761646426E+02  0.73761646470E+02  0.25500000000E-02 0. -1.
    5000001    1    1    2    0    0  0.83808632713E+02  0.71851845859E+02  0.26301626823E+03  0.32952865129E+03  0.16500000000E+03 0.  0.
   -5000001    1    1    2    0    0 -0.83808632713E+02 -0.71851845859E+02  0.20274310722E+03  0.28375401706E+03  0.16500000000E+03 0.  0.
<mgrwt>
<rscale>  0 0.39897849E+03</rscale>
<asrwt>0</asrwt>
<pdfrwt beam="1">  1        2 0.77074432E-01 0.39897849E+03</pdfrwt>
<pdfrwt beam="2">  1       -2 0.10537378E-01 0.39897849E+03</pdfrwt>
<totfact> 0.38157917E+03</totfact>
</mgrwt>
</event>
<event>
 4    1  0.5280257E-005  0.4071305E+03  0.7818608E-02  0.1041338E+00
          2   -1    0    0  501    0  0.00000000000E+00  0.00000000000E+00  0.13264297676E+03  0.13264297678E+03  0.25500000000E-02 0.  1.
         -2   -1    0    0    0  501 -0.00000000000E+00 -0.00000000000E+00 -0.31240862911E+03  0.31240862912E+03  0.25500000000E-02 0. -1.
    5000001    1    1    2    0    0  0.46058482587E+02 -0.10502725048E+03 -0.12550154839E+03  0.23691294985E+03  0.16500000000E+03 0.  0.
   -5000001    1    1    2    0    0 -0.46058482587E+02  0.10502725048E+03 -0.54264103964E+02  0.20813865604E+03  0.16500000000E+03 0.  0.
<mgrwt>
<rscale>  0 0.40713050E+03</rscale>
<asrwt>0</asrwt>
<pdfrwt beam="1">  1        2 0.18948997E-01 0.40713050E+03</pdfrwt>
<pdfrwt beam="2">  1       -2 0.44629804E-01 0.40713050E+03</pdfrwt>
<totfact> 0.14349347E+03</totfact>
</mgrwt>
</event>
<event>
 4    1  0.5280257E-005  0.6151819E+03  0.7818608E-02  0.9874400E-01
          2   -1    0    0  501    0  0.00000000000E+00  0.00000000000E+00  0.87875804195E+03  0.87875804195E+03  0.25500000000E-02 0.  1.
         -2   -1    0    0    0  501 -0.00000000000E+00 -0.00000000000E+00 -0.10766581926E+03  0.10766581929E+03  0.25500000000E-02 0. -1.
    5000001    1    1    2    0    0 -0.16059001899E+03  0.13048909465E+03  0.13420224904E+03  0.29673523833E+03  0.16500000000E+03 0.  0.
   -5000001    1    1    2    0    0  0.16059001899E+03 -0.13048909465E+03  0.63688997366E+03  0.68968862291E+03  0.16500000000E+03 0.  0.
<mgrwt>
<rscale>  0 0.61518194E+03</rscale>
<asrwt>0</asrwt>
<pdfrwt beam="1">  1        2 0.12553687E+00 0.61518194E+03</pdfrwt>
<pdfrwt beam="2">  1       -2 0.15380831E-01 0.61518194E+03</pdfrwt>
<totfact> 0.11313194E+03</totfact>
</mgrwt>
</event>
<event>
 4    1  0.5280257E-005  0.7292193E+03  0.7818608E-02  0.9668528E-01
          2   -1    0    0  501    0  0.00000000000E+00  0.00000000000E+00  0.16974162906E+04  0.16974162906E+04  0.25500000000E-02 0.  1.
         -2   -1    0    0    0  501 -0.00000000000E+00 -0.00000000000E+00 -0.78319139274E+02  0.78319139316E+02  0.25500000000E-02 0. -1.
    5000001    1    1    2    0    0  0.59788973164E+02  0.31167452319E+03  0.98172805159E+03  0.10448591757E+04  0.16500000000E+03 0.  0.
   -5000001    1    1    2    0    0 -0.59788973164E+02 -0.31167452319E+03  0.63736909977E+03  0.73087625427E+03  0.16500000000E+03 0.  0.
<mgrwt>
<rscale>  0 0.72921926E+03</rscale>
<asrwt>0</asrwt>
<pdfrwt beam="1">  1        2 0.24248801E+00 0.72921926E+03</pdfrwt>
<pdfrwt beam="2">  1       -2 0.11188450E-01 0.72921926E+03</pdfrwt>
<totfact> 0.66670422E+02</totfact>
</mgrwt>
</event>
<event>
 4    1  0.5280257E-005  0.4423420E+03  0.7818608E-02  0.1030031E+00
          2   -1    0    0  501    0  0.00000000000E+00  0.00000000000E+00  0.11026036156E+03  0.11026036159E+03  0.25500000000E-02 0.  1.
         -2   -1    0    0    0  501 -0.00000000000E+00 -0.00000000000E+00 -0.44364633576E+03  0.44364633577E+03  0.25500000000E-02 0. -1.
    5000001    1    1    2    0    0 -0.38202052911E+02  0.13117684511E+03 -0.97823008887E+02  0.23550181020E+03  0.16500000000E+03 0.  0.
   -5000001    1    1    2    0    0  0.38202052911E+02 -0.13117684511E+03 -0.23556296531E+03  0.31840488716E+03  0.16500000000E+03 0.  0.
<mgrwt>
<rscale>  0 0.44234197E+03</rscale>
<asrwt>0</asrwt>
<pdfrwt beam="1">  1        2 0.15751480E-01 0.44234197E+03</pdfrwt>
<pdfrwt beam="2">  1       -2 0.63378047E-01 0.44234197E+03</pdfrwt>
<totfact> 0.87354978E+02</totfact>
</mgrwt>
</event>
<event>
 4    1  0.5280257E-005  0.8961872E+03  0.7818608E-02  0.9430360E-01
          2   -1    0    0  501    0  0.00000000000E+00  0.00000000000E+00  0.88416608943E+03  0.88416608943E+03  0.25500000000E-02 0.  1.
         -2   -1    0    0    0  501 -0.00000000000E+00 -0.00000000000E+00 -0.22709291455E+03  0.22709291456E+03  0.25500000000E-02 0. -1.
    5000001    1    1    2    0    0 -0.19641064744E+03  0.14549810273E+03 -0.89792693131E+02  0.30827677186E+03  0.16500000000E+03 0.  0.
   -5000001    1    1    2    0    0  0.19641064744E+03 -0.14549810273E+03  0.74686586801E+03  0.80298223214E+03  0.16500000000E+03 0.  0.
<mgrwt>
<rscale>  0 0.89618716E+03</rscale>
<asrwt>0</asrwt>
<pdfrwt beam="1">  1        2 0.12630944E+00 0.89618716E+03</pdfrwt>
<pdfrwt beam="2">  1       -2 0.32441845E-01 0.89618716E+03</pdfrwt>
<totfact> 0.29485698E+02</totfact>
</mgrwt>
</event>
<event>
 4    1  0.5280257E-005  0.4688595E+03  0.7818608E-02  0.1022243E+00
         -2   -1    0    0    0  501 -0.00000000000E+00  0.00000000000E+00  0.29458043242E+02  0.29458043353E+02  0.25500000000E-02 0. -1.
          2   -1    0    0  501    0  0.00000000000E+00 -0.00000000000E+00 -0.18656128258E+04  0.18656128258E+04  0.25500000000E-02 0.  1.
    5000001    1    1    2    0    0  0.72991598346E+02 -0.12934848998E+03 -0.12225219455E+04  0.12425150753E+04  0.16500000000E+03 0.  0.
   -5000001    1    1    2    0    0 -0.72991598346E+02  0.12934848998E+03 -0.61363283706E+03  0.65255579379E+03  0.16500000000E+03 0.  0.
<mgrwt>
<rscale>  0 0.46885948E+03</rscale>
<asrwt>0</asrwt>
<pdfrwt beam="1">  1        2 0.26651604E+00 0.46885948E+03</pdfrwt>
<pdfrwt beam="2">  1       -2 0.42082931E-02 0.46885948E+03</pdfrwt>
<totfact> 0.26006919E+03</totfact>
</mgrwt>
</event>
<event>
 4    1  0.5280257E-005  0.3701240E+03  0.7818608E-02  0.1054646E+00
         -2   -1    0    0    0  501 -0.00000000000E+00  0.00000000000E+00  0.18218319014E+02  0.18218319192E+02  0.25500000000E-02 0. -1.
          2   -1    0    0  501    0  0.00000000000E+00 -0.00000000000E+00 -0.18798626392E+04  0.18798626392E+04  0.25500000000E-02 0.  1.
    5000001    1    1    2    0    0  0.11785419513E+02 -0.82142645985E+02 -0.99076479680E+03  0.10078324231E+04  0.16500000000E+03 0.  0.
   -5000001    1    1    2    0    0 -0.11785419513E+02  0.82142645985E+02 -0.87087952340E+03  0.89024853534E+03  0.16500000000E+03 0.  0.
<mgrwt>
<rscale>  0 0.37012397E+03</rscale>
<asrwt>0</asrwt>
<pdfrwt beam="1">  1        2 0.26855168E+00 0.37012397E+03</pdfrwt>
<pdfrwt beam="2">  1       -2 0.26026182E-02 0.37012397E+03</pdfrwt>
<totfact> 0.52991544E+03</totfact>
</mgrwt>
</event>
<event>
 4    1  0.5280257E-005  0.5509844E+03  0.7818608E-02  0.1001266E+00
          2   -1    0    0  501    0  0.00000000000E+00  0.00000000000E+00  0.62338339406E+03  0.62338339406E+03  0.25500000000E-02 0.  1.
         -2   -1    0    0    0  501 -0.00000000000E+00 -0.00000000000E+00 -0.12174843135E+03  0.12174843138E+03  0.25500000000E-02 0. -1.
    5000001    1    1    2    0    0  0.34191031960E+02 -0.15099712937E+03  0.38268986605E+02  0.22947478093E+03  0.16500000000E+03 0.  0.
   -5000001    1    1    2    0    0 -0.34191031960E+02  0.15099712937E+03  0.46336597610E+03  0.51565704451E+03  0.16500000000E+03 0.  0.
<mgrwt>
<rscale>  0 0.55098439E+03</rscale>
<asrwt>0</asrwt>
<pdfrwt beam="1">  1        2 0.89054772E-01 0.55098439E+03</pdfrwt>
<pdfrwt beam="2">  1       -2 0.17392633E-01 0.55098439E+03</pdfrwt>
<totfact> 0.14099906E+03</totfact>
</mgrwt>
</event>
<event>
 4    1  0.5280257E-005  0.5533773E+03  0.7818608E-02  0.1000715E+00
          2   -1    0    0  501    0  0.00000000000E+00  0.00000000000E+00  0.45564590197E+03  0.45564590197E+03  0.25500000000E-02 0.  1.
         -2   -1    0    0    0  501 -0.00000000000E+00 -0.00000000000E+00 -0.16801776268E+03  0.16801776270E+03  0.25500000000E-02 0. -1.
    5000001    1    1    2    0    0  0.48951866967E+02 -0.19335557030E+03  0.33683783318E+02  0.26104072308E+03  0.16500000000E+03 0.  0.
   -5000001    1    1    2    0    0 -0.48951866967E+02  0.19335557030E+03  0.25394435597E+03  0.36262294160E+03  0.16500000000E+03 0.  0.
<mgrwt>
<rscale>  0 0.55337729E+03</rscale>
<asrwt>0</asrwt>
<pdfrwt beam="1">  1        2 0.65092272E-01 0.55337729E+03</pdfrwt>
<pdfrwt beam="2">  1       -2 0.24002537E-01 0.55337729E+03</pdfrwt>
<totfact> 0.11523864E+03</totfact>
</mgrwt>
</event>
<event>
 4    1  0.5280257E-005  0.5844663E+03  0.7818608E-02  0.9938168E-01
          2   -1    0    0  501    0  0.00000000000E+00  0.00000000000E+00  0.12948785220E+04  0.12948785220E+04  0.25500000000E-02 0.  1.
         -2   -1    0    0    0  501 -0.00000000000E+00 -0.00000000000E+00 -0.65952291065E+02  0.65952291115E+02  0.25500000000E-02 0. -1.
    5000001    1    1    2    0    0 -0.17398041320E+03  0.10180624903E+03  0.92283739869E+03  0.95889914013E+03  0.16500000000E+03 0.  0.
   -5000001    1    1    2    0    0  0.17398041320E+03 -0.10180624903E+03  0.30608883220E+03  0.40193167294E+03  0.16500000000E+03 0.  0.
<mgrwt>
<rscale>  0 0.58446627E+03</rscale>
<asrwt>0</asrwt>
<pdfrwt beam="1">  1        2 0.18498264E+00 0.58446627E+03</pdfrwt>
<pdfrwt beam="2">  1       -2 0.94217561E-02 0.58446627E+03</pdfrwt>
<totfact> 0.14430163E+03</totfact>
</mgrwt>
</event>
<event>
 4    1  0.5280257E-005  0.4171728E+03  0.7818608E-02  0.1037990E+00
         -2   -1    0    0    0  501 -0.00000000000E+00  0.00000000000E+00  0.45590834974E+02  0.45590835045E+02  0.25500000000E-02 0. -1.
          2   -1    0    0  501    0  0.00000000000E+00 -0.00000000000E+00 -0.95432068695E+03  0.95432068695E+03  0.25500000000E-02 0.  1.
    5000001    1    1    2    0    0  0.12380500915E+03 -0.21023015558E+02 -0.40004356782E+03  0.45058795327E+03  0.16500000000E+03 0.  0.
   -5000001    1    1    2    0    0 -0.12380500915E+03  0.21023015558E+02 -0.50868628416E+03  0.54932356873E+03  0.16500000000E+03 0.  0.
<mgrwt>
<rscale>  0 0.41717276E+03</rscale>
<asrwt>0</asrwt>
<pdfrwt beam="1">  1        2 0.13633151E+00 0.41717276E+03</pdfrwt>
<pdfrwt beam="2">  1       -2 0.65129771E-02 0.41717276E+03</pdfrwt>
<totfact> 0.40687521E+03</totfact>
</mgrwt>
</event>
<event>
 4    1  0.5280257E-005  0.5837689E+03  0.7818608E-02  0.9939665E-01
          2   -1    0    0  501    0  0.00000000000E+00  0.00000000000E+00  0.71621422914E+03  0.71621422915E+03  0.25500000000E-02 0.  1.
         -2   -1    0    0    0  501 -0.00000000000E+00 -0.00000000000E+00 -0.11895396597E+03  0.11895396599E+03  0.25500000000E-02 0. -1.
    5000001    1    1    2    0    0 -0.20282773451E+03 -0.10864343212E+03  0.19717466162E+03  0.34502946601E+03  0.16500000000E+03 0.  0.
   -5000001    1    1    2    0    0  0.20282773451E+03  0.10864343212E+03  0.40008560155E+03  0.49013872913E+03  0.16500000000E+03 0.  0.
<mgrwt>
<rscale>  0 0.58376887E+03</rscale>
<asrwt>0</asrwt>
<pdfrwt beam="1">  1        2 0.10231632E+00 0.58376887E+03</pdfrwt>
<pdfrwt beam="2">  1       -2 0.16993424E-01 0.58376887E+03</pdfrwt>
<totfact> 0.12405093E+03</totfact>
</mgrwt>
</event>
<event>
 4    1  0.5280257E-005  0.5972866E+03  0.7818608E-02  0.9911052E-01
          2   -1    0    0  501    0  0.00000000000E+00  0.00000000000E+00  0.83419521820E+03  0.83419521821E+03  0.25500000000E-02 0.  1.
         -2   -1    0    0    0  501 -0.00000000000E+00 -0.00000000000E+00 -0.10691480235E+03  0.10691480238E+03  0.25500000000E-02 0. -1.
    5000001    1    1    2    0    0  0.18620487268E+03 -0.12012462603E+03  0.18495489096E+03  0.33246878361E+03  0.16500000000E+03 0.  0.
   -5000001    1    1    2    0    0 -0.18620487268E+03  0.12012462603E+03  0.54232552490E+03  0.60864123697E+03  0.16500000000E+03 0.  0.
<mgrwt>
<rscale>  0 0.59728659E+03</rscale>
<asrwt>0</asrwt>
<pdfrwt beam="1">  1        2 0.11917075E+00 0.59728659E+03</pdfrwt>
<pdfrwt beam="2">  1       -2 0.15273543E-01 0.59728659E+03</pdfrwt>
<totfact> 0.12260386E+03</totfact>
</mgrwt>
</event>
<event>
 4    1  0.5280257E-005  0.6346822E+03  0.7818608E-02  0.9835954E-01
          2   -1    0    0  501    0  0.00000000000E+00  0.00000000000E+00  0.15300470270E+04  0.15300470270E+04  0.25500000000E-02 0.  1.
         -2   -1    0    0    0  501 -0.00000000000E+00 -0.00000000000E+00 -0.65818491692E+02  0.65818491741E+02  0.25500000000E-02 0. -1.
    5000001    1    1    2    0    0  0.23760164655E+03  0.12958431294E+03  0.77055721312E+03  0.83320468992E+03  0.16500000000E+03 0.  0.
   -5000001    1    1    2    0    0 -0.23760164655E+03 -0.12958431294E+03  0.69367132219E+03  0.76266082884E+03  0.16500000000E+03 0.  0.
<mgrwt>
<rscale>  0 0.63468224E+03</rscale>
<asrwt>0</asrwt>
<pdfrwt beam="1">  1        2 0.21857816E+00 0.63468224E+03</pdfrwt>
<pdfrwt beam="2">  1       -2 0.94026411E-02 0.63468224E+03</pdfrwt>
<totfact> 0.10843087E+03</totfact>
</mgrwt>
</event>
<event>
 4    1  0.5280257E-005  0.6903965E+03  0.7818608E-02  0.9733798E-01
         -2   -1    0    0    0  501 -0.00000000000E+00  0.00000000000E+00  0.14533221975E+04  0.14533221975E+04  0.25500000000E-02 0. -1.
          2   -1    0    0  501    0  0.00000000000E+00 -0.00000000000E+00 -0.81992705114E+02  0.81992705154E+02  0.25500000000E-02 0.  1.
    5000001    1    1    2    0    0 -0.49742153733E+02 -0.29560941557E+03  0.78702808788E+03  0.85819427844E+03  0.16500000000E+03 0.  0.
   -5000001    1    1    2    0    0  0.49742153733E+02  0.29560941557E+03  0.58430140450E+03  0.67712062421E+03  0.16500000000E+03 0.  0.
<mgrwt>
<rscale>  0 0.69039646E+03</rscale>
<asrwt>0</asrwt>
<pdfrwt beam="1">  1        2 0.11713244E-01 0.69039646E+03</pdfrwt>
<pdfrwt beam="2">  1       -2 0.20761745E+00 0.69039646E+03</pdfrwt>
<totfact> 0.66033191E+01</totfact>
</mgrwt>
</event>
<event>
 4    1  0.5280257E-005  0.5849171E+03  0.7818608E-02  0.9937202E-01
          2   -1    0    0  501    0  0.00000000000E+00  0.00000000000E+00  0.13116352769E+04  0.13116352769E+04  0.25500000000E-02 0.  1.
         -2   -1    0    0    0  501 -0.00000000000E+00 -0.00000000000E+00 -0.65210198175E+02  0.65210198225E+02  0.25500000000E-02 0. -1.
    5000001    1    1    2    0    0  0.20410697975E+03  0.50366616088E+02  0.90282900173E+03  0.94155279276E+03  0.16500000000E+03 0.  0.
   -5000001    1    1    2    0    0 -0.20410697975E+03 -0.50366616088E+02  0.34359607703E+03  0.43529268240E+03  0.16500000000E+03 0.  0.
<mgrwt>
<rscale>  0 0.58491708E+03</rscale>
<asrwt>0</asrwt>
<pdfrwt beam="1">  1        2 0.18737646E+00 0.58491708E+03</pdfrwt>
<pdfrwt beam="2">  1       -2 0.93157429E-02 0.58491708E+03</pdfrwt>
<totfact> 0.14390947E+03</totfact>
</mgrwt>
</event>
<event>
 4    1  0.5280257E-005  0.7683819E+03  0.7818608E-02  0.9606945E-01
          2   -1    0    0  501    0  0.00000000000E+00  0.00000000000E+00  0.17695125408E+04  0.17695125408E+04  0.25500000000E-02 0.  1.
         -2   -1    0    0    0  501 -0.00000000000E+00 -0.00000000000E+00 -0.83414330321E+02  0.83414330360E+02  0.25500000000E-02 0. -1.
    5000001    1    1    2    0    0 -0.19141395224E+03 -0.27026016874E+03  0.10924679434E+04  0.11534257961E+04  0.16500000000E+03 0.  0.
   -5000001    1    1    2    0    0  0.19141395224E+03  0.27026016874E+03  0.59363026708E+03  0.69950107499E+03  0.16500000000E+03 0.  0.
<mgrwt>
<rscale>  0 0.76838195E+03</rscale>
<asrwt>0</asrwt>
<pdfrwt beam="1">  1        2 0.25278751E+00 0.76838195E+03</pdfrwt>
<pdfrwt beam="2">  1       -2 0.11916333E-01 0.76838195E+03</pdfrwt>
<totfact> 0.55087094E+02</totfact>
</mgrwt>
</event>
<event>
 4    1  0.5280257E-005  0.5744958E+03  0.7818608E-02  0.9959779E-01
          2   -1    0    0  501    0  0.00000000000E+00  0.00000000000E+00  0.68204240954E+03  0.68204240955E+03  0.25500000000E-02 0.  1.
         -2   -1    0    0    0  501 -0.00000000000E+00 -0.00000000000E+00 -0.12097687761E+03  0.12097687764E+03  0.25500000000E-02 0. -1.
    5000001    1    1    2    0    0  0.92373264213E+02 -0.21368396129E+03  0.32673795403E+03  0.43379297580E+03  0.16500000000E+03 0.  0.
   -5000001    1    1    2    0    0 -0.92373264213E+02  0.21368396129E+03  0.23432757790E+03  0.36922631138E+03  0.16500000000E+03 0.  0.
<mgrwt>
<rscale>  0 0.57449582E+03</rscale>
<asrwt>0</asrwt>
<pdfrwt beam="1">  1        2 0.97434625E-01 0.57449582E+03</pdfrwt>
<pdfrwt beam="2">  1       -2 0.17282412E-01 0.57449582E+03</pdfrwt>
<totfact> 0.12796216E+03</totfact>
</mgrwt>
</event>
<event>
 4    1  0.5280257E-005  0.6767173E+03  0.7818608E-02  0.9757898E-01
          2   -1    0    0  501    0  0.00000000000E+00  0.00000000000E+00  0.42456275355E+03  0.42456275356E+03  0.25500000000E-02 0.  1.
         -2   -1    0    0    0  501 -0.00000000000E+00 -0.00000000000E+00 -0.26965764045E+03  0.26965764046E+03  0.25500000000E-02 0. -1.
    5000001    1    1    2    0    0 -0.20113611496E+03  0.14635357996E+03  0.24090496820E+03  0.38358220868E+03  0.16500000000E+03 0.  0.
   -5000001    1    1    2    0    0  0.20113611496E+03 -0.14635357996E+03 -0.85999855099E+02  0.31063818533E+03  0.16500000000E+03 0.  0.
<mgrwt>
<rscale>  0 0.67671734E+03</rscale>
<asrwt>0</asrwt>
<pdfrwt beam="1">  1        2 0.60651822E-01 0.67671734E+03</pdfrwt>
<pdfrwt beam="2">  1       -2 0.38522520E-01 0.67671734E+03</pdfrwt>
<totfact> 0.51808222E+02</totfact>
</mgrwt>
</event>
<event>
 4    1  0.5280257E-005  0.4971180E+03  0.7818608E-02  0.1014534E+00
          2   -1    0    0  501    0  0.00000000000E+00  0.00000000000E+00  0.44425465100E+03  0.44425465100E+03  0.25500000000E-02 0.  1.
         -2   -1    0    0    0  501 -0.00000000000E+00 -0.00000000000E+00 -0.13906795374E+03  0.13906795376E+03  0.25500000000E-02 0. -1.
    5000001    1    1    2    0    0 -0.90804040174E+02  0.86273904803E+02  0.31377385182E+03  0.37598881692E+03  0.16500000000E+03 0.  0.
   -5000001    1    1    2    0    0  0.90804040174E+02 -0.86273904803E+02 -0.85871545611E+01  0.20733378785E+03  0.16500000000E+03 0.  0.
<mgrwt>
<rscale>  0 0.49711804E+03</rscale>
<asrwt>0</asrwt>
<pdfrwt beam="1">  1        2 0.63464950E-01 0.49711804E+03</pdfrwt>
<pdfrwt beam="2">  1       -2 0.19866851E-01 0.49711804E+03</pdfrwt>
<totfact> 0.16526277E+03</totfact>
</mgrwt>
</event>
<event>
 4    1  0.5280257E-005  0.3901775E+03  0.7818608E-02  0.1047235E+00
         -2   -1    0    0    0  501 -0.00000000000E+00  0.00000000000E+00  0.68655029092E+02  0.68655029140E+02  0.25500000000E-02 0. -1.
          2   -1    0    0  501    0  0.00000000000E+00 -0.00000000000E+00 -0.55436034259E+03  0.55436034260E+03  0.25500000000E-02 0.  1.
    5000001    1    1    2    0    0  0.48177546510E+02  0.91373646266E+02 -0.22237898825E+03  0.29554633078E+03  0.16500000000E+03 0.  0.
   -5000001    1    1    2    0    0 -0.48177546510E+02 -0.91373646266E+02 -0.26332632525E+03  0.32746904096E+03  0.16500000000E+03 0.  0.
<mgrwt>
<rscale>  0 0.39017753E+03</rscale>
<asrwt>0</asrwt>
<pdfrwt beam="1">  1        2 0.79194332E-01 0.39017753E+03</pdfrwt>
<pdfrwt beam="2">  1       -2 0.98078617E-02 0.39017753E+03</pdfrwt>
<totfact> 0.41500189E+03</totfact>
</mgrwt>
</event>
<event>
 4    1  0.5280257E-005  0.9523596E+03  0.7818608E-02  0.9362397E-01
          2   -1    0    0  501    0  0.00000000000E+00  0.00000000000E+00  0.14777788271E+04  0.14777788271E+04  0.25500000000E-02 0.  1.
         -2   -1    0    0    0  501 -0.00000000000E+00 -0.00000000000E+00 -0.15343785224E+03  0.15343785226E+03  0.25500000000E-02 0. -1.
    5000001    1    1    2    0    0 -0.15136011886E+03 -0.29486734330E+03  0.11750596802E+04  0.12320092888E+04  0.16500000000E+03 0.  0.
   -5000001    1    1    2    0    0  0.15136011886E+03  0.29486734330E+03  0.14928129467E+03  0.39920739054E+03  0.16500000000E+03 0.  0.
<mgrwt>
<rscale>  0 0.95235962E+03</rscale>
<asrwt>0</asrwt>
<pdfrwt beam="1">  1        2 0.21111128E+00 0.95235962E+03</pdfrwt>
<pdfrwt beam="2">  1       -2 0.21919692E-01 0.95235962E+03</pdfrwt>
<totfact> 0.27249240E+02</totfact>
</mgrwt>
</event>
<event>
 4    1  0.5280257E-005  0.7055036E+03  0.7818608E-02  0.9707866E-01
          2   -1    0    0  501    0  0.00000000000E+00  0.00000000000E+00  0.93587757153E+03  0.93587757154E+03  0.25500000000E-02 0.  1.
         -2   -1    0    0    0  501 -0.00000000000E+00 -0.00000000000E+00 -0.13295952519E+03  0.13295952521E+03  0.25500000000E-02 0. -1.
    5000001    1    1    2    0    0 -0.29107837592E+03 -0.34119344053E+02  0.56263443529E+03  0.65549466690E+03  0.16500000000E+03 0.  0.
   -5000001    1    1    2    0    0  0.29107837592E+03  0.34119344053E+02  0.24028361106E+03  0.41334242984E+03  0.16500000000E+03 0.  0.
<mgrwt>
<rscale>  0 0.70550361E+03</rscale>
<asrwt>0</asrwt>
<pdfrwt beam="1">  1        2 0.13369680E+00 0.70550361E+03</pdfrwt>
<pdfrwt beam="2">  1       -2 0.18994218E-01 0.70550361E+03</pdfrwt>
<totfact> 0.72260988E+02</totfact>
</mgrwt>
</event>
<event>
 4    1  0.5280257E-005  0.5978768E+03  0.7818608E-02  0.9909821E-01
          2   -1    0    0  501    0  0.00000000000E+00  0.00000000000E+00  0.13730514110E+04  0.13730514110E+04  0.25500000000E-02 0.  1.
         -2   -1    0    0    0  501 -0.00000000000E+00 -0.00000000000E+00 -0.65084360803E+02  0.65084360853E+02  0.25500000000E-02 0. -1.
    5000001    1    1    2    0    0  0.13401825471E+03 -0.17667170674E+03  0.38009051677E+03  0.46996551522E+03  0.16500000000E+03 0.  0.
   -5000001    1    1    2    0    0 -0.13401825471E+03  0.17667170674E+03  0.92787653346E+03  0.96817025667E+03  0.16500000000E+03 0.  0.
<mgrwt>
<rscale>  0 0.59787682E+03</rscale>
<asrwt>0</asrwt>
<pdfrwt beam="1">  1        2 0.19615019E+00 0.59787682E+03</pdfrwt>
<pdfrwt beam="2">  1       -2 0.92977664E-02 0.59787682E+03</pdfrwt>
<totfact> 0.13373487E+03</totfact>
</mgrwt>
</event>
<event>
 4    1  0.5280257E-005  0.1096865E+04  0.7818608E-02  0.9208253E-01
          2   -1    0    0  501    0  0.00000000000E+00  0.00000000000E+00  0.82365084198E+03  0.82365084198E+03  0.25500000000E-02 0.  1.
         -2   -1    0    0    0  501 -0.00000000000E+00 -0.00000000000E+00 -0.36517660202E+03  0.36517660203E+03  0.25500000000E-02 0. -1.
    5000001    1    1    2    0    0 -0.37487686261E+03  0.33173281930E+03  0.64958456148E+02  0.53105924956E+03  0.16500000000E+03 0.  0.
   -5000001    1    1    2    0    0  0.37487686261E+03 -0.33173281930E+03  0.39351578381E+03  0.65776819445E+03  0.16500000000E+03 0.  0.
<mgrwt>
<rscale>  0 0.10968647E+04</rscale>
<asrwt>0</asrwt>
<pdfrwt beam="1">  1        2 0.11766441E+00 0.10968647E+04</pdfrwt>
<pdfrwt beam="2">  1       -2 0.52168086E-01 0.10968647E+04</pdfrwt>
<totfact> 0.12606203E+02</totfact>
</mgrwt>
</event>
<event>
 4    1  0.5280257E-005  0.6539992E+03  0.7818608E-02  0.9799304E-01
         -2   -1    0    0    0  501 -0.00000000000E+00  0.00000000000E+00  0.55695515438E+02  0.55695515496E+02  0.25500000000E-02 0. -1.
          2   -1    0    0  501    0  0.00000000000E+00 -0.00000000000E+00 -0.19198807890E+04  0.19198807890E+04  0.25500000000E-02 0.  1.
    5000001    1    1    2    0    0 -0.13867578988E+03  0.19738212559E+03 -0.13751579820E+04  0.14058716704E+04  0.16500000000E+03 0.  0.
   -5000001    1    1    2    0    0  0.13867578988E+03 -0.19738212559E+03 -0.48902729152E+03  0.56970463405E+03  0.16500000000E+03 0.  0.
<mgrwt>
<rscale>  0 0.65399924E+03</rscale>
<asrwt>0</asrwt>
<pdfrwt beam="1">  1        2 0.27426864E+00 0.65399924E+03</pdfrwt>
<pdfrwt beam="2">  1       -2 0.79565034E-02 0.65399924E+03</pdfrwt>
<totfact> 0.89617806E+02</totfact>
</mgrwt>
</event>
<event>
 4    1  0.5280257E-005  0.5101494E+03  0.7818608E-02  0.1011163E+00
         -2   -1    0    0    0  501 -0.00000000000E+00  0.00000000000E+00  0.74910937066E+02  0.74910937109E+02  0.25500000000E-02 0. -1.
          2   -1    0    0  501    0  0.00000000000E+00 -0.00000000000E+00 -0.86853959523E+03  0.86853959523E+03  0.25500000000E-02 0.  1.
    5000001    1    1    2    0    0 -0.14048085270E+03 -0.12789070149E+03 -0.31951162292E+03  0.40669838786E+03  0.16500000000E+03 0.  0.
   -5000001    1    1    2    0    0  0.14048085270E+03  0.12789070149E+03 -0.47411703524E+03  0.53675214448E+03  0.16500000000E+03 0.  0.
<mgrwt>
<rscale>  0 0.51014945E+03</rscale>
<asrwt>0</asrwt>
<pdfrwt beam="1">  1        2 0.12407708E+00 0.51014945E+03</pdfrwt>
<pdfrwt beam="2">  1       -2 0.10701563E-01 0.51014945E+03</pdfrwt>
<totfact> 0.20965652E+03</totfact>
</mgrwt>
</event>
<event>
 4    1  0.5280257E-005  0.8677524E+03  0.7818608E-02  0.9466815E-01
          2   -1    0    0  501    0  0.00000000000E+00  0.00000000000E+00  0.25821068283E+04  0.25821068283E+04  0.25500000000E-02 0. -1.
         -2   -1    0    0    0  501 -0.00000000000E+00 -0.00000000000E+00 -0.72905014667E+02  0.72905014712E+02  0.25500000000E-02 0.  1.
    5000001    1    1    2    0    0 -0.31836003032E+03  0.10330297805E+03  0.57732765175E+03  0.68742769195E+03  0.16500000000E+03 0.  0.
   -5000001    1    1    2    0    0  0.31836003032E+03 -0.10330297805E+03  0.19318741619E+04  0.19675841511E+04  0.16500000000E+03 0.  0.
<mgrwt>
<rscale>  0 0.86775235E+03</rscale>
<asrwt>0</asrwt>
<pdfrwt beam="1">  1        2 0.36887240E+00 0.86775235E+03</pdfrwt>
<pdfrwt beam="2">  1       -2 0.10415002E-01 0.86775235E+03</pdfrwt>
<totfact> 0.26236659E+02</totfact>
</mgrwt>
</event>
<event>
 4    1  0.5280257E-005  0.5672419E+03  0.7818608E-02  0.9975801E-01
         -2   -1    0    0    0  501 -0.00000000000E+00  0.00000000000E+00  0.47174825342E+02  0.47174825411E+02  0.25500000000E-02 0. -1.
          2   -1    0    0  501    0  0.00000000000E+00 -0.00000000000E+00 -0.17051644979E+04  0.17051644979E+04  0.25500000000E-02 0.  1.
    5000001    1    1    2    0    0  0.17291046467E+03  0.51835528668E+02 -0.38527497802E+03  0.45634061787E+03  0.16500000000E+03 0.  0.
   -5000001    1    1    2    0    0 -0.17291046467E+03 -0.51835528668E+02 -0.12727146946E+04  0.12959987055E+04  0.16500000000E+03 0.  0.
<mgrwt>
<rscale>  0 0.56724188E+03</rscale>
<asrwt>0</asrwt>
<pdfrwt beam="1">  1        2 0.24359489E+00 0.56724188E+03</pdfrwt>
<pdfrwt beam="2">  1       -2 0.67392618E-02 0.56724188E+03</pdfrwt>
<totfact> 0.15031686E+03</totfact>
</mgrwt>
</event>
<event>
 4    1  0.5280257E-005  0.3988057E+03  0.7818608E-02  0.1044194E+00
         -2   -1    0    0    0  501 -0.00000000000E+00  0.00000000000E+00  0.23443967810E+02  0.23443967948E+02  0.25500000000E-02 0. -1.
          2   -1    0    0  501    0  0.00000000000E+00 -0.00000000000E+00 -0.16960224902E+04  0.16960224902E+04  0.25500000000E-02 0.  1.
    5000001    1    1    2    0    0  0.30812348575E+02  0.59420034846E+02 -0.12232809689E+04  0.12361721038E+04  0.16500000000E+03 0.  0.
   -5000001    1    1    2    0    0 -0.30812348575E+02 -0.59420034846E+02 -0.44929755351E+03  0.48329435436E+03  0.16500000000E+03 0.  0.
<mgrwt>
<rscale>  0 0.39880570E+03</rscale>
<asrwt>0</asrwt>
<pdfrwt beam="1">  1        2 0.24228885E+00 0.39880570E+03</pdfrwt>
<pdfrwt beam="2">  1       -2 0.33491393E-02 0.39880570E+03</pdfrwt>
<totfact> 0.44777962E+03</totfact>
</mgrwt>
</event>
<event>
 4    1  0.5280257E-005  0.4088836E+03  0.7818608E-02  0.1040746E+00
         -2   -1    0    0    0  501 -0.00000000000E+00  0.00000000000E+00  0.31833046308E+02  0.31833046410E+02  0.25500000000E-02 0. -1.
          2   -1    0    0  501    0  0.00000000000E+00 -0.00000000000E+00 -0.13129894976E+04  0.13129894976E+04  0.25500000000E-02 0.  1.
    5000001    1    1    2    0    0 -0.10223088335E+03 -0.49596643765E+02 -0.77460187050E+03  0.80009001891E+03  0.16500000000E+03 0.  0.
   -5000001    1    1    2    0    0  0.10223088335E+03  0.49596643765E+02 -0.50655458083E+03  0.54473252514E+03  0.16500000000E+03 0.  0.
<mgrwt>
<rscale>  0 0.40888363E+03</rscale>
<asrwt>0</asrwt>
<pdfrwt beam="1">  1        2 0.18756989E+00 0.40888363E+03</pdfrwt>
<pdfrwt beam="2">  1       -2 0.45475789E-02 0.40888363E+03</pdfrwt>
<totfact> 0.44285497E+03</totfact>
</mgrwt>
</event>
<event>
 4    1  0.5280257E-005  0.9496080E+03  0.7818608E-02  0.9365609E-01
          2   -1    0    0  501    0  0.00000000000E+00  0.00000000000E+00  0.18718173195E+04  0.18718173195E+04  0.25500000000E-02 0. -1.
         -2   -1    0    0    0  501 -0.00000000000E+00 -0.00000000000E+00 -0.12043848560E+03  0.12043848563E+03  0.25500000000E-02 0.  1.
    5000001    1    1    2    0    0 -0.24366924763E+02  0.44391940432E+03  0.82623503117E+03  0.95265288080E+03  0.16500000000E+03 0.  0.
   -5000001    1    1    2    0    0  0.24366924763E+02 -0.44391940432E+03  0.92514380276E+03  0.10396029244E+04  0.16500000000E+03 0.  0.
<mgrwt>
<rscale>  0 0.94960801E+03</rscale>
<asrwt>0</asrwt>
<pdfrwt beam="1">  1        2 0.26740244E+00 0.94960801E+03</pdfrwt>
<pdfrwt beam="2">  1       -2 0.17205500E-01 0.94960801E+03</pdfrwt>
<totfact> 0.25999444E+02</totfact>
</mgrwt>
</event>
<event>
 4    1  0.5280257E-005  0.6319692E+03  0.7818608E-02  0.9841214E-01
          2   -1    0    0  501    0  0.00000000000E+00  0.00000000000E+00  0.10694622060E+04  0.10694622060E+04  0.25500000000E-02 0.  1.
         -2   -1    0    0    0  501 -0.00000000000E+00 -0.00000000000E+00 -0.93361180778E+02  0.93361180813E+02  0.25500000000E-02 0. -1.
    5000001    1    1    2    0    0  0.24344329234E+03  0.11440392367E+03  0.51819284048E+03  0.60671386523E+03  0.16500000000E+03 0.  0.
   -5000001    1    1    2    0    0 -0.24344329234E+03 -0.11440392367E+03  0.45790818470E+03  0.55610952154E+03  0.16500000000E+03 0.  0.
<mgrwt>
<rscale>  0 0.63196916E+03</rscale>
<asrwt>0</asrwt>
<pdfrwt beam="1">  1        2 0.15278032E+00 0.63196916E+03</pdfrwt>
<pdfrwt beam="2">  1       -2 0.13337311E-01 0.63196916E+03</pdfrwt>
<totfact> 0.10938863E+03</totfact>
</mgrwt>
</event>
<event>
 4    1  0.5280257E-005  0.7704993E+03  0.7818608E-02  0.9603728E-01
          2   -1    0    0  501    0  0.00000000000E+00  0.00000000000E+00  0.38148352756E+03  0.38148352757E+03  0.25500000000E-02 0.  1.
         -2   -1    0    0    0  501 -0.00000000000E+00 -0.00000000000E+00 -0.38905298036E+03  0.38905298037E+03  0.25500000000E-02 0. -1.
    5000001    1    1    2    0    0  0.27652121773E+03 -0.17704982881E+02  0.20697376023E+03  0.38319784407E+03  0.16500000000E+03 0.  0.
   -5000001    1    1    2    0    0 -0.27652121773E+03  0.17704982881E+02 -0.21454321303E+03  0.38733866387E+03  0.16500000000E+03 0.  0.
<mgrwt>
<rscale>  0 0.77049933E+03</rscale>
<asrwt>0</asrwt>
<pdfrwt beam="1">  1        2 0.54497647E-01 0.77049933E+03</pdfrwt>
<pdfrwt beam="2">  1       -2 0.55578997E-01 0.77049933E+03</pdfrwt>
<totfact> 0.27950999E+02</totfact>
</mgrwt>
</event>
<event>
 4    1  0.5280257E-005  0.6343042E+03  0.7818608E-02  0.9836685E-01
         -2   -1    0    0    0  501 -0.00000000000E+00  0.00000000000E+00  0.88947066612E+03  0.88947066612E+03  0.25500000000E-02 0. -1.
          2   -1    0    0  501    0  0.00000000000E+00 -0.00000000000E+00 -0.11308462557E+03  0.11308462560E+03  0.25500000000E-02 0.  1.
    5000001    1    1    2    0    0  0.15554273404E+03  0.20518357005E+03  0.25532620065E+03  0.39838462354E+03  0.16500000000E+03 0.  0.
   -5000001    1    1    2    0    0 -0.15554273404E+03 -0.20518357005E+03  0.52105983990E+03  0.60417066818E+03  0.16500000000E+03 0.  0.
<mgrwt>
<rscale>  0 0.63430421E+03</rscale>
<asrwt>0</asrwt>
<pdfrwt beam="1">  1        2 0.16154946E-01 0.63430421E+03</pdfrwt>
<pdfrwt beam="2">  1       -2 0.12706724E+00 0.63430421E+03</pdfrwt>
<totfact> 0.17084933E+02</totfact>
</mgrwt>
</event>
<event>
 4    1  0.5280257E-005  0.4035361E+03  0.7818608E-02  0.1042562E+00
          2   -1    0    0  501    0  0.00000000000E+00  0.00000000000E+00  0.32290453530E+03  0.32290453531E+03  0.25500000000E-02 0.  1.
         -2   -1    0    0    0  501 -0.00000000000E+00 -0.00000000000E+00 -0.12607551560E+03  0.12607551562E+03  0.25500000000E-02 0. -1.
    5000001    1    1    2    0    0  0.37680819961E+02  0.10388978014E+03  0.13810264807E+03  0.24188896630E+03  0.16500000000E+03 0.  0.
   -5000001    1    1    2    0    0 -0.37680819961E+02 -0.10388978014E+03  0.58726371629E+02  0.20709108464E+03  0.16500000000E+03 0.  0.
<mgrwt>
<rscale>  0 0.40353615E+03</rscale>
<asrwt>0</asrwt>
<pdfrwt beam="1">  1        2 0.46129219E-01 0.40353615E+03</pdfrwt>
<pdfrwt beam="2">  1       -2 0.18010788E-01 0.40353615E+03</pdfrwt>
<totfact> 0.27719082E+03</totfact>
</mgrwt>
</event>
<event>
 4    1  0.5280257E-005  0.7812766E+03  0.7818608E-02  0.9587521E-01
         -2   -1    0    0    0  501 -0.00000000000E+00  0.00000000000E+00  0.14010992167E+03  0.14010992169E+03  0.25500000000E-02 0. -1.
          2   -1    0    0  501    0  0.00000000000E+00 -0.00000000000E+00 -0.10891325896E+04  0.10891325896E+04  0.25500000000E-02 0.  1.
    5000001    1    1    2    0    0  0.35313906227E+03  0.18749197899E+02 -0.44660652490E+03  0.59307766591E+03  0.16500000000E+03 0.  0.
   -5000001    1    1    2    0    0 -0.35313906227E+03 -0.18749197899E+02 -0.50241614305E+03  0.63616484540E+03  0.16500000000E+03 0.  0.
<mgrwt>
<rscale>  0 0.78127660E+03</rscale>
<asrwt>0</asrwt>
<pdfrwt beam="1">  1        2 0.15559037E+00 0.78127660E+03</pdfrwt>
<pdfrwt beam="2">  1       -2 0.20015704E-01 0.78127660E+03</pdfrwt>
<totfact> 0.53022153E+02</totfact>
</mgrwt>
</event>
<event>
 4    1  0.5280257E-005  0.7266624E+03  0.7818608E-02  0.9672692E-01
          2   -1    0    0  501    0  0.00000000000E+00  0.00000000000E+00  0.18566695351E+04  0.18566695351E+04  0.25500000000E-02 0.  1.
         -2   -1    0    0    0  501 -0.00000000000E+00 -0.00000000000E+00 -0.71100196099E+02  0.71100196144E+02  0.25500000000E-02 0. -1.
    5000001    1    1    2    0    0  0.50542617321E+02 -0.31724796558E+03  0.78720885680E+03  0.86609676830E+03  0.16500000000E+03 0.  0.
   -5000001    1    1    2    0    0 -0.50542617321E+02  0.31724796558E+03  0.99836048217E+03  0.10616729629E+04  0.16500000000E+03 0.  0.
<mgrwt>
<rscale>  0 0.72666242E+03</rscale>
<asrwt>0</asrwt>
<pdfrwt beam="1">  1        2 0.26523854E+00 0.72666242E+03</pdfrwt>
<pdfrwt beam="2">  1       -2 0.10157170E-01 0.72666242E+03</pdfrwt>
<totfact> 0.64801119E+02</totfact>
</mgrwt>
</event>
<event>
 4    1  0.5280257E-005  0.5476897E+03  0.7818608E-02  0.1002030E+00
          2   -1    0    0  501    0  0.00000000000E+00  0.00000000000E+00  0.25258481850E+04  0.25258481850E+04  0.25500000000E-02 0.  1.
         -2   -1    0    0    0  501 -0.00000000000E+00 -0.00000000000E+00 -0.29689436200E+02  0.29689436310E+02  0.25500000000E-02 0. -1.
    5000001    1    1    2    0    0  0.15329060003E+03  0.13739501930E+03  0.90549573924E+03  0.94314523440E+03  0.16500000000E+03 0.  0.
   -5000001    1    1    2    0    0 -0.15329060003E+03 -0.13739501930E+03  0.15906630095E+04  0.16123923869E+04  0.16500000000E+03 0.  0.
<mgrwt>
<rscale>  0 0.54768972E+03</rscale>
<asrwt>0</asrwt>
<pdfrwt beam="1">  1        2 0.36083561E+00 0.54768972E+03</pdfrwt>
<pdfrwt beam="2">  1       -2 0.42413462E-02 0.54768972E+03</pdfrwt>
<totfact> 0.11921567E+03</totfact>
</mgrwt>
</event>
<event>
 4    1  0.5280257E-005  0.4842963E+03  0.7818608E-02  0.1017961E+00
         -2   -1    0    0    0  501 -0.00000000000E+00  0.00000000000E+00  0.16151464543E+04  0.16151464543E+04  0.25500000000E-02 0. -1.
          2   -1    0    0  501    0  0.00000000000E+00 -0.00000000000E+00 -0.36303655833E+02  0.36303655923E+02  0.25500000000E-02 0.  1.
    5000001    1    1    2    0    0 -0.13075338830E+03  0.11927357860E+03  0.75741714621E+03  0.79512789442E+03  0.16500000000E+03 0.  0.
   -5000001    1    1    2    0    0  0.13075338830E+03 -0.11927357860E+03  0.82142565226E+03  0.85632221581E+03  0.16500000000E+03 0.  0.
<mgrwt>
<rscale>  0 0.48429628E+03</rscale>
<asrwt>0</asrwt>
<pdfrwt beam="1">  1        2 0.51862347E-02 0.48429628E+03</pdfrwt>
<pdfrwt beam="2">  1       -2 0.23073529E+00 0.48429628E+03</pdfrwt>
<totfact> 0.13832007E+02</totfact>
</mgrwt>
</event>
<event>
 4    1  0.5280257E-005  0.5614582E+03  0.7818608E-02  0.9988761E-01
          2   -1    0    0  501    0  0.00000000000E+00  0.00000000000E+00  0.53556623865E+03  0.53556623865E+03  0.25500000000E-02 0.  1.
         -2   -1    0    0    0  501 -0.00000000000E+00 -0.00000000000E+00 -0.14715045820E+03  0.14715045822E+03  0.25500000000E-02 0. -1.
    5000001    1    1    2    0    0  0.20005990611E+03 -0.93547892486E+02  0.25865024612E+03  0.37802132749E+03  0.16500000000E+03 0.  0.
   -5000001    1    1    2    0    0 -0.20005990611E+03  0.93547892486E+02  0.12976553433E+03  0.30469536938E+03  0.16500000000E+03 0.  0.
<mgrwt>
<rscale>  0 0.56145816E+03</rscale>
<asrwt>0</asrwt>
<pdfrwt beam="1">  1        2 0.76509463E-01 0.56145816E+03</pdfrwt>
<pdfrwt beam="2">  1       -2 0.21021494E-01 0.56145816E+03</pdfrwt>
<totfact> 0.12125904E+03</totfact>
</mgrwt>
</event>
<event>
 4    1  0.5280257E-005  0.4034539E+03  0.7818608E-02  0.1042590E+00
          2   -1    0    0  501    0  0.00000000000E+00  0.00000000000E+00  0.31958411683E+03  0.31958411684E+03  0.25500000000E-02 0.  1.
         -2   -1    0    0    0  501 -0.00000000000E+00 -0.00000000000E+00 -0.12733349788E+03  0.12733349791E+03  0.25500000000E-02 0. -1.
    5000001    1    1    2    0    0 -0.41447542757E+02  0.10050736608E+03  0.51140951596E+02  0.20410787924E+03  0.16500000000E+03 0.  0.
   -5000001    1    1    2    0    0  0.41447542757E+02 -0.10050736608E+03  0.14110966735E+03  0.24280973551E+03  0.16500000000E+03 0.  0.
<mgrwt>
<rscale>  0 0.40345391E+03</rscale>
<asrwt>0</asrwt>
<pdfrwt beam="1">  1        2 0.45654875E-01 0.40345391E+03</pdfrwt>
<pdfrwt beam="2">  1       -2 0.18190499E-01 0.40345391E+03</pdfrwt>
<totfact> 0.27562751E+03</totfact>
</mgrwt>
</event>
<event>
 4    1  0.5280257E-005  0.5701454E+03  0.7818608E-02  0.9969357E-01
         -2   -1    0    0    0  501 -0.00000000000E+00  0.00000000000E+00  0.92774045460E+02  0.92774045496E+02  0.25500000000E-02 0. -1.
          2   -1    0    0  501    0  0.00000000000E+00 -0.00000000000E+00 -0.87596087550E+03  0.87596087551E+03  0.25500000000E-02 0.  1.
    5000001    1    1    2    0    0 -0.79267566571E+02  0.21566712850E+03 -0.45156416174E+03  0.53285162062E+03  0.16500000000E+03 0.  0.
   -5000001    1    1    2    0    0  0.79267566571E+02 -0.21566712850E+03 -0.33162266830E+03  0.43588330039E+03  0.16500000000E+03 0.  0.
<mgrwt>
<rscale>  0 0.57014536E+03</rscale>
<asrwt>0</asrwt>
<pdfrwt beam="1">  1        2 0.12513726E+00 0.57014536E+03</pdfrwt>
<pdfrwt beam="2">  1       -2 0.13253436E-01 0.57014536E+03</pdfrwt>
<totfact> 0.14588007E+03</totfact>
</mgrwt>
</event>
<event>
 4    1  0.5280257E-005  0.5720580E+03  0.7818608E-02  0.9965135E-01
          2   -1    0    0  501    0  0.00000000000E+00  0.00000000000E+00  0.34345531857E+03  0.34345531858E+03  0.25500000000E-02 0.  1.
         -2   -1    0    0    0  501 -0.00000000000E+00 -0.00000000000E+00 -0.23820445508E+03  0.23820445509E+03  0.25500000000E-02 0. -1.
    5000001    1    1    2    0    0  0.17917730866E+03  0.11801785486E+03  0.14667039733E+03  0.30784724695E+03  0.16500000000E+03 0.  0.
   -5000001    1    1    2    0    0 -0.17917730866E+03 -0.11801785486E+03 -0.41419533840E+02  0.27381252672E+03  0.16500000000E+03 0.  0.
<mgrwt>
<rscale>  0 0.57205799E+03</rscale>
<asrwt>0</asrwt>
<pdfrwt beam="1">  1        2 0.49065045E-01 0.57205799E+03</pdfrwt>
<pdfrwt beam="2">  1       -2 0.34029208E-01 0.57205799E+03</pdfrwt>
<totfact> 0.83212550E+02</totfact>
</mgrwt>
</event>
<event>
 4    1  0.5280257E-005  0.4038335E+03  0.7818608E-02  0.1042460E+00
          2   -1    0    0  501    0  0.00000000000E+00  0.00000000000E+00  0.14868216328E+04  0.14868216328E+04  0.25500000000E-02 0.  1.
         -2   -1    0    0    0  501 -0.00000000000E+00 -0.00000000000E+00 -0.27421158987E+02  0.27421159106E+02  0.25500000000E-02 0. -1.
    5000001    1    1    2    0    0 -0.76720100724E+01  0.11612953910E+03  0.72720485834E+03  0.75471639414E+03  0.16500000000E+03 0.  0.
   -5000001    1    1    2    0    0  0.76720100724E+01 -0.11612953910E+03  0.73219561550E+03  0.75952639779E+03  0.16500000000E+03 0.  0.
<mgrwt>
<rscale>  0 0.40383349E+03</rscale>
<asrwt>0</asrwt>
<pdfrwt beam="1">  1        2 0.21240317E+00 0.40383349E+03</pdfrwt>
<pdfrwt beam="2">  1       -2 0.39173069E-02 0.40383349E+03</pdfrwt>
<totfact> 0.45084963E+03</totfact>
</mgrwt>
</event>
<event>
 4    1  0.5280257E-005  0.8055181E+03  0.7818608E-02  0.9552064E-01
         -2   -1    0    0    0  501 -0.00000000000E+00  0.00000000000E+00  0.28688900602E+03  0.28688900603E+03  0.25500000000E-02 0. -1.
          2   -1    0    0  501    0  0.00000000000E+00 -0.00000000000E+00 -0.56542728317E+03  0.56542728318E+03  0.25500000000E-02 0.  1.
    5000001    1    1    2    0    0  0.75261411984E+02 -0.19368914387E+03 -0.45987444474E+03  0.53093245287E+03  0.16500000000E+03 0.  0.
   -5000001    1    1    2    0    0 -0.75261411984E+02  0.19368914387E+03  0.18133616759E+03  0.32138383634E+03  0.16500000000E+03 0.  0.
<mgrwt>
<rscale>  0 0.80551815E+03</rscale>
<asrwt>0</asrwt>
<pdfrwt beam="1">  1        2 0.80775326E-01 0.80551815E+03</pdfrwt>
<pdfrwt beam="2">  1       -2 0.40984144E-01 0.80551815E+03</pdfrwt>
<totfact> 0.32976192E+02</totfact>
</mgrwt>
</event>
<event>
 4    1  0.5280257E-005  0.4247572E+03  0.7818608E-02  0.1035529E+00
          2   -1    0    0  501    0  0.00000000000E+00  0.00000000000E+00  0.12396929562E+03  0.12396929565E+03  0.25500000000E-02 0.  1.
         -2   -1    0    0    0  501 -0.00000000000E+00 -0.00000000000E+00 -0.36383750853E+03  0.36383750853E+03  0.25500000000E-02 0. -1.
    5000001    1    1    2    0    0 -0.37493749933E+02  0.12834841340E+03 -0.11905710749E+03  0.24347215724E+03  0.16500000000E+03 0.  0.
   -5000001    1    1    2    0    0  0.37493749933E+02 -0.12834841340E+03 -0.12081110541E+03  0.24433464695E+03  0.16500000000E+03 0.  0.
<mgrwt>
<rscale>  0 0.42475725E+03</rscale>
<asrwt>0</asrwt>
<pdfrwt beam="1">  1        2 0.17709900E-01 0.42475725E+03</pdfrwt>
<pdfrwt beam="2">  1       -2 0.51976786E-01 0.42475725E+03</pdfrwt>
<totfact> 0.11460841E+03</totfact>
</mgrwt>
</event>
<event>
 4    1  0.5280257E-005  0.3902913E+03  0.7818608E-02  0.1047194E+00
          2   -1    0    0  501    0  0.00000000000E+00  0.00000000000E+00  0.31544616053E+03  0.31544616054E+03  0.25500000000E-02 0.  1.
         -2   -1    0    0    0  501 -0.00000000000E+00 -0.00000000000E+00 -0.12072368922E+03  0.12072368924E+03  0.25500000000E-02 0. -1.
    5000001    1    1    2    0    0 -0.35275993155E+02  0.96843827927E+02  0.80276920439E+02  0.21045785007E+03  0.16500000000E+03 0.  0.
   -5000001    1    1    2    0    0  0.35275993155E+02 -0.96843827927E+02  0.11444555087E+03  0.22571199971E+03  0.16500000000E+03 0.  0.
<mgrwt>
<rscale>  0 0.39029130E+03</rscale>
<asrwt>0</asrwt>
<pdfrwt beam="1">  1        2 0.45063737E-01 0.39029130E+03</pdfrwt>
<pdfrwt beam="2">  1       -2 0.17246242E-01 0.39029130E+03</pdfrwt>
<totfact> 0.30588333E+03</totfact>
</mgrwt>
</event>
<event>
 4    1  0.5280257E-005  0.6666118E+03  0.7818608E-02  0.9776098E-01
         -2   -1    0    0    0  501 -0.00000000000E+00  0.00000000000E+00  0.17877832820E+03  0.17877832822E+03  0.25500000000E-02 0. -1.
          2   -1    0    0  501    0  0.00000000000E+00 -0.00000000000E+00 -0.62139984149E+03  0.62139984150E+03  0.25500000000E-02 0.  1.
    5000001    1    1    2    0    0 -0.16039925844E+03 -0.14252713587E+03  0.12147069933E+02  0.27095102486E+03  0.16500000000E+03 0.  0.
   -5000001    1    1    2    0    0  0.16039925844E+03  0.14252713587E+03 -0.45476858322E+03  0.52922714485E+03  0.16500000000E+03 0.  0.
<mgrwt>
<rscale>  0 0.66661181E+03</rscale>
<asrwt>0</asrwt>
<pdfrwt beam="1">  1        2 0.88771405E-01 0.66661181E+03</pdfrwt>
<pdfrwt beam="2">  1       -2 0.25539762E-01 0.66661181E+03</pdfrwt>
<totfact> 0.72005251E+02</totfact>
</mgrwt>
</event>
<event>
 4    1  0.5280257E-005  0.6829808E+03  0.7818608E-02  0.9746788E-01
         -2   -1    0    0    0  501 -0.00000000000E+00  0.00000000000E+00  0.12122938210E+03  0.12122938213E+03  0.25500000000E-02 0. -1.
          2   -1    0    0  501    0  0.00000000000E+00 -0.00000000000E+00 -0.96194241228E+03  0.96194241228E+03  0.25500000000E-02 0.  1.
    5000001    1    1    2    0    0 -0.17786229504E+03  0.20669990252E+03 -0.22591881752E+03  0.39067141924E+03  0.16500000000E+03 0.  0.
   -5000001    1    1    2    0    0  0.17786229504E+03 -0.20669990252E+03 -0.61479421266E+03  0.69250037517E+03  0.16500000000E+03 0.  0.
<mgrwt>
<rscale>  0 0.68298077E+03</rscale>
<asrwt>0</asrwt>
<pdfrwt beam="1">  1        2 0.13742034E+00 0.68298077E+03</pdfrwt>
<pdfrwt beam="2">  1       -2 0.17318484E-01 0.68298077E+03</pdfrwt>
<totfact> 0.81652553E+02</totfact>
</mgrwt>
</event>
<event>
 4    1  0.5280257E-005  0.4880640E+03  0.7818608E-02  0.1016942E+00
         -2   -1    0    0    0  501 -0.00000000000E+00  0.00000000000E+00  0.14527361424E+03  0.14527361427E+03  0.25500000000E-02 0. -1.
          2   -1    0    0  501    0  0.00000000000E+00 -0.00000000000E+00 -0.40992734533E+03  0.40992734534E+03  0.25500000000E-02 0.  1.
    5000001    1    1    2    0    0  0.80849188059E+02 -0.15354031895E+03 -0.18586954348E+03  0.30312325537E+03  0.16500000000E+03 0.  0.
   -5000001    1    1    2    0    0 -0.80849188059E+02  0.15354031895E+03 -0.78784187602E+02  0.25207770423E+03  0.16500000000E+03 0.  0.
<mgrwt>
<rscale>  0 0.48806404E+03</rscale>
<asrwt>0</asrwt>
<pdfrwt beam="1">  1        2 0.58561049E-01 0.48806404E+03</pdfrwt>
<pdfrwt beam="2">  1       -2 0.20753374E-01 0.48806404E+03</pdfrwt>
<totfact> 0.16747391E+03</totfact>
</mgrwt>
</event>
<event>
 4    1  0.5280257E-005  0.8400708E+03  0.7818608E-02  0.9503761E-01
         -2   -1    0    0    0  501 -0.00000000000E+00  0.00000000000E+00  0.34607571756E+03  0.34607571757E+03  0.25500000000E-02 0. -1.
          2   -1    0    0  501    0  0.00000000000E+00 -0.00000000000E+00 -0.50980096120E+03  0.50980096120E+03  0.25500000000E-02 0.  1.
    5000001    1    1    2    0    0  0.25420586780E+03 -0.28715721607E+03 -0.12882594086E+03  0.43692220476E+03  0.16500000000E+03 0.  0.
   -5000001    1    1    2    0    0 -0.25420586780E+03  0.28715721607E+03 -0.34899302769E+02  0.41895447402E+03  0.16500000000E+03 0.  0.
<mgrwt>
<rscale>  0 0.84007079E+03</rscale>
<asrwt>0</asrwt>
<pdfrwt beam="1">  1        2 0.72828708E-01 0.84007079E+03</pdfrwt>
<pdfrwt beam="2">  1       -2 0.49439389E-01 0.84007079E+03</pdfrwt>
<totfact> 0.25551812E+02</totfact>
</mgrwt>
</event>
<event>
 4    1  0.5280257E-005  0.4976445E+03  0.7818608E-02  0.1014396E+00
         -2   -1    0    0    0  501 -0.00000000000E+00  0.00000000000E+00  0.79606324162E+02  0.79606324203E+02  0.25500000000E-02 0. -1.
          2   -1    0    0  501    0  0.00000000000E+00 -0.00000000000E+00 -0.77773353364E+03  0.77773353364E+03  0.25500000000E-02 0.  1.
    5000001    1    1    2    0    0  0.25524571545E+02  0.18413276552E+03 -0.36879158970E+03  0.44473432038E+03  0.16500000000E+03 0.  0.
   -5000001    1    1    2    0    0 -0.25524571545E+02 -0.18413276552E+03 -0.32933561977E+03  0.41260553746E+03  0.16500000000E+03 0.  0.
<mgrwt>
<rscale>  0 0.49764448E+03</rscale>
<asrwt>0</asrwt>
<pdfrwt beam="1">  1        2 0.11110479E+00 0.49764448E+03</pdfrwt>
<pdfrwt beam="2">  1       -2 0.11372333E-01 0.49764448E+03</pdfrwt>
<totfact> 0.21879618E+03</totfact>
</mgrwt>
</event>
<event>
 4    1  0.5280257E-005  0.8203942E+03  0.7818608E-02  0.9530958E-01
         -2   -1    0    0    0  501 -0.00000000000E+00  0.00000000000E+00  0.11509130807E+03  0.11509130809E+03  0.25500000000E-02 0. -1.
          2   -1    0    0  501    0  0.00000000000E+00 -0.00000000000E+00 -0.14619842237E+04  0.14619842237E+04  0.25500000000E-02 0.  1.
    5000001    1    1    2    0    0 -0.15570762457E+03 -0.30460928303E+03 -0.97128487851E+03  0.10429050747E+04  0.16500000000E+03 0.  0.
   -5000001    1    1    2    0    0  0.15570762457E+03  0.30460928303E+03 -0.37560803711E+03  0.53417045707E+03  0.16500000000E+03 0.  0.
<mgrwt>
<rscale>  0 0.82039424E+03</rscale>
<asrwt>0</asrwt>
<pdfrwt beam="1">  1        2 0.20885488E+00 0.82039424E+03</pdfrwt>
<pdfrwt beam="2">  1       -2 0.16441616E-01 0.82039424E+03</pdfrwt>
<totfact> 0.46172726E+02</totfact>
</mgrwt>
</event>
<event>
 4    1  0.5280257E-005  0.4753850E+03  0.7818608E-02  0.1020411E+00
         -2   -1    0    0    0  501 -0.00000000000E+00  0.00000000000E+00  0.21864763430E+03  0.21864763432E+03  0.25500000000E-02 0. -1.
          2   -1    0    0  501    0  0.00000000000E+00 -0.00000000000E+00 -0.25839624006E+03  0.25839624007E+03  0.25500000000E-02 0.  1.
    5000001    1    1    2    0    0  0.13561915284E+02 -0.14579662131E+03  0.68933931642E+02  0.23112219119E+03  0.16500000000E+03 0.  0.
   -5000001    1    1    2    0    0 -0.13561915284E+02  0.14579662131E+03 -0.10868253740E+03  0.24592168320E+03  0.16500000000E+03 0.  0.
<mgrwt>
<rscale>  0 0.47538501E+03</rscale>
<asrwt>0</asrwt>
<pdfrwt beam="1">  1        2 0.36913748E-01 0.47538501E+03</pdfrwt>
<pdfrwt beam="2">  1       -2 0.31235377E-01 0.47538501E+03</pdfrwt>
<totfact> 0.13356462E+03</totfact>
</mgrwt>
</event>
<event>
 4    1  0.5280257E-005  0.9163375E+03  0.7818608E-02  0.9405386E-01
          2   -1    0    0  501    0  0.00000000000E+00  0.00000000000E+00  0.79752502159E+03  0.79752502159E+03  0.25500000000E-02 0.  1.
         -2   -1    0    0    0  501 -0.00000000000E+00 -0.00000000000E+00 -0.26321254732E+03  0.26321254733E+03  0.25500000000E-02 0. -1.
    5000001    1    1    2    0    0  0.25581167007E+03 -0.28673947748E+03  0.50485540769E+02  0.42122788169E+03  0.16500000000E+03 0.  0.
   -5000001    1    1    2    0    0 -0.25581167007E+03  0.28673947748E+03  0.48382693350E+03  0.63950968723E+03  0.16500000000E+03 0.  0.
<mgrwt>
<rscale>  0 0.91633748E+03</rscale>
<asrwt>0</asrwt>
<pdfrwt beam="1">  1        2 0.11393215E+00 0.91633748E+03</pdfrwt>
<pdfrwt beam="2">  1       -2 0.37601792E-01 0.91633748E+03</pdfrwt>
<totfact> 0.25469013E+02</totfact>
</mgrwt>
</event>
<event>
 4    1  0.5280257E-005  0.3815654E+03  0.7818608E-02  0.1050357E+00
         -2   -1    0    0    0  501 -0.00000000000E+00  0.00000000000E+00  0.72671690690E+02  0.72671690735E+02  0.25500000000E-02 0. -1.
          2   -1    0    0  501    0  0.00000000000E+00 -0.00000000000E+00 -0.50085591583E+03  0.50085591584E+03  0.25500000000E-02 0.  1.
    5000001    1    1    2    0    0  0.79804177911E+02  0.42056877313E+02 -0.16572250008E+03  0.25065201929E+03  0.16500000000E+03 0.  0.
   -5000001    1    1    2    0    0 -0.79804177911E+02 -0.42056877313E+02 -0.26246172506E+03  0.32287558728E+03  0.16500000000E+03 0.  0.
<mgrwt>
<rscale>  0 0.38156544E+03</rscale>
<asrwt>0</asrwt>
<pdfrwt beam="1">  1        2 0.71550843E-01 0.38156544E+03</pdfrwt>
<pdfrwt beam="2">  1       -2 0.10381670E-01 0.38156544E+03</pdfrwt>
<totfact> 0.42465334E+03</totfact>
</mgrwt>
</event>
<event>
 4    1  0.5280257E-005  0.9002066E+03  0.7818608E-02  0.9425323E-01
          2   -1    0    0  501    0  0.00000000000E+00  0.00000000000E+00  0.16387311340E+04  0.16387311340E+04  0.25500000000E-02 0.  1.
         -2   -1    0    0    0  501 -0.00000000000E+00 -0.00000000000E+00 -0.12362795253E+03  0.12362795256E+03  0.25500000000E-02 0. -1.
    5000001    1    1    2    0    0  0.17367791128E+03 -0.16471488213E+03  0.14302609210E+04  0.14595089282E+04  0.16500000000E+03 0.  0.
   -5000001    1    1    2    0    0 -0.17367791128E+03  0.16471488213E+03  0.84842260429E+02  0.30285015836E+03  0.16500000000E+03 0.  0.
<mgrwt>
<rscale>  0 0.90020659E+03</rscale>
<asrwt>0</asrwt>
<pdfrwt beam="1">  1        2 0.23410443E+00 0.90020659E+03</pdfrwt>
<pdfrwt beam="2">  1       -2 0.17661138E-01 0.90020659E+03</pdfrwt>
<totfact> 0.32848042E+02</totfact>
</mgrwt>
</event>
<event>
 4    1  0.5280257E-005  0.4079964E+03  0.7818608E-02  0.1041045E+00
          2   -1    0    0  501    0  0.00000000000E+00  0.00000000000E+00  0.32357426701E+04  0.32357426701E+04  0.25500000000E-02 0.  1.
         -2   -1    0    0    0  501 -0.00000000000E+00 -0.00000000000E+00 -0.12861119048E+02  0.12861119301E+02  0.25500000000E-02 0. -1.
    5000001    1    1    2    0    0 -0.75362965240E+02  0.26486302877E+02  0.89885988156E+03  0.91736317097E+03  0.16500000000E+03 0.  0.
   -5000001    1    1    2    0    0  0.75362965240E+02 -0.26486302877E+02  0.23240216695E+04  0.23312406185E+04  0.16500000000E+03 0.  0.
<mgrwt>
<rscale>  0 0.40799643E+03</rscale>
<asrwt>0</asrwt>
<pdfrwt beam="1">  1        2 0.46224897E+00 0.40799643E+03</pdfrwt>
<pdfrwt beam="2">  1       -2 0.18373027E-02 0.40799643E+03</pdfrwt>
<totfact> 0.17850806E+03</totfact>
</mgrwt>
</event>
<event>
 4    1  0.5280257E-005  0.6917271E+03  0.7818608E-02  0.9731485E-01
          2   -1    0    0  501    0  0.00000000000E+00  0.00000000000E+00  0.73432322222E+03  0.73432322222E+03  0.25500000000E-02 0.  1.
         -2   -1    0    0    0  501 -0.00000000000E+00 -0.00000000000E+00 -0.16290047272E+03  0.16290047274E+03  0.25500000000E-02 0. -1.
    5000001    1    1    2    0    0 -0.25402606903E+03 -0.79424797970E+02  0.95261442180E+02  0.32731832312E+03  0.16500000000E+03 0.  0.
   -5000001    1    1    2    0    0  0.25402606903E+03  0.79424797970E+02  0.47616130731E+03  0.56990537185E+03  0.16500000000E+03 0.  0.
<mgrwt>
<rscale>  0 0.69172711E+03</rscale>
<asrwt>0</asrwt>
<pdfrwt beam="1">  1        2 0.10490332E+00 0.69172711E+03</pdfrwt>
<pdfrwt beam="2">  1       -2 0.23271497E-01 0.69172711E+03</pdfrwt>
<totfact> 0.69384991E+02</totfact>
</mgrwt>
</event>
<event>
 4    1  0.5280257E-005  0.4257621E+03  0.7818608E-02  0.1035207E+00
         -2   -1    0    0    0  501 -0.00000000000E+00  0.00000000000E+00  0.34495240118E+02  0.34495240212E+02  0.25500000000E-02 0. -1.
          2   -1    0    0  501    0  0.00000000000E+00 -0.00000000000E+00 -0.13137562223E+04  0.13137562223E+04  0.25500000000E-02 0.  1.
    5000001    1    1    2    0    0  0.89577446922E+02  0.87453628265E+02 -0.79544522531E+03  0.82196737318E+03  0.16500000000E+03 0.  0.
   -5000001    1    1    2    0    0 -0.89577446922E+02 -0.87453628265E+02 -0.48381575685E+03  0.52628408932E+03  0.16500000000E+03 0.  0.
<mgrwt>
<rscale>  0 0.42576208E+03</rscale>
<asrwt>0</asrwt>
<pdfrwt beam="1">  1        2 0.18767943E+00 0.42576208E+03</pdfrwt>
<pdfrwt beam="2">  1       -2 0.49278923E-02 0.42576208E+03</pdfrwt>
<totfact> 0.39123443E+03</totfact>
</mgrwt>
</event>
<event>
 4    1  0.5280257E-005  0.5154723E+03  0.7818608E-02  0.1009818E+00
          2   -1    0    0  501    0  0.00000000000E+00  0.00000000000E+00  0.32884495201E+03  0.32884495202E+03  0.25500000000E-02 0.  1.
         -2   -1    0    0    0  501 -0.00000000000E+00 -0.00000000000E+00 -0.20200377350E+03  0.20200377351E+03  0.25500000000E-02 0. -1.
    5000001    1    1    2    0    0 -0.83752438548E+02  0.17930792827E+03  0.69694704676E+02  0.26692350208E+03  0.16500000000E+03 0.  0.
   -5000001    1    1    2    0    0  0.83752438548E+02 -0.17930792827E+03  0.57146473833E+02  0.26392522345E+03  0.16500000000E+03 0.  0.
<mgrwt>
<rscale>  0 0.51547229E+03</rscale>
<asrwt>0</asrwt>
<pdfrwt beam="1">  1        2 0.46977850E-01 0.51547229E+03</pdfrwt>
<pdfrwt beam="2">  1       -2 0.28857682E-01 0.51547229E+03</pdfrwt>
<totfact> 0.11857867E+03</totfact>
</mgrwt>
</event>
<event>
 4    1  0.5280257E-005  0.5406373E+03  0.7818608E-02  0.1003685E+00
          2   -1    0    0  501    0  0.00000000000E+00  0.00000000000E+00  0.31452002581E+03  0.31452002582E+03  0.25500000000E-02 0. -1.
         -2   -1    0    0    0  501 -0.00000000000E+00 -0.00000000000E+00 -0.23232914406E+03  0.23232914407E+03  0.25500000000E-02 0.  1.
    5000001    1    1    2    0    0 -0.97568323008E+02  0.17618848175E+03  0.11463019980E+03  0.28447678546E+03  0.16500000000E+03 0.  0.
   -5000001    1    1    2    0    0  0.97568323008E+02 -0.17618848175E+03 -0.32439318052E+02  0.26237238443E+03  0.16500000000E+03 0.  0.
<mgrwt>
<rscale>  0 0.54063728E+03</rscale>
<asrwt>0</asrwt>
<pdfrwt beam="1">  1        2 0.44931433E-01 0.54063728E+03</pdfrwt>
<pdfrwt beam="2">  1       -2 0.33189877E-01 0.54063728E+03</pdfrwt>
<totfact> 0.96107879E+02</totfact>
</mgrwt>
</event>
<event>
 4    1  0.5280257E-005  0.4034351E+03  0.7818608E-02  0.1042597E+00
          2   -1    0    0  501    0  0.00000000000E+00  0.00000000000E+00  0.31153146826E+04  0.31153146826E+04  0.25500000000E-02 0.  1.
         -2   -1    0    0    0  501 -0.00000000000E+00 -0.00000000000E+00 -0.13061269960E+02  0.13061270209E+02  0.25500000000E-02 0. -1.
    5000001    1    1    2    0    0  0.11337646591E+02  0.86677997557E+02  0.21428677398E+04  0.21509878586E+04  0.16500000000E+03 0.  0.
   -5000001    1    1    2    0    0 -0.11337646591E+02 -0.86677997557E+02  0.95938567286E+03  0.97738809425E+03  0.16500000000E+03 0.  0.
<mgrwt>
<rscale>  0 0.40343508E+03</rscale>
<asrwt>0</asrwt>
<pdfrwt beam="1">  1        2 0.44504559E+00 0.40343508E+03</pdfrwt>
<pdfrwt beam="2">  1       -2 0.18658931E-02 0.40343508E+03</pdfrwt>
<totfact> 0.20343509E+03</totfact>
</mgrwt>
</event>
<event>
 4    1  0.5280257E-005  0.7136966E+03  0.7818608E-02  0.9694092E-01
         -2   -1    0    0    0  501 -0.00000000000E+00  0.00000000000E+00  0.33952816603E+02  0.33952816699E+02  0.25500000000E-02 0. -1.
          2   -1    0    0  501    0  0.00000000000E+00 -0.00000000000E+00 -0.37505194802E+04  0.37505194802E+04  0.25500000000E-02 0.  1.
    5000001    1    1    2    0    0 -0.10903585068E+03 -0.29207819750E+03 -0.15718816461E+04  0.16109734323E+04  0.16500000000E+03 0.  0.
   -5000001    1    1    2    0    0  0.10903585068E+03  0.29207819750E+03 -0.21446850174E+04  0.21734988646E+04  0.16500000000E+03 0.  0.
<mgrwt>
<rscale>  0 0.71369657E+03</rscale>
<asrwt>0</asrwt>
<pdfrwt beam="1">  1        2 0.53578823E+00 0.71369657E+03</pdfrwt>
<pdfrwt beam="2">  1       -2 0.48504048E-02 0.71369657E+03</pdfrwt>
<totfact> 0.19557164E+02</totfact>
</mgrwt>
</event>
<event>
 4    1  0.5280257E-005  0.5663443E+03  0.7818608E-02  0.9977801E-01
         -2   -1    0    0    0  501 -0.00000000000E+00  0.00000000000E+00  0.30199782808E+03  0.30199782809E+03  0.25500000000E-02 0. -1.
          2   -1    0    0  501    0  0.00000000000E+00 -0.00000000000E+00 -0.26551999822E+03  0.26551999823E+03  0.25500000000E-02 0.  1.
    5000001    1    1    2    0    0  0.22524465290E+03 -0.20242754039E+02  0.60948118267E+02  0.28650409398E+03  0.16500000000E+03 0.  0.
   -5000001    1    1    2    0    0 -0.22524465290E+03  0.20242754039E+02 -0.24470288403E+02  0.28101373234E+03  0.16500000000E+03 0.  0.
<mgrwt>
<rscale>  0 0.56634429E+03</rscale>
<asrwt>0</asrwt>
<pdfrwt beam="1">  1        2 0.37931429E-01 0.56634429E+03</pdfrwt>
<pdfrwt beam="2">  1       -2 0.43142547E-01 0.56634429E+03</pdfrwt>
<totfact> 0.70011357E+02</totfact>
</mgrwt>
</event>
<event>
 4    1  0.5280257E-005  0.3671608E+03  0.7818608E-02  0.1055784E+00
          2   -1    0    0  501    0  0.00000000000E+00  0.00000000000E+00  0.33014974638E+04  0.33014974638E+04  0.25500000000E-02 0.  1.
         -2   -1    0    0    0  501 -0.00000000000E+00 -0.00000000000E+00 -0.10208025309E+02  0.10208025628E+02  0.25500000000E-02 0. -1.
    5000001    1    1    2    0    0 -0.18173848056E+01 -0.77866960369E+02  0.14629629573E+04  0.14742971820E+04  0.16500000000E+03 0.  0.
   -5000001    1    1    2    0    0  0.18173848056E+01  0.77866960369E+02  0.18283264812E+04  0.18374083074E+04  0.16500000000E+03 0.  0.
<mgrwt>
<rscale>  0 0.36716084E+03</rscale>
<asrwt>0</asrwt>
<pdfrwt beam="1">  1        2 0.47164317E+00 0.36716084E+03</pdfrwt>
<pdfrwt beam="2">  1       -2 0.14582873E-02 0.36716084E+03</pdfrwt>
<totfact> 0.23175918E+03</totfact>
</mgrwt>
</event>
<event>
 4    1  0.5280257E-005  0.3892827E+03  0.7818608E-02  0.1047555E+00
          2   -1    0    0  501    0  0.00000000000E+00  0.00000000000E+00  0.25250247154E+03  0.25250247156E+03  0.25500000000E-02 0.  1.
         -2   -1    0    0    0  501 -0.00000000000E+00 -0.00000000000E+00 -0.15003915288E+03  0.15003915290E+03  0.25500000000E-02 0. -1.
    5000001    1    1    2    0    0 -0.10038738397E+02  0.10274057510E+03  0.49201397199E+02  0.20075402742E+03  0.16500000000E+03 0.  0.
   -5000001    1    1    2    0    0  0.10038738397E+02 -0.10274057510E+03  0.53261921462E+02  0.20178759704E+03  0.16500000000E+03 0.  0.
<mgrwt>
<rscale>  0 0.38928271E+03</rscale>
<asrwt>0</asrwt>
<pdfrwt beam="1">  1        2 0.36071782E-01 0.38928271E+03</pdfrwt>
<pdfrwt beam="2">  1       -2 0.21434165E-01 0.38928271E+03</pdfrwt>
<totfact> 0.26854055E+03</totfact>
</mgrwt>
</event>
<event>
 4    1  0.5280257E-005  0.4358619E+03  0.7818608E-02  0.1032024E+00
         -2   -1    0    0    0  501 -0.00000000000E+00  0.00000000000E+00  0.12077865263E+03  0.12077865265E+03  0.25500000000E-02 0. -1.
          2   -1    0    0  501    0  0.00000000000E+00 -0.00000000000E+00 -0.39323083699E+03  0.39323083699E+03  0.25500000000E-02 0.  1.
    5000001    1    1    2    0    0  0.11246752133E+03 -0.87261536722E+02 -0.13349289394E+03  0.25555600537E+03  0.16500000000E+03 0.  0.
   -5000001    1    1    2    0    0 -0.11246752133E+03  0.87261536722E+02 -0.13895929042E+03  0.25845348428E+03  0.16500000000E+03 0.  0.
<mgrwt>
<rscale>  0 0.43586186E+03</rscale>
<asrwt>0</asrwt>
<pdfrwt beam="1">  1        2 0.56175833E-01 0.43586186E+03</pdfrwt>
<pdfrwt beam="2">  1       -2 0.17254093E-01 0.43586186E+03</pdfrwt>
<totfact> 0.24061169E+03</totfact>
</mgrwt>
</event>
<event>
 4    1  0.5280257E-005  0.5013447E+03  0.7818608E-02  0.1013429E+00
          2   -1    0    0  501    0  0.00000000000E+00  0.00000000000E+00  0.38888557901E+03  0.38888557902E+03  0.25500000000E-02 0.  1.
         -2   -1    0    0    0  501 -0.00000000000E+00 -0.00000000000E+00 -0.16158129195E+03  0.16158129197E+03  0.25500000000E-02 0. -1.
    5000001    1    1    2    0    0 -0.81382974231E+02 -0.16444015599E+03  0.65192977911E+02  0.25522319206E+03  0.16500000000E+03 0.  0.
   -5000001    1    1    2    0    0  0.81382974231E+02  0.16444015599E+03  0.16211130915E+03  0.29524367893E+03  0.16500000000E+03 0.  0.
<mgrwt>
<rscale>  0 0.50134473E+03</rscale>
<asrwt>0</asrwt>
<pdfrwt beam="1">  1        2 0.55555083E-01 0.50134473E+03</pdfrwt>
<pdfrwt beam="2">  1       -2 0.23083042E-01 0.50134473E+03</pdfrwt>
<totfact> 0.14729425E+03</totfact>
</mgrwt>
</event>
<event>
 4    1  0.5280257E-005  0.4865629E+03  0.7818608E-02  0.1017347E+00
          2   -1    0    0  501    0  0.00000000000E+00  0.00000000000E+00  0.41639744516E+03  0.41639744517E+03  0.25500000000E-02 0.  1.
         -2   -1    0    0    0  501 -0.00000000000E+00 -0.00000000000E+00 -0.14213793997E+03  0.14213793999E+03  0.25500000000E-02 0. -1.
    5000001    1    1    2    0    0 -0.14365241891E+03 -0.10465055778E+03  0.15930328969E+03  0.29015563894E+03  0.16500000000E+03 0.  0.
   -5000001    1    1    2    0    0  0.14365241891E+03  0.10465055778E+03  0.11495621549E+03  0.26837974622E+03  0.16500000000E+03 0.  0.
<mgrwt>
<rscale>  0 0.48656295E+03</rscale>
<asrwt>0</asrwt>
<pdfrwt beam="1">  1        2 0.59485350E-01 0.48656295E+03</pdfrwt>
<pdfrwt beam="2">  1       -2 0.20305420E-01 0.48656295E+03</pdfrwt>
<totfact> 0.17096311E+03</totfact>
</mgrwt>
</event>
<event>
 4    1  0.5280257E-005  0.5547215E+03  0.7818608E-02  0.1000407E+00
         -2   -1    0    0    0  501 -0.00000000000E+00  0.00000000000E+00  0.54322627467E+02  0.54322627527E+02  0.25500000000E-02 0. -1.
          2   -1    0    0  501    0  0.00000000000E+00 -0.00000000000E+00 -0.14161501381E+04  0.14161501381E+04  0.25500000000E-02 0.  1.
    5000001    1    1    2    0    0  0.11939794183E+02 -0.19725249279E+03 -0.40731399345E+03  0.48185142302E+03  0.16500000000E+03 0.  0.
   -5000001    1    1    2    0    0 -0.11939794183E+02  0.19725249279E+03 -0.95451351721E+03  0.98862134264E+03  0.16500000000E+03 0.  0.
<mgrwt>
<rscale>  0 0.55472154E+03</rscale>
<asrwt>0</asrwt>
<pdfrwt beam="1">  1        2 0.20230714E+00 0.55472154E+03</pdfrwt>
<pdfrwt beam="2">  1       -2 0.77603762E-02 0.55472154E+03</pdfrwt>
<totfact> 0.16961013E+03</totfact>
</mgrwt>
</event>
<event>
 4    1  0.5280257E-005  0.4189753E+03  0.7818608E-02  0.1037400E+00
         -2   -1    0    0    0  501 -0.00000000000E+00  0.00000000000E+00  0.71405097572E+02  0.71405097618E+02  0.25500000000E-02 0. -1.
          2   -1    0    0  501    0  0.00000000000E+00 -0.00000000000E+00 -0.61459307418E+03  0.61459307419E+03  0.25500000000E-02 0.  1.
    5000001    1    1    2    0    0 -0.75171172277E+02 -0.97146349684E+02 -0.20667746161E+03  0.29159679617E+03  0.16500000000E+03 0.  0.
   -5000001    1    1    2    0    0  0.75171172277E+02  0.97146349684E+02 -0.33651051500E+03  0.39440137564E+03  0.16500000000E+03 0.  0.
<mgrwt>
<rscale>  0 0.41897531E+03</rscale>
<asrwt>0</asrwt>
<pdfrwt beam="1">  1        2 0.87799007E-01 0.41897531E+03</pdfrwt>
<pdfrwt beam="2">  1       -2 0.10200729E-01 0.41897531E+03</pdfrwt>
<totfact> 0.34635641E+03</totfact>
</mgrwt>
</event>
<event>
 4    1  0.5280257E-005  0.5934608E+03  0.7818608E-02  0.9919066E-01
          2   -1    0    0  501    0  0.00000000000E+00  0.00000000000E+00  0.15528241491E+03  0.15528241494E+03  0.25500000000E-02 0.  1.
         -2   -1    0    0    0  501 -0.00000000000E+00 -0.00000000000E+00 -0.56702454263E+03  0.56702454264E+03  0.25500000000E-02 0. -1.
    5000001    1    1    2    0    0  0.16939719554E+03 -0.17899820359E+03 -0.21729981890E+03  0.36766829893E+03  0.16500000000E+03 0.  0.
   -5000001    1    1    2    0    0 -0.16939719554E+03  0.17899820359E+03 -0.19444230882E+03  0.35463865864E+03  0.16500000000E+03 0.  0.
<mgrwt>
<rscale>  0 0.59346083E+03</rscale>
<asrwt>0</asrwt>
<pdfrwt beam="1">  1        2 0.22183202E-01 0.59346083E+03</pdfrwt>
<pdfrwt beam="2">  1       -2 0.81003505E-01 0.59346083E+03</pdfrwt>
<totfact> 0.34174630E+02</totfact>
</mgrwt>
</event>
<event>
 4    1  0.5280257E-005  0.4448958E+03  0.7818608E-02  0.1029255E+00
          2   -1    0    0  501    0  0.00000000000E+00  0.00000000000E+00  0.39991436201E+03  0.39991436202E+03  0.25500000000E-02 0.  1.
         -2   -1    0    0    0  501 -0.00000000000E+00 -0.00000000000E+00 -0.12373415764E+03  0.12373415766E+03  0.25500000000E-02 0. -1.
    5000001    1    1    2    0    0  0.14223520757E+03 -0.22492384859E+02  0.18399824639E+03  0.28603691427E+03  0.16500000000E+03 0.  0.
   -5000001    1    1    2    0    0 -0.14223520757E+03  0.22492384859E+02  0.92181957981E+02  0.23761160541E+03  0.16500000000E+03 0.  0.
<mgrwt>
<rscale>  0 0.44489579E+03</rscale>
<asrwt>0</asrwt>
<pdfrwt beam="1">  1        2 0.57130623E-01 0.44489579E+03</pdfrwt>
<pdfrwt beam="2">  1       -2 0.17676308E-01 0.44489579E+03</pdfrwt>
<totfact> 0.22672887E+03</totfact>
</mgrwt>
</event>
<event>
 4    1  0.5280257E-005  0.5686535E+03  0.7818608E-02  0.9972663E-01
          2   -1    0    0  501    0  0.00000000000E+00  0.00000000000E+00  0.11283088444E+03  0.11283088447E+03  0.25500000000E-02 0.  1.
         -2   -1    0    0    0  501 -0.00000000000E+00 -0.00000000000E+00 -0.71648548125E+03  0.71648548126E+03  0.25500000000E-02 0. -1.
    5000001    1    1    2    0    0 -0.12329548862E+03  0.15156770895E+03 -0.48305572779E+03  0.54657331078E+03  0.16500000000E+03 0.  0.
   -5000001    1    1    2    0    0  0.12329548862E+03 -0.15156770895E+03 -0.12059886903E+03  0.28274305494E+03  0.16500000000E+03 0.  0.
<mgrwt>
<rscale>  0 0.56865346E+03</rscale>
<asrwt>0</asrwt>
<pdfrwt beam="1">  1        2 0.16118698E-01 0.56865346E+03</pdfrwt>
<pdfrwt beam="2">  1       -2 0.10235507E+00 0.56865346E+03</pdfrwt>
<totfact> 0.29057768E+02</totfact>
</mgrwt>
</event>
<event>
 4    1  0.5280257E-005  0.4540998E+03  0.7818608E-02  0.1026506E+00
          2   -1    0    0  501    0  0.00000000000E+00  0.00000000000E+00  0.20077591611E+03  0.20077591613E+03  0.25500000000E-02 0.  1.
         -2   -1    0    0    0  501 -0.00000000000E+00 -0.00000000000E+00 -0.25676214115E+03  0.25676214117E+03  0.25500000000E-02 0. -1.
    5000001    1    1    2    0    0 -0.86705745520E+01  0.15011650429E+03  0.13751376062E+02  0.22366100256E+03  0.16500000000E+03 0.  0.
   -5000001    1    1    2    0    0  0.86705745520E+01 -0.15011650429E+03 -0.69737601101E+02  0.23387705473E+03  0.16500000000E+03 0.  0.
<mgrwt>
<rscale>  0 0.45409979E+03</rscale>
<asrwt>0</asrwt>
<pdfrwt beam="1">  1        2 0.28682274E-01 0.45409979E+03</pdfrwt>
<pdfrwt beam="2">  1       -2 0.36680306E-01 0.45409979E+03</pdfrwt>
<totfact> 0.13071876E+03</totfact>
</mgrwt>
</event>
<event>
 4    1  0.5280257E-005  0.7013695E+03  0.7818608E-02  0.9714893E-01
         -2   -1    0    0    0  501 -0.00000000000E+00  0.00000000000E+00  0.55564350472E+03  0.55564350473E+03  0.25500000000E-02 0. -1.
          2   -1    0    0  501    0  0.00000000000E+00 -0.00000000000E+00 -0.22132856443E+03  0.22132856444E+03  0.25500000000E-02 0.  1.
    5000001    1    1    2    0    0 -0.27229320833E+03 -0.13928951575E+03  0.11508391493E+03  0.36607986557E+03  0.16500000000E+03 0.  0.
   -5000001    1    1    2    0    0  0.27229320833E+03  0.13928951575E+03  0.21923102536E+03  0.41089220360E+03  0.16500000000E+03 0.  0.
<mgrwt>
<rscale>  0 0.70136946E+03</rscale>
<asrwt>0</asrwt>
<pdfrwt beam="1">  1        2 0.31618367E-01 0.70136946E+03</pdfrwt>
<pdfrwt beam="2">  1       -2 0.79377643E-01 0.70136946E+03</pdfrwt>
<totfact> 0.23815419E+02</totfact>
</mgrwt>
</event>
<event>
 4    1  0.5280257E-005  0.6522822E+03  0.7818608E-02  0.9802506E-01
          2   -1    0    0  501    0  0.00000000000E+00  0.00000000000E+00  0.49438973243E+03  0.49438973243E+03  0.25500000000E-02 0.  1.
         -2   -1    0    0    0  501 -0.00000000000E+00 -0.00000000000E+00 -0.21515013669E+03  0.21515013670E+03  0.25500000000E-02 0. -1.
    5000001    1    1    2    0    0 -0.48246727452E+02  0.27406115203E+03  0.18454601209E+03  0.37245065759E+03  0.16500000000E+03 0.  0.
   -5000001    1    1    2    0    0  0.48246727452E+02 -0.27406115203E+03  0.94693583653E+02  0.33708921155E+03  0.16500000000E+03 0.  0.
<mgrwt>
<rscale>  0 0.65228220E+03</rscale>
<asrwt>0</asrwt>
<pdfrwt beam="1">  1        2 0.70627103E-01 0.65228220E+03</pdfrwt>
<pdfrwt beam="2">  1       -2 0.30735734E-01 0.65228220E+03</pdfrwt>
<totfact> 0.66941398E+02</totfact>
</mgrwt>
</event>
<event>
 4    1  0.5280257E-005  0.4991405E+03  0.7818608E-02  0.1014003E+00
          2   -1    0    0  501    0  0.00000000000E+00  0.00000000000E+00  0.17197024995E+03  0.17197024997E+03  0.25500000000E-02 0.  1.
         -2   -1    0    0    0  501 -0.00000000000E+00 -0.00000000000E+00 -0.36218657259E+03  0.36218657260E+03  0.25500000000E-02 0. -1.
    5000001    1    1    2    0    0  0.11484996029E+03  0.14634428401E+03 -0.11788891984E+03  0.27519077067E+03  0.16500000000E+03 0.  0.
   -5000001    1    1    2    0    0 -0.11484996029E+03 -0.14634428401E+03 -0.72327402795E+02  0.25896605190E+03  0.16500000000E+03 0.  0.
<mgrwt>
<rscale>  0 0.49914052E+03</rscale>
<asrwt>0</asrwt>
<pdfrwt beam="1">  1        2 0.24567179E-01 0.49914052E+03</pdfrwt>
<pdfrwt beam="2">  1       -2 0.51740939E-01 0.49914052E+03</pdfrwt>
<totfact> 0.79233364E+02</totfact>
</mgrwt>
</event>
<event>
 4    1  0.5280257E-005  0.7795317E+03  0.7818608E-02  0.9590126E-01
         -2   -1    0    0    0  501 -0.00000000000E+00  0.00000000000E+00  0.13560212052E+03  0.13560212054E+03  0.25500000000E-02 0. -1.
          2   -1    0    0  501    0  0.00000000000E+00 -0.00000000000E+00 -0.11203172927E+04  0.11203172927E+04  0.25500000000E-02 0.  1.
    5000001    1    1    2    0    0  0.50005126996E+02 -0.34946514312E+03 -0.50544654722E+03  0.63822222704E+03  0.16500000000E+03 0.  0.
   -5000001    1    1    2    0    0 -0.50005126996E+02  0.34946514312E+03 -0.47926862499E+03  0.61769718624E+03  0.16500000000E+03 0.  0.
<mgrwt>
<rscale>  0 0.77953166E+03</rscale>
<asrwt>0</asrwt>
<pdfrwt beam="1">  1        2 0.16004532E+00 0.77953166E+03</pdfrwt>
<pdfrwt beam="2">  1       -2 0.19371732E-01 0.77953166E+03</pdfrwt>
<totfact> 0.53830073E+02</totfact>
</mgrwt>
</event>
<event>
 4    1  0.5280257E-005  0.4239472E+03  0.7818608E-02  0.1035789E+00
          2   -1    0    0  501    0  0.00000000000E+00  0.00000000000E+00  0.23953784431E+03  0.23953784433E+03  0.25500000000E-02 0.  1.
         -2   -1    0    0    0  501 -0.00000000000E+00 -0.00000000000E+00 -0.18758125300E+03  0.18758125302E+03  0.25500000000E-02 0. -1.
    5000001    1    1    2    0    0  0.61101797965E+02  0.10307609167E+03 -0.32331306087E+02  0.20646651966E+03  0.16500000000E+03 0.  0.
   -5000001    1    1    2    0    0 -0.61101797965E+02 -0.10307609167E+03  0.84287897403E+02  0.22065257768E+03  0.16500000000E+03 0.  0.
<mgrwt>
<rscale>  0 0.42394721E+03</rscale>
<asrwt>0</asrwt>
<pdfrwt beam="1">  1        2 0.34219692E-01 0.42394721E+03</pdfrwt>
<pdfrwt beam="2">  1       -2 0.26797322E-01 0.42394721E+03</pdfrwt>
<totfact> 0.19190017E+03</totfact>
</mgrwt>
</event>
<event>
 4    1  0.5280257E-005  0.6391672E+03  0.7818608E-02  0.9827321E-01
          2   -1    0    0  501    0  0.00000000000E+00  0.00000000000E+00  0.90538040714E+03  0.90538040714E+03  0.25500000000E-02 0.  1.
         -2   -1    0    0    0  501 -0.00000000000E+00 -0.00000000000E+00 -0.11280748500E+03  0.11280748503E+03  0.25500000000E-02 0. -1.
    5000001    1    1    2    0    0  0.19908415357E+03  0.14304555025E+03  0.20241111658E+03  0.35817843286E+03  0.16500000000E+03 0.  0.
   -5000001    1    1    2    0    0 -0.19908415357E+03 -0.14304555025E+03  0.59016180555E+03  0.66000945931E+03  0.16500000000E+03 0.  0.
<mgrwt>
<rscale>  0 0.63916723E+03</rscale>
<asrwt>0</asrwt>
<pdfrwt beam="1">  1        2 0.12934006E+00 0.63916723E+03</pdfrwt>
<pdfrwt beam="2">  1       -2 0.16115355E-01 0.63916723E+03</pdfrwt>
<totfact> 0.10040054E+03</totfact>
</mgrwt>
</event>
<event>
 4    1  0.5280257E-005  0.4560168E+03  0.7818608E-02  0.1025943E+00
         -2   -1    0    0    0  501 -0.00000000000E+00  0.00000000000E+00  0.11643726676E+03  0.11643726679E+03  0.25500000000E-02 0. -1.
          2   -1    0    0  501    0  0.00000000000E+00 -0.00000000000E+00 -0.44648785321E+03  0.44648785322E+03  0.25500000000E-02 0.  1.
    5000001    1    1    2    0    0 -0.24712154718E+02  0.68175747156E+02  0.73733736721E+01  0.18038289756E+03  0.16500000000E+03 0.  0.
   -5000001    1    1    2    0    0  0.24712154718E+02 -0.68175747156E+02 -0.33742396013E+03  0.38254222245E+03  0.16500000000E+03 0.  0.
<mgrwt>
<rscale>  0 0.45601678E+03</rscale>
<asrwt>0</asrwt>
<pdfrwt beam="1">  1        2 0.63783978E-01 0.45601678E+03</pdfrwt>
<pdfrwt beam="2">  1       -2 0.16633896E-01 0.45601678E+03</pdfrwt>
<totfact> 0.22260593E+03</totfact>
</mgrwt>
</event>
<event>
 4    1  0.5280257E-005  0.4014340E+03  0.7818608E-02  0.1043284E+00
          2   -1    0    0  501    0  0.00000000000E+00  0.00000000000E+00  0.52276207762E+03  0.52276207763E+03  0.25500000000E-02 0.  1.
         -2   -1    0    0    0  501 -0.00000000000E+00 -0.00000000000E+00 -0.77066271074E+02  0.77066271116E+02  0.25500000000E-02 0. -1.
    5000001    1    1    2    0    0 -0.25598634353E+02  0.17689377924E+02  0.58524313228E+02  0.17781535201E+03  0.16500000000E+03 0.  0.
   -5000001    1    1    2    0    0  0.25598634353E+02 -0.17689377924E+02  0.38717149332E+03  0.42201299673E+03  0.16500000000E+03 0.  0.
<mgrwt>
<rscale>  0 0.40143405E+03</rscale>
<asrwt>0</asrwt>
<pdfrwt beam="1">  1        2 0.74680296E-01 0.40143405E+03</pdfrwt>
<pdfrwt beam="2">  1       -2 0.11009467E-01 0.40143405E+03</pdfrwt>
<totfact> 0.36848490E+03</totfact>
</mgrwt>
</event>
<event>
 4    1  0.5280257E-005  0.1141082E+04  0.7818608E-02  0.9166050E-01
         -2   -1    0    0    0  501 -0.00000000000E+00  0.00000000000E+00  0.24638852715E+03  0.24638852716E+03  0.25500000000E-02 0. -1.
          2   -1    0    0  501    0  0.00000000000E+00 -0.00000000000E+00 -0.13211537031E+04  0.13211537031E+04  0.25500000000E-02 0.  1.
    5000001    1    1    2    0    0  0.38252378104E+01 -0.45601606899E+03 -0.12451506807E+03  0.50069380843E+03  0.16500000000E+03 0.  0.
   -5000001    1    1    2    0    0 -0.38252378104E+01  0.45601606899E+03 -0.95025010790E+03  0.10668484218E+04  0.16500000000E+03 0.  0.
<mgrwt>
<rscale>  0 0.11410821E+04</rscale>
<asrwt>0</asrwt>
<pdfrwt beam="1">  1        2 0.18873624E+00 0.11410821E+04</pdfrwt>
<pdfrwt beam="2">  1       -2 0.35198362E-01 0.11410821E+04</pdfrwt>
<totfact> 0.13696677E+02</totfact>
</mgrwt>
</event>
<event>
 4    1  0.5280257E-005  0.4794923E+03  0.7818608E-02  0.1019275E+00
          2   -1    0    0  501    0  0.00000000000E+00  0.00000000000E+00  0.20293849226E+04  0.20293849226E+04  0.25500000000E-02 0.  1.
         -2   -1    0    0    0  501 -0.00000000000E+00 -0.00000000000E+00 -0.28322972409E+02  0.28322972524E+02  0.25500000000E-02 0. -1.
    5000001    1    1    2    0    0  0.10778180943E+03 -0.91766413562E+02  0.14342674690E+04  0.14506502562E+04  0.16500000000E+03 0.  0.
   -5000001    1    1    2    0    0 -0.10778180943E+03  0.91766413562E+02  0.56679448120E+03  0.60705763896E+03  0.16500000000E+03 0.  0.
<mgrwt>
<rscale>  0 0.47949229E+03</rscale>
<asrwt>0</asrwt>
<pdfrwt beam="1">  1        2 0.28991219E+00 0.47949229E+03</pdfrwt>
<pdfrwt beam="2">  1       -2 0.40461381E-02 0.47949229E+03</pdfrwt>
<totfact> 0.22878093E+03</totfact>
</mgrwt>
</event>
<event>
 4    1  0.5280257E-005  0.4574008E+03  0.7818608E-02  0.1025538E+00
         -2   -1    0    0    0  501 -0.00000000000E+00  0.00000000000E+00  0.30073730323E+02  0.30073730431E+02  0.25500000000E-02 0. -1.
          2   -1    0    0  501    0  0.00000000000E+00 -0.00000000000E+00 -0.17391884134E+04  0.17391884134E+04  0.25500000000E-02 0.  1.
    5000001    1    1    2    0    0 -0.91669423054E+02  0.12860333836E+03 -0.89979594155E+03  0.92833175007E+03  0.16500000000E+03 0.  0.
   -5000001    1    1    2    0    0  0.91669423054E+02 -0.12860333836E+03 -0.80931874149E+03  0.84093039373E+03  0.16500000000E+03 0.  0.
<mgrwt>
<rscale>  0 0.45740085E+03</rscale>
<asrwt>0</asrwt>
<pdfrwt beam="1">  1        2 0.24845542E+00 0.45740085E+03</pdfrwt>
<pdfrwt beam="2">  1       -2 0.42962483E-02 0.45740085E+03</pdfrwt>
<totfact> 0.29154989E+03</totfact>
</mgrwt>
</event>
<event>
 4    1  0.5280257E-005  0.6019603E+03  0.7818608E-02  0.9901347E-01
          2   -1    0    0  501    0  0.00000000000E+00  0.00000000000E+00  0.27410970755E+04  0.27410970755E+04  0.25500000000E-02 0.  1.
         -2   -1    0    0    0  501 -0.00000000000E+00 -0.00000000000E+00 -0.33048467510E+02  0.33048467608E+02  0.25500000000E-02 0. -1.
    5000001    1    1    2    0    0  0.17874672624E+03 -0.11952425629E+03  0.19571528122E+04  0.19758311087E+04  0.16500000000E+03 0.  0.
   -5000001    1    1    2    0    0 -0.17874672624E+03  0.11952425629E+03  0.75089579580E+03  0.79831443437E+03  0.16500000000E+03 0.  0.
<mgrwt>
<rscale>  0 0.60196032E+03</rscale>
<asrwt>0</asrwt>
<pdfrwt beam="1">  1        2 0.39158534E+00 0.60196032E+03</pdfrwt>
<pdfrwt beam="2">  1       -2 0.47212092E-02 0.60196032E+03</pdfrwt>
<totfact> 0.77797503E+02</totfact>
</mgrwt>
</event>
<event>
 4    1  0.5280257E-005  0.5447555E+03  0.7818608E-02  0.1002715E+00
         -2   -1    0    0    0  501 -0.00000000000E+00  0.00000000000E+00  0.80660142584E+02  0.80660142625E+02  0.25500000000E-02 0. -1.
          2   -1    0    0  501    0  0.00000000000E+00 -0.00000000000E+00 -0.91978076927E+03  0.91978076927E+03  0.25500000000E-02 0.  1.
    5000001    1    1    2    0    0  0.42317523212E+02  0.21171138521E+03 -0.38509655359E+03  0.47131394949E+03  0.16500000000E+03 0.  0.
   -5000001    1    1    2    0    0 -0.42317523212E+02 -0.21171138521E+03 -0.45402407310E+03  0.52912696241E+03  0.16500000000E+03 0.  0.
<mgrwt>
<rscale>  0 0.54475553E+03</rscale>
<asrwt>0</asrwt>
<pdfrwt beam="1">  1        2 0.13139725E+00 0.54475553E+03</pdfrwt>
<pdfrwt beam="2">  1       -2 0.11522878E-01 0.54475553E+03</pdfrwt>
<totfact> 0.17219379E+03</totfact>
</mgrwt>
</event>
<event>
 4    1  0.5280257E-005  0.3512247E+03  0.7818608E-02  0.1062113E+00
         -2   -1    0    0    0  501 -0.00000000000E+00  0.00000000000E+00  0.15054838598E+02  0.15054838814E+02  0.25500000000E-02 0.  1.
          2   -1    0    0  501    0  0.00000000000E+00 -0.00000000000E+00 -0.20484911318E+04  0.20484911318E+04  0.25500000000E-02 0. -1.
    5000001    1    1    2    0    0 -0.41230979841E+02  0.41995725262E+02 -0.10889313570E+04  0.11029325160E+04  0.16500000000E+03 0.  0.
   -5000001    1    1    2    0    0  0.41230979841E+02 -0.41995725262E+02 -0.94450493619E+03  0.96061345459E+03  0.16500000000E+03 0.  0.
<mgrwt>
<rscale>  0 0.35122473E+03</rscale>
<asrwt>0</asrwt>
<pdfrwt beam="1">  1        2 0.29264141E+00 0.35122473E+03</pdfrwt>
<pdfrwt beam="2">  1       -2 0.21506925E-02 0.35122473E+03</pdfrwt>
<totfact> 0.58139699E+03</totfact>
</mgrwt>
</event>
<event>
 4    1  0.5280257E-005  0.9555506E+03  0.7818608E-02  0.9358686E-01
          2   -1    0    0  501    0  0.00000000000E+00  0.00000000000E+00  0.11793878731E+04  0.11793878731E+04  0.25500000000E-02 0.  1.
         -2   -1    0    0    0  501 -0.00000000000E+00 -0.00000000000E+00 -0.19354889795E+03  0.19354889797E+03  0.25500000000E-02 0. -1.
    5000001    1    1    2    0    0  0.14831220632E+03 -0.23939907497E+03 -0.83900990008E+01  0.32650240642E+03  0.16500000000E+03 0.  0.
   -5000001    1    1    2    0    0 -0.14831220632E+03  0.23939907497E+03  0.99422907412E+03  0.10464343646E+04  0.16500000000E+03 0.  0.
<mgrwt>
<rscale>  0 0.95555057E+03</rscale>
<asrwt>0</asrwt>
<pdfrwt beam="1">  1        2 0.16848398E+00 0.95555057E+03</pdfrwt>
<pdfrwt beam="2">  1       -2 0.27649843E-01 0.95555057E+03</pdfrwt>
<totfact> 0.26128552E+02</totfact>
</mgrwt>
</event>
<event>
 4    1  0.5280257E-005  0.4840550E+03  0.7818608E-02  0.1018027E+00
          2   -1    0    0  501    0  0.00000000000E+00  0.00000000000E+00  0.25680169610E+03  0.25680169611E+03  0.25500000000E-02 0.  1.
         -2   -1    0    0    0  501 -0.00000000000E+00 -0.00000000000E+00 -0.22810332821E+03  0.22810332823E+03  0.25500000000E-02 0. -1.
    5000001    1    1    2    0    0 -0.27141341100E+02 -0.95607620002E+02 -0.13245114374E+03  0.23376435759E+03  0.16500000000E+03 0.  0.
   -5000001    1    1    2    0    0  0.27141341100E+02  0.95607620002E+02  0.16114951163E+03  0.25114066675E+03  0.16500000000E+03 0.  0.
<mgrwt>
<rscale>  0 0.48405504E+03</rscale>
<asrwt>0</asrwt>
<pdfrwt beam="1">  1        2 0.36685956E-01 0.48405504E+03</pdfrwt>
<pdfrwt beam="2">  1       -2 0.32586190E-01 0.48405504E+03</pdfrwt>
<totfact> 0.12432055E+03</totfact>
</mgrwt>
</event>
<event>
 4    1  0.5280257E-005  0.5823694E+03  0.7818608E-02  0.9942675E-01
          2   -1    0    0  501    0  0.00000000000E+00  0.00000000000E+00  0.13385187582E+04  0.13385187582E+04  0.25500000000E-02 0.  1.
         -2   -1    0    0    0  501 -0.00000000000E+00 -0.00000000000E+00 -0.63345035100E+02  0.63345035152E+02  0.25500000000E-02 0. -1.
    5000001    1    1    2    0    0  0.19084348807E+03  0.71047641360E+02  0.33220289737E+03  0.42314627412E+03  0.16500000000E+03 0.  0.
   -5000001    1    1    2    0    0 -0.19084348807E+03 -0.71047641360E+02  0.94297082575E+03  0.97871751926E+03  0.16500000000E+03 0.  0.
<mgrwt>
<rscale>  0 0.58236936E+03</rscale>
<asrwt>0</asrwt>
<pdfrwt beam="1">  1        2 0.19121698E+00 0.58236936E+03</pdfrwt>
<pdfrwt beam="2">  1       -2 0.90492903E-02 0.58236936E+03</pdfrwt>
<totfact> 0.14584412E+03</totfact>
</mgrwt>
</event>
<event>
 4    1  0.5280257E-005  0.4588021E+03  0.7818608E-02  0.1025129E+00
          2   -1    0    0  501    0  0.00000000000E+00  0.00000000000E+00  0.28273727854E+04  0.28273727854E+04  0.25500000000E-02 0.  1.
         -2   -1    0    0    0  501 -0.00000000000E+00 -0.00000000000E+00 -0.18612626941E+02  0.18612627115E+02  0.25500000000E-02 0. -1.
    5000001    1    1    2    0    0  0.79516962880E+02  0.13998550364E+02  0.55202810424E+03  0.58178942468E+03  0.16500000000E+03 0.  0.
   -5000001    1    1    2    0    0 -0.79516962880E+02 -0.13998550364E+02  0.22567320542E+04  0.22641959879E+04  0.16500000000E+03 0.  0.
<mgrwt>
<rscale>  0 0.45880207E+03</rscale>
<asrwt>0</asrwt>
<pdfrwt beam="1">  1        2 0.40391042E+00 0.45880207E+03</pdfrwt>
<pdfrwt beam="2">  1       -2 0.26589466E-02 0.45880207E+03</pdfrwt>
<totfact> 0.17018400E+03</totfact>
</mgrwt>
</event>
<event>
 4    1  0.5280257E-005  0.1167209E+04  0.7818608E-02  0.9142053E-01
         -2   -1    0    0    0  501 -0.00000000000E+00  0.00000000000E+00  0.74753128732E+03  0.74753128733E+03  0.25500000000E-02 0. -1.
          2   -1    0    0  501    0  0.00000000000E+00 -0.00000000000E+00 -0.45562545158E+03  0.45562545159E+03  0.25500000000E-02 0.  1.
    5000001    1    1    2    0    0  0.17470744787E+02 -0.42075150143E+03  0.52613744842E+03  0.69381745979E+03  0.16500000000E+03 0.  0.
   -5000001    1    1    2    0    0 -0.17470744787E+02  0.42075150143E+03 -0.23423161268E+03  0.50933927912E+03  0.16500000000E+03 0.  0.
<mgrwt>
<rscale>  0 0.11672091E+04</rscale>
<asrwt>0</asrwt>
<pdfrwt beam="1">  1        2 0.65089350E-01 0.11672091E+04</pdfrwt>
<pdfrwt beam="2">  1       -2 0.10679018E+00 0.11672091E+04</pdfrwt>
<totfact> 0.52157214E+01</totfact>
</mgrwt>
</event>
<event>
 4    1  0.5280257E-005  0.3788313E+03  0.7818608E-02  0.1051367E+00
          2   -1    0    0  501    0  0.00000000000E+00  0.00000000000E+00  0.12581677361E+04  0.12581677361E+04  0.25500000000E-02 0.  1.
         -2   -1    0    0    0  501 -0.00000000000E+00 -0.00000000000E+00 -0.28516306199E+02  0.28516306313E+02  0.25500000000E-02 0. -1.
    5000001    1    1    2    0    0 -0.33141600478E+02  0.67827165394E+02  0.79943822727E+03  0.81977153480E+03  0.16500000000E+03 0.  0.
   -5000001    1    1    2    0    0  0.33141600478E+02 -0.67827165394E+02  0.43021320260E+03  0.46691250758E+03  0.16500000000E+03 0.  0.
<mgrwt>
<rscale>  0 0.37883134E+03</rscale>
<asrwt>0</asrwt>
<pdfrwt beam="1">  1        2 0.17973831E+00 0.37883134E+03</pdfrwt>
<pdfrwt beam="2">  1       -2 0.40737567E-02 0.37883134E+03</pdfrwt>
<totfact> 0.56008239E+03</totfact>
</mgrwt>
</event>
<event>
 4    1  0.5280257E-005  0.6146396E+03  0.7818608E-02  0.9875491E-01
         -2   -1    0    0    0  501 -0.00000000000E+00  0.00000000000E+00  0.15504834225E+03  0.15504834227E+03  0.25500000000E-02 0. -1.
          2   -1    0    0  501    0  0.00000000000E+00 -0.00000000000E+00 -0.60913552428E+03  0.60913552428E+03  0.25500000000E-02 0.  1.
    5000001    1    1    2    0    0  0.11387175345E+03 -0.23232457084E+03 -0.24780977605E+03  0.39443144849E+03  0.16500000000E+03 0.  0.
   -5000001    1    1    2    0    0 -0.11387175345E+03  0.23232457084E+03 -0.20627740598E+03  0.36975241807E+03  0.16500000000E+03 0.  0.
<mgrwt>
<rscale>  0 0.61463958E+03</rscale>
<asrwt>0</asrwt>
<pdfrwt beam="1">  1        2 0.87019360E-01 0.61463958E+03</pdfrwt>
<pdfrwt beam="2">  1       -2 0.22149763E-01 0.61463958E+03</pdfrwt>
<totfact> 0.95162529E+02</totfact>
</mgrwt>
</event>
<event>
 4    1  0.5280257E-005  0.5060265E+03  0.7818608E-02  0.1012218E+00
          2   -1    0    0  501    0  0.00000000000E+00  0.00000000000E+00  0.62522762529E+02  0.62522762581E+02  0.25500000000E-02 0.  1.
         -2   -1    0    0    0  501 -0.00000000000E+00 -0.00000000000E+00 -0.10238784943E+04  0.10238784943E+04  0.25500000000E-02 0. -1.
    5000001    1    1    2    0    0 -0.13758674472E+03 -0.39938227720E+02 -0.75448905103E+03  0.78549595956E+03  0.16500000000E+03 0.  0.
   -5000001    1    1    2    0    0  0.13758674472E+03  0.39938227720E+02 -0.20686668073E+03  0.30090529731E+03  0.16500000000E+03 0.  0.
<mgrwt>
<rscale>  0 0.50602653E+03</rscale>
<asrwt>0</asrwt>
<pdfrwt beam="1">  1        2 0.89318238E-02 0.50602653E+03</pdfrwt>
<pdfrwt beam="2">  1       -2 0.14626835E+00 0.50602653E+03</pdfrwt>
<totfact> 0.25002288E+02</totfact>
</mgrwt>
</event>
<event>
 4    1  0.5280257E-005  0.5004949E+03  0.7818608E-02  0.1013650E+00
         -2   -1    0    0    0  501 -0.00000000000E+00  0.00000000000E+00  0.15598729681E+03  0.15598729683E+03  0.25500000000E-02 0. -1.
          2   -1    0    0  501    0  0.00000000000E+00 -0.00000000000E+00 -0.40146723026E+03  0.40146723027E+03  0.25500000000E-02 0.  1.
    5000001    1    1    2    0    0 -0.81049450815E+02 -0.14627337358E+03 -0.21877228276E+03  0.32101592640E+03  0.16500000000E+03 0.  0.
   -5000001    1    1    2    0    0  0.81049450815E+02  0.14627337358E+03 -0.26707650686E+02  0.23643860070E+03  0.16500000000E+03 0.  0.
<mgrwt>
<rscale>  0 0.50049491E+03</rscale>
<asrwt>0</asrwt>
<pdfrwt beam="1">  1        2 0.57352461E-01 0.50049491E+03</pdfrwt>
<pdfrwt beam="2">  1       -2 0.22283900E-01 0.50049491E+03</pdfrwt>
<totfact> 0.15131904E+03</totfact>
</mgrwt>
</event>
<event>
 4    1  0.5280257E-005  0.4166611E+03  0.7818608E-02  0.1038158E+00
         -2   -1    0    0    0  501 -0.00000000000E+00  0.00000000000E+00  0.91020779872E+02  0.91020779907E+02  0.25500000000E-02 0. -1.
          2   -1    0    0  501    0  0.00000000000E+00 -0.00000000000E+00 -0.47683207227E+03  0.47683207228E+03  0.25500000000E-02 0.  1.
    5000001    1    1    2    0    0  0.52991458352E+02  0.10738028802E+03 -0.25133435573E+03  0.32362413272E+03  0.16500000000E+03 0.  0.
   -5000001    1    1    2    0    0 -0.52991458352E+02 -0.10738028802E+03 -0.13447693667E+03  0.24422871946E+03  0.16500000000E+03 0.  0.
<mgrwt>
<rscale>  0 0.41666114E+03</rscale>
<asrwt>0</asrwt>
<pdfrwt beam="1">  1        2 0.68118866E-01 0.41666114E+03</pdfrwt>
<pdfrwt beam="2">  1       -2 0.13002969E-01 0.41666114E+03</pdfrwt>
<totfact> 0.31163824E+03</totfact>
</mgrwt>
</event>
<event>
 4    1  0.5280257E-005  0.6343799E+03  0.7818608E-02  0.9836539E-01
         -2   -1    0    0    0  501 -0.00000000000E+00  0.00000000000E+00  0.22278395463E+03  0.22278395464E+03  0.25500000000E-02 0. -1.
          2   -1    0    0  501    0  0.00000000000E+00 -0.00000000000E+00 -0.45160106541E+03  0.45160106542E+03  0.25500000000E-02 0.  1.
    5000001    1    1    2    0    0  0.20524221148E+03 -0.45989546024E+02 -0.29589367374E+03  0.39876994606E+03  0.16500000000E+03 0.  0.
   -5000001    1    1    2    0    0 -0.20524221148E+03  0.45989546024E+02  0.67076562963E+02  0.27561507400E+03  0.16500000000E+03 0.  0.
<mgrwt>
<rscale>  0 0.63437992E+03</rscale>
<asrwt>0</asrwt>
<pdfrwt beam="1">  1        2 0.64514438E-01 0.63437992E+03</pdfrwt>
<pdfrwt beam="2">  1       -2 0.31826279E-01 0.63437992E+03</pdfrwt>
<totfact> 0.69524551E+02</totfact>
</mgrwt>
</event>
<event>
 4    1  0.5280257E-005  0.3590562E+03  0.7818608E-02  0.1058958E+00
         -2   -1    0    0    0  501 -0.00000000000E+00  0.00000000000E+00  0.10780960184E+04  0.10780960184E+04  0.25500000000E-02 0. -1.
          2   -1    0    0  501    0  0.00000000000E+00 -0.00000000000E+00 -0.29895610686E+02  0.29895610795E+02  0.25500000000E-02 0.  1.
    5000001    1    1    2    0    0 -0.12378911151E+02  0.46909037577E+02  0.68300303250E+03  0.70432367393E+03  0.16500000000E+03 0.  0.
   -5000001    1    1    2    0    0  0.12378911151E+02 -0.46909037577E+02  0.36519737518E+03  0.40366795523E+03  0.16500000000E+03 0.  0.
<mgrwt>
<rscale>  0 0.35905620E+03</rscale>
<asrwt>0</asrwt>
<pdfrwt beam="1">  1        2 0.42708012E-02 0.35905620E+03</pdfrwt>
<pdfrwt beam="2">  1       -2 0.15401373E+00 0.35905620E+03</pdfrwt>
<totfact> 0.57770389E+02</totfact>
</mgrwt>
</event>
<event>
 4    1  0.5280257E-005  0.4506852E+03  0.7818608E-02  0.1027518E+00
         -2   -1    0    0    0  501 -0.00000000000E+00  0.00000000000E+00  0.50699790258E+02  0.50699790322E+02  0.25500000000E-02 0. -1.
          2   -1    0    0  501    0  0.00000000000E+00 -0.00000000000E+00 -0.10015681169E+04  0.10015681169E+04  0.25500000000E-02 0.  1.
    5000001    1    1    2    0    0 -0.14648985231E+03  0.45220050222E+02 -0.45889750105E+03  0.51119081197E+03  0.16500000000E+03 0.  0.
   -5000001    1    1    2    0    0  0.14648985231E+03 -0.45220050222E+02 -0.49197082557E+03  0.54107709523E+03  0.16500000000E+03 0.  0.
<mgrwt>
<rscale>  0 0.45068523E+03</rscale>
<asrwt>0</asrwt>
<pdfrwt beam="1">  1        2 0.14308115E+00 0.45068523E+03</pdfrwt>
<pdfrwt beam="2">  1       -2 0.72428278E-02 0.45068523E+03</pdfrwt>
<totfact> 0.32263481E+03</totfact>
</mgrwt>
</event>
<event>
 4    1  0.5280257E-005  0.5705706E+03  0.7818608E-02  0.9968417E-01
          2   -1    0    0  501    0  0.00000000000E+00  0.00000000000E+00  0.11356214427E+04  0.11356214427E+04  0.25500000000E-02 0.  1.
         -2   -1    0    0    0  501 -0.00000000000E+00 -0.00000000000E+00 -0.71667988311E+02  0.71667988356E+02  0.25500000000E-02 0. -1.
    5000001    1    1    2    0    0 -0.34970044270E+02 -0.20021350647E+03  0.29207846592E+03  0.39222848242E+03  0.16500000000E+03 0.  0.
   -5000001    1    1    2    0    0  0.34970044270E+02  0.20021350647E+03  0.77187498850E+03  0.81506094867E+03  0.16500000000E+03 0.  0.
<mgrwt>
<rscale>  0 0.57057061E+03</rscale>
<asrwt>0</asrwt>
<pdfrwt beam="1">  1        2 0.16223162E+00 0.57057061E+03</pdfrwt>
<pdfrwt beam="2">  1       -2 0.10238285E-01 0.57057061E+03</pdfrwt>
<totfact> 0.15480864E+03</totfact>
</mgrwt>
</event>
<event>
 4    1  0.5280257E-005  0.4635919E+03  0.7818608E-02  0.1023745E+00
         -2   -1    0    0    0  501 -0.00000000000E+00  0.00000000000E+00  0.25379421277E+02  0.25379421405E+02  0.25500000000E-02 0. -1.
          2   -1    0    0  501    0  0.00000000000E+00 -0.00000000000E+00 -0.21170443494E+04  0.21170443494E+04  0.25500000000E-02 0.  1.
    5000001    1    1    2    0    0  0.81029298021E+02  0.89210574585E+02 -0.54000835080E+03  0.57737188423E+03  0.16500000000E+03 0.  0.
   -5000001    1    1    2    0    0 -0.81029298021E+02 -0.89210574585E+02 -0.15516565773E+04  0.15650518866E+04  0.16500000000E+03 0.  0.
<mgrwt>
<rscale>  0 0.46359189E+03</rscale>
<asrwt>0</asrwt>
<pdfrwt beam="1">  1        2 0.30243480E+00 0.46359189E+03</pdfrwt>
<pdfrwt beam="2">  1       -2 0.36256329E-02 0.46359189E+03</pdfrwt>
<totfact> 0.24474104E+03</totfact>
</mgrwt>
</event>
<event>
 4    1  0.5280257E-005  0.6156218E+03  0.7818608E-02  0.9873516E-01
          2   -1    0    0  501    0  0.00000000000E+00  0.00000000000E+00  0.22031456459E+03  0.22031456460E+03  0.25500000000E-02 0.  1.
         -2   -1    0    0    0  501 -0.00000000000E+00 -0.00000000000E+00 -0.43005574493E+03  0.43005574494E+03  0.25500000000E-02 0. -1.
    5000001    1    1    2    0    0  0.22772888983E+03 -0.45294120777E+02 -0.22811987310E+03  0.36493243366E+03  0.16500000000E+03 0.  0.
   -5000001    1    1    2    0    0 -0.22772888983E+03  0.45294120777E+02  0.18378692751E+02  0.28543787588E+03  0.16500000000E+03 0.  0.
<mgrwt>
<rscale>  0 0.61562178E+03</rscale>
<asrwt>0</asrwt>
<pdfrwt beam="1">  1        2 0.31473510E-01 0.61562178E+03</pdfrwt>
<pdfrwt beam="2">  1       -2 0.61436534E-01 0.61562178E+03</pdfrwt>
<totfact> 0.41893797E+02</totfact>
</mgrwt>
</event>
<event>
 4    1  0.5280257E-005  0.3814604E+03  0.7818608E-02  0.1050395E+00
          2   -1    0    0  501    0  0.00000000000E+00  0.00000000000E+00  0.18553036147E+04  0.18553036147E+04  0.25500000000E-02 0.  1.
         -2   -1    0    0    0  501 -0.00000000000E+00 -0.00000000000E+00 -0.19607574243E+02  0.19607574408E+02  0.25500000000E-02 0. -1.
    5000001    1    1    2    0    0 -0.85879433025E+02  0.36461428550E+02  0.10219145702E+04  0.10393455160E+04  0.16500000000E+03 0.  0.
   -5000001    1    1    2    0    0  0.85879433025E+02 -0.36461428550E+02  0.81378147024E+03  0.83556567311E+03  0.16500000000E+03 0.  0.
<mgrwt>
<rscale>  0 0.38146037E+03</rscale>
<asrwt>0</asrwt>
<pdfrwt beam="1">  1        2 0.26504327E+00 0.38146037E+03</pdfrwt>
<pdfrwt beam="2">  1       -2 0.28010831E-02 0.38146037E+03</pdfrwt>
<totfact> 0.48817479E+03</totfact>
</mgrwt>
</event>
<event>
 4    1  0.5280257E-005  0.6095470E+03  0.7818608E-02  0.9885795E-01
         -2   -1    0    0    0  501 -0.00000000000E+00  0.00000000000E+00  0.60742105641E+03  0.60742105641E+03  0.25500000000E-02 0. -1.
          2   -1    0    0  501    0  0.00000000000E+00 -0.00000000000E+00 -0.15292011753E+03  0.15292011755E+03  0.25500000000E-02 0.  1.
    5000001    1    1    2    0    0  0.12876269485E+03  0.19842984473E+03  0.35015238708E+03  0.45363634008E+03  0.16500000000E+03 0.  0.
   -5000001    1    1    2    0    0 -0.12876269485E+03 -0.19842984473E+03  0.10434855179E+03  0.30670483388E+03  0.16500000000E+03 0.  0.
<mgrwt>
<rscale>  0 0.60954704E+03</rscale>
<asrwt>0</asrwt>
<pdfrwt beam="1">  1        2 0.21845731E-01 0.60954704E+03</pdfrwt>
<pdfrwt beam="2">  1       -2 0.86774438E-01 0.60954704E+03</pdfrwt>
<totfact> 0.29763600E+02</totfact>
</mgrwt>
</event>
<event>
 4    1  0.5280257E-005  0.4210347E+03  0.7818608E-02  0.1036730E+00
         -2   -1    0    0    0  501 -0.00000000000E+00  0.00000000000E+00  0.18619276489E+02  0.18619276663E+02  0.25500000000E-02 0. -1.
          2   -1    0    0  501    0  0.00000000000E+00 -0.00000000000E+00 -0.23801974575E+04  0.23801974575E+04  0.25500000000E-02 0.  1.
    5000001    1    1    2    0    0 -0.12551007122E+03 -0.85599530740E+01 -0.13835491739E+04  0.13990208603E+04  0.16500000000E+03 0.  0.
   -5000001    1    1    2    0    0  0.12551007122E+03  0.85599530740E+01 -0.97802900711E+03  0.99979587393E+03  0.16500000000E+03 0.  0.
<mgrwt>
<rscale>  0 0.42103470E+03</rscale>
<asrwt>0</asrwt>
<pdfrwt beam="1">  1        2 0.34002801E+00 0.42103470E+03</pdfrwt>
<pdfrwt beam="2">  1       -2 0.26598982E-02 0.42103470E+03</pdfrwt>
<totfact> 0.28923042E+03</totfact>
</mgrwt>
</event>
<event>
 4    1  0.5280257E-005  0.7836713E+03  0.7818608E-02  0.9583958E-01
         -2   -1    0    0    0  501 -0.00000000000E+00  0.00000000000E+00  0.60430058325E+03  0.60430058325E+03  0.25500000000E-02 0. -1.
          2   -1    0    0  501    0  0.00000000000E+00 -0.00000000000E+00 -0.25407086742E+03  0.25407086743E+03  0.25500000000E-02 0.  1.
    5000001    1    1    2    0    0  0.66485390636E+02  0.33751100218E+03  0.27293742642E+03  0.46909894746E+03  0.16500000000E+03 0.  0.
   -5000001    1    1    2    0    0 -0.66485390636E+02 -0.33751100218E+03  0.77292289407E+02  0.38927250322E+03  0.16500000000E+03 0.  0.
<mgrwt>
<rscale>  0 0.78367129E+03</rscale>
<asrwt>0</asrwt>
<pdfrwt beam="1">  1        2 0.36295839E-01 0.78367129E+03</pdfrwt>
<pdfrwt beam="2">  1       -2 0.86328654E-01 0.78367129E+03</pdfrwt>
<totfact> 0.16828987E+02</totfact>
</mgrwt>
</event>
<event>
 4    1  0.5280257E-005  0.7499025E+03  0.7818608E-02  0.9635503E-01
         -2   -1    0    0    0  501 -0.00000000000E+00  0.00000000000E+00  0.16739153141E+03  0.16739153143E+03  0.25500000000E-02 0. -1.
          2   -1    0    0  501    0  0.00000000000E+00 -0.00000000000E+00 -0.83987795517E+03  0.83987795518E+03  0.25500000000E-02 0.  1.
    5000001    1    1    2    0    0 -0.26508719676E+03  0.20713652479E+03 -0.31789018965E+03  0.49138165865E+03  0.16500000000E+03 0.  0.
   -5000001    1    1    2    0    0  0.26508719676E+03 -0.20713652479E+03 -0.35459623411E+03  0.51588782796E+03  0.16500000000E+03 0.  0.
<mgrwt>
<rscale>  0 0.74990255E+03</rscale>
<asrwt>0</asrwt>
<pdfrwt beam="1">  1        2 0.11998256E+00 0.74990255E+03</pdfrwt>
<pdfrwt beam="2">  1       -2 0.23913076E-01 0.74990255E+03</pdfrwt>
<totfact> 0.55575465E+02</totfact>
</mgrwt>
</event>
<event>
 4    1  0.5280257E-005  0.4863723E+03  0.7818608E-02  0.1017398E+00
         -2   -1    0    0    0  501 -0.00000000000E+00  0.00000000000E+00  0.69727277030E+02  0.69727277077E+02  0.25500000000E-02 0. -1.
          2   -1    0    0  501    0  0.00000000000E+00 -0.00000000000E+00 -0.84815453554E+03  0.84815453555E+03  0.25500000000E-02 0.  1.
    5000001    1    1    2    0    0  0.73433975847E+02  0.13454902200E+03 -0.21605834560E+03  0.31209325022E+03  0.16500000000E+03 0.  0.
   -5000001    1    1    2    0    0 -0.73433975847E+02 -0.13454902200E+03 -0.56236891291E+03  0.60578856240E+03  0.16500000000E+03 0.  0.
<mgrwt>
<rscale>  0 0.48637231E+03</rscale>
<asrwt>0</asrwt>
<pdfrwt beam="1">  1        2 0.12116493E+00 0.48637231E+03</pdfrwt>
<pdfrwt beam="2">  1       -2 0.99610401E-02 0.48637231E+03</pdfrwt>
<totfact> 0.24284070E+03</totfact>
</mgrwt>
</event>
<event>
 4    1  0.5280257E-005  0.1542258E+04  0.7818608E-02  0.8856828E-01
          2   -1    0    0  501    0  0.00000000000E+00  0.00000000000E+00  0.26375199511E+04  0.26375199511E+04  0.25500000000E-02 0. -1.
         -2   -1    0    0    0  501 -0.00000000000E+00 -0.00000000000E+00 -0.22545408230E+03  0.22545408231E+03  0.25500000000E-02 0.  1.
    5000001    1    1    2    0    0 -0.51191121809E+03  0.55035486797E+03  0.12983118544E+04  0.15092323371E+04  0.16500000000E+03 0.  0.
   -5000001    1    1    2    0    0  0.51191121809E+03 -0.55035486797E+03  0.11137540144E+04  0.13537416964E+04  0.16500000000E+03 0.  0.
<mgrwt>
<rscale>  0 0.15422576E+04</rscale>
<asrwt>0</asrwt>
<pdfrwt beam="1">  1        2 0.37678855E+00 0.15422576E+04</pdfrwt>
<pdfrwt beam="2">  1       -2 0.32207727E-01 0.15422576E+04</pdfrwt>
<totfact> 0.32311167E+01</totfact>
</mgrwt>
</event>
<event>
 4    1  0.5280257E-005  0.5938702E+03  0.7818608E-02  0.9918206E-01
         -2   -1    0    0    0  501 -0.00000000000E+00  0.00000000000E+00  0.43997178024E+02  0.43997178098E+02  0.25500000000E-02 0. -1.
          2   -1    0    0  501    0  0.00000000000E+00 -0.00000000000E+00 -0.20040024682E+04  0.20040024682E+04  0.25500000000E-02 0.  1.
    5000001    1    1    2    0    0  0.86196636066E+01  0.16231904006E+03 -0.16207648856E+04  0.16372310722E+04  0.16500000000E+03 0.  0.
   -5000001    1    1    2    0    0 -0.86196636066E+01 -0.16231904006E+03 -0.33924040453E+03  0.41076857406E+03  0.16500000000E+03 0.  0.
<mgrwt>
<rscale>  0 0.59387020E+03</rscale>
<asrwt>0</asrwt>
<pdfrwt beam="1">  1        2 0.28628601E+00 0.59387020E+03</pdfrwt>
<pdfrwt beam="2">  1       -2 0.62853124E-02 0.59387020E+03</pdfrwt>
<totfact> 0.11845908E+03</totfact>
</mgrwt>
</event>
<event>
 4    1  0.5280257E-005  0.4034808E+03  0.7818608E-02  0.1042581E+00
         -2   -1    0    0    0  501 -0.00000000000E+00  0.00000000000E+00  0.41145774757E+02  0.41145774837E+02  0.25500000000E-02 0. -1.
          2   -1    0    0  501    0  0.00000000000E+00 -0.00000000000E+00 -0.98914613423E+03  0.98914613423E+03  0.25500000000E-02 0.  1.
    5000001    1    1    2    0    0 -0.11550962803E+03 -0.20078736472E-01 -0.44469489042E+03  0.48818133940E+03  0.16500000000E+03 0.  0.
   -5000001    1    1    2    0    0  0.11550962803E+03  0.20078736472E-01 -0.50330546905E+03  0.54211056967E+03  0.16500000000E+03 0.  0.
<mgrwt>
<rscale>  0 0.40348078E+03</rscale>
<asrwt>0</asrwt>
<pdfrwt beam="1">  1        2 0.14130658E+00 0.40348078E+03</pdfrwt>
<pdfrwt beam="2">  1       -2 0.58779684E-02 0.40348078E+03</pdfrwt>
<totfact> 0.45425702E+03</totfact>
</mgrwt>
</event>
<event>
 4    1  0.5280257E-005  0.5906426E+03  0.7818608E-02  0.9925012E-01
          2   -1    0    0  501    0  0.00000000000E+00  0.00000000000E+00  0.31218285293E+03  0.31218285294E+03  0.25500000000E-02 0.  1.
         -2   -1    0    0    0  501 -0.00000000000E+00 -0.00000000000E+00 -0.27937043909E+03  0.27937043910E+03  0.25500000000E-02 0. -1.
    5000001    1    1    2    0    0 -0.15252097622E+03 -0.17115861989E+03  0.10274666868E+03  0.30056579858E+03  0.16500000000E+03 0.  0.
   -5000001    1    1    2    0    0  0.15252097622E+03  0.17115861989E+03 -0.69934254845E+02  0.29098749346E+03  0.16500000000E+03 0.  0.
<mgrwt>
<rscale>  0 0.59064257E+03</rscale>
<asrwt>0</asrwt>
<pdfrwt beam="1">  1        2 0.44597551E-01 0.59064257E+03</pdfrwt>
<pdfrwt beam="2">  1       -2 0.39910063E-01 0.59064257E+03</pdfrwt>
<totfact> 0.68154768E+02</totfact>
</mgrwt>
</event>
<event>
 4    1  0.5280257E-005  0.5847410E+03  0.7818608E-02  0.9937579E-01
         -2   -1    0    0    0  501 -0.00000000000E+00  0.00000000000E+00  0.38022846907E+02  0.38022846993E+02  0.25500000000E-02 0. -1.
          2   -1    0    0  501    0  0.00000000000E+00 -0.00000000000E+00 -0.22481354452E+04  0.22481354452E+04  0.25500000000E-02 0.  1.
    5000001    1    1    2    0    0  0.20095553878E+03 -0.12390357295E+03 -0.90878008920E+03  0.95333177566E+03  0.16500000000E+03 0.  0.
   -5000001    1    1    2    0    0 -0.20095553878E+03  0.12390357295E+03 -0.13013325091E+04  0.13328265165E+04  0.16500000000E+03 0.  0.
<mgrwt>
<rscale>  0 0.58474100E+03</rscale>
<asrwt>0</asrwt>
<pdfrwt beam="1">  1        2 0.32116212E+00 0.58474100E+03</pdfrwt>
<pdfrwt beam="2">  1       -2 0.54318367E-02 0.58474100E+03</pdfrwt>
<totfact> 0.11224234E+03</totfact>
</mgrwt>
</event>
<event>
 4    1  0.5280257E-005  0.4915887E+03  0.7818608E-02  0.1015998E+00
          2   -1    0    0  501    0  0.00000000000E+00  0.00000000000E+00  0.23151577330E+04  0.23151577330E+04  0.25500000000E-02 0.  1.
         -2   -1    0    0    0  501 -0.00000000000E+00 -0.00000000000E+00 -0.26095352417E+02  0.26095352542E+02  0.25500000000E-02 0. -1.
    5000001    1    1    2    0    0 -0.17729781567E+03  0.11839155004E+02  0.13359375772E+04  0.13577661401E+04  0.16500000000E+03 0.  0.
   -5000001    1    1    2    0    0  0.17729781567E+03 -0.11839155004E+02  0.95312480338E+03  0.98348694544E+03  0.16500000000E+03 0.  0.
<mgrwt>
<rscale>  0 0.49158868E+03</rscale>
<asrwt>0</asrwt>
<pdfrwt beam="1">  1        2 0.33073687E+00 0.49158868E+03</pdfrwt>
<pdfrwt beam="2">  1       -2 0.37279069E-02 0.49158868E+03</pdfrwt>
<totfact> 0.18646805E+03</totfact>
</mgrwt>
</event>
<event>
 4    1  0.5280257E-005  0.4116652E+03  0.7818608E-02  0.1039814E+00
          2   -1    0    0  501    0  0.00000000000E+00  0.00000000000E+00  0.10401368622E+04  0.10401368622E+04  0.25500000000E-02 0.  1.
         -2   -1    0    0    0  501 -0.00000000000E+00 -0.00000000000E+00 -0.40732198452E+02  0.40732198532E+02  0.25500000000E-02 0. -1.
    5000001    1    1    2    0    0  0.99768675451E+02 -0.37334419780E+02  0.66143630525E+03  0.68997871953E+03  0.16500000000E+03 0.  0.
   -5000001    1    1    2    0    0 -0.99768675451E+02  0.37334419780E+02  0.33796835850E+03  0.39089034120E+03  0.16500000000E+03 0.  0.
<mgrwt>
<rscale>  0 0.41166521E+03</rscale>
<asrwt>0</asrwt>
<pdfrwt beam="1">  1        2 0.14859100E+00 0.41166521E+03</pdfrwt>
<pdfrwt beam="2">  1       -2 0.58188846E-02 0.41166521E+03</pdfrwt>
<totfact> 0.43034096E+03</totfact>
</mgrwt>
</event>
<event>
 4    1  0.5280257E-005  0.1719026E+04  0.7818608E-02  0.8750587E-01
          2   -1    0    0  501    0  0.00000000000E+00  0.00000000000E+00  0.17619879970E+04  0.17619879970E+04  0.25500000000E-02 0.  1.
         -2   -1    0    0    0  501 -0.00000000000E+00 -0.00000000000E+00 -0.41927775556E+03  0.41927775557E+03  0.25500000000E-02 0. -1.
    5000001    1    1    2    0    0 -0.29885598985E+03 -0.69007443705E+03  0.18647766880E+03  0.79215942354E+03  0.16500000000E+03 0.  0.
   -5000001    1    1    2    0    0  0.29885598985E+03  0.69007443705E+03  0.11562325727E+04  0.13891063291E+04  0.16500000000E+03 0.  0.
<mgrwt>
<rscale>  0 0.17190257E+04</rscale>
<asrwt>0</asrwt>
<pdfrwt beam="1">  1        2 0.25171257E+00 0.17190257E+04</pdfrwt>
<pdfrwt beam="2">  1       -2 0.59896821E-01 0.17190257E+04</pdfrwt>
<totfact> 0.26366444E+01</totfact>
</mgrwt>
</event>
<event>
 4    1  0.5280257E-005  0.6233003E+03  0.7818608E-02  0.9858211E-01
         -2   -1    0    0    0  501 -0.00000000000E+00  0.00000000000E+00  0.47992403478E+02  0.47992403546E+02  0.25500000000E-02 0. -1.
          2   -1    0    0  501    0  0.00000000000E+00 -0.00000000000E+00 -0.20237747043E+04  0.20237747043E+04  0.25500000000E-02 0.  1.
    5000001    1    1    2    0    0 -0.24481771054E+03  0.57703058824E+02 -0.12586477513E+04  0.12940960228E+04  0.16500000000E+03 0.  0.
   -5000001    1    1    2    0    0  0.24481771054E+03 -0.57703058824E+02 -0.71713454957E+03  0.77767108509E+03  0.16500000000E+03 0.  0.
<mgrwt>
<rscale>  0 0.62330029E+03</rscale>
<asrwt>0</asrwt>
<pdfrwt beam="1">  1        2 0.28911062E+00 0.62330029E+03</pdfrwt>
<pdfrwt beam="2">  1       -2 0.68560589E-02 0.62330029E+03</pdfrwt>
<totfact> 0.10080660E+03</totfact>
</mgrwt>
</event>
<event>
 4    1  0.5280257E-005  0.6682194E+03  0.7818608E-02  0.9773180E-01
         -2   -1    0    0    0  501 -0.00000000000E+00  0.00000000000E+00  0.44661680416E+03  0.44661680417E+03  0.25500000000E-02 0. -1.
          2   -1    0    0  501    0  0.00000000000E+00 -0.00000000000E+00 -0.24994423585E+03  0.24994423586E+03  0.25500000000E-02 0.  1.
    5000001    1    1    2    0    0  0.22746139897E+03 -0.30425411655E+02 -0.87376962897E+02  0.29584476899E+03  0.16500000000E+03 0.  0.
   -5000001    1    1    2    0    0 -0.22746139897E+03  0.30425411655E+02  0.28404953121E+03  0.40071627104E+03  0.16500000000E+03 0.  0.
<mgrwt>
<rscale>  0 0.66821941E+03</rscale>
<asrwt>0</asrwt>
<pdfrwt beam="1">  1        2 0.35706320E-01 0.66821941E+03</pdfrwt>
<pdfrwt beam="2">  1       -2 0.63802400E-01 0.66821941E+03</pdfrwt>
<totfact> 0.33538240E+02</totfact>
</mgrwt>
</event>
<event>
 4    1  0.5280257E-005  0.4489190E+03  0.7818608E-02  0.1028045E+00
          2   -1    0    0  501    0  0.00000000000E+00  0.00000000000E+00  0.29508752946E+04  0.29508752946E+04  0.25500000000E-02 0.  1.
         -2   -1    0    0    0  501 -0.00000000000E+00 -0.00000000000E+00 -0.17073597388E+02  0.17073597578E+02  0.25500000000E-02 0. -1.
    5000001    1    1    2    0    0  0.91255676074E+02  0.10908253505E+03  0.18247964081E+04  0.18377523034E+04  0.16500000000E+03 0.  0.
   -5000001    1    1    2    0    0 -0.91255676074E+02 -0.10908253505E+03  0.11090052892E+04  0.11301965888E+04  0.16500000000E+03 0.  0.
<mgrwt>
<rscale>  0 0.44891895E+03</rscale>
<asrwt>0</asrwt>
<pdfrwt beam="1">  1        2 0.42155342E+00 0.44891895E+03</pdfrwt>
<pdfrwt beam="2">  1       -2 0.24390865E-02 0.44891895E+03</pdfrwt>
<totfact> 0.16673084E+03</totfact>
</mgrwt>
</event>
<event>
 4    1  0.5280257E-005  0.5869015E+03  0.7818608E-02  0.9932960E-01
          2   -1    0    0  501    0  0.00000000000E+00  0.00000000000E+00  0.77038720295E+02  0.77038720338E+02  0.25500000000E-02 0.  1.
         -2   -1    0    0    0  501 -0.00000000000E+00 -0.00000000000E+00 -0.11177930371E+04  0.11177930371E+04  0.25500000000E-02 0. -1.
    5000001    1    1    2    0    0 -0.23646223336E+03 -0.50474120106E+02 -0.56241202455E+03  0.63403021219E+03  0.16500000000E+03 0.  0.
   -5000001    1    1    2    0    0  0.23646223336E+03  0.50474120106E+02 -0.47834229229E+03  0.56080154529E+03  0.16500000000E+03 0.  0.
<mgrwt>
<rscale>  0 0.58690151E+03</rscale>
<asrwt>0</asrwt>
<pdfrwt beam="1">  1        2 0.11005532E-01 0.58690151E+03</pdfrwt>
<pdfrwt beam="2">  1       -2 0.15968471E+00 0.58690151E+03</pdfrwt>
<totfact> 0.15175495E+02</totfact>
</mgrwt>
</event>
<event>
 4    1  0.5280257E-005  0.6705127E+03  0.7818608E-02  0.9769032E-01
          2   -1    0    0  501    0  0.00000000000E+00  0.00000000000E+00  0.48389281298E+03  0.48389281299E+03  0.25500000000E-02 0.  1.
         -2   -1    0    0    0  501 -0.00000000000E+00 -0.00000000000E+00 -0.23227625316E+03  0.23227625317E+03  0.25500000000E-02 0. -1.
    5000001    1    1    2    0    0 -0.13091291621E+03 -0.38655178463E+01 -0.15275422359E+03  0.26021526989E+03  0.16500000000E+03 0.  0.
   -5000001    1    1    2    0    0  0.13091291621E+03  0.38655178463E+01  0.40437078341E+03  0.45595379627E+03  0.16500000000E+03 0.  0.
<mgrwt>
<rscale>  0 0.67051267E+03</rscale>
<asrwt>0</asrwt>
<pdfrwt beam="1">  1        2 0.69127544E-01 0.67051267E+03</pdfrwt>
<pdfrwt beam="2">  1       -2 0.33182322E-01 0.67051267E+03</pdfrwt>
<totfact> 0.59422038E+02</totfact>
</mgrwt>
</event>
<event>
 4    1  0.5280257E-005  0.6149139E+03  0.7818608E-02  0.9874939E-01
         -2   -1    0    0    0  501 -0.00000000000E+00  0.00000000000E+00  0.10434184032E+03  0.10434184035E+03  0.25500000000E-02 0. -1.
          2   -1    0    0  501    0  0.00000000000E+00 -0.00000000000E+00 -0.90596224126E+03  0.90596224126E+03  0.25500000000E-02 0.  1.
    5000001    1    1    2    0    0  0.22448687992E+03  0.12684577529E+03 -0.44787458073E+03  0.54249502305E+03  0.16500000000E+03 0.  0.
   -5000001    1    1    2    0    0 -0.22448687992E+03 -0.12684577529E+03 -0.35374582021E+03  0.46780905857E+03  0.16500000000E+03 0.  0.
<mgrwt>
<rscale>  0 0.61491387E+03</rscale>
<asrwt>0</asrwt>
<pdfrwt beam="1">  1        2 0.12942317E+00 0.61491387E+03</pdfrwt>
<pdfrwt beam="2">  1       -2 0.14905978E-01 0.61491387E+03</pdfrwt>
<totfact> 0.11452067E+03</totfact>
</mgrwt>
</event>
<event>
 4    1  0.5280257E-005  0.3912595E+03  0.7818608E-02  0.1046849E+00
          2   -1    0    0  501    0  0.00000000000E+00  0.00000000000E+00  0.13849896287E+04  0.13849896287E+04  0.25500000000E-02 0.  1.
         -2   -1    0    0    0  501 -0.00000000000E+00 -0.00000000000E+00 -0.27632693341E+02  0.27632693458E+02  0.25500000000E-02 0. -1.
    5000001    1    1    2    0    0  0.38156574958E+02  0.97539437510E+02  0.64717687376E+03  0.67604198983E+03  0.16500000000E+03 0.  0.
   -5000001    1    1    2    0    0 -0.38156574958E+02 -0.97539437510E+02  0.71018006155E+03  0.73658033229E+03  0.16500000000E+03 0.  0.
<mgrwt>
<rscale>  0 0.39125947E+03</rscale>
<asrwt>0</asrwt>
<pdfrwt beam="1">  1        2 0.19785568E+00 0.39125947E+03</pdfrwt>
<pdfrwt beam="2">  1       -2 0.39475272E-02 0.39125947E+03</pdfrwt>
<totfact> 0.50318608E+03</totfact>
</mgrwt>
</event>
<event>
 4    1  0.5280257E-005  0.5958511E+03  0.7818608E-02  0.9914051E-01
          2   -1    0    0  501    0  0.00000000000E+00  0.00000000000E+00  0.90981042419E+02  0.90981042455E+02  0.25500000000E-02 0.  1.
         -2   -1    0    0    0  501 -0.00000000000E+00 -0.00000000000E+00 -0.97558373593E+03  0.97558373593E+03  0.25500000000E-02 0. -1.
    5000001    1    1    2    0    0 -0.19923100750E+03 -0.66030597583E+02 -0.20563310135E+03  0.33699110750E+03  0.16500000000E+03 0.  0.
   -5000001    1    1    2    0    0  0.19923100750E+03  0.66030597583E+02 -0.67896959216E+03  0.72957367088E+03  0.16500000000E+03 0.  0.
<mgrwt>
<rscale>  0 0.59585107E+03</rscale>
<asrwt>0</asrwt>
<pdfrwt beam="1">  1        2 0.12997292E-01 0.59585107E+03</pdfrwt>
<pdfrwt beam="2">  1       -2 0.13936910E+00 0.59585107E+03</pdfrwt>
<totfact> 0.17637888E+02</totfact>
</mgrwt>
</event>
<event>
 4    1  0.5280257E-005  0.3439986E+03  0.7818608E-02  0.1065106E+00
         -2   -1    0    0    0  501 -0.00000000000E+00  0.00000000000E+00  0.35955806163E+02  0.35955806253E+02  0.25500000000E-02 0. -1.
          2   -1    0    0  501    0  0.00000000000E+00 -0.00000000000E+00 -0.82278100509E+03  0.82278100509E+03  0.25500000000E-02 0.  1.
    5000001    1    1    2    0    0 -0.28609079511E+02  0.11390894510E+02 -0.29965781401E+03  0.34346475424E+03  0.16500000000E+03 0.  0.
   -5000001    1    1    2    0    0  0.28609079511E+02 -0.11390894510E+02 -0.48716738491E+03  0.51527205710E+03  0.16500000000E+03 0.  0.
<mgrwt>
<rscale>  0 0.34399857E+03</rscale>
<asrwt>0</asrwt>
<pdfrwt beam="1">  1        2 0.11754013E+00 0.34399857E+03</pdfrwt>
<pdfrwt beam="2">  1       -2 0.51365443E-02 0.34399857E+03</pdfrwt>
<totfact> 0.71024509E+03</totfact>
</mgrwt>
</event>
<event>
 4    1  0.5280257E-005  0.6360592E+03  0.7818608E-02  0.9833295E-01
         -2   -1    0    0    0  501 -0.00000000000E+00  0.00000000000E+00  0.33736260288E+02  0.33736260385E+02  0.25500000000E-02 0. -1.
          2   -1    0    0  501    0  0.00000000000E+00 -0.00000000000E+00 -0.29980454315E+04  0.29980454315E+04  0.25500000000E-02 0.  1.
    5000001    1    1    2    0    0  0.17283697819E+03  0.19559787614E+02 -0.48616378792E+03  0.54206589545E+03  0.16500000000E+03 0.  0.
   -5000001    1    1    2    0    0 -0.17283697819E+03 -0.19559787614E+02 -0.24781453833E+04  0.24897157965E+04  0.16500000000E+03 0.  0.
<mgrwt>
<rscale>  0 0.63605925E+03</rscale>
<asrwt>0</asrwt>
<pdfrwt beam="1">  1        2 0.42829203E+00 0.63605925E+03</pdfrwt>
<pdfrwt beam="2">  1       -2 0.48194677E-02 0.63605925E+03</pdfrwt>
<totfact> 0.54744845E+02</totfact>
</mgrwt>
</event>
<event>
 4    1  0.5280257E-005  0.3828979E+03  0.7818608E-02  0.1049868E+00
          2   -1    0    0  501    0  0.00000000000E+00  0.00000000000E+00  0.69342820530E+03  0.69342820531E+03  0.25500000000E-02 0.  1.
         -2   -1    0    0    0  501 -0.00000000000E+00 -0.00000000000E+00 -0.52857238212E+02  0.52857238274E+02  0.25500000000E-02 0. -1.
    5000001    1    1    2    0    0  0.21007983512E+02  0.91021830778E+02  0.26866738241E+03  0.32883654210E+03  0.16500000000E+03 0.  0.
   -5000001    1    1    2    0    0 -0.21007983512E+02 -0.91021830778E+02  0.37190358468E+03  0.41744890148E+03  0.16500000000E+03 0.  0.
<mgrwt>
<rscale>  0 0.38289790E+03</rscale>
<asrwt>0</asrwt>
<pdfrwt beam="1">  1        2 0.99061161E-01 0.38289790E+03</pdfrwt>
<pdfrwt beam="2">  1       -2 0.75510349E-02 0.38289790E+03</pdfrwt>
<totfact> 0.48353092E+03</totfact>
</mgrwt>
</event>
<event>
 4    1  0.5280257E-005  0.5859782E+03  0.7818608E-02  0.9934931E-01
         -2   -1    0    0    0  501 -0.00000000000E+00  0.00000000000E+00  0.51744775513E+03  0.51744775514E+03  0.25500000000E-02 0. -1.
          2   -1    0    0  501    0  0.00000000000E+00 -0.00000000000E+00 -0.16589620823E+03  0.16589620825E+03  0.25500000000E-02 0.  1.
    5000001    1    1    2    0    0 -0.10563749087E+03  0.21694758887E+03  0.15268450151E+03  0.32979249961E+03  0.16500000000E+03 0.  0.
   -5000001    1    1    2    0    0  0.10563749087E+03 -0.21694758887E+03  0.19886704540E+03  0.35355146378E+03  0.16500000000E+03 0.  0.
<mgrwt>
<rscale>  0 0.58597823E+03</rscale>
<asrwt>0</asrwt>
<pdfrwt beam="1">  1        2 0.23699458E-01 0.58597823E+03</pdfrwt>
<pdfrwt beam="2">  1       -2 0.73921108E-01 0.58597823E+03</pdfrwt>
<totfact> 0.38808203E+02</totfact>
</mgrwt>
</event>
<event>
 4    1  0.5280257E-005  0.4741358E+03  0.7818608E-02  0.1020759E+00
         -2   -1    0    0    0  501 -0.00000000000E+00  0.00000000000E+00  0.14508843177E+02  0.14508843401E+02  0.25500000000E-02 0. -1.
          2   -1    0    0  501    0  0.00000000000E+00 -0.00000000000E+00 -0.38735813754E+04  0.38735813754E+04  0.25500000000E-02 0.  1.
    5000001    1    1    2    0    0  0.15202752859E+03  0.17703343007E+02 -0.25404727057E+04  0.25504219938E+04  0.16500000000E+03 0.  0.
   -5000001    1    1    2    0    0 -0.15202752859E+03 -0.17703343007E+02 -0.13185998265E+04  0.13376682250E+04  0.16500000000E+03 0.  0.
<mgrwt>
<rscale>  0 0.47413578E+03</rscale>
<asrwt>0</asrwt>
<pdfrwt beam="1">  1        2 0.55336811E+00 0.47413578E+03</pdfrwt>
<pdfrwt beam="2">  1       -2 0.20726944E-02 0.47413578E+03</pdfrwt>
<totfact> 0.61591241E+02</totfact>
</mgrwt>
</event>
<event>
 4    1  0.5280257E-005  0.9095459E+03  0.7818608E-02  0.9413727E-01
          2   -1    0    0  501    0  0.00000000000E+00  0.00000000000E+00  0.64459868354E+03  0.64459868354E+03  0.25500000000E-02 0.  1.
         -2   -1    0    0    0  501 -0.00000000000E+00 -0.00000000000E+00 -0.32084835886E+03  0.32084835887E+03  0.25500000000E-02 0. -1.
    5000001    1    1    2    0    0 -0.18134455421E+03 -0.18037261331E+03 -0.19678746436E+03  0.36245059402E+03  0.16500000000E+03 0.  0.
   -5000001    1    1    2    0    0  0.18134455421E+03  0.18037261331E+03  0.52053778903E+03  0.60299644840E+03  0.16500000000E+03 0.  0.
<mgrwt>
<rscale>  0 0.90954589E+03</rscale>
<asrwt>0</asrwt>
<pdfrwt beam="1">  1        2 0.92085526E-01 0.90954589E+03</pdfrwt>
<pdfrwt beam="2">  1       -2 0.45835480E-01 0.90954589E+03</pdfrwt>
<totfact> 0.22513937E+02</totfact>
</mgrwt>
</event>
<event>
 4    1  0.5280257E-005  0.1351771E+04  0.7818608E-02  0.8989488E-01
          2   -1    0    0  501    0  0.00000000000E+00  0.00000000000E+00  0.21319894762E+04  0.21319894762E+04  0.25500000000E-02 0.  1.
         -2   -1    0    0    0  501 -0.00000000000E+00 -0.00000000000E+00 -0.21426996697E+03  0.21426996699E+03  0.25500000000E-02 0. -1.
    5000001    1    1    2    0    0 -0.12757751514E+03 -0.56426028624E+03  0.42407869092E+03  0.73602542693E+03  0.16500000000E+03 0.  0.
   -5000001    1    1    2    0    0  0.12757751514E+03  0.56426028624E+03  0.14936408183E+04  0.16102340162E+04  0.16500000000E+03 0.  0.
<mgrwt>
<rscale>  0 0.13517712E+04</rscale>
<asrwt>0</asrwt>
<pdfrwt beam="1">  1        2 0.30456993E+00 0.13517712E+04</pdfrwt>
<pdfrwt beam="2">  1       -2 0.30609995E-01 0.13517712E+04</pdfrwt>
<totfact> 0.66233621E+01</totfact>
</mgrwt>
</event>
<event>
 4    1  0.5280257E-005  0.4627280E+03  0.7818608E-02  0.1023993E+00
         -2   -1    0    0    0  501 -0.00000000000E+00  0.00000000000E+00  0.11808794533E+03  0.11808794536E+03  0.25500000000E-02 0. -1.
          2   -1    0    0  501    0  0.00000000000E+00 -0.00000000000E+00 -0.45330038063E+03  0.45330038064E+03  0.25500000000E-02 0.  1.
    5000001    1    1    2    0    0  0.10405543597E+03 -0.10962521104E+03 -0.24023127171E+03  0.32830060091E+03  0.16500000000E+03 0.  0.
   -5000001    1    1    2    0    0 -0.10405543597E+03  0.10962521104E+03 -0.94981163601E+02  0.24308772509E+03  0.16500000000E+03 0.  0.
<mgrwt>
<rscale>  0 0.46272804E+03</rscale>
<asrwt>0</asrwt>
<pdfrwt beam="1">  1        2 0.64757197E-01 0.46272804E+03</pdfrwt>
<pdfrwt beam="2">  1       -2 0.16869707E-01 0.46272804E+03</pdfrwt>
<totfact> 0.21375827E+03</totfact>
</mgrwt>
</event>
<event>
 4    1  0.5280257E-005  0.3916922E+03  0.7818608E-02  0.1046695E+00
         -2   -1    0    0    0  501 -0.00000000000E+00  0.00000000000E+00  0.31659059916E+02  0.31659060018E+02  0.25500000000E-02 0. -1.
          2   -1    0    0  501    0  0.00000000000E+00 -0.00000000000E+00 -0.12115232406E+04  0.12115232406E+04  0.25500000000E-02 0.  1.
    5000001    1    1    2    0    0 -0.99955318563E+02 -0.20543413155E+00 -0.69707468561E+03  0.72327672798E+03  0.16500000000E+03 0.  0.
   -5000001    1    1    2    0    0  0.99955318563E+02  0.20543413155E+00 -0.48278949504E+03  0.51990557261E+03  0.16500000000E+03 0.  0.
<mgrwt>
<rscale>  0 0.39169216E+03</rscale>
<asrwt>0</asrwt>
<pdfrwt beam="1">  1        2 0.17307472E+00 0.39169216E+03</pdfrwt>
<pdfrwt beam="2">  1       -2 0.45227236E-02 0.39169216E+03</pdfrwt>
<totfact> 0.50657481E+03</totfact>
</mgrwt>
</event>
<event>
 4    1  0.5280257E-005  0.5953909E+03  0.7818608E-02  0.9915015E-01
         -2   -1    0    0    0  501 -0.00000000000E+00  0.00000000000E+00  0.65971330183E+02  0.65971330232E+02  0.25500000000E-02 0. -1.
          2   -1    0    0  501    0  0.00000000000E+00 -0.00000000000E+00 -0.13433499976E+04  0.13433499976E+04  0.25500000000E-02 0.  1.
    5000001    1    1    2    0    0 -0.83608120738E+02 -0.16415588137E+03 -0.24644290799E+03  0.34913690458E+03  0.16500000000E+03 0.  0.
   -5000001    1    1    2    0    0  0.83608120738E+02  0.16415588137E+03 -0.10309357594E+04  0.10601844232E+04  0.16500000000E+03 0.  0.
<mgrwt>
<rscale>  0 0.59539092E+03</rscale>
<asrwt>0</asrwt>
<pdfrwt beam="1">  1        2 0.19190713E+00 0.59539092E+03</pdfrwt>
<pdfrwt beam="2">  1       -2 0.94244766E-02 0.59539092E+03</pdfrwt>
<totfact> 0.13574279E+03</totfact>
</mgrwt>
</event>
<event>
 4    1  0.5280257E-005  0.5678662E+03  0.7818608E-02  0.9974412E-01
          2   -1    0    0  501    0  0.00000000000E+00  0.00000000000E+00  0.13970626449E+03  0.13970626451E+03  0.25500000000E-02 0.  1.
         -2   -1    0    0    0  501 -0.00000000000E+00 -0.00000000000E+00 -0.57705362681E+03  0.57705362682E+03  0.25500000000E-02 0. -1.
    5000001    1    1    2    0    0  0.12705144495E+03  0.18675773199E+03 -0.15719429165E+03  0.32086689678E+03  0.16500000000E+03 0.  0.
   -5000001    1    1    2    0    0 -0.12705144495E+03 -0.18675773199E+03 -0.28015307067E+03  0.39589299455E+03  0.16500000000E+03 0.  0.
<mgrwt>
<rscale>  0 0.56786620E+03</rscale>
<asrwt>0</asrwt>
<pdfrwt beam="1">  1        2 0.19958038E-01 0.56786620E+03</pdfrwt>
<pdfrwt beam="2">  1       -2 0.82436231E-01 0.56786620E+03</pdfrwt>
<totfact> 0.37171368E+02</totfact>
</mgrwt>
</event>
<event>
 4    1  0.5280257E-005  0.4061942E+03  0.7818608E-02  0.1041656E+00
         -2   -1    0    0    0  501 -0.00000000000E+00  0.00000000000E+00  0.36020837102E+02  0.36020837192E+02  0.25500000000E-02 0. -1.
          2   -1    0    0  501    0  0.00000000000E+00 -0.00000000000E+00 -0.11451270350E+04  0.11451270350E+04  0.25500000000E-02 0.  1.
    5000001    1    1    2    0    0 -0.98507267785E+02 -0.65550019216E+02 -0.54062347637E+03  0.57749392207E+03  0.16500000000E+03 0.  0.
   -5000001    1    1    2    0    0  0.98507267785E+02  0.65550019216E+02 -0.56848272152E+03  0.60365395012E+03  0.16500000000E+03 0.  0.
<mgrwt>
<rscale>  0 0.40619421E+03</rscale>
<asrwt>0</asrwt>
<pdfrwt beam="1">  1        2 0.16358955E+00 0.40619421E+03</pdfrwt>
<pdfrwt beam="2">  1       -2 0.51458346E-02 0.40619421E+03</pdfrwt>
<totfact> 0.45265499E+03</totfact>
</mgrwt>
</event>
<event>
 4    1  0.5280257E-005  0.6980838E+03  0.7818608E-02  0.9720515E-01
          2   -1    0    0  501    0  0.00000000000E+00  0.00000000000E+00  0.18282857046E+04  0.18282857046E+04  0.25500000000E-02 0.  1.
         -2   -1    0    0    0  501 -0.00000000000E+00 -0.00000000000E+00 -0.66636321233E+02  0.66636321281E+02  0.25500000000E-02 0. -1.
    5000001    1    1    2    0    0  0.15401041714E+03 -0.26597483041E+03  0.84831742582E+03  0.91724003072E+03  0.16500000000E+03 0.  0.
   -5000001    1    1    2    0    0 -0.15401041714E+03  0.26597483041E+03  0.91333195757E+03  0.97768199519E+03  0.16500000000E+03 0.  0.
<mgrwt>
<rscale>  0 0.69808376E+03</rscale>
<asrwt>0</asrwt>
<pdfrwt beam="1">  1        2 0.26118365E+00 0.69808376E+03</pdfrwt>
<pdfrwt beam="2">  1       -2 0.95194751E-02 0.69808376E+03</pdfrwt>
<totfact> 0.74544659E+02</totfact>
</mgrwt>
</event>
<event>
 4    1  0.5280257E-005  0.4442542E+03  0.7818608E-02  0.1029449E+00
          2   -1    0    0  501    0  0.00000000000E+00  0.00000000000E+00  0.15402460033E+03  0.15402460035E+03  0.25500000000E-02 0.  1.
         -2   -1    0    0    0  501 -0.00000000000E+00 -0.00000000000E+00 -0.32034135850E+03  0.32034135851E+03  0.25500000000E-02 0. -1.
    5000001    1    1    2    0    0  0.94119330622E+02  0.11026199502E+03 -0.47755477891E+02  0.22477041979E+03  0.16500000000E+03 0.  0.
   -5000001    1    1    2    0    0 -0.94119330622E+02 -0.11026199502E+03 -0.11856128028E+03  0.24959553907E+03  0.16500000000E+03 0.  0.
<mgrwt>
<rscale>  0 0.44425421E+03</rscale>
<asrwt>0</asrwt>
<pdfrwt beam="1">  1        2 0.22003514E-01 0.44425421E+03</pdfrwt>
<pdfrwt beam="2">  1       -2 0.45763051E-01 0.44425421E+03</pdfrwt>
<totfact> 0.11495034E+03</totfact>
</mgrwt>
</event>
<event>
 4    1  0.5280257E-005  0.4928444E+03  0.7818608E-02  0.1015664E+00
          2   -1    0    0  501    0  0.00000000000E+00  0.00000000000E+00  0.52952535964E+03  0.52952535965E+03  0.25500000000E-02 0.  1.
         -2   -1    0    0    0  501 -0.00000000000E+00 -0.00000000000E+00 -0.11467608334E+03  0.11467608337E+03  0.25500000000E-02 0. -1.
    5000001    1    1    2    0    0  0.17712777978E+03  0.41879964312E+02  0.23259158363E+03  0.33830759163E+03  0.16500000000E+03 0.  0.
   -5000001    1    1    2    0    0 -0.17712777978E+03 -0.41879964312E+02  0.18225769267E+03  0.30589385139E+03  0.16500000000E+03 0.  0.
<mgrwt>
<rscale>  0 0.49284437E+03</rscale>
<asrwt>0</asrwt>
<pdfrwt beam="1">  1        2 0.75646480E-01 0.49284437E+03</pdfrwt>
<pdfrwt beam="2">  1       -2 0.16382298E-01 0.49284437E+03</pdfrwt>
<totfact> 0.18864529E+03</totfact>
</mgrwt>
</event>
<event>
 4    1  0.5280257E-005  0.4668007E+03  0.7818608E-02  0.1022827E+00
          2   -1    0    0  501    0  0.00000000000E+00  0.00000000000E+00  0.75027390244E+02  0.75027390287E+02  0.25500000000E-02 0.  1.
         -2   -1    0    0    0  501 -0.00000000000E+00 -0.00000000000E+00 -0.72607788204E+03  0.72607788205E+03  0.25500000000E-02 0. -1.
    5000001    1    1    2    0    0  0.15812252451E+03 -0.37160752296E+02 -0.27499094740E+03  0.35948390148E+03  0.16500000000E+03 0.  0.
   -5000001    1    1    2    0    0 -0.15812252451E+03  0.37160752296E+02 -0.37605954439E+03  0.44162137086E+03  0.16500000000E+03 0.  0.
<mgrwt>
<rscale>  0 0.46680072E+03</rscale>
<asrwt>0</asrwt>
<pdfrwt beam="1">  1        2 0.10718199E-01 0.46680072E+03</pdfrwt>
<pdfrwt beam="2">  1       -2 0.10372541E+00 0.46680072E+03</pdfrwt>
<totfact> 0.46507623E+02</totfact>
</mgrwt>
</event>
<event>
 4    1  0.5280257E-005  0.4777978E+03  0.7818608E-02  0.1019742E+00
         -2   -1    0    0    0  501 -0.00000000000E+00  0.00000000000E+00  0.57811069587E+02  0.57811069643E+02  0.25500000000E-02 0. -1.
          2   -1    0    0  501    0  0.00000000000E+00 -0.00000000000E+00 -0.98722751245E+03  0.98722751246E+03  0.25500000000E-02 0.  1.
    5000001    1    1    2    0    0 -0.42164580181E+02  0.15410795238E+03 -0.32094145478E+03  0.39465875159E+03  0.16500000000E+03 0.  0.
   -5000001    1    1    2    0    0  0.42164580181E+02 -0.15410795238E+03 -0.60847498809E+03  0.65037983051E+03  0.16500000000E+03 0.  0.
<mgrwt>
<rscale>  0 0.47779778E+03</rscale>
<asrwt>0</asrwt>
<pdfrwt beam="1">  1        2 0.14103249E+00 0.47779778E+03</pdfrwt>
<pdfrwt beam="2">  1       -2 0.82587248E-02 0.47779778E+03</pdfrwt>
<totfact> 0.26753528E+03</totfact>
</mgrwt>
</event>
<event>
 4    1  0.5280257E-005  0.5056777E+03  0.7818608E-02  0.1012307E+00
         -2   -1    0    0    0  501 -0.00000000000E+00  0.00000000000E+00  0.44852837817E+02  0.44852837889E+02  0.25500000000E-02 0. -1.
          2   -1    0    0  501    0  0.00000000000E+00 -0.00000000000E+00 -0.14252715823E+04  0.14252715823E+04  0.25500000000E-02 0.  1.
    5000001    1    1    2    0    0  0.16284965729E+03  0.61715506629E+02 -0.92230918207E+03  0.95299949736E+03  0.16500000000E+03 0.  0.
   -5000001    1    1    2    0    0 -0.16284965729E+03 -0.61715506629E+02 -0.45810956241E+03  0.51712492283E+03  0.16500000000E+03 0.  0.
<mgrwt>
<rscale>  0 0.50567766E+03</rscale>
<asrwt>0</asrwt>
<pdfrwt beam="1">  1        2 0.20361020E+00 0.50567766E+03</pdfrwt>
<pdfrwt beam="2">  1       -2 0.64075491E-02 0.50567766E+03</pdfrwt>
<totfact> 0.22714445E+03</totfact>
</mgrwt>
</event>
<event>
 4    1  0.5280257E-005  0.3014763E+04  0.7818608E-02  0.8239528E-01
         -2   -1    0    0    0  501 -0.00000000000E+00  0.00000000000E+00  0.12257998592E+04  0.12257998592E+04  0.25500000000E-02 0. -1.
          2   -1    0    0  501    0  0.00000000000E+00 -0.00000000000E+00 -0.18536460841E+04  0.18536460841E+04  0.25500000000E-02 0.  1.
    5000001    1    1    2    0    0  0.60528636325E+03 -0.13151624392E+04  0.80298170676E+02  0.14593480117E+04  0.16500000000E+03 0.  0.
   -5000001    1    1    2    0    0 -0.60528636325E+03  0.13151624392E+04 -0.70814439555E+03  0.16200979316E+04  0.16500000000E+03 0.  0.
<mgrwt>
<rscale>  0 0.30147631E+04</rscale>
<asrwt>0</asrwt>
<pdfrwt beam="1">  1        2 0.26480658E+00 0.30147631E+04</pdfrwt>
<pdfrwt beam="2">  1       -2 0.17511427E+00 0.30147631E+04</pdfrwt>
<totfact> 0.16138713E+00</totfact>
</mgrwt>
</event>
<event>
 4    1  0.5280257E-005  0.4693396E+03  0.7818608E-02  0.1022107E+00
          2   -1    0    0  501    0  0.00000000000E+00  0.00000000000E+00  0.31248376511E+03  0.31248376512E+03  0.25500000000E-02 0. -1.
         -2   -1    0    0    0  501 -0.00000000000E+00 -0.00000000000E+00 -0.17623291774E+03  0.17623291776E+03  0.25500000000E-02 0.  1.
    5000001    1    1    2    0    0 -0.16090623972E+03 -0.17580966098E+02  0.25892109587E+02  0.23258398416E+03  0.16500000000E+03 0.  0.
   -5000001    1    1    2    0    0  0.16090623972E+03  0.17580966098E+02  0.11035873778E+03  0.25613269872E+03  0.16500000000E+03 0.  0.
<mgrwt>
<rscale>  0 0.46933965E+03</rscale>
<asrwt>0</asrwt>
<pdfrwt beam="1">  1        2 0.44640538E-01 0.46933965E+03</pdfrwt>
<pdfrwt beam="2">  1       -2 0.25176131E-01 0.46933965E+03</pdfrwt>
<totfact> 0.16046068E+03</totfact>
</mgrwt>
</event>
<event>
 4    1  0.5280257E-005  0.3426081E+03  0.7818608E-02  0.1065691E+00
          2   -1    0    0  501    0  0.00000000000E+00  0.00000000000E+00  0.50024965962E+02  0.50024966027E+02  0.25500000000E-02 0.  1.
         -2   -1    0    0    0  501 -0.00000000000E+00 -0.00000000000E+00 -0.58660863443E+03  0.58660863443E+03  0.25500000000E-02 0. -1.
    5000001    1    1    2    0    0 -0.30364353064E+01  0.39723065239E+02 -0.31118905077E+03  0.35447251962E+03  0.16500000000E+03 0.  0.
   -5000001    1    1    2    0    0  0.30364353064E+01 -0.39723065239E+02 -0.22539461770E+03  0.28216108084E+03  0.16500000000E+03 0.  0.
<mgrwt>
<rscale>  0 0.34260810E+03</rscale>
<asrwt>0</asrwt>
<pdfrwt beam="1">  1        2 0.71464241E-02 0.34260810E+03</pdfrwt>
<pdfrwt beam="2">  1       -2 0.83801230E-01 0.34260810E+03</pdfrwt>
<totfact> 0.12703666E+03</totfact>
</mgrwt>
</event>
<event>
 4    1  0.5280257E-005  0.1040166E+04  0.7818608E-02  0.9265556E-01
         -2   -1    0    0    0  501 -0.00000000000E+00  0.00000000000E+00  0.25238536656E+03  0.25238536657E+03  0.25500000000E-02 0. -1.
          2   -1    0    0  501    0  0.00000000000E+00 -0.00000000000E+00 -0.10717201112E+04  0.10717201112E+04  0.25500000000E-02 0.  1.
    5000001    1    1    2    0    0  0.44241548283E+03  0.21674035098E+03 -0.43961974008E+03  0.68058677262E+03  0.16500000000E+03 0.  0.
   -5000001    1    1    2    0    0 -0.44241548283E+03 -0.21674035098E+03 -0.37971500454E+03  0.64351870514E+03  0.16500000000E+03 0.  0.
<mgrwt>
<rscale>  0 0.10401663E+04</rscale>
<asrwt>0</asrwt>
<pdfrwt beam="1">  1        2 0.15310287E+00 0.10401663E+04</pdfrwt>
<pdfrwt beam="2">  1       -2 0.36055053E-01 0.10401663E+04</pdfrwt>
<totfact> 0.18273919E+02</totfact>
</mgrwt>
</event>
<event>
 4    1  0.5280257E-005  0.6085666E+03  0.7818608E-02  0.9887791E-01
          2   -1    0    0  501    0  0.00000000000E+00  0.00000000000E+00  0.28988606913E+03  0.28988606914E+03  0.25500000000E-02 0.  1.
         -2   -1    0    0    0  501 -0.00000000000E+00 -0.00000000000E+00 -0.31939556494E+03  0.31939556495E+03  0.25500000000E-02 0. -1.
    5000001    1    1    2    0    0 -0.18941933722E+03  0.16369859279E+03 -0.66646238296E+02  0.30715409109E+03  0.16500000000E+03 0.  0.
   -5000001    1    1    2    0    0  0.18941933722E+03 -0.16369859279E+03  0.37136742480E+02  0.30212754300E+03  0.16500000000E+03 0.  0.
<mgrwt>
<rscale>  0 0.60856659E+03</rscale>
<asrwt>0</asrwt>
<pdfrwt beam="1">  1        2 0.41412296E-01 0.60856659E+03</pdfrwt>
<pdfrwt beam="2">  1       -2 0.45627937E-01 0.60856659E+03</pdfrwt>
<totfact> 0.56839146E+02</totfact>
</mgrwt>
</event>
<event>
 4    1  0.5280257E-005  0.5269475E+03  0.7818608E-02  0.1006975E+00
         -2   -1    0    0    0  501 -0.00000000000E+00  0.00000000000E+00  0.38777276843E+02  0.38777276927E+02  0.25500000000E-02 0. -1.
          2   -1    0    0  501    0  0.00000000000E+00 -0.00000000000E+00 -0.17901829745E+04  0.17901829745E+04  0.25500000000E-02 0.  1.
    5000001    1    1    2    0    0 -0.78858201115E+02  0.16071273282E+03 -0.12253170760E+04  0.12492694405E+04  0.16500000000E+03 0.  0.
   -5000001    1    1    2    0    0  0.78858201115E+02 -0.16071273282E+03 -0.52608862171E+03  0.57969081092E+03  0.16500000000E+03 0.  0.
<mgrwt>
<rscale>  0 0.52694751E+03</rscale>
<asrwt>0</asrwt>
<pdfrwt beam="1">  1        2 0.25574037E+00 0.52694751E+03</pdfrwt>
<pdfrwt beam="2">  1       -2 0.55396121E-02 0.52694751E+03</pdfrwt>
<totfact> 0.18532028E+03</totfact>
</mgrwt>
</event>
<event>
 4    1  0.5280257E-005  0.4676099E+03  0.7818608E-02  0.1022597E+00
          2   -1    0    0  501    0  0.00000000000E+00  0.00000000000E+00  0.43634173332E+03  0.43634173333E+03  0.25500000000E-02 0.  1.
         -2   -1    0    0    0  501 -0.00000000000E+00 -0.00000000000E+00 -0.12527970423E+03  0.12527970425E+03  0.25500000000E-02 0. -1.
    5000001    1    1    2    0    0 -0.11368983073E+03  0.11956445096E+03  0.13776819541E+03  0.27097252852E+03  0.16500000000E+03 0.  0.
   -5000001    1    1    2    0    0  0.11368983073E+03 -0.11956445096E+03  0.17329383369E+03  0.29064890906E+03  0.16500000000E+03 0.  0.
<mgrwt>
<rscale>  0 0.46760994E+03</rscale>
<asrwt>0</asrwt>
<pdfrwt beam="1">  1        2 0.62334533E-01 0.46760994E+03</pdfrwt>
<pdfrwt beam="2">  1       -2 0.17897101E-01 0.46760994E+03</pdfrwt>
<totfact> 0.20169258E+03</totfact>
</mgrwt>
</event>
<event>
 4    1  0.5280257E-005  0.4295184E+03  0.7818608E-02  0.1034012E+00
          2   -1    0    0  501    0  0.00000000000E+00  0.00000000000E+00  0.40643221732E+03  0.40643221732E+03  0.25500000000E-02 0.  1.
         -2   -1    0    0    0  501 -0.00000000000E+00 -0.00000000000E+00 -0.11347899027E+03  0.11347899030E+03  0.25500000000E-02 0. -1.
    5000001    1    1    2    0    0 -0.74017594766E+02  0.44191777529E+02  0.16867834109E+02  0.18692522934E+03  0.16500000000E+03 0.  0.
   -5000001    1    1    2    0    0  0.74017594766E+02 -0.44191777529E+02  0.27608539294E+03  0.33298597828E+03  0.16500000000E+03 0.  0.
<mgrwt>
<rscale>  0 0.42951842E+03</rscale>
<asrwt>0</asrwt>
<pdfrwt beam="1">  1        2 0.58061747E-01 0.42951842E+03</pdfrwt>
<pdfrwt beam="2">  1       -2 0.16211284E-01 0.42951842E+03</pdfrwt>
<totfact> 0.25777872E+03</totfact>
</mgrwt>
</event>
<event>
 4    1  0.5280257E-005  0.6118213E+03  0.7818608E-02  0.9881180E-01
          2   -1    0    0  501    0  0.00000000000E+00  0.00000000000E+00  0.16029057559E+03  0.16029057561E+03  0.25500000000E-02 0.  1.
         -2   -1    0    0    0  501 -0.00000000000E+00 -0.00000000000E+00 -0.58382293878E+03  0.58382293879E+03  0.25500000000E-02 0. -1.
    5000001    1    1    2    0    0 -0.23114826026E+03  0.99025390275E+02 -0.14382307184E+03  0.33338509585E+03  0.16500000000E+03 0.  0.
   -5000001    1    1    2    0    0  0.23114826026E+03 -0.99025390275E+02 -0.27970929135E+03  0.41072841856E+03  0.16500000000E+03 0.  0.
<mgrwt>
<rscale>  0 0.61182126E+03</rscale>
<asrwt>0</asrwt>
<pdfrwt beam="1">  1        2 0.22898654E-01 0.61182126E+03</pdfrwt>
<pdfrwt beam="2">  1       -2 0.83403276E-01 0.61182126E+03</pdfrwt>
<totfact> 0.30834277E+02</totfact>
</mgrwt>
</event>
<event>
 4    1  0.5280257E-005  0.5269116E+03  0.7818608E-02  0.1006984E+00
         -2   -1    0    0    0  501 -0.00000000000E+00  0.00000000000E+00  0.19014489699E+02  0.19014489870E+02  0.25500000000E-02 0. -1.
          2   -1    0    0  501    0  0.00000000000E+00 -0.00000000000E+00 -0.36503192406E+04  0.36503192406E+04  0.25500000000E-02 0.  1.
    5000001    1    1    2    0    0 -0.18567174282E+03  0.86879500972E+02 -0.19042642345E+04  0.19223603508E+04  0.16500000000E+03 0.  0.
   -5000001    1    1    2    0    0  0.18567174282E+03 -0.86879500972E+02 -0.17270405164E+04  0.17469733796E+04  0.16500000000E+03 0.  0.
<mgrwt>
<rscale>  0 0.52691160E+03</rscale>
<asrwt>0</asrwt>
<pdfrwt beam="1">  1        2 0.52147373E+00 0.52691160E+03</pdfrwt>
<pdfrwt beam="2">  1       -2 0.27163580E-02 0.52691160E+03</pdfrwt>
<totfact> 0.56174359E+02</totfact>
</mgrwt>
</event>
<event>
 4    1  0.5280257E-005  0.6158601E+03  0.7818608E-02  0.9873037E-01
          2   -1    0    0  501    0  0.00000000000E+00  0.00000000000E+00  0.55240643520E+03  0.55240643521E+03  0.25500000000E-02 0.  1.
         -2   -1    0    0    0  501 -0.00000000000E+00 -0.00000000000E+00 -0.17165063681E+03  0.17165063683E+03  0.25500000000E-02 0. -1.
    5000001    1    1    2    0    0 -0.16626404509E+03 -0.94373351164E+02  0.39753152417E+03  0.47096324146E+03  0.16500000000E+03 0.  0.
   -5000001    1    1    2    0    0  0.16626404509E+03  0.94373351164E+02 -0.16775725783E+02  0.25309383058E+03  0.16500000000E+03 0.  0.
<mgrwt>
<rscale>  0 0.61586010E+03</rscale>
<asrwt>0</asrwt>
<pdfrwt beam="1">  1        2 0.78915206E-01 0.61586010E+03</pdfrwt>
<pdfrwt beam="2">  1       -2 0.24521519E-01 0.61586010E+03</pdfrwt>
<totfact> 0.89028790E+02</totfact>
</mgrwt>
</event>
<event>
 4    1  0.5280257E-005  0.5336900E+03  0.7818608E-02  0.1005341E+00
         -2   -1    0    0    0  501 -0.00000000000E+00  0.00000000000E+00  0.31390881328E+02  0.31390881431E+02  0.25500000000E-02 0. -1.
          2   -1    0    0  501    0  0.00000000000E+00 -0.00000000000E+00 -0.22683735840E+04  0.22683735840E+04  0.25500000000E-02 0.  1.
    5000001    1    1    2    0    0 -0.16102213526E+03 -0.10746304253E+03 -0.14660368844E+04  0.14879400458E+04  0.16500000000E+03 0.  0.
   -5000001    1    1    2    0    0  0.16102213526E+03  0.10746304253E+03 -0.77094581821E+03  0.81182441955E+03  0.16500000000E+03 0.  0.
<mgrwt>
<rscale>  0 0.53368997E+03</rscale>
<asrwt>0</asrwt>
<pdfrwt beam="1">  1        2 0.32405326E+00 0.53368997E+03</pdfrwt>
<pdfrwt beam="2">  1       -2 0.44844131E-02 0.53368997E+03</pdfrwt>
<totfact> 0.14797299E+03</totfact>
</mgrwt>
</event>
<event>
 4    1  0.5280257E-005  0.5969878E+03  0.7818608E-02  0.9911675E-01
          2   -1    0    0  501    0  0.00000000000E+00  0.00000000000E+00  0.52757056288E+02  0.52757056349E+02  0.25500000000E-02 0.  1.
         -2   -1    0    0    0  501 -0.00000000000E+00 -0.00000000000E+00 -0.16888473189E+04  0.16888473189E+04  0.25500000000E-02 0. -1.
    5000001    1    1    2    0    0  0.21480787076E+02 -0.15211764481E+03 -0.13887702020E+04  0.14069502038E+04  0.16500000000E+03 0.  0.
   -5000001    1    1    2    0    0 -0.21480787076E+02  0.15211764481E+03 -0.24732006062E+03  0.33465417144E+03  0.16500000000E+03 0.  0.
<mgrwt>
<rscale>  0 0.59698782E+03</rscale>
<asrwt>0</asrwt>
<pdfrwt beam="1">  1        2 0.75367234E-02 0.59698782E+03</pdfrwt>
<pdfrwt beam="2">  1       -2 0.24126387E+00 0.59698782E+03</pdfrwt>
<totfact> 0.72257477E+01</totfact>
</mgrwt>
</event>
<event>
 4    1  0.5280257E-005  0.5655717E+03  0.7818608E-02  0.9979526E-01
         -2   -1    0    0    0  501 -0.00000000000E+00  0.00000000000E+00  0.52409427863E+02  0.52409427925E+02  0.25500000000E-02 0. -1.
          2   -1    0    0  501    0  0.00000000000E+00 -0.00000000000E+00 -0.15258289757E+04  0.15258289757E+04  0.25500000000E-02 0.  1.
    5000001    1    1    2    0    0  0.18675576258E+03 -0.12795678280E+03 -0.84450367936E+03  0.88975396463E+03  0.16500000000E+03 0.  0.
   -5000001    1    1    2    0    0 -0.18675576258E+03  0.12795678280E+03 -0.62891586850E+03  0.68848443902E+03  0.16500000000E+03 0.  0.
<mgrwt>
<rscale>  0 0.56557165E+03</rscale>
<asrwt>0</asrwt>
<pdfrwt beam="1">  1        2 0.21797554E+00 0.56557165E+03</pdfrwt>
<pdfrwt beam="2">  1       -2 0.74870620E-02 0.56557165E+03</pdfrwt>
<totfact> 0.15728672E+03</totfact>
</mgrwt>
</event>
<event>
 4    1  0.5280257E-005  0.5003995E+03  0.7818608E-02  0.1013675E+00
         -2   -1    0    0    0  501 -0.00000000000E+00  0.00000000000E+00  0.83507043962E+02  0.83507044001E+02  0.25500000000E-02 0. -1.
          2   -1    0    0  501    0  0.00000000000E+00 -0.00000000000E+00 -0.74963627541E+03  0.74963627542E+03  0.25500000000E-02 0.  1.
    5000001    1    1    2    0    0  0.12579993631E+03 -0.28342732057E+02 -0.56102369008E+03  0.59883346205E+03  0.16500000000E+03 0.  0.
   -5000001    1    1    2    0    0 -0.12579993631E+03  0.28342732057E+02 -0.10510554137E+03  0.23430985737E+03  0.16500000000E+03 0.  0.
<mgrwt>
<rscale>  0 0.50039948E+03</rscale>
<asrwt>0</asrwt>
<pdfrwt beam="1">  1        2 0.10709089E+00 0.50039948E+03</pdfrwt>
<pdfrwt beam="2">  1       -2 0.11929578E-01 0.50039948E+03</pdfrwt>
<totfact> 0.21185310E+03</totfact>
</mgrwt>
</event>
<event>
 4    1  0.5280257E-005  0.3997352E+03  0.7818608E-02  0.1043871E+00
          2   -1    0    0  501    0  0.00000000000E+00  0.00000000000E+00  0.70152394231E+03  0.70152394232E+03  0.25500000000E-02 0.  1.
         -2   -1    0    0    0  501 -0.00000000000E+00 -0.00000000000E+00 -0.56943269745E+02  0.56943269803E+02  0.25500000000E-02 0. -1.
    5000001    1    1    2    0    0 -0.50720293884E+02 -0.63880859310E+02  0.47010385588E+03  0.50485240191E+03  0.16500000000E+03 0.  0.
   -5000001    1    1    2    0    0  0.50720293884E+02  0.63880859310E+02  0.17447681668E+03  0.25361481021E+03  0.16500000000E+03 0.  0.
<mgrwt>
<rscale>  0 0.39973525E+03</rscale>
<asrwt>0</asrwt>
<pdfrwt beam="1">  1        2 0.10021771E+00 0.39973525E+03</pdfrwt>
<pdfrwt beam="2">  1       -2 0.81347526E-02 0.39973525E+03</pdfrwt>
<totfact> 0.42439787E+03</totfact>
</mgrwt>
</event>
<event>
 4    1  0.5280257E-005  0.3988619E+03  0.7818608E-02  0.1044174E+00
          2   -1    0    0  501    0  0.00000000000E+00  0.00000000000E+00  0.21905883956E+04  0.21905883956E+04  0.25500000000E-02 0. -1.
         -2   -1    0    0    0  501 -0.00000000000E+00 -0.00000000000E+00 -0.18156172844E+02  0.18156173023E+02  0.25500000000E-02 0.  1.
    5000001    1    1    2    0    0  0.97159653037E+02 -0.45327431780E+02  0.12659224629E+04  0.12811242158E+04  0.16500000000E+03 0.  0.
   -5000001    1    1    2    0    0 -0.97159653037E+02  0.45327431780E+02  0.90650975984E+03  0.92762035281E+03  0.16500000000E+03 0.  0.
<mgrwt>
<rscale>  0 0.39886189E+03</rscale>
<asrwt>0</asrwt>
<pdfrwt beam="1">  1        2 0.31294114E+00 0.39886189E+03</pdfrwt>
<pdfrwt beam="2">  1       -2 0.25937395E-02 0.39886189E+03</pdfrwt>
<totfact> 0.37379392E+03</totfact>
</mgrwt>
</event>
<event>
 4    1  0.5280257E-005  0.7136352E+03  0.7818608E-02  0.9694194E-01
         -2   -1    0    0    0  501 -0.00000000000E+00  0.00000000000E+00  0.51734129550E+03  0.51734129551E+03  0.25500000000E-02 0. -1.
          2   -1    0    0  501    0  0.00000000000E+00 -0.00000000000E+00 -0.24610212752E+03  0.24610212754E+03  0.25500000000E-02 0.  1.
    5000001    1    1    2    0    0  0.48553595011E+02  0.28124019137E+03  0.28167814415E+03  0.43361396855E+03  0.16500000000E+03 0.  0.
   -5000001    1    1    2    0    0 -0.48553595011E+02 -0.28124019137E+03 -0.10438976172E+02  0.32982945449E+03  0.16500000000E+03 0.  0.
<mgrwt>
<rscale>  0 0.71363518E+03</rscale>
<asrwt>0</asrwt>
<pdfrwt beam="1">  1        2 0.35157447E-01 0.71363518E+03</pdfrwt>
<pdfrwt beam="2">  1       -2 0.73905899E-01 0.71363518E+03</pdfrwt>
<totfact> 0.24775632E+02</totfact>
</mgrwt>
</event>
<event>
 4    1  0.5280257E-005  0.4520907E+03  0.7818608E-02  0.1027100E+00
         -2   -1    0    0    0  501 -0.00000000000E+00  0.00000000000E+00  0.23213077074E+02  0.23213077215E+02  0.25500000000E-02 0.  1.
          2   -1    0    0  501    0  0.00000000000E+00 -0.00000000000E+00 -0.22011941489E+04  0.22011941489E+04  0.25500000000E-02 0. -1.
    5000001    1    1    2    0    0 -0.67713757669E+02 -0.11816416142E+03 -0.72999408533E+03  0.76069986633E+03  0.16500000000E+03 0.  0.
   -5000001    1    1    2    0    0  0.67713757669E+02  0.11816416142E+03 -0.14479869865E+04  0.14637073598E+04  0.16500000000E+03 0.  0.
<mgrwt>
<rscale>  0 0.45209065E+03</rscale>
<asrwt>0</asrwt>
<pdfrwt beam="1">  1        2 0.31445617E+00 0.45209065E+03</pdfrwt>
<pdfrwt beam="2">  1       -2 0.33161553E-02 0.45209065E+03</pdfrwt>
<totfact> 0.25456401E+03</totfact>
</mgrwt>
</event>
<event>
 4    1  0.5280257E-005  0.4581591E+03  0.7818608E-02  0.1025316E+00
          2   -1    0    0  501    0  0.00000000000E+00  0.00000000000E+00  0.90884478232E+03  0.90884478232E+03  0.25500000000E-02 0.  1.
         -2   -1    0    0    0  501 -0.00000000000E+00 -0.00000000000E+00 -0.57740818586E+02  0.57740818642E+02  0.25500000000E-02 0. -1.
    5000001    1    1    2    0    0  0.15872347299E+03  0.69071714696E+01  0.43273488516E+03  0.48961753515E+03  0.16500000000E+03 0.  0.
   -5000001    1    1    2    0    0 -0.15872347299E+03 -0.69071714696E+01  0.41836907857E+03  0.47696806581E+03  0.16500000000E+03 0.  0.
<mgrwt>
<rscale>  0 0.45815911E+03</rscale>
<asrwt>0</asrwt>
<pdfrwt beam="1">  1        2 0.12983496E+00 0.45815911E+03</pdfrwt>
<pdfrwt beam="2">  1       -2 0.82486891E-02 0.45815911E+03</pdfrwt>
<totfact> 0.29980835E+03</totfact>
</mgrwt>
</event>
<event>
 4    1  0.5280257E-005  0.3661453E+03  0.7818608E-02  0.1056177E+00
         -2   -1    0    0    0  501 -0.00000000000E+00  0.00000000000E+00  0.47069455584E+02  0.47069455653E+02  0.25500000000E-02 0.  1.
          2   -1    0    0  501    0  0.00000000000E+00 -0.00000000000E+00 -0.71204539545E+03  0.71204539546E+03  0.25500000000E-02 0. -1.
    5000001    1    1    2    0    0  0.17848064010E+02 -0.55682374433E+02 -0.22138922597E+03  0.28223619468E+03  0.16500000000E+03 0.  0.
   -5000001    1    1    2    0    0 -0.17848064010E+02  0.55682374433E+02 -0.44358671390E+03  0.47687865644E+03  0.16500000000E+03 0.  0.
<mgrwt>
<rscale>  0 0.36614527E+03</rscale>
<asrwt>0</asrwt>
<pdfrwt beam="1">  1        2 0.10172076E+00 0.36614527E+03</pdfrwt>
<pdfrwt beam="2">  1       -2 0.67242084E-02 0.36614527E+03</pdfrwt>
<totfact> 0.56094323E+03</totfact>
</mgrwt>
</event>
<event>
 4    1  0.5280257E-005  0.4964653E+03  0.7818608E-02  0.1014706E+00
          2   -1    0    0  501    0  0.00000000000E+00  0.00000000000E+00  0.67882287288E+03  0.67882287288E+03  0.25500000000E-02 0.  1.
         -2   -1    0    0    0  501 -0.00000000000E+00 -0.00000000000E+00 -0.90773959355E+02  0.90773959391E+02  0.25500000000E-02 0. -1.
    5000001    1    1    2    0    0 -0.18451194300E+03  0.15663428584E+02  0.27818255266E+03  0.37269361775E+03  0.16500000000E+03 0.  0.
   -5000001    1    1    2    0    0  0.18451194300E+03 -0.15663428584E+02  0.30986636086E+03  0.39690321453E+03  0.16500000000E+03 0.  0.
<mgrwt>
<rscale>  0 0.49646527E+03</rscale>
<asrwt>0</asrwt>
<pdfrwt beam="1">  1        2 0.96974695E-01 0.49646527E+03</pdfrwt>
<pdfrwt beam="2">  1       -2 0.12967709E-01 0.49646527E+03</pdfrwt>
<totfact> 0.20850584E+03</totfact>
</mgrwt>
</event>
<event>
 4    1  0.5280257E-005  0.5067318E+03  0.7818608E-02  0.1012037E+00
          2   -1    0    0  501    0  0.00000000000E+00  0.00000000000E+00  0.10952622677E+04  0.10952622677E+04  0.25500000000E-02 0.  1.
         -2   -1    0    0    0  501 -0.00000000000E+00 -0.00000000000E+00 -0.58610866441E+02  0.58610866497E+02  0.25500000000E-02 0. -1.
    5000001    1    1    2    0    0 -0.11965587153E+03  0.17943990439E+02  0.17805706309E+03  0.27123575004E+03  0.16500000000E+03 0.  0.
   -5000001    1    1    2    0    0  0.11965587153E+03 -0.17943990439E+02  0.85859433820E+03  0.88263738419E+03  0.16500000000E+03 0.  0.
<mgrwt>
<rscale>  0 0.50673177E+03</rscale>
<asrwt>0</asrwt>
<pdfrwt beam="1">  1        2 0.15646605E+00 0.50673177E+03</pdfrwt>
<pdfrwt beam="2">  1       -2 0.83729804E-02 0.50673177E+03</pdfrwt>
<totfact> 0.22584245E+03</totfact>
</mgrwt>
</event>
<event>
 4    1  0.5280257E-005  0.5548680E+03  0.7818608E-02  0.1000373E+00
          2   -1    0    0  501    0  0.00000000000E+00  0.00000000000E+00  0.49873079607E+03  0.49873079607E+03  0.25500000000E-02 0.  1.
         -2   -1    0    0    0  501 -0.00000000000E+00 -0.00000000000E+00 -0.15433100784E+03  0.15433100786E+03  0.25500000000E-02 0. -1.
    5000001    1    1    2    0    0  0.15689189590E+03 -0.14454039656E+03  0.95582693814E+02  0.28612592437E+03  0.16500000000E+03 0.  0.
   -5000001    1    1    2    0    0 -0.15689189590E+03  0.14454039656E+03  0.24881709442E+03  0.36693587956E+03  0.16500000000E+03 0.  0.
<mgrwt>
<rscale>  0 0.55486801E+03</rscale>
<asrwt>0</asrwt>
<pdfrwt beam="1">  1        2 0.71247256E-01 0.55486801E+03</pdfrwt>
<pdfrwt beam="2">  1       -2 0.22047287E-01 0.55486801E+03</pdfrwt>
<totfact> 0.12098096E+03</totfact>
</mgrwt>
</event>
<event>
 4    1  0.5280257E-005  0.1390329E+04  0.7818608E-02  0.8960849E-01
         -2   -1    0    0    0  501 -0.00000000000E+00  0.00000000000E+00  0.22075545924E+03  0.22075545925E+03  0.25500000000E-02 0. -1.
          2   -1    0    0  501    0  0.00000000000E+00 -0.00000000000E+00 -0.21890892523E+04  0.21890892523E+04  0.25500000000E-02 0.  1.
    5000001    1    1    2    0    0  0.25983048269E+02 -0.48391160525E+03 -0.16899852752E+03  0.53910208940E+03  0.16500000000E+03 0.  0.
   -5000001    1    1    2    0    0 -0.25983048269E+02  0.48391160525E+03 -0.17993352656E+04  0.18707426222E+04  0.16500000000E+03 0.  0.
<mgrwt>
<rscale>  0 0.13903286E+04</rscale>
<asrwt>0</asrwt>
<pdfrwt beam="1">  1        2 0.31272702E+00 0.13903286E+04</pdfrwt>
<pdfrwt beam="2">  1       -2 0.31536495E-01 0.13903286E+04</pdfrwt>
<totfact> 0.58364743E+01</totfact>
</mgrwt>
</event>
<event>
 4    1  0.5280257E-005  0.5052263E+03  0.7818608E-02  0.1012424E+00
          2   -1    0    0  501    0  0.00000000000E+00  0.00000000000E+00  0.53030226493E+03  0.53030226493E+03  0.25500000000E-02 0.  1.
         -2   -1    0    0    0  501 -0.00000000000E+00 -0.00000000000E+00 -0.12033404136E+03  0.12033404139E+03  0.25500000000E-02 0. -1.
    5000001    1    1    2    0    0 -0.14057122379E+03 -0.10846741451E+03  0.29661772244E+03  0.38305681332E+03  0.16500000000E+03 0.  0.
   -5000001    1    1    2    0    0  0.14057122379E+03  0.10846741451E+03  0.11335050113E+03  0.26757949300E+03  0.16500000000E+03 0.  0.
<mgrwt>
<rscale>  0 0.50522634E+03</rscale>
<asrwt>0</asrwt>
<pdfrwt beam="1">  1        2 0.75757468E-01 0.50522634E+03</pdfrwt>
<pdfrwt beam="2">  1       -2 0.17190577E-01 0.50522634E+03</pdfrwt>
<totfact> 0.17356153E+03</totfact>
</mgrwt>
</event>
<event>
 4    1  0.5280257E-005  0.5365221E+03  0.7818608E-02  0.1004663E+00
          2   -1    0    0  501    0  0.00000000000E+00  0.00000000000E+00  0.39575068458E+03  0.39575068458E+03  0.25500000000E-02 0.  1.
         -2   -1    0    0    0  501 -0.00000000000E+00 -0.00000000000E+00 -0.18184171407E+03  0.18184171409E+03  0.25500000000E-02 0. -1.
    5000001    1    1    2    0    0 -0.27613558593E+02  0.10518778869E+03  0.30225843976E+03  0.36112621604E+03  0.16500000000E+03 0.  0.
   -5000001    1    1    2    0    0  0.27613558593E+02 -0.10518778869E+03 -0.88349469253E+02  0.21646618263E+03  0.16500000000E+03 0.  0.
<mgrwt>
<rscale>  0 0.53652207E+03</rscale>
<asrwt>0</asrwt>
<pdfrwt beam="1">  1        2 0.56535813E-01 0.53652207E+03</pdfrwt>
<pdfrwt beam="2">  1       -2 0.25977387E-01 0.53652207E+03</pdfrwt>
<totfact> 0.11701448E+03</totfact>
</mgrwt>
</event>
<event>
 4    1  0.5280257E-005  0.1248774E+04  0.7818608E-02  0.9071204E-01
          2   -1    0    0  501    0  0.00000000000E+00  0.00000000000E+00  0.10904813256E+04  0.10904813256E+04  0.25500000000E-02 0.  1.
         -2   -1    0    0    0  501 -0.00000000000E+00 -0.00000000000E+00 -0.35751129553E+03  0.35751129554E+03  0.25500000000E-02 0. -1.
    5000001    1    1    2    0    0 -0.52554830540E+03 -0.22536660407E+03  0.58539777980E+03  0.83480937233E+03  0.16500000000E+03 0.  0.
   -5000001    1    1    2    0    0  0.52554830540E+03  0.22536660407E+03  0.14757225023E+03  0.61318324877E+03  0.16500000000E+03 0.  0.
<mgrwt>
<rscale>  0 0.12487744E+04</rscale>
<asrwt>0</asrwt>
<pdfrwt beam="1">  1        2 0.15578305E+00 0.12487744E+04</pdfrwt>
<pdfrwt beam="2">  1       -2 0.51073042E-01 0.12487744E+04</pdfrwt>
<totfact> 0.88233255E+01</totfact>
</mgrwt>
</event>
<event>
 4    1  0.5280257E-005  0.4041492E+03  0.7818608E-02  0.1042352E+00
          2   -1    0    0  501    0  0.00000000000E+00  0.00000000000E+00  0.12804736121E+04  0.12804736121E+04  0.25500000000E-02 0.  1.
         -2   -1    0    0    0  501 -0.00000000000E+00 -0.00000000000E+00 -0.31889873025E+02  0.31889873127E+02  0.25500000000E-02 0. -1.
    5000001    1    1    2    0    0  0.11365173786E+03 -0.17457600587E+02  0.68822640010E+03  0.71700910952E+03  0.16500000000E+03 0.  0.
   -5000001    1    1    2    0    0 -0.11365173786E+03  0.17457600587E+02  0.56035733900E+03  0.59535437574E+03  0.16500000000E+03 0.  0.
<mgrwt>
<rscale>  0 0.40414919E+03</rscale>
<asrwt>0</asrwt>
<pdfrwt beam="1">  1        2 0.18292479E+00 0.40414919E+03</pdfrwt>
<pdfrwt beam="2">  1       -2 0.45556964E-02 0.40414919E+03</pdfrwt>
<totfact> 0.45969891E+03</totfact>
</mgrwt>
</event>
<event>
 4    1  0.5280257E-005  0.5029359E+03  0.7818608E-02  0.1013015E+00
          2   -1    0    0  501    0  0.00000000000E+00  0.00000000000E+00  0.13722260961E+04  0.13722260961E+04  0.25500000000E-02 0.  1.
         -2   -1    0    0    0  501 -0.00000000000E+00 -0.00000000000E+00 -0.46082883679E+02  0.46082883749E+02  0.25500000000E-02 0. -1.
    5000001    1    1    2    0    0 -0.13819847140E+03  0.12733248075E+03  0.73761710529E+03  0.77885580961E+03  0.16500000000E+03 0.  0.
   -5000001    1    1    2    0    0  0.13819847140E+03 -0.12733248075E+03  0.58852610710E+03  0.63945317020E+03  0.16500000000E+03 0.  0.
<mgrwt>
<rscale>  0 0.50293592E+03</rscale>
<asrwt>0</asrwt>
<pdfrwt beam="1">  1        2 0.19603228E+00 0.50293592E+03</pdfrwt>
<pdfrwt beam="2">  1       -2 0.65832697E-02 0.50293592E+03</pdfrwt>
<totfact> 0.23222434E+03</totfact>
</mgrwt>
</event>
<event>
 4    1  0.5280257E-005  0.4382910E+03  0.7818608E-02  0.1031272E+00
         -2   -1    0    0    0  501 -0.00000000000E+00  0.00000000000E+00  0.53334312081E+03  0.53334312081E+03  0.25500000000E-02 0. -1.
          2   -1    0    0  501    0  0.00000000000E+00 -0.00000000000E+00 -0.90044759196E+02  0.90044759232E+02  0.25500000000E-02 0.  1.
    5000001    1    1    2    0    0  0.12423840937E+03  0.25517645280E+02  0.31929729798E+03  0.38113265025E+03  0.16500000000E+03 0.  0.
   -5000001    1    1    2    0    0 -0.12423840937E+03 -0.25517645280E+02  0.12400106363E+03  0.24225522980E+03  0.16500000000E+03 0.  0.
<mgrwt>
<rscale>  0 0.43829101E+03</rscale>
<asrwt>0</asrwt>
<pdfrwt beam="1">  1        2 0.12863538E-01 0.43829101E+03</pdfrwt>
<pdfrwt beam="2">  1       -2 0.76191871E-01 0.43829101E+03</pdfrwt>
<totfact> 0.75005221E+02</totfact>
</mgrwt>
</event>
<event>
 4    1  0.5280257E-005  0.5131589E+03  0.7818608E-02  0.1010400E+00
         -2   -1    0    0    0  501 -0.00000000000E+00  0.00000000000E+00  0.38402051752E+02  0.38402051837E+02  0.25500000000E-02 0. -1.
          2   -1    0    0  501    0  0.00000000000E+00 -0.00000000000E+00 -0.17143096777E+04  0.17143096777E+04  0.25500000000E-02 0.  1.
    5000001    1    1    2    0    0 -0.82423574484E+02 -0.17833489921E+03 -0.84929581993E+03  0.88720086320E+03  0.16500000000E+03 0.  0.
   -5000001    1    1    2    0    0  0.82423574484E+02  0.17833489921E+03 -0.82661180599E+03  0.86551086631E+03  0.16500000000E+03 0.  0.
<mgrwt>
<rscale>  0 0.51315888E+03</rscale>
<asrwt>0</asrwt>
<pdfrwt beam="1">  1        2 0.24490133E+00 0.51315888E+03</pdfrwt>
<pdfrwt beam="2">  1       -2 0.54860085E-02 0.51315888E+03</pdfrwt>
<totfact> 0.20555449E+03</totfact>
</mgrwt>
</event>
<event>
 4    1  0.5280257E-005  0.5079170E+03  0.7818608E-02  0.1011733E+00
          2   -1    0    0  501    0  0.00000000000E+00  0.00000000000E+00  0.14419830551E+04  0.14419830551E+04  0.25500000000E-02 0.  1.
         -2   -1    0    0    0  501 -0.00000000000E+00 -0.00000000000E+00 -0.44726539241E+02  0.44726539314E+02  0.25500000000E-02 0. -1.
    5000001    1    1    2    0    0  0.14746718280E+03  0.34872991569E+02  0.10487434793E+04  0.10724041127E+04  0.16500000000E+03 0.  0.
   -5000001    1    1    2    0    0 -0.14746718280E+03 -0.34872991569E+02  0.34851303663E+03  0.41430548179E+03  0.16500000000E+03 0.  0.
<mgrwt>
<rscale>  0 0.50791697E+03</rscale>
<asrwt>0</asrwt>
<pdfrwt beam="1">  1        2 0.20599763E+00 0.50791697E+03</pdfrwt>
<pdfrwt beam="2">  1       -2 0.63895041E-02 0.50791697E+03</pdfrwt>
<totfact> 0.22358446E+03</totfact>
</mgrwt>
</event>
<event>
 4    1  0.5280257E-005  0.5835659E+03  0.7818608E-02  0.9940101E-01
         -2   -1    0    0    0  501 -0.00000000000E+00  0.00000000000E+00  0.50974381979E+02  0.50974382043E+02  0.25500000000E-02 0. -1.
          2   -1    0    0  501    0  0.00000000000E+00 -0.00000000000E+00 -0.16701974057E+04  0.16701974057E+04  0.25500000000E-02 0.  1.
    5000001    1    1    2    0    0  0.89541801352E+01 -0.23891648475E+03 -0.89043900224E+03  0.93662579547E+03  0.16500000000E+03 0.  0.
   -5000001    1    1    2    0    0 -0.89541801352E+01  0.23891648475E+03 -0.72878402144E+03  0.78454599223E+03  0.16500000000E+03 0.  0.
<mgrwt>
<rscale>  0 0.58356587E+03</rscale>
<asrwt>0</asrwt>
<pdfrwt beam="1">  1        2 0.23859960E+00 0.58356587E+03</pdfrwt>
<pdfrwt beam="2">  1       -2 0.72820556E-02 0.58356587E+03</pdfrwt>
<totfact> 0.13847947E+03</totfact>
</mgrwt>
</event>
<event>
 4    1  0.5280257E-005  0.5559308E+03  0.7818608E-02  0.1000130E+00
          2   -1    0    0  501    0  0.00000000000E+00  0.00000000000E+00  0.20382053692E+03  0.20382053694E+03  0.25500000000E-02 0.  1.
         -2   -1    0    0    0  501 -0.00000000000E+00 -0.00000000000E+00 -0.37908234228E+03  0.37908234229E+03  0.25500000000E-02 0. -1.
    5000001    1    1    2    0    0  0.11189151276E+03  0.19094147558E+03 -0.53470985971E+02  0.28118055421E+03  0.16500000000E+03 0.  0.
   -5000001    1    1    2    0    0 -0.11189151276E+03 -0.19094147558E+03 -0.12179081939E+03  0.30172232502E+03  0.16500000000E+03 0.  0.
<mgrwt>
<rscale>  0 0.55593081E+03</rscale>
<asrwt>0</asrwt>
<pdfrwt beam="1">  1        2 0.29117220E-01 0.55593081E+03</pdfrwt>
<pdfrwt beam="2">  1       -2 0.54154620E-01 0.55593081E+03</pdfrwt>
<totfact> 0.59526858E+02</totfact>
</mgrwt>
</event>
<event>
 4    1  0.5280257E-005  0.4636586E+03  0.7818608E-02  0.1023725E+00
         -2   -1    0    0    0  501 -0.00000000000E+00  0.00000000000E+00  0.12248176312E+03  0.12248176315E+03  0.25500000000E-02 0.  1.
          2   -1    0    0  501    0  0.00000000000E+00 -0.00000000000E+00 -0.43879857578E+03  0.43879857579E+03  0.25500000000E-02 0. -1.
    5000001    1    1    2    0    0 -0.14496336837E+03  0.40413009110E+02 -0.23348742290E+03  0.32309281349E+03  0.16500000000E+03 0.  0.
   -5000001    1    1    2    0    0  0.14496336837E+03 -0.40413009110E+02 -0.82829389761E+02  0.23818752546E+03  0.16500000000E+03 0.  0.
<mgrwt>
<rscale>  0 0.46365860E+03</rscale>
<asrwt>0</asrwt>
<pdfrwt beam="1">  1        2 0.62685510E-01 0.46365860E+03</pdfrwt>
<pdfrwt beam="2">  1       -2 0.17497395E-01 0.46365860E+03</pdfrwt>
<totfact> 0.20829438E+03</totfact>
</mgrwt>
</event>
<event>
 4    1  0.5280257E-005  0.6030182E+03  0.7818608E-02  0.9899164E-01
          2   -1    0    0  501    0  0.00000000000E+00  0.00000000000E+00  0.34482667735E+03  0.34482667736E+03  0.25500000000E-02 0.  1.
         -2   -1    0    0    0  501 -0.00000000000E+00 -0.00000000000E+00 -0.26363313034E+03  0.26363313035E+03  0.25500000000E-02 0. -1.
    5000001    1    1    2    0    0  0.25041465295E+03 -0.24426860472E+02  0.60229135135E+02  0.30684966782E+03  0.16500000000E+03 0.  0.
   -5000001    1    1    2    0    0 -0.25041465295E+03  0.24426860472E+02  0.20964411875E+02  0.30161013990E+03  0.16500000000E+03 0.  0.
<mgrwt>
<rscale>  0 0.60301820E+03</rscale>
<asrwt>0</asrwt>
<pdfrwt beam="1">  1        2 0.49260954E-01 0.60301820E+03</pdfrwt>
<pdfrwt beam="2">  1       -2 0.37661875E-01 0.60301820E+03</pdfrwt>
<totfact> 0.68287537E+02</totfact>
</mgrwt>
</event>
<event>
 4    1  0.5280257E-005  0.5009266E+03  0.7818608E-02  0.1013537E+00
         -2   -1    0    0    0  501 -0.00000000000E+00  0.00000000000E+00  0.24297389355E+02  0.24297389488E+02  0.25500000000E-02 0. -1.
          2   -1    0    0  501    0  0.00000000000E+00 -0.00000000000E+00 -0.25818357124E+04  0.25818357124E+04  0.25500000000E-02 0.  1.
    5000001    1    1    2    0    0 -0.92519775149E+02 -0.15685352464E+03 -0.10268884708E+04  0.10558825069E+04  0.16500000000E+03 0.  0.
   -5000001    1    1    2    0    0  0.92519775149E+02  0.15685352464E+03 -0.15306498522E+04  0.15502505949E+04  0.16500000000E+03 0.  0.
<mgrwt>
<rscale>  0 0.50092661E+03</rscale>
<asrwt>0</asrwt>
<pdfrwt beam="1">  1        2 0.36883350E+00 0.50092661E+03</pdfrwt>
<pdfrwt beam="2">  1       -2 0.34710573E-02 0.50092661E+03</pdfrwt>
<totfact> 0.15208838E+03</totfact>
</mgrwt>
</event>
<event>
 4    1  0.5280257E-005  0.6509181E+03  0.7818608E-02  0.9805058E-01
         -2   -1    0    0    0  501 -0.00000000000E+00  0.00000000000E+00  0.17770065958E+03  0.17770065959E+03  0.25500000000E-02 0. -1.
          2   -1    0    0  501    0  0.00000000000E+00 -0.00000000000E+00 -0.59607879256E+03  0.59607879256E+03  0.25500000000E-02 0.  1.
    5000001    1    1    2    0    0  0.17147081186E+03  0.10635101827E+03 -0.44087601687E+03  0.51216153766E+03  0.16500000000E+03 0.  0.
   -5000001    1    1    2    0    0 -0.17147081186E+03 -0.10635101827E+03  0.22497883887E+02  0.26161791450E+03  0.16500000000E+03 0.  0.
<mgrwt>
<rscale>  0 0.65091810E+03</rscale>
<asrwt>0</asrwt>
<pdfrwt beam="1">  1        2 0.85154112E-01 0.65091810E+03</pdfrwt>
<pdfrwt beam="2">  1       -2 0.25385809E-01 0.65091810E+03</pdfrwt>
<totfact> 0.76495119E+02</totfact>
</mgrwt>
</event>
<event>
 4    1  0.5280257E-005  0.4786578E+03  0.7818608E-02  0.1019505E+00
          2   -1    0    0  501    0  0.00000000000E+00  0.00000000000E+00  0.17519580407E+03  0.17519580409E+03  0.25500000000E-02 0.  1.
         -2   -1    0    0    0  501 -0.00000000000E+00 -0.00000000000E+00 -0.32693891140E+03  0.32693891141E+03  0.25500000000E-02 0. -1.
    5000001    1    1    2    0    0 -0.34961948114E+02  0.16913968234E+03 -0.91528581682E+02  0.25579884914E+03  0.16500000000E+03 0.  0.
   -5000001    1    1    2    0    0  0.34961948114E+02 -0.16913968234E+03 -0.60214525650E+02  0.24633586636E+03  0.16500000000E+03 0.  0.
<mgrwt>
<rscale>  0 0.47865781E+03</rscale>
<asrwt>0</asrwt>
<pdfrwt beam="1">  1        2 0.25027972E-01 0.47865781E+03</pdfrwt>
<pdfrwt beam="2">  1       -2 0.46705559E-01 0.47865781E+03</pdfrwt>
<totfact> 0.95313721E+02</totfact>
</mgrwt>
</event>
<event>
 4    1  0.5280257E-005  0.4801752E+03  0.7818608E-02  0.1019087E+00
          2   -1    0    0  501    0  0.00000000000E+00  0.00000000000E+00  0.18873685360E+03  0.18873685361E+03  0.25500000000E-02 0.  1.
         -2   -1    0    0    0  501 -0.00000000000E+00 -0.00000000000E+00 -0.30540970944E+03  0.30540970945E+03  0.25500000000E-02 0. -1.
    5000001    1    1    2    0    0 -0.40774200827E+02 -0.16954913301E+03 -0.55494991251E+02  0.24640239043E+03  0.16500000000E+03 0.  0.
   -5000001    1    1    2    0    0  0.40774200827E+02  0.16954913301E+03 -0.61177864588E+02  0.24774417263E+03  0.16500000000E+03 0.  0.
<mgrwt>
<rscale>  0 0.48017525E+03</rscale>
<asrwt>0</asrwt>
<pdfrwt beam="1">  1        2 0.26962408E-01 0.48017525E+03</pdfrwt>
<pdfrwt beam="2">  1       -2 0.43629958E-01 0.48017525E+03</pdfrwt>
<totfact> 0.10024137E+03</totfact>
</mgrwt>
</event>
<event>
 4    1  0.5280257E-005  0.4365934E+03  0.7818608E-02  0.1031797E+00
          2   -1    0    0  501    0  0.00000000000E+00  0.00000000000E+00  0.23244697866E+04  0.23244697866E+04  0.25500000000E-02 0.  1.
         -2   -1    0    0    0  501 -0.00000000000E+00 -0.00000000000E+00 -0.20500781341E+02  0.20500781499E+02  0.25500000000E-02 0. -1.
    5000001    1    1    2    0    0  0.23702737863E+01 -0.14285594317E+03  0.11727923072E+04  0.11929292664E+04  0.16500000000E+03 0.  0.
   -5000001    1    1    2    0    0 -0.23702737863E+01  0.14285594317E+03  0.11311766980E+04  0.11520413017E+04  0.16500000000E+03 0.  0.
<mgrwt>
<rscale>  0 0.43659339E+03</rscale>
<asrwt>0</asrwt>
<pdfrwt beam="1">  1        2 0.33206706E+00 0.43659339E+03</pdfrwt>
<pdfrwt beam="2">  1       -2 0.29286835E-02 0.43659339E+03</pdfrwt>
<totfact> 0.26669595E+03</totfact>
</mgrwt>
</event>
<event>
 4    1  0.5280257E-005  0.9020416E+03  0.7818608E-02  0.9423033E-01
          2   -1    0    0  501    0  0.00000000000E+00  0.00000000000E+00  0.12215777069E+03  0.12215777072E+03  0.25500000000E-02 0.  1.
         -2   -1    0    0    0  501 -0.00000000000E+00 -0.00000000000E+00 -0.16652215962E+04  0.16652215962E+04  0.25500000000E-02 0. -1.
    5000001    1    1    2    0    0  0.14229916941E+02  0.41920806766E+03 -0.73977477966E+03  0.86627340901E+03  0.16500000000E+03 0.  0.
   -5000001    1    1    2    0    0 -0.14229916941E+02 -0.41920806766E+03 -0.80328904583E+03  0.92110595790E+03  0.16500000000E+03 0.  0.
<mgrwt>
<rscale>  0 0.90204159E+03</rscale>
<asrwt>0</asrwt>
<pdfrwt beam="1">  1        2 0.17451111E-01 0.90204159E+03</pdfrwt>
<pdfrwt beam="2">  1       -2 0.23788879E+00 0.90204159E+03</pdfrwt>
<totfact> 0.25848239E+01</totfact>
</mgrwt>
</event>
<event>
 4    1  0.5280257E-005  0.5504688E+03  0.7818608E-02  0.1001385E+00
         -2   -1    0    0    0  501 -0.00000000000E+00  0.00000000000E+00  0.34143480546E+02  0.34143480641E+02  0.25500000000E-02 0. -1.
          2   -1    0    0  501    0  0.00000000000E+00 -0.00000000000E+00 -0.22186954882E+04  0.22186954882E+04  0.25500000000E-02 0.  1.
    5000001    1    1    2    0    0  0.13643277588E+03  0.90687959024E+02 -0.48952911938E+03  0.54194277093E+03  0.16500000000E+03 0.  0.
   -5000001    1    1    2    0    0 -0.13643277588E+03 -0.90687959024E+02 -0.16950228883E+04  0.17108961979E+04  0.16500000000E+03 0.  0.
<mgrwt>
<rscale>  0 0.55046884E+03</rscale>
<asrwt>0</asrwt>
<pdfrwt beam="1">  1        2 0.31695641E+00 0.55046884E+03</pdfrwt>
<pdfrwt beam="2">  1       -2 0.48776415E-02 0.55046884E+03</pdfrwt>
<totfact> 0.13753406E+03</totfact>
</mgrwt>
</event>
<event>
 4    1  0.5280257E-005  0.5023557E+03  0.7818608E-02  0.1013166E+00
          2   -1    0    0  501    0  0.00000000000E+00  0.00000000000E+00  0.96720821621E+02  0.96720821654E+02  0.25500000000E-02 0.  1.
         -2   -1    0    0    0  501 -0.00000000000E+00 -0.00000000000E+00 -0.65229289640E+03  0.65229289640E+03  0.25500000000E-02 0. -1.
    5000001    1    1    2    0    0  0.41621024522E+02 -0.16903069500E+03 -0.38897945888E+03  0.45698326553E+03  0.16500000000E+03 0.  0.
   -5000001    1    1    2    0    0 -0.41621024522E+02  0.16903069500E+03 -0.16659261589E+03  0.29203045253E+03  0.16500000000E+03 0.  0.
<mgrwt>
<rscale>  0 0.50235567E+03</rscale>
<asrwt>0</asrwt>
<pdfrwt beam="1">  1        2 0.13817261E-01 0.50235567E+03</pdfrwt>
<pdfrwt beam="2">  1       -2 0.93184697E-01 0.50235567E+03</pdfrwt>
<totfact> 0.43653709E+02</totfact>
</mgrwt>
</event>
<event>
 4    1  0.5280257E-005  0.6192620E+03  0.7818608E-02  0.9866230E-01
         -2   -1    0    0    0  501 -0.00000000000E+00  0.00000000000E+00  0.45146177989E+03  0.45146177989E+03  0.25500000000E-02 0. -1.
          2   -1    0    0  501    0  0.00000000000E+00 -0.00000000000E+00 -0.21235764015E+03  0.21235764016E+03  0.25500000000E-02 0.  1.
    5000001    1    1    2    0    0  0.34541271625E+02  0.25971366218E+03  0.12109524584E+03  0.33246555361E+03  0.16500000000E+03 0.  0.
   -5000001    1    1    2    0    0 -0.34541271625E+02 -0.25971366218E+03  0.11800889391E+03  0.33135386645E+03  0.16500000000E+03 0.  0.
<mgrwt>
<rscale>  0 0.61926201E+03</rscale>
<asrwt>0</asrwt>
<pdfrwt beam="1">  1        2 0.30336806E-01 0.61926201E+03</pdfrwt>
<pdfrwt beam="2">  1       -2 0.64494539E-01 0.61926201E+03</pdfrwt>
<totfact> 0.39374938E+02</totfact>
</mgrwt>
</event>
<event>
 4    1  0.5280257E-005  0.4223609E+03  0.7818608E-02  0.1036301E+00
         -2   -1    0    0    0  501 -0.00000000000E+00  0.00000000000E+00  0.10713051265E+02  0.10713051568E+02  0.25500000000E-02 0. -1.
          2   -1    0    0  501    0  0.00000000000E+00 -0.00000000000E+00 -0.41628839364E+04  0.41628839364E+04  0.25500000000E-02 0.  1.
    5000001    1    1    2    0    0  0.27703947195E+02  0.99471422897E+02 -0.12666321113E+04  0.12815006742E+04  0.16500000000E+03 0.  0.
   -5000001    1    1    2    0    0 -0.27703947195E+02 -0.99471422897E+02 -0.28855387739E+04  0.28920963138E+04  0.16500000000E+03 0.  0.
<mgrwt>
<rscale>  0 0.42236093E+03</rscale>
<asrwt>0</asrwt>
<pdfrwt beam="1">  1        2 0.59469667E+00 0.42236093E+03</pdfrwt>
<pdfrwt beam="2">  1       -2 0.15304386E-02 0.42236093E+03</pdfrwt>
<totfact> 0.62609151E+02</totfact>
</mgrwt>
</event>
<event>
 4    1  0.5280257E-005  0.4984172E+03  0.7818608E-02  0.1014193E+00
         -2   -1    0    0    0  501 -0.00000000000E+00  0.00000000000E+00  0.11778787215E+03  0.11778787218E+03  0.25500000000E-02 0. -1.
          2   -1    0    0  501    0  0.00000000000E+00 -0.00000000000E+00 -0.52726086693E+03  0.52726086694E+03  0.25500000000E-02 0.  1.
    5000001    1    1    2    0    0 -0.14482482529E+03  0.19300993556E+02 -0.35529294593E+03  0.41809668236E+03  0.16500000000E+03 0.  0.
   -5000001    1    1    2    0    0  0.14482482529E+03 -0.19300993556E+02 -0.54180048852E+02  0.22695205675E+03  0.16500000000E+03 0.  0.
<mgrwt>
<rscale>  0 0.49841724E+03</rscale>
<asrwt>0</asrwt>
<pdfrwt beam="1">  1        2 0.75322980E-01 0.49841724E+03</pdfrwt>
<pdfrwt beam="2">  1       -2 0.16826839E-01 0.49841724E+03</pdfrwt>
<totfact> 0.18116694E+03</totfact>
</mgrwt>
</event>
<event>
 4    1  0.5280257E-005  0.5234016E+03  0.7818608E-02  0.1007845E+00
         -2   -1    0    0    0  501 -0.00000000000E+00  0.00000000000E+00  0.12983774840E+03  0.12983774843E+03  0.25500000000E-02 0. -1.
          2   -1    0    0  501    0  0.00000000000E+00 -0.00000000000E+00 -0.52748387551E+03  0.52748387552E+03  0.25500000000E-02 0.  1.
    5000001    1    1    2    0    0 -0.60866439192E+02 -0.17274269645E+03 -0.88495826996E+02  0.26191844913E+03  0.16500000000E+03 0.  0.
   -5000001    1    1    2    0    0  0.60866439192E+02  0.17274269645E+03 -0.30915030011E+03  0.39540317482E+03  0.16500000000E+03 0.  0.
<mgrwt>
<rscale>  0 0.52340164E+03</rscale>
<asrwt>0</asrwt>
<pdfrwt beam="1">  1        2 0.75354838E-01 0.52340164E+03</pdfrwt>
<pdfrwt beam="2">  1       -2 0.18548250E-01 0.52340164E+03</pdfrwt>
<totfact> 0.15333494E+03</totfact>
</mgrwt>
</event>
<event>
 4    1  0.5280257E-005  0.4244744E+03  0.7818608E-02  0.1035620E+00
         -2   -1    0    0    0  501 -0.00000000000E+00  0.00000000000E+00  0.12551746207E+03  0.12551746210E+03  0.25500000000E-02 0. -1.
          2   -1    0    0  501    0  0.00000000000E+00 -0.00000000000E+00 -0.35887148932E+03  0.35887148933E+03  0.25500000000E-02 0.  1.
    5000001    1    1    2    0    0  0.89111622597E+02  0.79326085991E+02 -0.48340053587E+02  0.20927319461E+03  0.16500000000E+03 0.  0.
   -5000001    1    1    2    0    0 -0.89111622597E+02 -0.79326085991E+02 -0.18501397366E+03  0.27511575682E+03  0.16500000000E+03 0.  0.
<mgrwt>
<rscale>  0 0.42447444E+03</rscale>
<asrwt>0</asrwt>
<pdfrwt beam="1">  1        2 0.51267355E-01 0.42447444E+03</pdfrwt>
<pdfrwt beam="2">  1       -2 0.17931066E-01 0.42447444E+03</pdfrwt>
<totfact> 0.24906112E+03</totfact>
</mgrwt>
</event>
<event>
 4    1  0.5280257E-005  0.4000600E+03  0.7818608E-02  0.1043759E+00
          2   -1    0    0  501    0  0.00000000000E+00  0.00000000000E+00  0.66952197997E+03  0.66952197997E+03  0.25500000000E-02 0. -1.
         -2   -1    0    0    0  501 -0.00000000000E+00 -0.00000000000E+00 -0.59762028499E+02  0.59762028554E+02  0.25500000000E-02 0.  1.
    5000001    1    1    2    0    0  0.46501107406E+02 -0.59001496528E+02  0.15080717326E+03  0.23582055273E+03  0.16500000000E+03 0.  0.
   -5000001    1    1    2    0    0 -0.46501107406E+02  0.59001496528E+02  0.45895277821E+03  0.49346345580E+03  0.16500000000E+03 0.  0.
<mgrwt>
<rscale>  0 0.40005995E+03</rscale>
<asrwt>0</asrwt>
<pdfrwt beam="1">  1        2 0.95645998E-01 0.40005995E+03</pdfrwt>
<pdfrwt beam="2">  1       -2 0.85374326E-02 0.40005995E+03</pdfrwt>
<totfact> 0.41578485E+03</totfact>
</mgrwt>
</event>
<event>
 4    1  0.5280257E-005  0.3855460E+03  0.7818608E-02  0.1048903E+00
         -2   -1    0    0    0  501 -0.00000000000E+00  0.00000000000E+00  0.62529564300E+02  0.62529564352E+02  0.25500000000E-02 0. -1.
          2   -1    0    0  501    0  0.00000000000E+00 -0.00000000000E+00 -0.59430176960E+03  0.59430176960E+03  0.25500000000E-02 0.  1.
    5000001    1    1    2    0    0  0.50263241452E+02 -0.85063038727E+02 -0.24339311232E+03  0.31020528868E+03  0.16500000000E+03 0.  0.
   -5000001    1    1    2    0    0 -0.50263241452E+02  0.85063038727E+02 -0.28837909297E+03  0.34662604528E+03  0.16500000000E+03 0.  0.
<mgrwt>
<rscale>  0 0.38554601E+03</rscale>
<asrwt>0</asrwt>
<pdfrwt beam="1">  1        2 0.84900250E-01 0.38554601E+03</pdfrwt>
<pdfrwt beam="2">  1       -2 0.89327952E-02 0.38554601E+03</pdfrwt>
<totfact> 0.44466029E+03</totfact>
</mgrwt>
</event>
<event>
 4    1  0.5280257E-005  0.6070542E+03  0.7818608E-02  0.9890878E-01
         -2   -1    0    0    0  501 -0.00000000000E+00  0.00000000000E+00  0.49425817292E+02  0.49425817358E+02  0.25500000000E-02 0. -1.
          2   -1    0    0  501    0  0.00000000000E+00 -0.00000000000E+00 -0.18639794300E+04  0.18639794300E+04  0.25500000000E-02 0.  1.
    5000001    1    1    2    0    0  0.20096777611E+03  0.75358415957E+02 -0.13398729887E+04  0.13669497297E+04  0.16500000000E+03 0.  0.
   -5000001    1    1    2    0    0 -0.20096777611E+03 -0.75358415957E+02 -0.47468062402E+03  0.54645551760E+03  0.16500000000E+03 0.  0.
<mgrwt>
<rscale>  0 0.60705422E+03</rscale>
<asrwt>0</asrwt>
<pdfrwt beam="1">  1        2 0.26628273E+00 0.60705422E+03</pdfrwt>
<pdfrwt beam="2">  1       -2 0.70608322E-02 0.60705422E+03</pdfrwt>
<totfact> 0.11588841E+03</totfact>
</mgrwt>
</event>
<event>
 4    1  0.5280257E-005  0.5067914E+03  0.7818608E-02  0.1012021E+00
          2   -1    0    0  501    0  0.00000000000E+00  0.00000000000E+00  0.46217503641E+03  0.46217503641E+03  0.25500000000E-02 0.  1.
         -2   -1    0    0    0  501 -0.00000000000E+00 -0.00000000000E+00 -0.13892871734E+03  0.13892871736E+03  0.25500000000E-02 0. -1.
    5000001    1    1    2    0    0  0.99537207104E+02 -0.99295716004E+02  0.59907409951E+01  0.21685982522E+03  0.16500000000E+03 0.  0.
   -5000001    1    1    2    0    0 -0.99537207104E+02  0.99295716004E+02  0.31725557807E+03  0.38424392856E+03  0.16500000000E+03 0.  0.
<mgrwt>
<rscale>  0 0.50679142E+03</rscale>
<asrwt>0</asrwt>
<pdfrwt beam="1">  1        2 0.66025005E-01 0.50679142E+03</pdfrwt>
<pdfrwt beam="2">  1       -2 0.19846960E-01 0.50679142E+03</pdfrwt>
<totfact> 0.15840453E+03</totfact>
</mgrwt>
</event>
<event>
 4    1  0.5280257E-005  0.4898857E+03  0.7818608E-02  0.1016453E+00
          2   -1    0    0  501    0  0.00000000000E+00  0.00000000000E+00  0.59026921230E+03  0.59026921231E+03  0.25500000000E-02 0.  1.
         -2   -1    0    0    0  501 -0.00000000000E+00 -0.00000000000E+00 -0.10164343956E+03  0.10164343959E+03  0.25500000000E-02 0. -1.
    5000001    1    1    2    0    0  0.28276025018E+02 -0.12993830383E+03  0.70820860242E+02  0.22343699478E+03  0.16500000000E+03 0.  0.
   -5000001    1    1    2    0    0 -0.28276025018E+02  0.12993830383E+03  0.41780491250E+03  0.46847565711E+03  0.16500000000E+03 0.  0.
<mgrwt>
<rscale>  0 0.48988567E+03</rscale>
<asrwt>0</asrwt>
<pdfrwt beam="1">  1        2 0.84324175E-01 0.48988567E+03</pdfrwt>
<pdfrwt beam="2">  1       -2 0.14520491E-01 0.48988567E+03</pdfrwt>
<totfact> 0.20387584E+03</totfact>
</mgrwt>
</event>
<event>
 4    1  0.5280257E-005  0.4936270E+03  0.7818608E-02  0.1015456E+00
          2   -1    0    0  501    0  0.00000000000E+00  0.00000000000E+00  0.55841278318E+03  0.55841278319E+03  0.25500000000E-02 0.  1.
         -2   -1    0    0    0  501 -0.00000000000E+00 -0.00000000000E+00 -0.10908936800E+03  0.10908936803E+03  0.25500000000E-02 0. -1.
    5000001    1    1    2    0    0  0.50808320224E+02  0.17637046594E+03  0.22200121159E+03  0.33196018527E+03  0.16500000000E+03 0.  0.
   -5000001    1    1    2    0    0 -0.50808320224E+02 -0.17637046594E+03  0.22732220360E+03  0.33554196594E+03  0.16500000000E+03 0.  0.
<mgrwt>
<rscale>  0 0.49362697E+03</rscale>
<asrwt>0</asrwt>
<pdfrwt beam="1">  1        2 0.79773255E-01 0.49362697E+03</pdfrwt>
<pdfrwt beam="2">  1       -2 0.15584195E-01 0.49362697E+03</pdfrwt>
<totfact> 0.19311250E+03</totfact>
</mgrwt>
</event>
<event>
 4    1  0.5280257E-005  0.6323209E+03  0.7818608E-02  0.9840530E-01
         -2   -1    0    0    0  501 -0.00000000000E+00  0.00000000000E+00  0.16950743345E+03  0.16950743347E+03  0.25500000000E-02 0. -1.
          2   -1    0    0  501    0  0.00000000000E+00 -0.00000000000E+00 -0.58969342401E+03  0.58969342401E+03  0.25500000000E-02 0.  1.
    5000001    1    1    2    0    0  0.26182880847E+03 -0.51624960044E+02 -0.25679467772E+03  0.40544786095E+03  0.16500000000E+03 0.  0.
   -5000001    1    1    2    0    0 -0.26182880847E+03  0.51624960044E+02 -0.16339131284E+03  0.35375299653E+03  0.16500000000E+03 0.  0.
<mgrwt>
<rscale>  0 0.63232086E+03</rscale>
<asrwt>0</asrwt>
<pdfrwt beam="1">  1        2 0.84241917E-01 0.63232086E+03</pdfrwt>
<pdfrwt beam="2">  1       -2 0.24215348E-01 0.63232086E+03</pdfrwt>
<totfact> 0.84352837E+02</totfact>
</mgrwt>
</event>
<event>
 4    1  0.5280257E-005  0.4969506E+03  0.7818608E-02  0.1014578E+00
          2   -1    0    0  501    0  0.00000000000E+00  0.00000000000E+00  0.98065632579E+02  0.98065632612E+02  0.25500000000E-02 0.  1.
         -2   -1    0    0    0  501 -0.00000000000E+00 -0.00000000000E+00 -0.62957819610E+03  0.62957819610E+03  0.25500000000E-02 0. -1.
    5000001    1    1    2    0    0  0.10508918860E+03 -0.14791716740E+03 -0.32417393849E+03  0.40649350348E+03  0.16500000000E+03 0.  0.
   -5000001    1    1    2    0    0 -0.10508918860E+03  0.14791716740E+03 -0.20733862503E+03  0.32115032524E+03  0.16500000000E+03 0.  0.
<mgrwt>
<rscale>  0 0.49695064E+03</rscale>
<asrwt>0</asrwt>
<pdfrwt beam="1">  1        2 0.14009376E-01 0.49695064E+03</pdfrwt>
<pdfrwt beam="2">  1       -2 0.89939740E-01 0.49695064E+03</pdfrwt>
<totfact> 0.46573018E+02</totfact>
</mgrwt>
</event>
<event>
 4    1  0.5280257E-005  0.3706085E+03  0.7818608E-02  0.1054461E+00
         -2   -1    0    0    0  501 -0.00000000000E+00  0.00000000000E+00  0.39197595923E+02  0.39197596006E+02  0.25500000000E-02 0. -1.
          2   -1    0    0  501    0  0.00000000000E+00 -0.00000000000E+00 -0.87601436534E+03  0.87601436535E+03  0.25500000000E-02 0.  1.
    5000001    1    1    2    0    0 -0.52553532164E+02 -0.60821823631E+02 -0.48144022199E+03  0.51523863920E+03  0.16500000000E+03 0.  0.
   -5000001    1    1    2    0    0  0.52553532164E+02  0.60821823631E+02 -0.35537654743E+03  0.39997332215E+03  0.16500000000E+03 0.  0.
<mgrwt>
<rscale>  0 0.37060846E+03</rscale>
<asrwt>0</asrwt>
<pdfrwt beam="1">  1        2 0.12514490E+00 0.37060846E+03</pdfrwt>
<pdfrwt beam="2">  1       -2 0.55996571E-02 0.37060846E+03</pdfrwt>
<totfact> 0.57499404E+03</totfact>
</mgrwt>
</event>
<event>
 4    1  0.5280257E-005  0.4287128E+03  0.7818608E-02  0.1034267E+00
          2   -1    0    0  501    0  0.00000000000E+00  0.00000000000E+00  0.20660601339E+03  0.20660601340E+03  0.25500000000E-02 0.  1.
         -2   -1    0    0    0  501 -0.00000000000E+00 -0.00000000000E+00 -0.22239749368E+03  0.22239749369E+03  0.25500000000E-02 0. -1.
    5000001    1    1    2    0    0  0.77765377892E+01  0.74802791210E+02 -0.12228742525E+03  0.21871247446E+03  0.16500000000E+03 0.  0.
   -5000001    1    1    2    0    0 -0.77765377892E+01 -0.74802791210E+02  0.10649594495E+03  0.21029103263E+03  0.16500000000E+03 0.  0.
<mgrwt>
<rscale>  0 0.42871277E+03</rscale>
<asrwt>0</asrwt>
<pdfrwt beam="1">  1        2 0.29515145E-01 0.42871277E+03</pdfrwt>
<pdfrwt beam="2">  1       -2 0.31771071E-01 0.42871277E+03</pdfrwt>
<totfact> 0.16569033E+03</totfact>
</mgrwt>
</event>
<event>
 4    1  0.5280257E-005  0.5073014E+03  0.7818608E-02  0.1011891E+00
          2   -1    0    0  501    0  0.00000000000E+00  0.00000000000E+00  0.10946577879E+04  0.10946577879E+04  0.25500000000E-02 0.  1.
         -2   -1    0    0    0  501 -0.00000000000E+00 -0.00000000000E+00 -0.58775154972E+02  0.58775155027E+02  0.25500000000E-02 0. -1.
    5000001    1    1    2    0    0  0.17764975346E+03 -0.44586856967E+02  0.65372034112E+03  0.69865778971E+03  0.16500000000E+03 0.  0.
   -5000001    1    1    2    0    0 -0.17764975346E+03  0.44586856967E+02  0.38216229185E+03  0.45477515327E+03  0.16500000000E+03 0.  0.
<mgrwt>
<rscale>  0 0.50730141E+03</rscale>
<asrwt>0</asrwt>
<pdfrwt beam="1">  1        2 0.15637967E+00 0.50730141E+03</pdfrwt>
<pdfrwt beam="2">  1       -2 0.83964514E-02 0.50730141E+03</pdfrwt>
<totfact> 0.22501816E+03</totfact>
</mgrwt>
</event>
<event>
 4    1  0.5280257E-005  0.6220044E+03  0.7818608E-02  0.9860777E-01
         -2   -1    0    0    0  501 -0.00000000000E+00  0.00000000000E+00  0.40064087195E+02  0.40064087276E+02  0.25500000000E-02 0. -1.
          2   -1    0    0  501    0  0.00000000000E+00 -0.00000000000E+00 -0.24141915529E+04  0.24141915529E+04  0.25500000000E-02 0.  1.
    5000001    1    1    2    0    0 -0.15620443707E+03  0.21151329039E+03 -0.12618955261E+04  0.12995164551E+04  0.16500000000E+03 0.  0.
   -5000001    1    1    2    0    0  0.15620443707E+03 -0.21151329039E+03 -0.11122319396E+04  0.11547391851E+04  0.16500000000E+03 0.  0.
<mgrwt>
<rscale>  0 0.62200444E+03</rscale>
<asrwt>0</asrwt>
<pdfrwt beam="1">  1        2 0.34488441E+00 0.62200444E+03</pdfrwt>
<pdfrwt beam="2">  1       -2 0.57234426E-02 0.62200444E+03</pdfrwt>
<totfact> 0.85002217E+02</totfact>
</mgrwt>
</event>
<event>
 4    1  0.5280257E-005  0.4214934E+03  0.7818608E-02  0.1036581E+00
         -2   -1    0    0    0  501 -0.00000000000E+00  0.00000000000E+00  0.30005338979E+02  0.30005339087E+02  0.25500000000E-02 0. -1.
          2   -1    0    0  501    0  0.00000000000E+00 -0.00000000000E+00 -0.14802088095E+04  0.14802088095E+04  0.25500000000E-02 0.  1.
    5000001    1    1    2    0    0 -0.12926651968E+03 -0.10956351293E+02 -0.79301768981E+03  0.82032428411E+03  0.16500000000E+03 0.  0.
   -5000001    1    1    2    0    0  0.12926651968E+03  0.10956351293E+02 -0.65718578069E+03  0.68988986446E+03  0.16500000000E+03 0.  0.
<mgrwt>
<rscale>  0 0.42149338E+03</rscale>
<asrwt>0</asrwt>
<pdfrwt beam="1">  1        2 0.21145836E+00 0.42149338E+03</pdfrwt>
<pdfrwt beam="2">  1       -2 0.42864779E-02 0.42149338E+03</pdfrwt>
<totfact> 0.39618431E+03</totfact>
</mgrwt>
</event>
<event>
 4    1  0.5280257E-005  0.8792863E+03  0.7818608E-02  0.9451851E-01
         -2   -1    0    0    0  501 -0.00000000000E+00  0.00000000000E+00  0.20541890661E+04  0.20541890661E+04  0.25500000000E-02 0. -1.
          2   -1    0    0  501    0  0.00000000000E+00 -0.00000000000E+00 -0.94093632344E+02  0.94093632379E+02  0.25500000000E-02 0.  1.
    5000001    1    1    2    0    0  0.12035044436E+02 -0.34627847472E+03  0.15041009019E+04  0.15522880362E+04  0.16500000000E+03 0.  0.
   -5000001    1    1    2    0    0 -0.12035044436E+02  0.34627847472E+03  0.45599453190E+03  0.59599466228E+03  0.16500000000E+03 0.  0.
<mgrwt>
<rscale>  0 0.87928633E+03</rscale>
<asrwt>0</asrwt>
<pdfrwt beam="1">  1        2 0.13441947E-01 0.87928633E+03</pdfrwt>
<pdfrwt beam="2">  1       -2 0.29345559E+00 0.87928633E+03</pdfrwt>
<totfact> 0.16417100E+01</totfact>
</mgrwt>
</event>
<event>
 4    1  0.5280257E-005  0.5070258E+03  0.7818608E-02  0.1011961E+00
          2   -1    0    0  501    0  0.00000000000E+00  0.00000000000E+00  0.29595880600E+04  0.29595880600E+04  0.25500000000E-02 0.  1.
         -2   -1    0    0    0  501 -0.00000000000E+00 -0.00000000000E+00 -0.21715453166E+02  0.21715453316E+02  0.25500000000E-02 0. -1.
    5000001    1    1    2    0    0  0.64805785694E+02 -0.11100805364E+03  0.23112574114E+04  0.23207021350E+04  0.16500000000E+03 0.  0.
   -5000001    1    1    2    0    0 -0.64805785694E+02  0.11100805364E+03  0.62661519545E+03  0.66060137830E+03  0.16500000000E+03 0.  0.
<mgrwt>
<rscale>  0 0.50702582E+03</rscale>
<asrwt>0</asrwt>
<pdfrwt beam="1">  1        2 0.42279801E+00 0.50702582E+03</pdfrwt>
<pdfrwt beam="2">  1       -2 0.31022097E-02 0.50702582E+03</pdfrwt>
<totfact> 0.11418998E+03</totfact>
</mgrwt>
</event>
<event>
 4    1  0.5280257E-005  0.8984527E+03  0.7818608E-02  0.9427518E-01
         -2   -1    0    0    0  501 -0.00000000000E+00  0.00000000000E+00  0.11983805294E+04  0.11983805294E+04  0.25500000000E-02 0. -1.
          2   -1    0    0  501    0  0.00000000000E+00 -0.00000000000E+00 -0.16839750890E+03  0.16839750892E+03  0.25500000000E-02 0.  1.
    5000001    1    1    2    0    0  0.26259631092E+03 -0.26865755090E+03  0.79320119721E+03  0.89304358316E+03  0.16500000000E+03 0.  0.
   -5000001    1    1    2    0    0 -0.26259631092E+03  0.26865755090E+03  0.23678182325E+03  0.47373445513E+03  0.16500000000E+03 0.  0.
<mgrwt>
<rscale>  0 0.89845266E+03</rscale>
<asrwt>0</asrwt>
<pdfrwt beam="1">  1        2 0.24056788E-01 0.89845266E+03</pdfrwt>
<pdfrwt beam="2">  1       -2 0.17119721E+00 0.89845266E+03</pdfrwt>
<totfact> 0.48122258E+01</totfact>
</mgrwt>
</event>
<event>
 4    1  0.5280257E-005  0.3781572E+03  0.7818608E-02  0.1051617E+00
          2   -1    0    0  501    0  0.00000000000E+00  0.00000000000E+00  0.19635444420E+03  0.19635444421E+03  0.25500000000E-02 0.  1.
         -2   -1    0    0    0  501 -0.00000000000E+00 -0.00000000000E+00 -0.18207232655E+03  0.18207232657E+03  0.25500000000E-02 0. -1.
    5000001    1    1    2    0    0 -0.21141685770E+02 -0.89844375619E+02  0.45454126005E+01  0.18911542371E+03  0.16500000000E+03 0.  0.
   -5000001    1    1    2    0    0  0.21141685770E+02  0.89844375619E+02  0.97367050459E+01  0.18931134708E+03  0.16500000000E+03 0.  0.
<mgrwt>
<rscale>  0 0.37815717E+03</rscale>
<asrwt>0</asrwt>
<pdfrwt beam="1">  1        2 0.28050635E-01 0.37815717E+03</pdfrwt>
<pdfrwt beam="2">  1       -2 0.26010332E-01 0.37815717E+03</pdfrwt>
<totfact> 0.25191618E+03</totfact>
</mgrwt>
</event>
<event>
 4    1  0.5280257E-005  0.5925953E+03  0.7818608E-02  0.9920889E-01
         -2   -1    0    0    0  501 -0.00000000000E+00  0.00000000000E+00  0.22431451388E+02  0.22431451533E+02  0.25500000000E-02 0. -1.
          2   -1    0    0  501    0  0.00000000000E+00 -0.00000000000E+00 -0.39138040069E+04  0.39138040069E+04  0.25500000000E-02 0.  1.
    5000001    1    1    2    0    0 -0.13047364547E+03 -0.15454971995E+03 -0.28770000178E+04  0.28888169015E+04  0.16500000000E+03 0.  0.
   -5000001    1    1    2    0    0  0.13047364547E+03  0.15454971995E+03 -0.10143725377E+04  0.10474185569E+04  0.16500000000E+03 0.  0.
<mgrwt>
<rscale>  0 0.59259532E+03</rscale>
<asrwt>0</asrwt>
<pdfrwt beam="1">  1        2 0.55911442E+00 0.59259532E+03</pdfrwt>
<pdfrwt beam="2">  1       -2 0.32044956E-02 0.59259532E+03</pdfrwt>
<totfact> 0.29550592E+02</totfact>
</mgrwt>
</event>
<event>
 4    1  0.5280257E-005  0.6447458E+03  0.7818608E-02  0.9816689E-01
         -2   -1    0    0    0  501 -0.00000000000E+00  0.00000000000E+00  0.10727861916E+03  0.10727861919E+03  0.25500000000E-02 0. -1.
          2   -1    0    0  501    0  0.00000000000E+00 -0.00000000000E+00 -0.96873255429E+03  0.96873255430E+03  0.25500000000E-02 0.  1.
    5000001    1    1    2    0    0 -0.42514927316E+02  0.27318466076E+03 -0.45773585294E+03  0.55962888505E+03  0.16500000000E+03 0.  0.
   -5000001    1    1    2    0    0  0.42514927316E+02 -0.27318466076E+03 -0.40371808219E+03  0.51638228843E+03  0.16500000000E+03 0.  0.
<mgrwt>
<rscale>  0 0.64474581E+03</rscale>
<asrwt>0</asrwt>
<pdfrwt beam="1">  1        2 0.13839036E+00 0.64474581E+03</pdfrwt>
<pdfrwt beam="2">  1       -2 0.15325518E-01 0.64474581E+03</pdfrwt>
<totfact> 0.99671622E+02</totfact>
</mgrwt>
</event>
<event>
 4    1  0.5280257E-005  0.5212022E+03  0.7818608E-02  0.1008388E+00
          2   -1    0    0  501    0  0.00000000000E+00  0.00000000000E+00  0.25511337484E+03  0.25511337485E+03  0.25500000000E-02 0.  1.
         -2   -1    0    0    0  501 -0.00000000000E+00 -0.00000000000E+00 -0.26620687799E+03  0.26620687801E+03  0.25500000000E-02 0. -1.
    5000001    1    1    2    0    0 -0.15246897051E+03  0.98382516233E+02  0.82575578199E+02  0.25878491568E+03  0.16500000000E+03 0.  0.
   -5000001    1    1    2    0    0  0.15246897051E+03 -0.98382516233E+02 -0.93669081350E+02  0.26253533718E+03  0.16500000000E+03 0.  0.
<mgrwt>
<rscale>  0 0.52120221E+03</rscale>
<asrwt>0</asrwt>
<pdfrwt beam="1">  1        2 0.36444768E-01 0.52120221E+03</pdfrwt>
<pdfrwt beam="2">  1       -2 0.38029554E-01 0.52120221E+03</pdfrwt>
<totfact> 0.93518778E+02</totfact>
</mgrwt>
</event>
<event>
 4    1  0.5280257E-005  0.3414421E+03  0.7818608E-02  0.1066183E+00
         -2   -1    0    0    0  501 -0.00000000000E+00  0.00000000000E+00  0.93710726682E+02  0.93710726717E+02  0.25500000000E-02 0. -1.
          2   -1    0    0  501    0  0.00000000000E+00 -0.00000000000E+00 -0.31101747117E+03  0.31101747118E+03  0.25500000000E-02 0.  1.
    5000001    1    1    2    0    0  0.38453149437E+02 -0.19160281950E+02 -0.98393959168E+02  0.19685561284E+03  0.16500000000E+03 0.  0.
   -5000001    1    1    2    0    0 -0.38453149437E+02  0.19160281950E+02 -0.11891278532E+03  0.20787258506E+03  0.16500000000E+03 0.  0.
<mgrwt>
<rscale>  0 0.34144208E+03</rscale>
<asrwt>0</asrwt>
<pdfrwt beam="1">  1        2 0.44431067E-01 0.34144208E+03</pdfrwt>
<pdfrwt beam="2">  1       -2 0.13387247E-01 0.34144208E+03</pdfrwt>
<totfact> 0.47233282E+03</totfact>
</mgrwt>
</event>
<event>
 4    1  0.5280257E-005  0.8870006E+03  0.7818608E-02  0.9441979E-01
         -2   -1    0    0    0  501 -0.00000000000E+00  0.00000000000E+00  0.13429398718E+03  0.13429398720E+03  0.25500000000E-02 0. -1.
          2   -1    0    0  501    0  0.00000000000E+00 -0.00000000000E+00 -0.14646411918E+04  0.14646411918E+04  0.25500000000E-02 0.  1.
    5000001    1    1    2    0    0  0.34463815062E+03  0.18633979744E+03 -0.89297324038E+03  0.98900160920E+03  0.16500000000E+03 0.  0.
   -5000001    1    1    2    0    0 -0.34463815062E+03 -0.18633979744E+03 -0.43737396423E+03  0.60993356979E+03  0.16500000000E+03 0.  0.
<mgrwt>
<rscale>  0 0.88700058E+03</rscale>
<asrwt>0</asrwt>
<pdfrwt beam="1">  1        2 0.20923445E+00 0.88700058E+03</pdfrwt>
<pdfrwt beam="2">  1       -2 0.19184856E-01 0.88700058E+03</pdfrwt>
<totfact> 0.35136194E+02</totfact>
</mgrwt>
</event>
<event>
 4    1  0.5280257E-005  0.8183983E+03  0.7818608E-02  0.9533762E-01
         -2   -1    0    0    0  501 -0.00000000000E+00  0.00000000000E+00  0.42737856237E+02  0.42737856313E+02  0.25500000000E-02 0. -1.
          2   -1    0    0  501    0  0.00000000000E+00 -0.00000000000E+00 -0.39179298927E+04  0.39179298927E+04  0.25500000000E-02 0.  1.
    5000001    1    1    2    0    0  0.35805897024E+03 -0.83966541528E+02 -0.22785109566E+04  0.23138914809E+04  0.16500000000E+03 0.  0.
   -5000001    1    1    2    0    0 -0.35805897024E+03  0.83966541528E+02 -0.15966810798E+04  0.16467762680E+04  0.16500000000E+03 0.  0.
<mgrwt>
<rscale>  0 0.81839825E+03</rscale>
<asrwt>0</asrwt>
<pdfrwt beam="1">  1        2 0.55970404E+00 0.81839825E+03</pdfrwt>
<pdfrwt beam="2">  1       -2 0.61054105E-02 0.81839825E+03</pdfrwt>
<totfact> 0.10503657E+02</totfact>
</mgrwt>
</event>
<event>
 4    1  0.5280257E-005  0.1323348E+04  0.7818608E-02  0.9011252E-01
         -2   -1    0    0    0  501 -0.00000000000E+00  0.00000000000E+00  0.90369836849E+02  0.90369836885E+02  0.25500000000E-02 0.  1.
          2   -1    0    0  501    0  0.00000000000E+00 -0.00000000000E+00 -0.48446770789E+04  0.48446770789E+04  0.25500000000E-02 0. -1.
    5000001    1    1    2    0    0  0.53374561940E+03 -0.14744502777E+03 -0.11747312227E+04  0.13091382158E+04  0.16500000000E+03 0.  0.
   -5000001    1    1    2    0    0 -0.53374561940E+03  0.14744502777E+03 -0.35795760193E+04  0.36259087000E+04  0.16500000000E+03 0.  0.
<mgrwt>
<rscale>  0 0.13233483E+04</rscale>
<asrwt>0</asrwt>
<pdfrwt beam="1">  1        2 0.69209656E+00 0.13233483E+04</pdfrwt>
<pdfrwt beam="2">  1       -2 0.12909980E-01 0.13233483E+04</pdfrwt>
<totfact> 0.57353351E+00</totfact>
</mgrwt>
</event>
<event>
 4    1  0.5280257E-005  0.5577098E+03  0.7818608E-02  0.9997250E-01
          2   -1    0    0  501    0  0.00000000000E+00  0.00000000000E+00  0.76883041619E+03  0.76883041619E+03  0.25500000000E-02 0.  1.
         -2   -1    0    0    0  501 -0.00000000000E+00 -0.00000000000E+00 -0.10114069480E+03  0.10114069483E+03  0.25500000000E-02 0. -1.
    5000001    1    1    2    0    0 -0.21053493798E+03  0.77932745296E+02  0.31561540955E+03  0.42099472639E+03  0.16500000000E+03 0.  0.
   -5000001    1    1    2    0    0  0.21053493798E+03 -0.77932745296E+02  0.35207431184E+03  0.44897638463E+03  0.16500000000E+03 0.  0.
<mgrwt>
<rscale>  0 0.55770975E+03</rscale>
<asrwt>0</asrwt>
<pdfrwt beam="1">  1        2 0.10983291E+00 0.55770975E+03</pdfrwt>
<pdfrwt beam="2">  1       -2 0.14448671E-01 0.55770975E+03</pdfrwt>
<totfact> 0.14943844E+03</totfact>
</mgrwt>
</event>
<event>
 4    1  0.5280257E-005  0.8968671E+03  0.7818608E-02  0.9429506E-01
         -2   -1    0    0    0  501 -0.00000000000E+00  0.00000000000E+00  0.90984770649E+02  0.90984770685E+02  0.25500000000E-02 0.  1.
          2   -1    0    0  501    0  0.00000000000E+00 -0.00000000000E+00 -0.22101794578E+04  0.22101794578E+04  0.25500000000E-02 0. -1.
    5000001    1    1    2    0    0 -0.25252960597E+03 -0.29729005290E+03 -0.14376918354E+04  0.14987779659E+04  0.16500000000E+03 0.  0.
   -5000001    1    1    2    0    0  0.25252960597E+03  0.29729005290E+03 -0.68150285167E+03  0.80238626252E+03  0.16500000000E+03 0.  0.
<mgrwt>
<rscale>  0 0.89686715E+03</rscale>
<asrwt>0</asrwt>
<pdfrwt beam="1">  1        2 0.31573989E+00 0.89686715E+03</pdfrwt>
<pdfrwt beam="2">  1       -2 0.12997826E-01 0.89686715E+03</pdfrwt>
<totfact> 0.28226527E+02</totfact>
</mgrwt>
</event>
<event>
 4    1  0.5280257E-005  0.3802532E+03  0.7818608E-02  0.1050840E+00
         -2   -1    0    0    0  501 -0.00000000000E+00  0.00000000000E+00  0.20322612534E+02  0.20322612694E+02  0.25500000000E-02 0. -1.
          2   -1    0    0  501    0  0.00000000000E+00 -0.00000000000E+00 -0.17787145882E+04  0.17787145882E+04  0.25500000000E-02 0.  1.
    5000001    1    1    2    0    0 -0.21603894210E+00 -0.23133265325E+02 -0.44588997167E+03  0.47600216541E+03  0.16500000000E+03 0.  0.
   -5000001    1    1    2    0    0  0.21603894210E+00  0.23133265325E+02 -0.13125020040E+04  0.13230350355E+04  0.16500000000E+03 0.  0.
<mgrwt>
<rscale>  0 0.38025322E+03</rscale>
<asrwt>0</asrwt>
<pdfrwt beam="1">  1        2 0.25410199E+00 0.38025322E+03</pdfrwt>
<pdfrwt beam="2">  1       -2 0.29032315E-02 0.38025322E+03</pdfrwt>
<totfact> 0.50492898E+03</totfact>
</mgrwt>
</event>
<event>
 4    1  0.5280257E-005  0.4240164E+03  0.7818608E-02  0.1035767E+00
          2   -1    0    0  501    0  0.00000000000E+00  0.00000000000E+00  0.80873647898E+03  0.80873647898E+03  0.25500000000E-02 0.  1.
         -2   -1    0    0    0  501 -0.00000000000E+00 -0.00000000000E+00 -0.55577405392E+02  0.55577405451E+02  0.25500000000E-02 0. -1.
    5000001    1    1    2    0    0 -0.79220475052E+02 -0.10032418619E+03  0.30081120350E+03  0.36613277121E+03  0.16500000000E+03 0.  0.
   -5000001    1    1    2    0    0  0.79220475052E+02  0.10032418619E+03  0.45234787009E+03  0.49818111322E+03  0.16500000000E+03 0.  0.
<mgrwt>
<rscale>  0 0.42401639E+03</rscale>
<asrwt>0</asrwt>
<pdfrwt beam="1">  1        2 0.11553376E+00 0.42401639E+03</pdfrwt>
<pdfrwt beam="2">  1       -2 0.79396306E-02 0.42401639E+03</pdfrwt>
<totfact> 0.37028461E+03</totfact>
</mgrwt>
</event>
<event>
 4    1  0.5280257E-005  0.4565748E+03  0.7818608E-02  0.1025779E+00
         -2   -1    0    0    0  501 -0.00000000000E+00  0.00000000000E+00  0.21119296468E+03  0.21119296470E+03  0.25500000000E-02 0. -1.
          2   -1    0    0  501    0  0.00000000000E+00 -0.00000000000E+00 -0.24676544815E+03  0.24676544817E+03  0.25500000000E-02 0.  1.
    5000001    1    1    2    0    0  0.38544979567E+02 -0.12125307070E+03 -0.11135401227E+03  0.23624719819E+03  0.16500000000E+03 0.  0.
   -5000001    1    1    2    0    0 -0.38544979567E+02  0.12125307070E+03  0.75781528804E+02  0.22171121467E+03  0.16500000000E+03 0.  0.
<mgrwt>
<rscale>  0 0.45657475E+03</rscale>
<asrwt>0</asrwt>
<pdfrwt beam="1">  1        2 0.35252207E-01 0.45657475E+03</pdfrwt>
<pdfrwt beam="2">  1       -2 0.30170424E-01 0.45657475E+03</pdfrwt>
<totfact> 0.14977160E+03</totfact>
</mgrwt>
</event>
<event>
 4    1  0.5280257E-005  0.9395061E+03  0.7818608E-02  0.9377501E-01
          2   -1    0    0  501    0  0.00000000000E+00  0.00000000000E+00  0.12803858501E+04  0.12803858501E+04  0.25500000000E-02 0.  1.
         -2   -1    0    0    0  501 -0.00000000000E+00 -0.00000000000E+00 -0.17234484856E+03  0.17234484858E+03  0.25500000000E-02 0. -1.
    5000001    1    1    2    0    0 -0.32491819746E+03  0.28042218146E+03  0.70261116770E+03  0.83969987964E+03  0.16500000000E+03 0.  0.
   -5000001    1    1    2    0    0  0.32491819746E+03 -0.28042218146E+03  0.40542983380E+03  0.61303081899E+03  0.16500000000E+03 0.  0.
<mgrwt>
<rscale>  0 0.93950605E+03</rscale>
<asrwt>0</asrwt>
<pdfrwt beam="1">  1        2 0.18291227E+00 0.93950605E+03</pdfrwt>
<pdfrwt beam="2">  1       -2 0.24620692E-01 0.93950605E+03</pdfrwt>
<totfact> 0.28332856E+02</totfact>
</mgrwt>
</event>
<event>
 4    1  0.5280257E-005  0.5414744E+03  0.7818608E-02  0.1003487E+00
         -2   -1    0    0    0  501 -0.00000000000E+00  0.00000000000E+00  0.22555744559E+03  0.22555744561E+03  0.25500000000E-02 0.  1.
          2   -1    0    0  501    0  0.00000000000E+00 -0.00000000000E+00 -0.32496653790E+03  0.32496653791E+03  0.25500000000E-02 0. -1.
    5000001    1    1    2    0    0 -0.95515011846E+02  0.12785128323E+03  0.96237339242E+02  0.24890900662E+03  0.16500000000E+03 0.  0.
   -5000001    1    1    2    0    0  0.95515011846E+02 -0.12785128323E+03 -0.19564643155E+03  0.30161497690E+03  0.16500000000E+03 0.  0.
<mgrwt>
<rscale>  0 0.54147437E+03</rscale>
<asrwt>0</asrwt>
<pdfrwt beam="1">  1        2 0.46423791E-01 0.54147437E+03</pdfrwt>
<pdfrwt beam="2">  1       -2 0.32222492E-01 0.54147437E+03</pdfrwt>
<totfact> 0.97986259E+02</totfact>
</mgrwt>
</event>
<event>
 4    1  0.5280257E-005  0.3549612E+03  0.7818608E-02  0.1060597E+00
          2   -1    0    0  501    0  0.00000000000E+00  0.00000000000E+00  0.12488357198E+04  0.12488357198E+04  0.25500000000E-02 0.  1.
         -2   -1    0    0    0  501 -0.00000000000E+00 -0.00000000000E+00 -0.25222987115E+02  0.25222987244E+02  0.25500000000E-02 0. -1.
    5000001    1    1    2    0    0  0.12348427969E+02 -0.28715761819E+02  0.40570208367E+03  0.43908570843E+03  0.16500000000E+03 0.  0.
   -5000001    1    1    2    0    0 -0.12348427969E+02  0.28715761819E+02  0.81791064897E+03  0.83497299857E+03  0.16500000000E+03 0.  0.
<mgrwt>
<rscale>  0 0.35496122E+03</rscale>
<asrwt>0</asrwt>
<pdfrwt beam="1">  1        2 0.17840508E+00 0.35496122E+03</pdfrwt>
<pdfrwt beam="2">  1       -2 0.36032844E-02 0.35496122E+03</pdfrwt>
<totfact> 0.68170844E+03</totfact>
</mgrwt>
</event>
<event>
 4    1  0.5280257E-005  0.5354217E+03  0.7818608E-02  0.1004926E+00
          2   -1    0    0  501    0  0.00000000000E+00  0.00000000000E+00  0.14756347104E+04  0.14756347104E+04  0.25500000000E-02 0.  1.
         -2   -1    0    0    0  501 -0.00000000000E+00 -0.00000000000E+00 -0.48568312258E+02  0.48568312325E+02  0.25500000000E-02 0. -1.
    5000001    1    1    2    0    0  0.10849341162E+02 -0.20024408616E+03  0.52841480950E+03  0.58878061546E+03  0.16500000000E+03 0.  0.
   -5000001    1    1    2    0    0 -0.10849341162E+02  0.20024408616E+03  0.89865158863E+03  0.93542240725E+03  0.16500000000E+03 0.  0.
<mgrwt>
<rscale>  0 0.53542166E+03</rscale>
<asrwt>0</asrwt>
<pdfrwt beam="1">  1        2 0.21080497E+00 0.53542166E+03</pdfrwt>
<pdfrwt beam="2">  1       -2 0.69383298E-02 0.53542166E+03</pdfrwt>
<totfact> 0.18853271E+03</totfact>
</mgrwt>
</event>
<event>
 4    1  0.5280257E-005  0.4464012E+03  0.7818608E-02  0.1028801E+00
          2   -1    0    0  501    0  0.00000000000E+00  0.00000000000E+00  0.12239358482E+04  0.12239358482E+04  0.25500000000E-02 0. -1.
         -2   -1    0    0    0  501 -0.00000000000E+00 -0.00000000000E+00 -0.40703531538E+02  0.40703531618E+02  0.25500000000E-02 0.  1.
    5000001    1    1    2    0    0 -0.70942305240E+02 -0.12591750370E+03  0.47462176913E+03  0.52285643550E+03  0.16500000000E+03 0.  0.
   -5000001    1    1    2    0    0  0.70942305240E+02  0.12591750370E+03  0.70861054750E+03  0.74178294429E+03  0.16500000000E+03 0.  0.
<mgrwt>
<rscale>  0 0.44640122E+03</rscale>
<asrwt>0</asrwt>
<pdfrwt beam="1">  1        2 0.17484799E+00 0.44640122E+03</pdfrwt>
<pdfrwt beam="2">  1       -2 0.58147900E-02 0.44640122E+03</pdfrwt>
<totfact> 0.33897146E+03</totfact>
</mgrwt>
</event>
<event>
 4    1  0.5280257E-005  0.3865013E+03  0.7818608E-02  0.1048557E+00
          2   -1    0    0  501    0  0.00000000000E+00  0.00000000000E+00  0.10634482613E+04  0.10634482613E+04  0.25500000000E-02 0.  1.
         -2   -1    0    0    0  501 -0.00000000000E+00 -0.00000000000E+00 -0.35117667134E+02  0.35117667227E+02  0.25500000000E-02 0. -1.
    5000001    1    1    2    0    0 -0.93287697777E+02 -0.34975093609E+02  0.47447727682E+03  0.51213234417E+03  0.16500000000E+03 0.  0.
   -5000001    1    1    2    0    0  0.93287697777E+02  0.34975093609E+02  0.55385331739E+03  0.58643358440E+03  0.16500000000E+03 0.  0.
<mgrwt>
<rscale>  0 0.38650134E+03</rscale>
<asrwt>0</asrwt>
<pdfrwt beam="1">  1        2 0.15192117E+00 0.38650134E+03</pdfrwt>
<pdfrwt beam="2">  1       -2 0.50168101E-02 0.38650134E+03</pdfrwt>
<totfact> 0.52375570E+03</totfact>
</mgrwt>
</event>
<event>
 4    1  0.5280257E-005  0.3934495E+03  0.7818608E-02  0.1046072E+00
         -2   -1    0    0    0  501 -0.00000000000E+00  0.00000000000E+00  0.17100393380E+04  0.17100393380E+04  0.25500000000E-02 0. -1.
          2   -1    0    0  501    0  0.00000000000E+00 -0.00000000000E+00 -0.22631420128E+02  0.22631420272E+02  0.25500000000E-02 0.  1.
    5000001    1    1    2    0    0 -0.92224113653E+02  0.17343299740E+02  0.10712375100E+04  0.10879250342E+04  0.16500000000E+03 0.  0.
   -5000001    1    1    2    0    0  0.92224113653E+02 -0.17343299740E+02  0.61617040779E+03  0.64474572401E+03  0.16500000000E+03 0.  0.
<mgrwt>
<rscale>  0 0.39344946E+03</rscale>
<asrwt>0</asrwt>
<pdfrwt beam="1">  1        2 0.32330587E-02 0.39344946E+03</pdfrwt>
<pdfrwt beam="2">  1       -2 0.24429144E+00 0.39344946E+03</pdfrwt>
<totfact> 0.21860555E+02</totfact>
</mgrwt>
</event>
<event>
 4    1  0.5280257E-005  0.4668341E+03  0.7818608E-02  0.1022818E+00
          2   -1    0    0  501    0  0.00000000000E+00  0.00000000000E+00  0.47956250521E+03  0.47956250522E+03  0.25500000000E-02 0.  1.
         -2   -1    0    0    0  501 -0.00000000000E+00 -0.00000000000E+00 -0.11361090031E+03  0.11361090034E+03  0.25500000000E-02 0. -1.
    5000001    1    1    2    0    0  0.29722894691E+01  0.12860017846E+03  0.51469061922E+02  0.21545511073E+03  0.16500000000E+03 0.  0.
   -5000001    1    1    2    0    0 -0.29722894691E+01 -0.12860017846E+03  0.31448254298E+03  0.37771829483E+03  0.16500000000E+03 0.  0.
<mgrwt>
<rscale>  0 0.46683414E+03</rscale>
<asrwt>0</asrwt>
<pdfrwt beam="1">  1        2 0.68508929E-01 0.46683414E+03</pdfrwt>
<pdfrwt beam="2">  1       -2 0.16230129E-01 0.46683414E+03</pdfrwt>
<totfact> 0.21429582E+03</totfact>
</mgrwt>
</event>
<event>
 4    1  0.5280257E-005  0.5645933E+03  0.7818608E-02  0.9981715E-01
         -2   -1    0    0    0  501 -0.00000000000E+00  0.00000000000E+00  0.57736899748E+02  0.57736899804E+02  0.25500000000E-02 0. -1.
          2   -1    0    0  501    0  0.00000000000E+00 -0.00000000000E+00 -0.13802509099E+04  0.13802509099E+04  0.25500000000E-02 0.  1.
    5000001    1    1    2    0    0 -0.21265373011E+03  0.77356271722E+02 -0.57082051060E+03  0.63581967336E+03  0.16500000000E+03 0.  0.
   -5000001    1    1    2    0    0  0.21265373011E+03 -0.77356271722E+02 -0.75169349951E+03  0.80216813631E+03  0.16500000000E+03 0.  0.
<mgrwt>
<rscale>  0 0.56459333E+03</rscale>
<asrwt>0</asrwt>
<pdfrwt beam="1">  1        2 0.19717868E+00 0.56459333E+03</pdfrwt>
<pdfrwt beam="2">  1       -2 0.82481294E-02 0.56459333E+03</pdfrwt>
<totfact> 0.16077911E+03</totfact>
</mgrwt>
</event>
<event>
 4    1  0.5280257E-005  0.4953502E+03  0.7818608E-02  0.1015000E+00
         -2   -1    0    0    0  501 -0.00000000000E+00  0.00000000000E+00  0.66168037320E+02  0.66168037370E+02  0.25500000000E-02 0. -1.
          2   -1    0    0  501    0  0.00000000000E+00 -0.00000000000E+00 -0.92707846230E+03  0.92707846230E+03  0.25500000000E-02 0.  1.
    5000001    1    1    2    0    0 -0.15350800918E+03  0.33704570213E+01 -0.63633038994E+03  0.67506846617E+03  0.16500000000E+03 0.  0.
   -5000001    1    1    2    0    0  0.15350800918E+03 -0.33704570213E+01 -0.22458003504E+03  0.31817803350E+03  0.16500000000E+03 0.  0.
<mgrwt>
<rscale>  0 0.49535023E+03</rscale>
<asrwt>0</asrwt>
<pdfrwt beam="1">  1        2 0.13243977E+00 0.49535023E+03</pdfrwt>
<pdfrwt beam="2">  1       -2 0.94525773E-02 0.49535023E+03</pdfrwt>
<totfact> 0.23494113E+03</totfact>
</mgrwt>
</event>
<event>
 4    1  0.5280257E-005  0.4568563E+03  0.7818608E-02  0.1025697E+00
         -2   -1    0    0    0  501 -0.00000000000E+00  0.00000000000E+00  0.11400965059E+03  0.11400965062E+03  0.25500000000E-02 0. -1.
          2   -1    0    0  501    0  0.00000000000E+00 -0.00000000000E+00 -0.45767547661E+03  0.45767547662E+03  0.25500000000E-02 0.  1.
    5000001    1    1    2    0    0 -0.94880131101E+01 -0.12543195675E+03 -0.29140828608E+03  0.35772473686E+03  0.16500000000E+03 0.  0.
   -5000001    1    1    2    0    0  0.94880131101E+01  0.12543195675E+03 -0.52257539941E+02  0.21396039037E+03  0.16500000000E+03 0.  0.
<mgrwt>
<rscale>  0 0.45685631E+03</rscale>
<asrwt>0</asrwt>
<pdfrwt beam="1">  1        2 0.65382210E-01 0.45685631E+03</pdfrwt>
<pdfrwt beam="2">  1       -2 0.16287093E-01 0.45685631E+03</pdfrwt>
<totfact> 0.22441198E+03</totfact>
</mgrwt>
</event>
<event>
 4    1  0.5280257E-005  0.9168704E+03  0.7818608E-02  0.9404735E-01
          2   -1    0    0  501    0  0.00000000000E+00  0.00000000000E+00  0.39502531197E+03  0.39502531198E+03  0.25500000000E-02 0.  1.
         -2   -1    0    0    0  501 -0.00000000000E+00 -0.00000000000E+00 -0.53202376923E+03  0.53202376924E+03  0.25500000000E-02 0. -1.
    5000001    1    1    2    0    0  0.38264497249E+03  0.24295289240E+02 -0.26015676224E+03  0.49184751397E+03  0.16500000000E+03 0.  0.
   -5000001    1    1    2    0    0 -0.38264497249E+03 -0.24295289240E+02  0.12315830498E+03  0.43520156725E+03  0.16500000000E+03 0.  0.
<mgrwt>
<rscale>  0 0.91687045E+03</rscale>
<asrwt>0</asrwt>
<pdfrwt beam="1">  1        2 0.56432188E-01 0.91687045E+03</pdfrwt>
<pdfrwt beam="2">  1       -2 0.76003395E-01 0.91687045E+03</pdfrwt>
<totfact> 0.13640679E+02</totfact>
</mgrwt>
</event>
<event>
 4    1  0.5280257E-005  0.6640431E+03  0.7818608E-02  0.9780779E-01
         -2   -1    0    0    0  501 -0.00000000000E+00  0.00000000000E+00  0.20650661075E+03  0.20650661077E+03  0.25500000000E-02 0.  1.
          2   -1    0    0  501    0  0.00000000000E+00 -0.00000000000E+00 -0.53382465541E+03  0.53382465541E+03  0.25500000000E-02 0. -1.
    5000001    1    1    2    0    0  0.19549376455E+03 -0.60595629294E+02  0.62428074505E+02  0.27020715526E+03  0.16500000000E+03 0.  0.
   -5000001    1    1    2    0    0 -0.19549376455E+03  0.60595629294E+02 -0.38974611916E+03  0.47012411092E+03  0.16500000000E+03 0.  0.
<mgrwt>
<rscale>  0 0.66404313E+03</rscale>
<asrwt>0</asrwt>
<pdfrwt beam="1">  1        2 0.76260664E-01 0.66404313E+03</pdfrwt>
<pdfrwt beam="2">  1       -2 0.29500945E-01 0.66404313E+03</pdfrwt>
<totfact> 0.66124090E+02</totfact>
</mgrwt>
</event>
<event>
 4    1  0.5280257E-005  0.5484424E+03  0.7818608E-02  0.1001855E+00
         -2   -1    0    0    0  501 -0.00000000000E+00  0.00000000000E+00  0.19665673694E+03  0.19665673696E+03  0.25500000000E-02 0. -1.
          2   -1    0    0  501    0  0.00000000000E+00 -0.00000000000E+00 -0.38237823369E+03  0.38237823370E+03  0.25500000000E-02 0.  1.
    5000001    1    1    2    0    0  0.65870547846E+02 -0.17958450468E+03  0.19780398547E+02  0.25338860977E+03  0.16500000000E+03 0.  0.
   -5000001    1    1    2    0    0 -0.65870547846E+02  0.17958450468E+03 -0.20550189530E+03  0.32564636090E+03  0.16500000000E+03 0.  0.
<mgrwt>
<rscale>  0 0.54844236E+03</rscale>
<asrwt>0</asrwt>
<pdfrwt beam="1">  1        2 0.54625462E-01 0.54844236E+03</pdfrwt>
<pdfrwt beam="2">  1       -2 0.28093820E-01 0.54844236E+03</pdfrwt>
<totfact> 0.10545965E+03</totfact>
</mgrwt>
</event>
<event>
 4    1  0.5280257E-005  0.5645899E+03  0.7818608E-02  0.9981722E-01
         -2   -1    0    0    0  501 -0.00000000000E+00  0.00000000000E+00  0.36719056461E+03  0.36719056462E+03  0.25500000000E-02 0. -1.
          2   -1    0    0  501    0  0.00000000000E+00 -0.00000000000E+00 -0.21702747339E+03  0.21702747340E+03  0.25500000000E-02 0.  1.
    5000001    1    1    2    0    0 -0.22555102656E+03 -0.10230082926E+02  0.35172319574E+02  0.28185104620E+03  0.16500000000E+03 0.  0.
   -5000001    1    1    2    0    0  0.22555102656E+03  0.10230082926E+02  0.11499077165E+03  0.30236699182E+03  0.16500000000E+03 0.  0.
<mgrwt>
<rscale>  0 0.56458991E+03</rscale>
<asrwt>0</asrwt>
<pdfrwt beam="1">  1        2 0.31003925E-01 0.56458991E+03</pdfrwt>
<pdfrwt beam="2">  1       -2 0.52455794E-01 0.56458991E+03</pdfrwt>
<totfact> 0.59218744E+02</totfact>
</mgrwt>
</event>
<event>
 4    1  0.5280257E-005  0.4260968E+03  0.7818608E-02  0.1035100E+00
          2   -1    0    0  501    0  0.00000000000E+00  0.00000000000E+00  0.43831964705E+03  0.43831964705E+03  0.25500000000E-02 0.  1.
         -2   -1    0    0    0  501 -0.00000000000E+00 -0.00000000000E+00 -0.10355368213E+03  0.10355368216E+03  0.25500000000E-02 0. -1.
    5000001    1    1    2    0    0 -0.24061523204E+02 -0.93392386599E+02  0.47655839450E+02  0.19696998200E+03  0.16500000000E+03 0.  0.
   -5000001    1    1    2    0    0  0.24061523204E+02  0.93392386599E+02  0.28711012547E+03  0.34490334722E+03  0.16500000000E+03 0.  0.
<mgrwt>
<rscale>  0 0.42609677E+03</rscale>
<asrwt>0</asrwt>
<pdfrwt beam="1">  1        2 0.62617094E-01 0.42609677E+03</pdfrwt>
<pdfrwt beam="2">  1       -2 0.14793383E-01 0.42609677E+03</pdfrwt>
<totfact> 0.27646485E+03</totfact>
</mgrwt>
</event>
<event>
 4    1  0.5280257E-005  0.4489040E+03  0.7818608E-02  0.1028049E+00
          2   -1    0    0  501    0  0.00000000000E+00  0.00000000000E+00  0.21525470689E+04  0.21525470689E+04  0.25500000000E-02 0.  1.
         -2   -1    0    0    0  501 -0.00000000000E+00 -0.00000000000E+00 -0.23404226326E+02  0.23404226465E+02  0.25500000000E-02 0. -1.
    5000001    1    1    2    0    0 -0.44789719521E+02  0.38065213154E+02  0.17448919824E+04  0.17536613441E+04  0.16500000000E+03 0.  0.
   -5000001    1    1    2    0    0  0.44789719521E+02 -0.38065213154E+02  0.38425086019E+03  0.42228995132E+03  0.16500000000E+03 0.  0.
<mgrwt>
<rscale>  0 0.44890399E+03</rscale>
<asrwt>0</asrwt>
<pdfrwt beam="1">  1        2 0.30750658E+00 0.44890399E+03</pdfrwt>
<pdfrwt beam="2">  1       -2 0.33434625E-02 0.44890399E+03</pdfrwt>
<totfact> 0.26588888E+03</totfact>
</mgrwt>
</event>
<event>
 4    1  0.5280257E-005  0.5784030E+03  0.7818608E-02  0.9951255E-01
         -2   -1    0    0    0  501 -0.00000000000E+00  0.00000000000E+00  0.43303488453E+02  0.43303488528E+02  0.25500000000E-02 0. -1.
          2   -1    0    0  501    0  0.00000000000E+00 -0.00000000000E+00 -0.19314264148E+04  0.19314264148E+04  0.25500000000E-02 0.  1.
    5000001    1    1    2    0    0  0.10308890489E+03  0.14007751938E+03 -0.14962976158E+04  0.15153813344E+04  0.16500000000E+03 0.  0.
   -5000001    1    1    2    0    0 -0.10308890489E+03 -0.14007751938E+03 -0.39182531054E+03  0.45934856887E+03  0.16500000000E+03 0.  0.
<mgrwt>
<rscale>  0 0.57840298E+03</rscale>
<asrwt>0</asrwt>
<pdfrwt beam="1">  1        2 0.27591801E+00 0.57840298E+03</pdfrwt>
<pdfrwt beam="2">  1       -2 0.61862138E-02 0.57840298E+03</pdfrwt>
<totfact> 0.13218213E+03</totfact>
</mgrwt>
</event>
<event>
 4    1  0.5280257E-005  0.5470880E+03  0.7818608E-02  0.1002170E+00
          2   -1    0    0  501    0  0.00000000000E+00  0.00000000000E+00  0.52366601703E+03  0.52366601704E+03  0.25500000000E-02 0.  1.
         -2   -1    0    0    0  501 -0.00000000000E+00 -0.00000000000E+00 -0.14288937892E+03  0.14288937894E+03  0.25500000000E-02 0. -1.
    5000001    1    1    2    0    0  0.11134812099E+03  0.18112602184E+03  0.13074701246E+03  0.29920698705E+03  0.16500000000E+03 0.  0.
   -5000001    1    1    2    0    0 -0.11134812099E+03 -0.18112602184E+03  0.25002962565E+03  0.36734840892E+03  0.16500000000E+03 0.  0.
<mgrwt>
<rscale>  0 0.54708797E+03</rscale>
<asrwt>0</asrwt>
<pdfrwt beam="1">  1        2 0.74809431E-01 0.54708797E+03</pdfrwt>
<pdfrwt beam="2">  1       -2 0.20412768E-01 0.54708797E+03</pdfrwt>
<totfact> 0.13098217E+03</totfact>
</mgrwt>
</event>
<event>
 4    1  0.5280257E-005  0.7349570E+03  0.7818608E-02  0.9659251E-01
          2   -1    0    0  501    0  0.00000000000E+00  0.00000000000E+00  0.29724873743E+03  0.29724873744E+03  0.25500000000E-02 0.  1.
         -2   -1    0    0    0  501 -0.00000000000E+00 -0.00000000000E+00 -0.45430116534E+03  0.45430116535E+03  0.25500000000E-02 0. -1.
    5000001    1    1    2    0    0  0.11242163450E+03 -0.94602942739E+02  0.22174783533E+03  0.31302626591E+03  0.16500000000E+03 0.  0.
   -5000001    1    1    2    0    0 -0.11242163450E+03  0.94602942739E+02 -0.37880026324E+03  0.43852363688E+03  0.16500000000E+03 0.  0.
<mgrwt>
<rscale>  0 0.73495700E+03</rscale>
<asrwt>0</asrwt>
<pdfrwt beam="1">  1        2 0.42464105E-01 0.73495700E+03</pdfrwt>
<pdfrwt beam="2">  1       -2 0.64900166E-01 0.73495700E+03</pdfrwt>
<totfact> 0.26620047E+02</totfact>
</mgrwt>
</event>
<event>
 4    1  0.5280257E-005  0.1077806E+04  0.7818608E-02  0.9227097E-01
          2   -1    0    0  501    0  0.00000000000E+00  0.00000000000E+00  0.38206873856E+04  0.38206873856E+04  0.25500000000E-02 0.  1.
         -2   -1    0    0    0  501 -0.00000000000E+00 -0.00000000000E+00 -0.76011604672E+02  0.76011604715E+02  0.25500000000E-02 0. -1.
    5000001    1    1    2    0    0  0.34106092371E+03  0.38161950201E+03  0.19994221637E+04  0.20704757876E+04  0.16500000000E+03 0.  0.
   -5000001    1    1    2    0    0 -0.34106092371E+03 -0.38161950201E+03  0.17452536172E+04  0.18262232027E+04  0.16500000000E+03 0.  0.
<mgrwt>
<rscale>  0 0.10778063E+04</rscale>
<asrwt>0</asrwt>
<pdfrwt beam="1">  1        2 0.54581265E+00 0.10778063E+04</pdfrwt>
<pdfrwt beam="2">  1       -2 0.10858797E-01 0.10778063E+04</pdfrwt>
<totfact> 0.46643093E+01</totfact>
</mgrwt>
</event>
<event>
 4    1  0.5280257E-005  0.5668787E+03  0.7818608E-02  0.9976610E-01
         -2   -1    0    0    0  501 -0.00000000000E+00  0.00000000000E+00  0.52269123990E+02  0.52269124052E+02  0.25500000000E-02 0. -1.
          2   -1    0    0  501    0  0.00000000000E+00 -0.00000000000E+00 -0.15370041516E+04  0.15370041516E+04  0.25500000000E-02 0.  1.
    5000001    1    1    2    0    0  0.65020433740E+02  0.20095767162E+03 -0.48387436841E+03  0.55314649686E+03  0.16500000000E+03 0.  0.
   -5000001    1    1    2    0    0 -0.65020433740E+02 -0.20095767162E+03 -0.10008606592E+04  0.10361267788E+04  0.16500000000E+03 0.  0.
<mgrwt>
<rscale>  0 0.56687868E+03</rscale>
<asrwt>0</asrwt>
<pdfrwt beam="1">  1        2 0.21957199E+00 0.56687868E+03</pdfrwt>
<pdfrwt beam="2">  1       -2 0.74670187E-02 0.56687868E+03</pdfrwt>
<totfact> 0.15585977E+03</totfact>
</mgrwt>
</event>
<event>
 4    1  0.5280257E-005  0.4558707E+03  0.7818608E-02  0.1025986E+00
         -2   -1    0    0    0  501 -0.00000000000E+00  0.00000000000E+00  0.28408298041E+02  0.28408298155E+02  0.25500000000E-02 0. -1.
          2   -1    0    0  501    0  0.00000000000E+00 -0.00000000000E+00 -0.18288504764E+04  0.18288504764E+04  0.25500000000E-02 0.  1.
    5000001    1    1    2    0    0 -0.41352359284E+02  0.14745189475E+03 -0.75460720804E+03  0.78747007391E+03  0.16500000000E+03 0.  0.
   -5000001    1    1    2    0    0  0.41352359284E+02 -0.14745189475E+03 -0.10458349704E+04  0.10697887007E+04  0.16500000000E+03 0.  0.
<mgrwt>
<rscale>  0 0.45587073E+03</rscale>
<asrwt>0</asrwt>
<pdfrwt beam="1">  1        2 0.26126428E+00 0.45587073E+03</pdfrwt>
<pdfrwt beam="2">  1       -2 0.40583295E-02 0.45587073E+03</pdfrwt>
<totfact> 0.28686556E+03</totfact>
</mgrwt>
</event>
<event>
 4    1  0.5280257E-005  0.6199486E+03  0.7818608E-02  0.9864862E-01
         -2   -1    0    0    0  501 -0.00000000000E+00  0.00000000000E+00  0.13789436868E+03  0.13789436871E+03  0.25500000000E-02 0. -1.
          2   -1    0    0  501    0  0.00000000000E+00 -0.00000000000E+00 -0.69679469513E+03  0.69679469513E+03  0.25500000000E-02 0.  1.
    5000001    1    1    2    0    0 -0.18546257875E+03  0.17983540419E+03 -0.34147047494E+03  0.45887277755E+03  0.16500000000E+03 0.  0.
   -5000001    1    1    2    0    0  0.18546257875E+03 -0.17983540419E+03 -0.21742985150E+03  0.37581628629E+03  0.16500000000E+03 0.  0.
<mgrwt>
<rscale>  0 0.61994859E+03</rscale>
<asrwt>0</asrwt>
<pdfrwt beam="1">  1        2 0.99542097E-01 0.61994859E+03</pdfrwt>
<pdfrwt beam="2">  1       -2 0.19699196E-01 0.61994859E+03</pdfrwt>
<totfact> 0.99428557E+02</totfact>
</mgrwt>
</event>
<event>
 4    1  0.5280257E-005  0.3433433E+03  0.7818608E-02  0.1065381E+00
          2   -1    0    0  501    0  0.00000000000E+00  0.00000000000E+00  0.65053363480E+03  0.65053363480E+03  0.25500000000E-02 0.  1.
         -2   -1    0    0    0  501 -0.00000000000E+00 -0.00000000000E+00 -0.45303053027E+02  0.45303053099E+02  0.25500000000E-02 0. -1.
    5000001    1    1    2    0    0 -0.62663406662E+01  0.45161549819E+02  0.27639956120E+03  0.32511621005E+03  0.16500000000E+03 0.  0.
   -5000001    1    1    2    0    0  0.62663406662E+01 -0.45161549819E+02  0.32883102057E+03  0.37072047785E+03  0.16500000000E+03 0.  0.
<mgrwt>
<rscale>  0 0.34334333E+03</rscale>
<asrwt>0</asrwt>
<pdfrwt beam="1">  1        2 0.92933369E-01 0.34334333E+03</pdfrwt>
<pdfrwt beam="2">  1       -2 0.64718652E-02 0.34334333E+03</pdfrwt>
<totfact> 0.66185919E+03</totfact>
</mgrwt>
</event>
<event>
 4    1  0.5280257E-005  0.4026551E+03  0.7818608E-02  0.1042864E+00
         -2   -1    0    0    0  501 -0.00000000000E+00  0.00000000000E+00  0.54113016191E+02  0.54113016251E+02  0.25500000000E-02 0. -1.
          2   -1    0    0  501    0  0.00000000000E+00 -0.00000000000E+00 -0.74903944690E+03  0.74903944690E+03  0.25500000000E-02 0.  1.
    5000001    1    1    2    0    0 -0.89770217759E+02 -0.72423640271E+02 -0.34352003761E+03  0.39816440311E+03  0.16500000000E+03 0.  0.
   -5000001    1    1    2    0    0  0.89770217759E+02  0.72423640271E+02 -0.35140639310E+03  0.40498806004E+03  0.16500000000E+03 0.  0.
<mgrwt>
<rscale>  0 0.40265511E+03</rscale>
<asrwt>0</asrwt>
<pdfrwt beam="1">  1        2 0.10700563E+00 0.40265511E+03</pdfrwt>
<pdfrwt beam="2">  1       -2 0.77304313E-02 0.40265511E+03</pdfrwt>
<totfact> 0.42469519E+03</totfact>
</mgrwt>
</event>
<event>
 4    1  0.5280257E-005  0.4383966E+03  0.7818608E-02  0.1031240E+00
         -2   -1    0    0    0  501 -0.00000000000E+00  0.00000000000E+00  0.20214143538E+02  0.20214143699E+02  0.25500000000E-02 0.  1.
          2   -1    0    0  501    0  0.00000000000E+00 -0.00000000000E+00 -0.23769442422E+04  0.23769442422E+04  0.25500000000E-02 0. -1.
    5000001    1    1    2    0    0 -0.13238121928E+02  0.15173678487E+02 -0.39704346222E+03  0.43043466320E+03  0.16500000000E+03 0.  0.
   -5000001    1    1    2    0    0  0.13238121928E+02 -0.15173678487E+02 -0.19596866364E+04  0.19667237227E+04  0.16500000000E+03 0.  0.
<mgrwt>
<rscale>  0 0.43839659E+03</rscale>
<asrwt>0</asrwt>
<pdfrwt beam="1">  1        2 0.33956329E+00 0.43839659E+03</pdfrwt>
<pdfrwt beam="2">  1       -2 0.28877363E-02 0.43839659E+03</pdfrwt>
<totfact> 0.25635975E+03</totfact>
</mgrwt>
</event>
<event>
 4    1  0.5280257E-005  0.4147465E+03  0.7818608E-02  0.1038790E+00
         -2   -1    0    0    0  501 -0.00000000000E+00  0.00000000000E+00  0.31269919069E+02  0.31269919173E+02  0.25500000000E-02 0. -1.
          2   -1    0    0  501    0  0.00000000000E+00 -0.00000000000E+00 -0.13752403891E+04  0.13752403891E+04  0.25500000000E-02 0.  1.
    5000001    1    1    2    0    0  0.71142493329E+02  0.22504189133E+02 -0.10146690426E+04  0.10307016828E+04  0.16500000000E+03 0.  0.
   -5000001    1    1    2    0    0 -0.71142493329E+02 -0.22504189133E+02 -0.32930142744E+03  0.37580862550E+03  0.16500000000E+03 0.  0.
<mgrwt>
<rscale>  0 0.41474646E+03</rscale>
<asrwt>0</asrwt>
<pdfrwt beam="1">  1        2 0.19646288E+00 0.41474646E+03</pdfrwt>
<pdfrwt beam="2">  1       -2 0.44671322E-02 0.41474646E+03</pdfrwt>
<totfact> 0.42184623E+03</totfact>
</mgrwt>
</event>
<event>
 4    1  0.5280257E-005  0.5214305E+03  0.7818608E-02  0.1008332E+00
         -2   -1    0    0    0  501 -0.00000000000E+00  0.00000000000E+00  0.44823217267E+02  0.44823217339E+02  0.25500000000E-02 0. -1.
          2   -1    0    0  501    0  0.00000000000E+00 -0.00000000000E+00 -0.15164559568E+04  0.15164559568E+04  0.25500000000E-02 0.  1.
    5000001    1    1    2    0    0 -0.17220209492E+03  0.68664941419E+02 -0.49667185078E+03  0.55522640700E+03  0.16500000000E+03 0.  0.
   -5000001    1    1    2    0    0  0.17220209492E+03 -0.68664941419E+02 -0.97496088878E+03  0.10060527672E+04  0.16500000000E+03 0.  0.
<mgrwt>
<rscale>  0 0.52143047E+03</rscale>
<asrwt>0</asrwt>
<pdfrwt beam="1">  1        2 0.21663653E+00 0.52143047E+03</pdfrwt>
<pdfrwt beam="2">  1       -2 0.64033177E-02 0.52143047E+03</pdfrwt>
<totfact> 0.20375295E+03</totfact>
</mgrwt>
</event>
<event>
 4    1  0.5280257E-005  0.5799569E+03  0.7818608E-02  0.9947884E-01
         -2   -1    0    0    0  501 -0.00000000000E+00  0.00000000000E+00  0.77399591517E+02  0.77399591559E+02  0.25500000000E-02 0. -1.
          2   -1    0    0  501    0  0.00000000000E+00 -0.00000000000E+00 -0.10864076542E+04  0.10864076542E+04  0.25500000000E-02 0.  1.
    5000001    1    1    2    0    0 -0.19275940569E+03 -0.62733569236E+02 -0.25249712162E+03  0.36341640802E+03  0.16500000000E+03 0.  0.
   -5000001    1    1    2    0    0  0.19275940569E+03  0.62733569236E+02 -0.75651094102E+03  0.80039083770E+03  0.16500000000E+03 0.  0.
<mgrwt>
<rscale>  0 0.57995692E+03</rscale>
<asrwt>0</asrwt>
<pdfrwt beam="1">  1        2 0.15520108E+00 0.57995692E+03</pdfrwt>
<pdfrwt beam="2">  1       -2 0.11057085E-01 0.57995692E+03</pdfrwt>
<totfact> 0.14581141E+03</totfact>
</mgrwt>
</event>
<event>
 4    1  0.5280257E-005  0.4757122E+03  0.7818608E-02  0.1020320E+00
          2   -1    0    0  501    0  0.00000000000E+00  0.00000000000E+00  0.19417527805E+04  0.19417527805E+04  0.25500000000E-02 0.  1.
         -2   -1    0    0    0  501 -0.00000000000E+00 -0.00000000000E+00 -0.29136313897E+02  0.29136314009E+02  0.25500000000E-02 0. -1.
    5000001    1    1    2    0    0 -0.84431451974E+02  0.12530305321E+03  0.62174762938E+03  0.66077578638E+03  0.16500000000E+03 0.  0.
   -5000001    1    1    2    0    0  0.84431451974E+02 -0.12530305321E+03  0.12908688372E+04  0.13101133081E+04  0.16500000000E+03 0.  0.
<mgrwt>
<rscale>  0 0.47571218E+03</rscale>
<asrwt>0</asrwt>
<pdfrwt beam="1">  1        2 0.27739330E+00 0.47571218E+03</pdfrwt>
<pdfrwt beam="2">  1       -2 0.41623298E-02 0.47571218E+03</pdfrwt>
<totfact> 0.24228628E+03</totfact>
</mgrwt>
</event>
<event>
 4    1  0.5280257E-005  0.4722599E+03  0.7818608E-02  0.1021284E+00
          2   -1    0    0  501    0  0.00000000000E+00  0.00000000000E+00  0.18471349360E+03  0.18471349362E+03  0.25500000000E-02 0.  1.
         -2   -1    0    0    0  501 -0.00000000000E+00 -0.00000000000E+00 -0.30185862304E+03  0.30185862305E+03  0.25500000000E-02 0. -1.
    5000001    1    1    2    0    0 -0.13549785143E+03 -0.37023204042E+02  0.38089528211E+02  0.22001408487E+03  0.16500000000E+03 0.  0.
   -5000001    1    1    2    0    0  0.13549785143E+03  0.37023204042E+02 -0.15523465765E+03  0.26655803180E+03  0.16500000000E+03 0.  0.
<mgrwt>
<rscale>  0 0.47225993E+03</rscale>
<asrwt>0</asrwt>
<pdfrwt beam="1">  1        2 0.26387642E-01 0.47225993E+03</pdfrwt>
<pdfrwt beam="2">  1       -2 0.43122660E-01 0.47225993E+03</pdfrwt>
<totfact> 0.10508880E+03</totfact>
</mgrwt>
</event>
<event>
 4    1  0.5280257E-005  0.1315785E+04  0.7818608E-02  0.9017140E-01
         -2   -1    0    0    0  501 -0.00000000000E+00  0.00000000000E+00  0.60883866641E+03  0.60883866641E+03  0.25500000000E-02 0. -1.
          2   -1    0    0  501    0  0.00000000000E+00 -0.00000000000E+00 -0.71089895830E+03  0.71089895830E+03  0.25500000000E-02 0.  1.
    5000001    1    1    2    0    0  0.54610336704E+03  0.84403502914E+02  0.26653568663E+03  0.63531024787E+03  0.16500000000E+03 0.  0.
   -5000001    1    1    2    0    0 -0.54610336704E+03 -0.84403502914E+02 -0.36859597852E+03  0.68442737685E+03  0.16500000000E+03 0.  0.
<mgrwt>
<rscale>  0 0.13157854E+04</rscale>
<asrwt>0</asrwt>
<pdfrwt beam="1">  1        2 0.10155699E+00 0.13157854E+04</pdfrwt>
<pdfrwt beam="2">  1       -2 0.86976953E-01 0.13157854E+04</pdfrwt>
<totfact> 0.49505506E+01</totfact>
</mgrwt>
</event>
<event>
 4    1  0.5280257E-005  0.3741186E+03  0.7818608E-02  0.1053129E+00
          2   -1    0    0  501    0  0.00000000000E+00  0.00000000000E+00  0.29274517158E+03  0.29274517159E+03  0.25500000000E-02 0.  1.
         -2   -1    0    0    0  501 -0.00000000000E+00 -0.00000000000E+00 -0.11952779780E+03  0.11952779782E+03  0.25500000000E-02 0. -1.
    5000001    1    1    2    0    0 -0.85708213923E+02 -0.95365456177E+01  0.66610108458E+02  0.19773403901E+03  0.16500000000E+03 0.  0.
   -5000001    1    1    2    0    0  0.85708213923E+02  0.95365456177E+01  0.10660726532E+03  0.21453893040E+03  0.16500000000E+03 0.  0.
<mgrwt>
<rscale>  0 0.37411862E+03</rscale>
<asrwt>0</asrwt>
<pdfrwt beam="1">  1        2 0.41820738E-01 0.37411862E+03</pdfrwt>
<pdfrwt beam="2">  1       -2 0.17075400E-01 0.37411862E+03</pdfrwt>
<totfact> 0.33712790E+03</totfact>
</mgrwt>
</event>
<event>
 4    1  0.5280257E-005  0.1168748E+04  0.7818608E-02  0.9140660E-01
          2   -1    0    0  501    0  0.00000000000E+00  0.00000000000E+00  0.11002765021E+04  0.11002765021E+04  0.25500000000E-02 0.  1.
         -2   -1    0    0    0  501 -0.00000000000E+00 -0.00000000000E+00 -0.31037029688E+03  0.31037029689E+03  0.25500000000E-02 0. -1.
    5000001    1    1    2    0    0 -0.80725871605E+01  0.37549553503E+03  0.89727124615E+03  0.98660161801E+03  0.16500000000E+03 0.  0.
   -5000001    1    1    2    0    0  0.80725871605E+01 -0.37549553503E+03 -0.10736504094E+03  0.42404518097E+03  0.16500000000E+03 0.  0.
<mgrwt>
<rscale>  0 0.11687483E+04</rscale>
<asrwt>0</asrwt>
<pdfrwt beam="1">  1        2 0.15718236E+00 0.11687483E+04</pdfrwt>
<pdfrwt beam="2">  1       -2 0.44338613E-01 0.11687483E+04</pdfrwt>
<totfact> 0.11642196E+02</totfact>
</mgrwt>
</event>
<event>
 4    1  0.5280257E-005  0.4149046E+03  0.7818608E-02  0.1038738E+00
         -2   -1    0    0    0  501 -0.00000000000E+00  0.00000000000E+00  0.24643946275E+02  0.24643946407E+02  0.25500000000E-02 0. -1.
          2   -1    0    0  501    0  0.00000000000E+00 -0.00000000000E+00 -0.17463293711E+04  0.17463293711E+04  0.25500000000E-02 0.  1.
    5000001    1    1    2    0    0  0.79005378010E+02  0.43230950893E+02 -0.48627665200E+03  0.52134513247E+03  0.16500000000E+03 0.  0.
   -5000001    1    1    2    0    0 -0.79005378010E+02 -0.43230950893E+02 -0.12354087728E+04  0.12496281850E+04  0.16500000000E+03 0.  0.
<mgrwt>
<rscale>  0 0.41490455E+03</rscale>
<asrwt>0</asrwt>
<pdfrwt beam="1">  1        2 0.24947555E+00 0.41490455E+03</pdfrwt>
<pdfrwt beam="2">  1       -2 0.35205649E-02 0.41490455E+03</pdfrwt>
<totfact> 0.39180754E+03</totfact>
</mgrwt>
</event>
<event>
 4    1  0.5280257E-005  0.5255805E+03  0.7818608E-02  0.1007310E+00
          2   -1    0    0  501    0  0.00000000000E+00  0.00000000000E+00  0.35851323303E+03  0.35851323304E+03  0.25500000000E-02 0.  1.
         -2   -1    0    0    0  501 -0.00000000000E+00 -0.00000000000E+00 -0.19262531940E+03  0.19262531941E+03  0.25500000000E-02 0. -1.
    5000001    1    1    2    0    0 -0.16465422633E+03  0.15668317296E+02  0.20911626138E+03  0.31354604317E+03  0.16500000000E+03 0.  0.
   -5000001    1    1    2    0    0  0.16465422633E+03 -0.15668317296E+02 -0.43228347752E+02  0.23759250928E+03  0.16500000000E+03 0.  0.
<mgrwt>
<rscale>  0 0.52558054E+03</rscale>
<asrwt>0</asrwt>
<pdfrwt beam="1">  1        2 0.51216176E-01 0.52558054E+03</pdfrwt>
<pdfrwt beam="2">  1       -2 0.27517903E-01 0.52558054E+03</pdfrwt>
<totfact> 0.11759553E+03</totfact>
</mgrwt>
</event>
<event>
 4    1  0.5280257E-005  0.5434668E+03  0.7818608E-02  0.1003018E+00
         -2   -1    0    0    0  501 -0.00000000000E+00  0.00000000000E+00  0.16155614684E+03  0.16155614686E+03  0.25500000000E-02 0. -1.
          2   -1    0    0  501    0  0.00000000000E+00 -0.00000000000E+00 -0.45704879682E+03  0.45704879682E+03  0.25500000000E-02 0.  1.
    5000001    1    1    2    0    0 -0.13051984496E+03 -0.91191186005E+02 -0.31372427159E+03  0.38858613063E+03  0.16500000000E+03 0.  0.
   -5000001    1    1    2    0    0  0.13051984496E+03  0.91191186005E+02  0.18231621617E+02  0.23001881306E+03  0.16500000000E+03 0.  0.
<mgrwt>
<rscale>  0 0.54346681E+03</rscale>
<asrwt>0</asrwt>
<pdfrwt beam="1">  1        2 0.65292685E-01 0.54346681E+03</pdfrwt>
<pdfrwt beam="2">  1       -2 0.23079450E-01 0.54346681E+03</pdfrwt>
<totfact> 0.12313379E+03</totfact>
</mgrwt>
</event>
<event>
 4    1  0.5280257E-005  0.4939102E+03  0.7818608E-02  0.1015381E+00
          2   -1    0    0  501    0  0.00000000000E+00  0.00000000000E+00  0.44583111741E+03  0.44583111742E+03  0.25500000000E-02 0.  1.
         -2   -1    0    0    0  501 -0.00000000000E+00 -0.00000000000E+00 -0.13679355324E+03  0.13679355326E+03  0.25500000000E-02 0. -1.
    5000001    1    1    2    0    0  0.16911053699E+03  0.24660478719E+02  0.74902878475E+02  0.24908222364E+03  0.16500000000E+03 0.  0.
   -5000001    1    1    2    0    0 -0.16911053699E+03 -0.24660478719E+02  0.23413468569E+03  0.33354244704E+03  0.16500000000E+03 0.  0.
<mgrwt>
<rscale>  0 0.49391021E+03</rscale>
<asrwt>0</asrwt>
<pdfrwt beam="1">  1        2 0.63690160E-01 0.49391021E+03</pdfrwt>
<pdfrwt beam="2">  1       -2 0.19541936E-01 0.49391021E+03</pdfrwt>
<totfact> 0.16937471E+03</totfact>
</mgrwt>
</event>
<event>
 4    1  0.5280257E-005  0.5880097E+03  0.7818608E-02  0.9930599E-01
         -2   -1    0    0    0  501 -0.00000000000E+00  0.00000000000E+00  0.48631700124E+02  0.48631700191E+02  0.25500000000E-02 0. -1.
          2   -1    0    0  501    0  0.00000000000E+00 -0.00000000000E+00 -0.17774176919E+04  0.17774176919E+04  0.25500000000E-02 0.  1.
    5000001    1    1    2    0    0 -0.21113514168E+03 -0.11570050578E+03 -0.75463348787E+03  0.80911146087E+03  0.16500000000E+03 0.  0.
   -5000001    1    1    2    0    0  0.21113514168E+03  0.11570050578E+03 -0.97415250386E+03  0.10169379312E+04  0.16500000000E+03 0.  0.
<mgrwt>
<rscale>  0 0.58800967E+03</rscale>
<asrwt>0</asrwt>
<pdfrwt beam="1">  1        2 0.25391677E+00 0.58800967E+03</pdfrwt>
<pdfrwt beam="2">  1       -2 0.69473868E-02 0.58800967E+03</pdfrwt>
<totfact> 0.13158796E+03</totfact>
</mgrwt>
</event>
<event>
 4    1  0.5280257E-005  0.4325999E+03  0.7818608E-02  0.1033042E+00
          2   -1    0    0  501    0  0.00000000000E+00  0.00000000000E+00  0.71997093980E+02  0.71997094025E+02  0.25500000000E-02 0.  1.
         -2   -1    0    0    0  501 -0.00000000000E+00 -0.00000000000E+00 -0.64982707949E+03  0.64982707949E+03  0.25500000000E-02 0. -1.
    5000001    1    1    2    0    0  0.81098400366E+02  0.56102374415E+02 -0.12342967263E+03  0.22843885625E+03  0.16500000000E+03 0.  0.
   -5000001    1    1    2    0    0 -0.81098400366E+02 -0.56102374415E+02 -0.45440031288E+03  0.49338531727E+03  0.16500000000E+03 0.  0.
<mgrwt>
<rscale>  0 0.43259987E+03</rscale>
<asrwt>0</asrwt>
<pdfrwt beam="1">  1        2 0.10285300E-01 0.43259987E+03</pdfrwt>
<pdfrwt beam="2">  1       -2 0.92832437E-01 0.43259987E+03</pdfrwt>
<totfact> 0.63458203E+02</totfact>
</mgrwt>
</event>
<event>
 4    1  0.5280257E-005  0.6188055E+03  0.7818608E-02  0.9867141E-01
          2   -1    0    0  501    0  0.00000000000E+00  0.00000000000E+00  0.93087086851E+03  0.93087086851E+03  0.25500000000E-02 0.  1.
         -2   -1    0    0    0  501 -0.00000000000E+00 -0.00000000000E+00 -0.10283924279E+03  0.10283924282E+03  0.25500000000E-02 0. -1.
    5000001    1    1    2    0    0 -0.24868559962E+03  0.81319188771E+02  0.40247642463E+03  0.50761167274E+03  0.16500000000E+03 0.  0.
   -5000001    1    1    2    0    0  0.24868559962E+03 -0.81319188771E+02  0.42555520109E+03  0.52609843860E+03  0.16500000000E+03 0.  0.
<mgrwt>
<rscale>  0 0.61880548E+03</rscale>
<asrwt>0</asrwt>
<pdfrwt beam="1">  1        2 0.13298155E+00 0.61880548E+03</pdfrwt>
<pdfrwt beam="2">  1       -2 0.14691320E-01 0.61880548E+03</pdfrwt>
<totfact> 0.11311816E+03</totfact>
</mgrwt>
</event>
<event>
 4    1  0.5280257E-005  0.5152073E+03  0.7818608E-02  0.1009884E+00
          2   -1    0    0  501    0  0.00000000000E+00  0.00000000000E+00  0.37392919886E+03  0.37392919887E+03  0.25500000000E-02 0.  1.
         -2   -1    0    0    0  501 -0.00000000000E+00 -0.00000000000E+00 -0.17746582223E+03  0.17746582225E+03  0.25500000000E-02 0. -1.
    5000001    1    1    2    0    0 -0.58583280387E+02  0.17249267214E+03  0.15684891820E+02  0.24628588777E+03  0.16500000000E+03 0.  0.
   -5000001    1    1    2    0    0  0.58583280387E+02 -0.17249267214E+03  0.18077848481E+03  0.30510913335E+03  0.16500000000E+03 0.  0.
<mgrwt>
<rscale>  0 0.51520735E+03</rscale>
<asrwt>0</asrwt>
<pdfrwt beam="1">  1        2 0.53418457E-01 0.51520735E+03</pdfrwt>
<pdfrwt beam="2">  1       -2 0.25352260E-01 0.51520735E+03</pdfrwt>
<totfact> 0.13016199E+03</totfact>
</mgrwt>
</event>
<event>
 4    1  0.5280257E-005  0.6853770E+03  0.7818608E-02  0.9742572E-01
         -2   -1    0    0    0  501 -0.00000000000E+00  0.00000000000E+00  0.16848933066E+03  0.16848933068E+03  0.25500000000E-02 0. -1.
          2   -1    0    0  501    0  0.00000000000E+00 -0.00000000000E+00 -0.69699013455E+03  0.69699013455E+03  0.25500000000E-02 0.  1.
    5000001    1    1    2    0    0  0.23129621206E+03  0.27740223312E+02 -0.24844928763E+02  0.28654795094E+03  0.16500000000E+03 0.  0.
   -5000001    1    1    2    0    0 -0.23129621206E+03 -0.27740223312E+02 -0.50365587512E+03  0.57893151429E+03  0.16500000000E+03 0.  0.
<mgrwt>
<rscale>  0 0.68537698E+03</rscale>
<asrwt>0</asrwt>
<pdfrwt beam="1">  1        2 0.99570017E-01 0.68537698E+03</pdfrwt>
<pdfrwt beam="2">  1       -2 0.24069905E-01 0.68537698E+03</pdfrwt>
<totfact> 0.69696327E+02</totfact>
</mgrwt>
</event>
<event>
 4    1  0.5280257E-005  0.5164930E+03  0.7818608E-02  0.1009561E+00
         -2   -1    0    0    0  501 -0.00000000000E+00  0.00000000000E+00  0.60882574845E+02  0.60882574898E+02  0.25500000000E-02 0. -1.
          2   -1    0    0  501    0  0.00000000000E+00 -0.00000000000E+00 -0.10954078798E+04  0.10954078798E+04  0.25500000000E-02 0.  1.
    5000001    1    1    2    0    0  0.16665915875E+03  0.28471887254E+02 -0.75078234851E+03  0.78707373123E+03  0.16500000000E+03 0.  0.
   -5000001    1    1    2    0    0 -0.16665915875E+03 -0.28471887254E+02 -0.28374295644E+03  0.36921672347E+03  0.16500000000E+03 0.  0.
<mgrwt>
<rscale>  0 0.51649299E+03</rscale>
<asrwt>0</asrwt>
<pdfrwt beam="1">  1        2 0.15648683E+00 0.51649299E+03</pdfrwt>
<pdfrwt beam="2">  1       -2 0.86975114E-02 0.51649299E+03</pdfrwt>
<totfact> 0.21249143E+03</totfact>
</mgrwt>
</event>
<event>
 4    1  0.5280257E-005  0.4797502E+03  0.7818608E-02  0.1019204E+00
         -2   -1    0    0    0  501 -0.00000000000E+00  0.00000000000E+00  0.73068788242E+02  0.73068788286E+02  0.25500000000E-02 0. -1.
          2   -1    0    0  501    0  0.00000000000E+00 -0.00000000000E+00 -0.78747788828E+03  0.78747788828E+03  0.25500000000E-02 0.  1.
    5000001    1    1    2    0    0 -0.52118646166E+02  0.47583676859E+02 -0.71698425068E+02  0.19325171083E+03  0.16500000000E+03 0.  0.
   -5000001    1    1    2    0    0  0.52118646166E+02 -0.47583676859E+02 -0.64271067497E+03  0.66729496574E+03  0.16500000000E+03 0.  0.
<mgrwt>
<rscale>  0 0.47975016E+03</rscale>
<asrwt>0</asrwt>
<pdfrwt beam="1">  1        2 0.11249684E+00 0.47975016E+03</pdfrwt>
<pdfrwt beam="2">  1       -2 0.10438399E-01 0.47975016E+03</pdfrwt>
<totfact> 0.24753707E+03</totfact>
</mgrwt>
</event>
<event>
 4    1  0.5280257E-005  0.4727709E+03  0.7818608E-02  0.1021141E+00
          2   -1    0    0  501    0  0.00000000000E+00  0.00000000000E+00  0.24930598063E+04  0.24930598063E+04  0.25500000000E-02 0.  1.
         -2   -1    0    0    0  501 -0.00000000000E+00 -0.00000000000E+00 -0.22413453590E+02  0.22413453735E+02  0.25500000000E-02 0. -1.
    5000001    1    1    2    0    0 -0.90172653221E+02 -0.12801697489E+03  0.89323771013E+03  0.92174728644E+03  0.16500000000E+03 0.  0.
   -5000001    1    1    2    0    0  0.90172653221E+02  0.12801697489E+03  0.15774086425E+04  0.15937259736E+04  0.16500000000E+03 0.  0.
<mgrwt>
<rscale>  0 0.47277090E+03</rscale>
<asrwt>0</asrwt>
<pdfrwt beam="1">  1        2 0.35615109E+00 0.47277090E+03</pdfrwt>
<pdfrwt beam="2">  1       -2 0.32019247E-02 0.47277090E+03</pdfrwt>
<totfact> 0.19121271E+03</totfact>
</mgrwt>
</event>
<event>
 4    1  0.5280257E-005  0.6302321E+03  0.7818608E-02  0.9844596E-01
          2   -1    0    0  501    0  0.00000000000E+00  0.00000000000E+00  0.23984369564E+04  0.23984369564E+04  0.25500000000E-02 0.  1.
         -2   -1    0    0    0  501 -0.00000000000E+00 -0.00000000000E+00 -0.41401177614E+02  0.41401177693E+02  0.25500000000E-02 0. -1.
    5000001    1    1    2    0    0  0.47996230999E+02  0.24852316203E+03  0.15249040732E+04  0.15545497202E+04  0.16500000000E+03 0.  0.
   -5000001    1    1    2    0    0 -0.47996230999E+02 -0.24852316203E+03  0.83213170559E+03  0.88528841385E+03  0.16500000000E+03 0.  0.
<mgrwt>
<rscale>  0 0.63023207E+03</rscale>
<asrwt>0</asrwt>
<pdfrwt beam="1">  1        2 0.34263391E+00 0.63023207E+03</pdfrwt>
<pdfrwt beam="2">  1       -2 0.59144529E-02 0.63023207E+03</pdfrwt>
<totfact> 0.82206297E+02</totfact>
</mgrwt>
</event>
<event>
 4    1  0.5280257E-005  0.4124514E+03  0.7818608E-02  0.1039552E+00
         -2   -1    0    0    0  501 -0.00000000000E+00  0.00000000000E+00  0.80545468448E+02  0.80545468489E+02  0.25500000000E-02 0. -1.
          2   -1    0    0  501    0  0.00000000000E+00 -0.00000000000E+00 -0.52801273477E+03  0.52801273478E+03  0.25500000000E-02 0.  1.
    5000001    1    1    2    0    0  0.85227944360E+02  0.80212900119E+02 -0.28286508378E+03  0.34775791503E+03  0.16500000000E+03 0.  0.
   -5000001    1    1    2    0    0 -0.85227944360E+02 -0.80212900119E+02 -0.16460218254E+03  0.26080028824E+03  0.16500000000E+03 0.  0.
<mgrwt>
<rscale>  0 0.41245137E+03</rscale>
<asrwt>0</asrwt>
<pdfrwt beam="1">  1        2 0.75430389E-01 0.41245137E+03</pdfrwt>
<pdfrwt beam="2">  1       -2 0.11506496E-01 0.41245137E+03</pdfrwt>
<totfact> 0.33931934E+03</totfact>
</mgrwt>
</event>
<event>
 4    1  0.5280257E-005  0.5193487E+03  0.7818608E-02  0.1008848E+00
          2   -1    0    0  501    0  0.00000000000E+00  0.00000000000E+00  0.35162952963E+03  0.35162952964E+03  0.25500000000E-02 0.  1.
         -2   -1    0    0    0  501 -0.00000000000E+00 -0.00000000000E+00 -0.19176649379E+03  0.19176649381E+03  0.25500000000E-02 0. -1.
    5000001    1    1    2    0    0  0.48606358916E+02 -0.13814060912E+03 -0.63378966572E+02  0.22953714170E+03  0.16500000000E+03 0.  0.
   -5000001    1    1    2    0    0 -0.48606358916E+02  0.13814060912E+03  0.22324200241E+03  0.31385888175E+03  0.16500000000E+03 0.  0.
<mgrwt>
<rscale>  0 0.51934868E+03</rscale>
<asrwt>0</asrwt>
<pdfrwt beam="1">  1        2 0.50232789E-01 0.51934868E+03</pdfrwt>
<pdfrwt beam="2">  1       -2 0.27395214E-01 0.51934868E+03</pdfrwt>
<totfact> 0.12111219E+03</totfact>
</mgrwt>
</event>
<event>
 4    1  0.5280257E-005  0.5294291E+03  0.7818608E-02  0.1006371E+00
         -2   -1    0    0    0  501 -0.00000000000E+00  0.00000000000E+00  0.11423728477E+03  0.11423728479E+03  0.25500000000E-02 0. -1.
          2   -1    0    0  501    0  0.00000000000E+00 -0.00000000000E+00 -0.61340554321E+03  0.61340554322E+03  0.25500000000E-02 0.  1.
    5000001    1    1    2    0    0 -0.20275508589E+03 -0.39647974335E+02 -0.23181260331E+03  0.35163001831E+03  0.16500000000E+03 0.  0.
   -5000001    1    1    2    0    0  0.20275508589E+03  0.39647974335E+02 -0.26735565514E+03  0.37601280970E+03  0.16500000000E+03 0.  0.
<mgrwt>
<rscale>  0 0.52942907E+03</rscale>
<asrwt>0</asrwt>
<pdfrwt beam="1">  1        2 0.87629362E-01 0.52942907E+03</pdfrwt>
<pdfrwt beam="2">  1       -2 0.16319612E-01 0.52942907E+03</pdfrwt>
<totfact> 0.16016182E+03</totfact>
</mgrwt>
</event>
<event>
 4    1  0.5280257E-005  0.3830515E+03  0.7818608E-02  0.1049812E+00
         -2   -1    0    0    0  501 -0.00000000000E+00  0.00000000000E+00  0.51782503302E+02  0.51782503365E+02  0.25500000000E-02 0. -1.
          2   -1    0    0  501    0  0.00000000000E+00 -0.00000000000E+00 -0.70838800970E+03  0.70838800970E+03  0.25500000000E-02 0.  1.
    5000001    1    1    2    0    0 -0.92424712657E+02  0.21142425998E+02 -0.28538150845E+03  0.34301156694E+03  0.16500000000E+03 0.  0.
   -5000001    1    1    2    0    0  0.92424712657E+02 -0.21142425998E+02 -0.37122399795E+03  0.41715894613E+03  0.16500000000E+03 0.  0.
<mgrwt>
<rscale>  0 0.38305146E+03</rscale>
<asrwt>0</asrwt>
<pdfrwt beam="1">  1        2 0.10119828E+00 0.38305146E+03</pdfrwt>
<pdfrwt beam="2">  1       -2 0.73975009E-02 0.38305146E+03</pdfrwt>
<totfact> 0.48670869E+03</totfact>
</mgrwt>
</event>
<event>
 4    1  0.5280257E-005  0.1427995E+04  0.7818608E-02  0.8933800E-01
         -2   -1    0    0    0  501 -0.00000000000E+00  0.00000000000E+00  0.68624312595E+03  0.68624312595E+03  0.25500000000E-02 0. -1.
          2   -1    0    0  501    0  0.00000000000E+00 -0.00000000000E+00 -0.74287464076E+03  0.74287464076E+03  0.25500000000E-02 0.  1.
    5000001    1    1    2    0    0 -0.38913738090E+03 -0.42389864123E+03 -0.41778700227E+03  0.72999242361E+03  0.16500000000E+03 0.  0.
   -5000001    1    1    2    0    0  0.38913738090E+03  0.42389864123E+03  0.36115548746E+03  0.69912534311E+03  0.16500000000E+03 0.  0.
<mgrwt>
<rscale>  0 0.14279953E+04</rscale>
<asrwt>0</asrwt>
<pdfrwt beam="1">  1        2 0.10612495E+00 0.14279953E+04</pdfrwt>
<pdfrwt beam="2">  1       -2 0.98034733E-01 0.14279953E+04</pdfrwt>
<totfact> 0.35204363E+01</totfact>
</mgrwt>
</event>
<event>
 4    1  0.5280257E-005  0.6121432E+03  0.7818608E-02  0.9880528E-01
         -2   -1    0    0    0  501 -0.00000000000E+00  0.00000000000E+00  0.25067331295E+04  0.25067331295E+04  0.25500000000E-02 0. -1.
          2   -1    0    0  501    0  0.00000000000E+00 -0.00000000000E+00 -0.37371280662E+02  0.37371280749E+02  0.25500000000E-02 0.  1.
    5000001    1    1    2    0    0 -0.15093396889E+03 -0.71040571729E+02  0.20515028619E+04  0.20648769499E+04  0.16500000000E+03 0.  0.
   -5000001    1    1    2    0    0  0.15093396889E+03  0.71040571729E+02  0.41785898692E+03  0.47922746035E+03  0.16500000000E+03 0.  0.
<mgrwt>
<rscale>  0 0.61214321E+03</rscale>
<asrwt>0</asrwt>
<pdfrwt beam="1">  1        2 0.53387536E-02 0.61214321E+03</pdfrwt>
<pdfrwt beam="2">  1       -2 0.35810479E+00 0.61214321E+03</pdfrwt>
<totfact> 0.22490005E+01</totfact>
</mgrwt>
</event>
<event>
 4    1  0.5280257E-005  0.5079339E+03  0.7818608E-02  0.1011729E+00
          2   -1    0    0  501    0  0.00000000000E+00  0.00000000000E+00  0.43323036091E+03  0.43323036092E+03  0.25500000000E-02 0.  1.
         -2   -1    0    0    0  501 -0.00000000000E+00 -0.00000000000E+00 -0.14887971870E+03  0.14887971872E+03  0.25500000000E-02 0. -1.
    5000001    1    1    2    0    0  0.17690660667E+03 -0.75722712740E+02  0.12426130197E+03  0.28230435327E+03  0.16500000000E+03 0.  0.
   -5000001    1    1    2    0    0 -0.17690660667E+03  0.75722712740E+02  0.16008934023E+03  0.29980572637E+03  0.16500000000E+03 0.  0.
<mgrwt>
<rscale>  0 0.50793391E+03</rscale>
<asrwt>0</asrwt>
<pdfrwt beam="1">  1        2 0.61890050E-01 0.50793391E+03</pdfrwt>
<pdfrwt beam="2">  1       -2 0.21268532E-01 0.50793391E+03</pdfrwt>
<totfact> 0.15093629E+03</totfact>
</mgrwt>
</event>
<event>
 4    1  0.5280257E-005  0.5378565E+03  0.7818608E-02  0.1004344E+00
          2   -1    0    0  501    0  0.00000000000E+00  0.00000000000E+00  0.17468210199E+04  0.17468210199E+04  0.25500000000E-02 0.  1.
         -2   -1    0    0    0  501 -0.00000000000E+00 -0.00000000000E+00 -0.41402293200E+02  0.41402293278E+02  0.25500000000E-02 0. -1.
    5000001    1    1    2    0    0  0.11594733805E+02  0.14496273755E+03  0.33819571865E+03  0.40342282688E+03  0.16500000000E+03 0.  0.
   -5000001    1    1    2    0    0 -0.11594733805E+02 -0.14496273755E+03  0.13672230081E+04  0.13848004863E+04  0.16500000000E+03 0.  0.
<mgrwt>
<rscale>  0 0.53785647E+03</rscale>
<asrwt>0</asrwt>
<pdfrwt beam="1">  1        2 0.24954590E+00 0.53785647E+03</pdfrwt>
<pdfrwt beam="2">  1       -2 0.59146124E-02 0.53785647E+03</pdfrwt>
<totfact> 0.17590744E+03</totfact>
</mgrwt>
</event>
<event>
 4    1  0.5280257E-005  0.3932058E+03  0.7818608E-02  0.1046158E+00
         -2   -1    0    0    0  501 -0.00000000000E+00  0.00000000000E+00  0.15248601998E+03  0.15248602000E+03  0.25500000000E-02 0. -1.
          2   -1    0    0  501    0  0.00000000000E+00 -0.00000000000E+00 -0.25348356775E+03  0.25348356777E+03  0.25500000000E-02 0.  1.
    5000001    1    1    2    0    0  0.58826890479E+02  0.89253059853E+02 -0.51525357357E+02  0.20324018842E+03  0.16500000000E+03 0.  0.
   -5000001    1    1    2    0    0 -0.58826890479E+02 -0.89253059853E+02 -0.49472190415E+02  0.20272939935E+03  0.16500000000E+03 0.  0.
<mgrwt>
<rscale>  0 0.39320580E+03</rscale>
<asrwt>0</asrwt>
<pdfrwt beam="1">  1        2 0.36211938E-01 0.39320580E+03</pdfrwt>
<pdfrwt beam="2">  1       -2 0.21783717E-01 0.39320580E+03</pdfrwt>
<totfact> 0.26001377E+03</totfact>
</mgrwt>
</event>
<event>
 4    1  0.5280257E-005  0.4022788E+03  0.7818608E-02  0.1042993E+00
          2   -1    0    0  501    0  0.00000000000E+00  0.00000000000E+00  0.60718465086E+03  0.60718465086E+03  0.25500000000E-02 0.  1.
         -2   -1    0    0    0  501 -0.00000000000E+00 -0.00000000000E+00 -0.66630583471E+02  0.66630583520E+02  0.25500000000E-02 0. -1.
    5000001    1    1    2    0    0 -0.45949626271E+02  0.10110310471E+03  0.32049510789E+03  0.37719400859E+03  0.16500000000E+03 0.  0.
   -5000001    1    1    2    0    0  0.45949626271E+02 -0.10110310471E+03  0.22005895950E+03  0.29662122579E+03  0.16500000000E+03 0.  0.
<mgrwt>
<rscale>  0 0.40227885E+03</rscale>
<asrwt>0</asrwt>
<pdfrwt beam="1">  1        2 0.86740661E-01 0.40227885E+03</pdfrwt>
<pdfrwt beam="2">  1       -2 0.95186551E-02 0.40227885E+03</pdfrwt>
<totfact> 0.39228512E+03</totfact>
</mgrwt>
</event>
<event>
 4    1  0.5280257E-005  0.4268143E+03  0.7818608E-02  0.1034871E+00
         -2   -1    0    0    0  501 -0.00000000000E+00  0.00000000000E+00  0.51671428908E+02  0.51671428971E+02  0.25500000000E-02 0. -1.
          2   -1    0    0  501    0  0.00000000000E+00 -0.00000000000E+00 -0.88138861950E+03  0.88138861951E+03  0.25500000000E-02 0.  1.
    5000001    1    1    2    0    0 -0.79219252984E+02  0.10971903794E+03 -0.41903633691E+03  0.47024505206E+03  0.16500000000E+03 0.  0.
   -5000001    1    1    2    0    0  0.79219252984E+02 -0.10971903794E+03 -0.41068085368E+03  0.46281499642E+03  0.16500000000E+03 0.  0.
<mgrwt>
<rscale>  0 0.42681429E+03</rscale>
<asrwt>0</asrwt>
<pdfrwt beam="1">  1        2 0.12591265E+00 0.42681429E+03</pdfrwt>
<pdfrwt beam="2">  1       -2 0.73816332E-02 0.42681429E+03</pdfrwt>
<totfact> 0.37184784E+03</totfact>
</mgrwt>
</event>
<event>
 4    1  0.5280257E-005  0.4944439E+03  0.7818608E-02  0.1015239E+00
          2   -1    0    0  501    0  0.00000000000E+00  0.00000000000E+00  0.77435767201E+03  0.77435767201E+03  0.25500000000E-02 0.  1.
         -2   -1    0    0    0  501 -0.00000000000E+00 -0.00000000000E+00 -0.78928248392E+02  0.78928248433E+02  0.25500000000E-02 0. -1.
    5000001    1    1    2    0    0  0.16869143850E+03  0.37067103995E+02  0.45771576638E+03  0.51629399998E+03  0.16500000000E+03 0.  0.
   -5000001    1    1    2    0    0 -0.16869143850E+03 -0.37067103995E+02  0.23771365724E+03  0.33699192047E+03  0.16500000000E+03 0.  0.
<mgrwt>
<rscale>  0 0.49444391E+03</rscale>
<asrwt>0</asrwt>
<pdfrwt beam="1">  1        2 0.11062252E+00 0.49444391E+03</pdfrwt>
<pdfrwt beam="2">  1       -2 0.11275464E-01 0.49444391E+03</pdfrwt>
<totfact> 0.22308193E+03</totfact>
</mgrwt>
</event>
<event>
 4    1  0.5280257E-005  0.4298781E+03  0.7818608E-02  0.1033898E+00
          2   -1    0    0  501    0  0.00000000000E+00  0.00000000000E+00  0.27030291674E+04  0.27030291674E+04  0.25500000000E-02 0.  1.
         -2   -1    0    0    0  501 -0.00000000000E+00 -0.00000000000E+00 -0.17091490173E+02  0.17091490363E+02  0.25500000000E-02 0. -1.
    5000001    1    1    2    0    0  0.27425353672E+02 -0.73288062153E+02  0.62566531202E+03  0.65177095113E+03  0.16500000000E+03 0.  0.
   -5000001    1    1    2    0    0 -0.27425353672E+02  0.73288062153E+02  0.20602723652E+04  0.20683497067E+04  0.16500000000E+03 0.  0.
<mgrwt>
<rscale>  0 0.42987811E+03</rscale>
<asrwt>0</asrwt>
<pdfrwt beam="1">  1        2 0.38614723E+00 0.42987811E+03</pdfrwt>
<pdfrwt beam="2">  1       -2 0.24416402E-02 0.42987811E+03</pdfrwt>
<totfact> 0.22508842E+03</totfact>
</mgrwt>
</event>
<event>
 4    1  0.5280257E-005  0.4605075E+03  0.7818608E-02  0.1024634E+00
         -2   -1    0    0    0  501 -0.00000000000E+00  0.00000000000E+00  0.21107445020E+02  0.21107445174E+02  0.25500000000E-02 0.  1.
          2   -1    0    0  501    0  0.00000000000E+00 -0.00000000000E+00 -0.25117578348E+04  0.25117578348E+04  0.25500000000E-02 0. -1.
    5000001    1    1    2    0    0 -0.12416289191E+01  0.15880103129E+03 -0.11137251384E+04  0.11370259421E+04  0.16500000000E+03 0.  0.
   -5000001    1    1    2    0    0  0.12416289191E+01 -0.15880103129E+03 -0.13769252514E+04  0.13958393378E+04  0.16500000000E+03 0.  0.
<mgrwt>
<rscale>  0 0.46050751E+03</rscale>
<asrwt>0</asrwt>
<pdfrwt beam="1">  1        2 0.35882236E+00 0.46050751E+03</pdfrwt>
<pdfrwt beam="2">  1       -2 0.30153509E-02 0.46050751E+03</pdfrwt>
<totfact> 0.20501205E+03</totfact>
</mgrwt>
</event>
<event>
 4    1  0.5280257E-005  0.4312529E+03  0.7818608E-02  0.1033465E+00
         -2   -1    0    0    0  501 -0.00000000000E+00  0.00000000000E+00  0.12497057278E+02  0.12497057538E+02  0.25500000000E-02 0. -1.
          2   -1    0    0  501    0  0.00000000000E+00 -0.00000000000E+00 -0.37204569343E+04  0.37204569343E+04  0.25500000000E-02 0.  1.
    5000001    1    1    2    0    0  0.51789754448E+01 -0.33516389549E+02 -0.30191648347E+04  0.30238603588E+04  0.16500000000E+03 0.  0.
   -5000001    1    1    2    0    0 -0.51789754448E+01  0.33516389549E+02 -0.68879504234E+03  0.70909363310E+03  0.16500000000E+03 0.  0.
<mgrwt>
<rscale>  0 0.43125289E+03</rscale>
<asrwt>0</asrwt>
<pdfrwt beam="1">  1        2 0.53149314E+00 0.43125289E+03</pdfrwt>
<pdfrwt beam="2">  1       -2 0.17852963E-02 0.43125289E+03</pdfrwt>
<totfact> 0.96629760E+02</totfact>
</mgrwt>
</event>
<event>
 4    1  0.5280257E-005  0.3837926E+03  0.7818608E-02  0.1049541E+00
          2   -1    0    0  501    0  0.00000000000E+00  0.00000000000E+00  0.61712465275E+03  0.61712465275E+03  0.25500000000E-02 0.  1.
         -2   -1    0    0    0  501 -0.00000000000E+00 -0.00000000000E+00 -0.59670593381E+02  0.59670593436E+02  0.25500000000E-02 0. -1.
    5000001    1    1    2    0    0  0.96038590268E+02 -0.65866146367E+01  0.24657627756E+03  0.31191610245E+03  0.16500000000E+03 0.  0.
   -5000001    1    1    2    0    0 -0.96038590268E+02  0.65866146367E+01  0.31087778181E+03  0.36487914374E+03  0.16500000000E+03 0.  0.
<mgrwt>
<rscale>  0 0.38379262E+03</rscale>
<asrwt>0</asrwt>
<pdfrwt beam="1">  1        2 0.88160665E-01 0.38379262E+03</pdfrwt>
<pdfrwt beam="2">  1       -2 0.85243705E-02 0.38379262E+03</pdfrwt>
<totfact> 0.45840219E+03</totfact>
</mgrwt>
</event>
<event>
 4    1  0.5280257E-005  0.3786661E+03  0.7818608E-02  0.1051428E+00
          2   -1    0    0  501    0  0.00000000000E+00  0.00000000000E+00  0.17407004703E+04  0.17407004703E+04  0.25500000000E-02 0.  1.
         -2   -1    0    0    0  501 -0.00000000000E+00 -0.00000000000E+00 -0.20593437673E+02  0.20593437831E+02  0.25500000000E-02 0. -1.
    5000001    1    1    2    0    0  0.79022476103E+02  0.25771803482E+02  0.10525789862E+04  0.10686703232E+04  0.16500000000E+03 0.  0.
   -5000001    1    1    2    0    0 -0.79022476103E+02 -0.25771803482E+02  0.66752804645E+03  0.69262358491E+03  0.16500000000E+03 0.  0.
<mgrwt>
<rscale>  0 0.37866612E+03</rscale>
<asrwt>0</asrwt>
<pdfrwt beam="1">  1        2 0.24867160E+00 0.37866612E+03</pdfrwt>
<pdfrwt beam="2">  1       -2 0.29419184E-02 0.37866612E+03</pdfrwt>
<totfact> 0.51702137E+03</totfact>
</mgrwt>
</event>
<event>
 4    1  0.5280257E-005  0.9882385E+03  0.7818608E-02  0.9321540E-01
          2   -1    0    0  501    0  0.00000000000E+00  0.00000000000E+00  0.42832517039E+03  0.42832517040E+03  0.25500000000E-02 0.  1.
         -2   -1    0    0    0  501 -0.00000000000E+00 -0.00000000000E+00 -0.57001975978E+03  0.57001975978E+03  0.25500000000E-02 0. -1.
    5000001    1    1    2    0    0 -0.43929003255E+03  0.43290511625E+02  0.79262372546E+02  0.47786747619E+03  0.16500000000E+03 0.  0.
   -5000001    1    1    2    0    0  0.43929003255E+03 -0.43290511625E+02 -0.22095696193E+03  0.52047745400E+03  0.16500000000E+03 0.  0.
<mgrwt>
<rscale>  0 0.98823845E+03</rscale>
<asrwt>0</asrwt>
<pdfrwt beam="1">  1        2 0.61189310E-01 0.98823845E+03</pdfrwt>
<pdfrwt beam="2">  1       -2 0.81431394E-01 0.98823845E+03</pdfrwt>
<totfact> 0.10633676E+02</totfact>
</mgrwt>
</event>
<event>
 4    1  0.5280257E-005  0.5670103E+03  0.7818608E-02  0.9976316E-01
          2   -1    0    0  501    0  0.00000000000E+00  0.00000000000E+00  0.17268842855E+03  0.17268842857E+03  0.25500000000E-02 0.  1.
         -2   -1    0    0    0  501 -0.00000000000E+00 -0.00000000000E+00 -0.46543453748E+03  0.46543453749E+03  0.25500000000E-02 0. -1.
    5000001    1    1    2    0    0  0.17919903692E+03  0.12482789086E+03 -0.22950063380E+03  0.35719719776E+03  0.16500000000E+03 0.  0.
   -5000001    1    1    2    0    0 -0.17919903692E+03 -0.12482789086E+03 -0.63245475132E+02  0.28092576830E+03  0.16500000000E+03 0.  0.
<mgrwt>
<rscale>  0 0.56701026E+03</rscale>
<asrwt>0</asrwt>
<pdfrwt beam="1">  1        2 0.24669776E-01 0.56701026E+03</pdfrwt>
<pdfrwt beam="2">  1       -2 0.66490648E-01 0.56701026E+03</pdfrwt>
<totfact> 0.46670314E+02</totfact>
</mgrwt>
</event>
<event>
 4    1  0.5280257E-005  0.4787713E+03  0.7818608E-02  0.1019473E+00
          2   -1    0    0  501    0  0.00000000000E+00  0.00000000000E+00  0.94073427676E+03  0.94073427676E+03  0.25500000000E-02 0.  1.
         -2   -1    0    0    0  501 -0.00000000000E+00 -0.00000000000E+00 -0.60915699231E+02  0.60915699284E+02  0.25500000000E-02 0. -1.
    5000001    1    1    2    0    0  0.13011681940E+03  0.97280618003E+02  0.31288119645E+03  0.38924741287E+03  0.16500000000E+03 0.  0.
   -5000001    1    1    2    0    0 -0.13011681940E+03 -0.97280618003E+02  0.56693738107E+03  0.61240256318E+03  0.16500000000E+03 0.  0.
<mgrwt>
<rscale>  0 0.47877129E+03</rscale>
<asrwt>0</asrwt>
<pdfrwt beam="1">  1        2 0.13439061E+00 0.47877129E+03</pdfrwt>
<pdfrwt beam="2">  1       -2 0.87022431E-02 0.47877129E+03</pdfrwt>
<totfact> 0.26294411E+03</totfact>
</mgrwt>
</event>
<event>
 4    1  0.5280257E-005  0.4593972E+03  0.7818608E-02  0.1024956E+00
         -2   -1    0    0    0  501 -0.00000000000E+00  0.00000000000E+00  0.10431695857E+03  0.10431695860E+03  0.25500000000E-02 0. -1.
          2   -1    0    0  501    0  0.00000000000E+00 -0.00000000000E+00 -0.50578013221E+03  0.50578013222E+03  0.25500000000E-02 0.  1.
    5000001    1    1    2    0    0  0.12229264681E+03 -0.81744498491E+02 -0.11780847847E+03  0.25048251855E+03  0.16500000000E+03 0.  0.
   -5000001    1    1    2    0    0 -0.12229264681E+03  0.81744498491E+02 -0.28365469517E+03  0.35961457227E+03  0.16500000000E+03 0.  0.
<mgrwt>
<rscale>  0 0.45939719E+03</rscale>
<asrwt>0</asrwt>
<pdfrwt beam="1">  1        2 0.72254304E-01 0.45939719E+03</pdfrwt>
<pdfrwt beam="2">  1       -2 0.14902423E-01 0.45939719E+03</pdfrwt>
<totfact> 0.23291794E+03</totfact>
</mgrwt>
</event>
<event>
 4    1  0.5280257E-005  0.4142500E+03  0.7818608E-02  0.1038954E+00
          2   -1    0    0  501    0  0.00000000000E+00  0.00000000000E+00  0.11890734497E+04  0.11890734497E+04  0.25500000000E-02 0.  1.
         -2   -1    0    0    0  501 -0.00000000000E+00 -0.00000000000E+00 -0.36079148480E+02  0.36079148570E+02  0.25500000000E-02 0. -1.
    5000001    1    1    2    0    0 -0.17692421352E+02  0.48289803524E+02  0.91410595204E+03  0.93030082148E+03  0.16500000000E+03 0.  0.
   -5000001    1    1    2    0    0  0.17692421352E+02 -0.48289803524E+02  0.23888834914E+03  0.29485177675E+03  0.16500000000E+03 0.  0.
<mgrwt>
<rscale>  0 0.41424996E+03</rscale>
<asrwt>0</asrwt>
<pdfrwt beam="1">  1        2 0.16986764E+00 0.41424996E+03</pdfrwt>
<pdfrwt beam="2">  1       -2 0.51541641E-02 0.41424996E+03</pdfrwt>
<totfact> 0.42678874E+03</totfact>
</mgrwt>
</event>
<event>
 4    1  0.5280257E-005  0.4315946E+03  0.7818608E-02  0.1033357E+00
         -2   -1    0    0    0  501 -0.00000000000E+00  0.00000000000E+00  0.20026074219E+03  0.20026074221E+03  0.25500000000E-02 0. -1.
          2   -1    0    0  501    0  0.00000000000E+00 -0.00000000000E+00 -0.23253915939E+03  0.23253915941E+03  0.25500000000E-02 0.  1.
    5000001    1    1    2    0    0  0.10548504043E+03 -0.60517834436E+02 -0.83810728121E+02  0.22144692409E+03  0.16500000000E+03 0.  0.
   -5000001    1    1    2    0    0 -0.10548504043E+03  0.60517834436E+02  0.51532310924E+02  0.21135297753E+03  0.16500000000E+03 0.  0.
<mgrwt>
<rscale>  0 0.43159455E+03</rscale>
<asrwt>0</asrwt>
<pdfrwt beam="1">  1        2 0.33219880E-01 0.43159455E+03</pdfrwt>
<pdfrwt beam="2">  1       -2 0.28608678E-01 0.43159455E+03</pdfrwt>
<totfact> 0.17617105E+03</totfact>
</mgrwt>
</event>
<event>
 4    1  0.5280257E-005  0.4176073E+03  0.7818608E-02  0.1037848E+00
          2   -1    0    0  501    0  0.00000000000E+00  0.00000000000E+00  0.10322960121E+04  0.10322960121E+04  0.25500000000E-02 0.  1.
         -2   -1    0    0    0  501 -0.00000000000E+00 -0.00000000000E+00 -0.42234934499E+02  0.42234934576E+02  0.25500000000E-02 0. -1.
    5000001    1    1    2    0    0  0.47059539654E+02 -0.11899292744E+03  0.49552842828E+03  0.53772422327E+03  0.16500000000E+03 0.  0.
   -5000001    1    1    2    0    0 -0.47059539654E+02  0.11899292744E+03  0.49453264929E+03  0.53680672338E+03  0.16500000000E+03 0.  0.
<mgrwt>
<rscale>  0 0.41760725E+03</rscale>
<asrwt>0</asrwt>
<pdfrwt beam="1">  1        2 0.14747082E+00 0.41760725E+03</pdfrwt>
<pdfrwt beam="2">  1       -2 0.60335635E-02 0.41760725E+03</pdfrwt>
<totfact> 0.41124585E+03</totfact>
</mgrwt>
</event>
<event>
 4    1  0.5280257E-005  0.5775498E+03  0.7818608E-02  0.9953110E-01
         -2   -1    0    0    0  501 -0.00000000000E+00  0.00000000000E+00  0.10054327001E+03  0.10054327004E+03  0.25500000000E-02 0. -1.
          2   -1    0    0  501    0  0.00000000000E+00 -0.00000000000E+00 -0.82940366824E+03  0.82940366824E+03  0.25500000000E-02 0.  1.
    5000001    1    1    2    0    0 -0.13832256869E+02 -0.16226252426E+03 -0.64166521076E+03  0.68226072788E+03  0.16500000000E+03 0.  0.
   -5000001    1    1    2    0    0  0.13832256869E+02  0.16226252426E+03 -0.87195187468E+02  0.24768621041E+03  0.16500000000E+03 0.  0.
<mgrwt>
<rscale>  0 0.57754985E+03</rscale>
<asrwt>0</asrwt>
<pdfrwt beam="1">  1        2 0.11848623E+00 0.57754985E+03</pdfrwt>
<pdfrwt beam="2">  1       -2 0.14363325E-01 0.57754985E+03</pdfrwt>
<totfact> 0.13699613E+03</totfact>
</mgrwt>
</event>
<event>
 4    1  0.5280257E-005  0.4750105E+03  0.7818608E-02  0.1020515E+00
         -2   -1    0    0    0  501 -0.00000000000E+00  0.00000000000E+00  0.54095959391E+02  0.54095959451E+02  0.25500000000E-02 0. -1.
          2   -1    0    0  501    0  0.00000000000E+00 -0.00000000000E+00 -0.10427534713E+04  0.10427534713E+04  0.25500000000E-02 0.  1.
    5000001    1    1    2    0    0 -0.36951547308E+02  0.12058504294E+03 -0.22825426088E+03  0.30859549096E+03  0.16500000000E+03 0.  0.
   -5000001    1    1    2    0    0  0.36951547308E+02 -0.12058504294E+03 -0.76040325102E+03  0.78825393979E+03  0.16500000000E+03 0.  0.
<mgrwt>
<rscale>  0 0.47501052E+03</rscale>
<asrwt>0</asrwt>
<pdfrwt beam="1">  1        2 0.14896477E+00 0.47501052E+03</pdfrwt>
<pdfrwt beam="2">  1       -2 0.77279948E-02 0.47501052E+03</pdfrwt>
<totfact> 0.27530058E+03</totfact>
</mgrwt>
</event>
<event>
 4    1  0.5280257E-005  0.3784252E+03  0.7818608E-02  0.1051517E+00
          2   -1    0    0  501    0  0.00000000000E+00  0.00000000000E+00  0.57825078709E+03  0.57825078709E+03  0.25500000000E-02 0.  1.
         -2   -1    0    0    0  501 -0.00000000000E+00 -0.00000000000E+00 -0.61913290415E+02  0.61913290467E+02  0.25500000000E-02 0. -1.
    5000001    1    1    2    0    0  0.88692908918E+02  0.20753585152E+02  0.28643836519E+03  0.34288347940E+03  0.16500000000E+03 0.  0.
   -5000001    1    1    2    0    0 -0.88692908918E+02 -0.20753585152E+02  0.22989913148E+03  0.29728059816E+03  0.16500000000E+03 0.  0.
<mgrwt>
<rscale>  0 0.37842520E+03</rscale>
<asrwt>0</asrwt>
<pdfrwt beam="1">  1        2 0.82607248E-01 0.37842520E+03</pdfrwt>
<pdfrwt beam="2">  1       -2 0.88447566E-02 0.37842520E+03</pdfrwt>
<totfact> 0.46599882E+03</totfact>
</mgrwt>
</event>
<event>
 4    1  0.5280257E-005  0.6347686E+03  0.7818608E-02  0.9835787E-01
          2   -1    0    0  501    0  0.00000000000E+00  0.00000000000E+00  0.54083212128E+03  0.54083212128E+03  0.25500000000E-02 0.  1.
         -2   -1    0    0    0  501 -0.00000000000E+00 -0.00000000000E+00 -0.18625520966E+03  0.18625520968E+03  0.25500000000E-02 0. -1.
    5000001    1    1    2    0    0 -0.82457283870E+02  0.25633226810E+03  0.14102376032E+03  0.34585854957E+03  0.16500000000E+03 0.  0.
   -5000001    1    1    2    0    0  0.82457283870E+02 -0.25633226810E+03  0.21355315130E+03  0.38122878140E+03  0.16500000000E+03 0.  0.
<mgrwt>
<rscale>  0 0.63476862E+03</rscale>
<asrwt>0</asrwt>
<pdfrwt beam="1">  1        2 0.77261732E-01 0.63476862E+03</pdfrwt>
<pdfrwt beam="2">  1       -2 0.26607887E-01 0.63476862E+03</pdfrwt>
<totfact> 0.78723040E+02</totfact>
</mgrwt>
</event>
<event>
 4    1  0.5280257E-005  0.4733255E+03  0.7818608E-02  0.1020986E+00
         -2   -1    0    0    0  501 -0.00000000000E+00  0.00000000000E+00  0.24505645856E+03  0.24505645857E+03  0.25500000000E-02 0. -1.
          2   -1    0    0  501    0  0.00000000000E+00 -0.00000000000E+00 -0.22855651513E+03  0.22855651515E+03  0.25500000000E-02 0.  1.
    5000001    1    1    2    0    0  0.10549376497E+03  0.57460201107E+02 -0.11162948218E+03  0.23263007211E+03  0.16500000000E+03 0.  0.
   -5000001    1    1    2    0    0 -0.10549376497E+03 -0.57460201107E+02  0.12812942561E+03  0.24098290160E+03  0.16500000000E+03 0.  0.
<mgrwt>
<rscale>  0 0.47332547E+03</rscale>
<asrwt>0</asrwt>
<pdfrwt beam="1">  1        2 0.32650930E-01 0.47332547E+03</pdfrwt>
<pdfrwt beam="2">  1       -2 0.35008066E-01 0.47332547E+03</pdfrwt>
<totfact> 0.12362201E+03</totfact>
</mgrwt>
</event>
<event>
 4    1  0.5280257E-005  0.4380881E+03  0.7818608E-02  0.1031335E+00
         -2   -1    0    0    0  501 -0.00000000000E+00  0.00000000000E+00  0.21000448477E+02  0.21000448632E+02  0.25500000000E-02 0. -1.
          2   -1    0    0  501    0  0.00000000000E+00 -0.00000000000E+00 -0.22847273638E+04  0.22847273638E+04  0.25500000000E-02 0.  1.
    5000001    1    1    2    0    0 -0.14034591116E+03  0.26630622802E+02 -0.12302063601E+04  0.12494154046E+04  0.16500000000E+03 0.  0.
   -5000001    1    1    2    0    0  0.14034591116E+03 -0.26630622802E+02 -0.10335205552E+04  0.10563124078E+04  0.16500000000E+03 0.  0.
<mgrwt>
<rscale>  0 0.43808812E+03</rscale>
<asrwt>0</asrwt>
<pdfrwt beam="1">  1        2 0.32638947E+00 0.43808812E+03</pdfrwt>
<pdfrwt beam="2">  1       -2 0.30000655E-02 0.43808812E+03</pdfrwt>
<totfact> 0.26922354E+03</totfact>
</mgrwt>
</event>
<event>
 4    1  0.5280257E-005  0.7309354E+03  0.7818608E-02  0.9665744E-01
          2   -1    0    0  501    0  0.00000000000E+00  0.00000000000E+00  0.90003933003E+03  0.90003933003E+03  0.25500000000E-02 0.  1.
         -2   -1    0    0    0  501 -0.00000000000E+00 -0.00000000000E+00 -0.14840090970E+03  0.14840090972E+03  0.25500000000E-02 0. -1.
    5000001    1    1    2    0    0  0.26951697964E+03 -0.16269407070E+03  0.25383021272E+03  0.43676485647E+03  0.16500000000E+03 0.  0.
   -5000001    1    1    2    0    0 -0.26951697964E+03  0.16269407070E+03  0.49780820761E+03  0.61167538328E+03  0.16500000000E+03 0.  0.
<mgrwt>
<rscale>  0 0.73093544E+03</rscale>
<asrwt>0</asrwt>
<pdfrwt beam="1">  1        2 0.12857705E+00 0.73093544E+03</pdfrwt>
<pdfrwt beam="2">  1       -2 0.21200130E-01 0.73093544E+03</pdfrwt>
<totfact> 0.62825387E+02</totfact>
</mgrwt>
</event>
<event>
 4    1  0.5280257E-005  0.5718488E+03  0.7818608E-02  0.9965596E-01
          2   -1    0    0  501    0  0.00000000000E+00  0.00000000000E+00  0.31417463896E+03  0.31417463897E+03  0.25500000000E-02 0.  1.
         -2   -1    0    0    0  501 -0.00000000000E+00 -0.00000000000E+00 -0.26021438168E+03  0.26021438170E+03  0.25500000000E-02 0. -1.
    5000001    1    1    2    0    0 -0.20059397660E+03  0.20912194213E+01 -0.93072528544E+02  0.27591631379E+03  0.16500000000E+03 0.  0.
   -5000001    1    1    2    0    0  0.20059397660E+03 -0.20912194213E+01  0.14703278582E+03  0.29847270688E+03  0.16500000000E+03 0.  0.
<mgrwt>
<rscale>  0 0.57184879E+03</rscale>
<asrwt>0</asrwt>
<pdfrwt beam="1">  1        2 0.44882091E-01 0.57184879E+03</pdfrwt>
<pdfrwt beam="2">  1       -2 0.37173483E-01 0.57184879E+03</pdfrwt>
<totfact> 0.77619118E+02</totfact>
</mgrwt>
</event>
<event>
 4    1  0.5280257E-005  0.1165830E+04  0.7818608E-02  0.9143303E-01
          2   -1    0    0  501    0  0.00000000000E+00  0.00000000000E+00  0.18277409116E+04  0.18277409116E+04  0.25500000000E-02 0.  1.
         -2   -1    0    0    0  501 -0.00000000000E+00 -0.00000000000E+00 -0.18590695200E+03  0.18590695202E+03  0.25500000000E-02 0. -1.
    5000001    1    1    2    0    0 -0.20591751716E+03 -0.32892243833E+03  0.15160523274E+04  0.15736046688E+04  0.16500000000E+03 0.  0.
   -5000001    1    1    2    0    0  0.20591751716E+03  0.32892243833E+03  0.12578163223E+03  0.44004319483E+03  0.16500000000E+03 0.  0.
<mgrwt>
<rscale>  0 0.11658297E+04</rscale>
<asrwt>0</asrwt>
<pdfrwt beam="1">  1        2 0.26110584E+00 0.11658297E+04</pdfrwt>
<pdfrwt beam="2">  1       -2 0.26558136E-01 0.11658297E+04</pdfrwt>
<totfact> 0.12505080E+02</totfact>
</mgrwt>
</event>
<event>
 4    1  0.5280257E-005  0.4139417E+03  0.7818608E-02  0.1039056E+00
         -2   -1    0    0    0  501 -0.00000000000E+00  0.00000000000E+00  0.28351608051E+02  0.28351608166E+02  0.25500000000E-02 0. -1.
          2   -1    0    0  501    0  0.00000000000E+00 -0.00000000000E+00 -0.15109171618E+04  0.15109171618E+04  0.25500000000E-02 0.  1.
    5000001    1    1    2    0    0  0.10344062205E+03  0.63678586186E+02 -0.85014253831E+03  0.87448399646E+03  0.16500000000E+03 0.  0.
   -5000001    1    1    2    0    0 -0.10344062205E+03 -0.63678586186E+02 -0.63242301546E+03  0.66478477353E+03  0.16500000000E+03 0.  0.
<mgrwt>
<rscale>  0 0.41394169E+03</rscale>
<asrwt>0</asrwt>
<pdfrwt beam="1">  1        2 0.21584526E+00 0.41394169E+03</pdfrwt>
<pdfrwt beam="2">  1       -2 0.40502307E-02 0.41394169E+03</pdfrwt>
<totfact> 0.41652141E+03</totfact>
</mgrwt>
</event>
<event>
 4    1  0.5280257E-005  0.4428647E+03  0.7818608E-02  0.1029871E+00
          2   -1    0    0  501    0  0.00000000000E+00  0.00000000000E+00  0.35459622055E+03  0.35459622056E+03  0.25500000000E-02 0.  1.
         -2   -1    0    0    0  501 -0.00000000000E+00 -0.00000000000E+00 -0.13827637168E+03  0.13827637170E+03  0.25500000000E-02 0. -1.
    5000001    1    1    2    0    0 -0.87334004729E+02  0.11122825722E+03  0.15548615363E+03  0.26720759263E+03  0.16500000000E+03 0.  0.
   -5000001    1    1    2    0    0  0.87334004729E+02 -0.11122825722E+03  0.60833695240E+02  0.22566499964E+03  0.16500000000E+03 0.  0.
<mgrwt>
<rscale>  0 0.44286467E+03</rscale>
<asrwt>0</asrwt>
<pdfrwt beam="1">  1        2 0.50656603E-01 0.44286467E+03</pdfrwt>
<pdfrwt beam="2">  1       -2 0.19753767E-01 0.44286467E+03</pdfrwt>
<totfact> 0.21384013E+03</totfact>
</mgrwt>
</event>
<event>
 4    1  0.5280257E-005  0.6578303E+03  0.7818608E-02  0.9792196E-01
         -2   -1    0    0    0  501 -0.00000000000E+00  0.00000000000E+00  0.51227677835E+03  0.51227677835E+03  0.25500000000E-02 0. -1.
          2   -1    0    0  501    0  0.00000000000E+00 -0.00000000000E+00 -0.21118498876E+03  0.21118498877E+03  0.25500000000E-02 0.  1.
    5000001    1    1    2    0    0  0.28170261899E+03  0.36348457285E+02  0.16903347058E+03  0.36942508045E+03  0.16500000000E+03 0.  0.
   -5000001    1    1    2    0    0 -0.28170261899E+03 -0.36348457285E+02  0.13205831901E+03  0.35403668667E+03  0.16500000000E+03 0.  0.
<mgrwt>
<rscale>  0 0.65783027E+03</rscale>
<asrwt>0</asrwt>
<pdfrwt beam="1">  1        2 0.30169284E-01 0.65783027E+03</pdfrwt>
<pdfrwt beam="2">  1       -2 0.73182397E-01 0.65783027E+03</pdfrwt>
<totfact> 0.30103256E+02</totfact>
</mgrwt>
</event>
<event>
 4    1  0.5280257E-005  0.5069080E+03  0.7818608E-02  0.1011991E+00
         -2   -1    0    0    0  501 -0.00000000000E+00  0.00000000000E+00  0.48334012227E+02  0.48334012295E+02  0.25500000000E-02 0. -1.
          2   -1    0    0  501    0  0.00000000000E+00 -0.00000000000E+00 -0.13290623870E+04  0.13290623870E+04  0.25500000000E-02 0.  1.
    5000001    1    1    2    0    0  0.17772950186E+03  0.73237718268E+02 -0.66182505685E+03  0.70865290875E+03  0.16500000000E+03 0.  0.
   -5000001    1    1    2    0    0 -0.17772950186E+03 -0.73237718268E+02 -0.61890331791E+03  0.66874349053E+03  0.16500000000E+03 0.  0.
<mgrwt>
<rscale>  0 0.50690795E+03</rscale>
<asrwt>0</asrwt>
<pdfrwt beam="1">  1        2 0.18986603E+00 0.50690795E+03</pdfrwt>
<pdfrwt beam="2">  1       -2 0.69048598E-02 0.50690795E+03</pdfrwt>
<totfact> 0.22718497E+03</totfact>
</mgrwt>
</event>
<event>
 4    1  0.5280257E-005  0.3761829E+03  0.7818608E-02  0.1052354E+00
         -2   -1    0    0    0  501 -0.00000000000E+00  0.00000000000E+00  0.20231123264E+02  0.20231123424E+02  0.25500000000E-02 0. -1.
          2   -1    0    0  501    0  0.00000000000E+00 -0.00000000000E+00 -0.17487116966E+04  0.17487116966E+04  0.25500000000E-02 0.  1.
    5000001    1    1    2    0    0 -0.40685139888E+02  0.80599704079E+02 -0.87056511877E+03  0.89065156987E+03  0.16500000000E+03 0.  0.
   -5000001    1    1    2    0    0  0.40685139888E+02 -0.80599704079E+02 -0.85791545459E+03  0.87829125018E+03  0.16500000000E+03 0.  0.
<mgrwt>
<rscale>  0 0.37618295E+03</rscale>
<asrwt>0</asrwt>
<pdfrwt beam="1">  1        2 0.24981586E+00 0.37618295E+03</pdfrwt>
<pdfrwt beam="2">  1       -2 0.28901616E-02 0.37618295E+03</pdfrwt>
<totfact> 0.52611799E+03</totfact>
</mgrwt>
</event>
<event>
 4    1  0.5280257E-005  0.3629647E+03  0.7818608E-02  0.1057416E+00
         -2   -1    0    0    0  501 -0.00000000000E+00  0.00000000000E+00  0.11741445863E+02  0.11741446140E+02  0.25500000000E-02 0. -1.
          2   -1    0    0  501    0  0.00000000000E+00 -0.00000000000E+00 -0.28050926764E+04  0.28050926764E+04  0.25500000000E-02 0.  1.
    5000001    1    1    2    0    0  0.20191922475E+02  0.70642579654E+02 -0.15339217051E+04  0.15445189818E+04  0.16500000000E+03 0.  0.
   -5000001    1    1    2    0    0 -0.20191922475E+02 -0.70642579654E+02 -0.12594295254E+04  0.12723151407E+04  0.16500000000E+03 0.  0.
<mgrwt>
<rscale>  0 0.36296470E+03</rscale>
<asrwt>0</asrwt>
<pdfrwt beam="1">  1        2 0.40072710E+00 0.36296470E+03</pdfrwt>
<pdfrwt beam="2">  1       -2 0.16773512E-02 0.36296470E+03</pdfrwt>
<totfact> 0.34976266E+03</totfact>
</mgrwt>
</event>
<event>
 4    1  0.5280257E-005  0.5519998E+03  0.7818608E-02  0.1001032E+00
          2   -1    0    0  501    0  0.00000000000E+00  0.00000000000E+00  0.19358521836E+03  0.19358521838E+03  0.25500000000E-02 0.  1.
         -2   -1    0    0    0  501 -0.00000000000E+00 -0.00000000000E+00 -0.39350087257E+03  0.39350087258E+03  0.25500000000E-02 0. -1.
    5000001    1    1    2    0    0 -0.14290255834E+03  0.15446825311E+03 -0.27281663915E+02  0.26879522240E+03  0.16500000000E+03 0.  0.
   -5000001    1    1    2    0    0  0.14290255834E+03 -0.15446825311E+03 -0.17263399030E+03  0.31829086855E+03  0.16500000000E+03 0.  0.
<mgrwt>
<rscale>  0 0.55199983E+03</rscale>
<asrwt>0</asrwt>
<pdfrwt beam="1">  1        2 0.27655031E-01 0.55199983E+03</pdfrwt>
<pdfrwt beam="2">  1       -2 0.56214410E-01 0.55199983E+03</pdfrwt>
<totfact> 0.58408594E+02</totfact>
</mgrwt>
</event>
<event>
 4    1  0.5280257E-005  0.5399017E+03  0.7818608E-02  0.1003859E+00
          2   -1    0    0  501    0  0.00000000000E+00  0.00000000000E+00  0.29577150242E+04  0.29577150242E+04  0.25500000000E-02 0.  1.
         -2   -1    0    0    0  501 -0.00000000000E+00 -0.00000000000E+00 -0.24638428094E+02  0.24638428226E+02  0.25500000000E-02 0. -1.
    5000001    1    1    2    0    0 -0.31468201999E+02 -0.20696219156E+03  0.17025091487E+04  0.17232486756E+04  0.16500000000E+03 0.  0.
   -5000001    1    1    2    0    0  0.31468201999E+02  0.20696219156E+03  0.12305674474E+04  0.12591047769E+04  0.16500000000E+03 0.  0.
<mgrwt>
<rscale>  0 0.53990165E+03</rscale>
<asrwt>0</asrwt>
<pdfrwt beam="1">  1        2 0.42253049E+00 0.53990165E+03</pdfrwt>
<pdfrwt beam="2">  1       -2 0.35197774E-02 0.53990165E+03</pdfrwt>
<totfact> 0.94181522E+02</totfact>
</mgrwt>
</event>
<event>
 4    1  0.5280257E-005  0.3614846E+03  0.7818608E-02  0.1057998E+00
         -2   -1    0    0    0  501 -0.00000000000E+00  0.00000000000E+00  0.12339300976E+03  0.12339300978E+03  0.25500000000E-02 0. -1.
          2   -1    0    0  501    0  0.00000000000E+00 -0.00000000000E+00 -0.26474577933E+03  0.26474577934E+03  0.25500000000E-02 0.  1.
    5000001    1    1    2    0    0  0.36742816956E+02  0.40988456508E+02 -0.17935422991E+02  0.17486213873E+03  0.16500000000E+03 0.  0.
   -5000001    1    1    2    0    0 -0.36742816956E+02 -0.40988456508E+02 -0.12341734658E+03  0.21327665039E+03  0.16500000000E+03 0.  0.
<mgrwt>
<rscale>  0 0.36148460E+03</rscale>
<asrwt>0</asrwt>
<pdfrwt beam="1">  1        2 0.37820826E-01 0.36148460E+03</pdfrwt>
<pdfrwt beam="2">  1       -2 0.17627573E-01 0.36148460E+03</pdfrwt>
<totfact> 0.35617262E+03</totfact>
</mgrwt>
</event>
<event>
 4    1  0.5280257E-005  0.3609135E+03  0.7818608E-02  0.1058223E+00
          2   -1    0    0  501    0  0.00000000000E+00  0.00000000000E+00  0.35297460885E+04  0.35297460885E+04  0.25500000000E-02 0.  1.
         -2   -1    0    0    0  501 -0.00000000000E+00 -0.00000000000E+00 -0.92257741501E+01  0.92257745025E+01  0.25500000000E-02 0. -1.
    5000001    1    1    2    0    0  0.63808095247E+02 -0.35187019788E+02  0.18140047179E+04  0.18229502780E+04  0.16500000000E+03 0.  0.
   -5000001    1    1    2    0    0 -0.63808095247E+02  0.35187019788E+02  0.17065155965E+04  0.17160215851E+04  0.16500000000E+03 0.  0.
<mgrwt>
<rscale>  0 0.36091351E+03</rscale>
<asrwt>0</asrwt>
<pdfrwt beam="1">  1        2 0.50425023E+00 0.36091351E+03</pdfrwt>
<pdfrwt beam="2">  1       -2 0.13179657E-02 0.36091351E+03</pdfrwt>
<totfact> 0.19893158E+03</totfact>
</mgrwt>
</event>
<event>
 4    1  0.5280257E-005  0.4649818E+03  0.7818608E-02  0.1023346E+00
         -2   -1    0    0    0  501 -0.00000000000E+00  0.00000000000E+00  0.41659666054E+02  0.41659666132E+02  0.25500000000E-02 0. -1.
          2   -1    0    0  501    0  0.00000000000E+00 -0.00000000000E+00 -0.12974665208E+04  0.12974665208E+04  0.25500000000E-02 0.  1.
    5000001    1    1    2    0    0  0.15254208219E+03  0.59544164441E+02 -0.61775075488E+03  0.66004211192E+03  0.16500000000E+03 0.  0.
   -5000001    1    1    2    0    0 -0.15254208219E+03 -0.59544164441E+02 -0.63805609983E+03  0.67908407498E+03  0.16500000000E+03 0.  0.
<mgrwt>
<rscale>  0 0.46498181E+03</rscale>
<asrwt>0</asrwt>
<pdfrwt beam="1">  1        2 0.18535233E+00 0.46498181E+03</pdfrwt>
<pdfrwt beam="2">  1       -2 0.59513817E-02 0.46498181E+03</pdfrwt>
<totfact> 0.29818724E+03</totfact>
</mgrwt>
</event>
<event>
 4    1  0.5280257E-005  0.9510578E+03  0.7818608E-02  0.9363915E-01
          2   -1    0    0  501    0  0.00000000000E+00  0.00000000000E+00  0.37796060246E+03  0.37796060247E+03  0.25500000000E-02 0.  1.
         -2   -1    0    0    0  501 -0.00000000000E+00 -0.00000000000E+00 -0.59828382723E+03  0.59828382723E+03  0.25500000000E-02 0. -1.
    5000001    1    1    2    0    0 -0.10516489265E+03  0.28643301001E+03  0.22372026793E+03  0.41277025347E+03  0.16500000000E+03 0.  0.
   -5000001    1    1    2    0    0  0.10516489265E+03 -0.28643301001E+03 -0.44404349270E+03  0.56347417623E+03  0.16500000000E+03 0.  0.
<mgrwt>
<rscale>  0 0.95105776E+03</rscale>
<asrwt>0</asrwt>
<pdfrwt beam="1">  1        2 0.53994372E-01 0.95105776E+03</pdfrwt>
<pdfrwt beam="2">  1       -2 0.85469118E-01 0.95105776E+03</pdfrwt>
<totfact> 0.10983438E+02</totfact>
</mgrwt>
</event>
<event>
 4    1  0.5280257E-005  0.8776355E+03  0.7818608E-02  0.9453978E-01
         -2   -1    0    0    0  501 -0.00000000000E+00  0.00000000000E+00  0.16353792684E+03  0.16353792686E+03  0.25500000000E-02 0. -1.
          2   -1    0    0  501    0  0.00000000000E+00 -0.00000000000E+00 -0.11774700010E+04  0.11774700010E+04  0.25500000000E-02 0.  1.
    5000001    1    1    2    0    0  0.28303501094E+03 -0.18322089242E+03 -0.15968346469E+03  0.40792465203E+03  0.16500000000E+03 0.  0.
   -5000001    1    1    2    0    0 -0.28303501094E+03  0.18322089242E+03 -0.85424860944E+03  0.93308327580E+03  0.16500000000E+03 0.  0.
<mgrwt>
<rscale>  0 0.87763547E+03</rscale>
<asrwt>0</asrwt>
<pdfrwt beam="1">  1        2 0.16821000E+00 0.87763547E+03</pdfrwt>
<pdfrwt beam="2">  1       -2 0.23362562E-01 0.87763547E+03</pdfrwt>
<totfact> 0.35686320E+02</totfact>
</mgrwt>
</event>
<event>
 4    1  0.5280257E-005  0.1816695E+04  0.7818608E-02  0.8697471E-01
          2   -1    0    0  501    0  0.00000000000E+00  0.00000000000E+00  0.61564300635E+03  0.61564300635E+03  0.25500000000E-02 0.  1.
         -2   -1    0    0    0  501 -0.00000000000E+00 -0.00000000000E+00 -0.13402170882E+04  0.13402170882E+04  0.25500000000E-02 0. -1.
    5000001    1    1    2    0    0  0.52274906878E+03  0.67334409636E+03 -0.64958368393E+03  0.10843628652E+04  0.16500000000E+03 0.  0.
   -5000001    1    1    2    0    0 -0.52274906878E+03 -0.67334409636E+03 -0.74990397948E+02  0.87149722937E+03  0.16500000000E+03 0.  0.
<mgrwt>
<rscale>  0 0.18166951E+04</rscale>
<asrwt>0</asrwt>
<pdfrwt beam="1">  1        2 0.87949001E-01 0.18166951E+04</pdfrwt>
<pdfrwt beam="2">  1       -2 0.19145958E+00 0.18166951E+04</pdfrwt>
<totfact> 0.75351299E+00</totfact>
</mgrwt>
</event>
<event>
 4    1  0.5280257E-005  0.8380294E+03  0.7818608E-02  0.9506546E-01
          2   -1    0    0  501    0  0.00000000000E+00  0.00000000000E+00  0.60329911526E+03  0.60329911526E+03  0.25500000000E-02 0.  1.
         -2   -1    0    0    0  501 -0.00000000000E+00 -0.00000000000E+00 -0.29102203225E+03  0.29102203226E+03  0.25500000000E-02 0. -1.
    5000001    1    1    2    0    0  0.37360943715E+03 -0.66009419280E+02  0.22698361811E+03  0.47189810113E+03  0.16500000000E+03 0.  0.
   -5000001    1    1    2    0    0 -0.37360943715E+03  0.66009419280E+02  0.85293464899E+02  0.42242304639E+03  0.16500000000E+03 0.  0.
<mgrwt>
<rscale>  0 0.83802944E+03</rscale>
<asrwt>0</asrwt>
<pdfrwt beam="1">  1        2 0.86185588E-01 0.83802944E+03</pdfrwt>
<pdfrwt beam="2">  1       -2 0.41574576E-01 0.83802944E+03</pdfrwt>
<totfact> 0.29666573E+02</totfact>
</mgrwt>
</event>
<event>
 4    1  0.5280257E-005  0.5201675E+03  0.7818608E-02  0.1008645E+00
         -2   -1    0    0    0  501 -0.00000000000E+00  0.00000000000E+00  0.61813469886E+02  0.61813469938E+02  0.25500000000E-02 0. -1.
          2   -1    0    0  501    0  0.00000000000E+00 -0.00000000000E+00 -0.10943173584E+04  0.10943173584E+04  0.25500000000E-02 0.  1.
    5000001    1    1    2    0    0  0.76256913451E+01  0.20001692848E+03 -0.47445558122E+03  0.54073840385E+03  0.16500000000E+03 0.  0.
   -5000001    1    1    2    0    0 -0.76256913451E+01 -0.20001692848E+03 -0.55804830726E+03  0.61539242446E+03  0.16500000000E+03 0.  0.
<mgrwt>
<rscale>  0 0.52016748E+03</rscale>
<asrwt>0</asrwt>
<pdfrwt beam="1">  1        2 0.15633104E+00 0.52016748E+03</pdfrwt>
<pdfrwt beam="2">  1       -2 0.88304964E-02 0.52016748E+03</pdfrwt>
<totfact> 0.20769327E+03</totfact>
</mgrwt>
</event>
<event>
 4    1  0.5280257E-005  0.4305946E+03  0.7818608E-02  0.1033672E+00
         -2   -1    0    0    0  501 -0.00000000000E+00  0.00000000000E+00  0.23794105627E+03  0.23794105629E+03  0.25500000000E-02 0. -1.
          2   -1    0    0  501    0  0.00000000000E+00 -0.00000000000E+00 -0.19480840898E+03  0.19480840900E+03  0.25500000000E-02 0.  1.
    5000001    1    1    2    0    0 -0.10879904944E+03  0.39046852218E+02 -0.54748060680E+02  0.20876838835E+03  0.16500000000E+03 0.  0.
   -5000001    1    1    2    0    0  0.10879904944E+03 -0.39046852218E+02  0.97880707972E+02  0.22398107693E+03  0.16500000000E+03 0.  0.
<mgrwt>
<rscale>  0 0.43059456E+03</rscale>
<asrwt>0</asrwt>
<pdfrwt beam="1">  1        2 0.27829773E-01 0.43059456E+03</pdfrwt>
<pdfrwt beam="2">  1       -2 0.33991579E-01 0.43059456E+03</pdfrwt>
<totfact> 0.15603068E+03</totfact>
</mgrwt>
</event>
<event>
 4    1  0.5280257E-005  0.4955528E+03  0.7818608E-02  0.1014946E+00
         -2   -1    0    0    0  501 -0.00000000000E+00  0.00000000000E+00  0.13004126944E+02  0.13004127194E+02  0.25500000000E-02 0. -1.
          2   -1    0    0  501    0  0.00000000000E+00 -0.00000000000E+00 -0.47210502325E+04  0.47210502325E+04  0.25500000000E-02 0.  1.
    5000001    1    1    2    0    0 -0.11594754619E+02 -0.16345384548E+03 -0.31711625131E+04  0.31796773866E+04  0.16500000000E+03 0.  0.
   -5000001    1    1    2    0    0  0.11594754619E+02  0.16345384548E+03 -0.15368835924E+04  0.15543769731E+04  0.16500000000E+03 0.  0.
<mgrwt>
<rscale>  0 0.49555277E+03</rscale>
<asrwt>0</asrwt>
<pdfrwt beam="1">  1        2 0.67443465E+00 0.49555277E+03</pdfrwt>
<pdfrwt beam="2">  1       -2 0.18577355E-02 0.49555277E+03</pdfrwt>
<totfact> 0.17495108E+02</totfact>
</mgrwt>
</event>
<event>
 4    1  0.5280257E-005  0.4104994E+03  0.7818608E-02  0.1040204E+00
         -2   -1    0    0    0  501 -0.00000000000E+00  0.00000000000E+00  0.15015944927E+04  0.15015944927E+04  0.25500000000E-02 0. -1.
          2   -1    0    0  501    0  0.00000000000E+00 -0.00000000000E+00 -0.28055132521E+02  0.28055132637E+02  0.25500000000E-02 0.  1.
    5000001    1    1    2    0    0  0.10203586941E+03  0.65788104659E+02  0.68918956259E+03  0.71899001839E+03  0.16500000000E+03 0.  0.
   -5000001    1    1    2    0    0 -0.10203586941E+03 -0.65788104659E+02  0.78434979763E+03  0.81065960699E+03  0.16500000000E+03 0.  0.
<mgrwt>
<rscale>  0 0.41049937E+03</rscale>
<asrwt>0</asrwt>
<pdfrwt beam="1">  1        2 0.40078750E-02 0.41049937E+03</pdfrwt>
<pdfrwt beam="2">  1       -2 0.21451356E+00 0.41049937E+03</pdfrwt>
<totfact> 0.24718696E+02</totfact>
</mgrwt>
</event>
<event>
 4    1  0.5280257E-005  0.7412169E+03  0.7818608E-02  0.9649231E-01
         -2   -1    0    0    0  501 -0.00000000000E+00  0.00000000000E+00  0.14319622247E+03  0.14319622250E+03  0.25500000000E-02 0. -1.
          2   -1    0    0  501    0  0.00000000000E+00 -0.00000000000E+00 -0.95917757226E+03  0.95917757227E+03  0.25500000000E-02 0.  1.
    5000001    1    1    2    0    0 -0.10499917646E+03  0.13501411938E+03 -0.83093440967E+03  0.86425148693E+03  0.16500000000E+03 0.  0.
   -5000001    1    1    2    0    0  0.10499917646E+03 -0.13501411938E+03  0.14953059883E+02  0.23812230783E+03  0.16500000000E+03 0.  0.
<mgrwt>
<rscale>  0 0.74121685E+03</rscale>
<asrwt>0</asrwt>
<pdfrwt beam="1">  1        2 0.13702536E+00 0.74121685E+03</pdfrwt>
<pdfrwt beam="2">  1       -2 0.20456604E-01 0.74121685E+03</pdfrwt>
<totfact> 0.61303195E+02</totfact>
</mgrwt>
</event>
<event>
 4    1  0.5280257E-005  0.4202610E+03  0.7818608E-02  0.1036981E+00
         -2   -1    0    0    0  501 -0.00000000000E+00  0.00000000000E+00  0.62067287068E+02  0.62067287121E+02  0.25500000000E-02 0. -1.
          2   -1    0    0  501    0  0.00000000000E+00 -0.00000000000E+00 -0.71140243818E+03  0.71140243818E+03  0.25500000000E-02 0.  1.
    5000001    1    1    2    0    0 -0.84697065744E+02  0.95464062428E+02 -0.27800427564E+03  0.34756058096E+03  0.16500000000E+03 0.  0.
   -5000001    1    1    2    0    0  0.84697065744E+02 -0.95464062428E+02 -0.37133087546E+03  0.42590914434E+03  0.16500000000E+03 0.  0.
<mgrwt>
<rscale>  0 0.42026096E+03</rscale>
<asrwt>0</asrwt>
<pdfrwt beam="1">  1        2 0.10162892E+00 0.42026096E+03</pdfrwt>
<pdfrwt beam="2">  1       -2 0.88667557E-02 0.42026096E+03</pdfrwt>
<totfact> 0.36426162E+03</totfact>
</mgrwt>
</event>
<event>
 4    1  0.5280257E-005  0.6128269E+03  0.7818608E-02  0.9879146E-01
          2   -1    0    0  501    0  0.00000000000E+00  0.00000000000E+00  0.94661332342E+03  0.94661332343E+03  0.25500000000E-02 0.  1.
         -2   -1    0    0    0  501 -0.00000000000E+00 -0.00000000000E+00 -0.99184325608E+02  0.99184325640E+02  0.25500000000E-02 0. -1.
    5000001    1    1    2    0    0  0.14354568694E+03  0.15414427317E+03  0.67854213256E+03  0.72939032544E+03  0.16500000000E+03 0.  0.
   -5000001    1    1    2    0    0 -0.14354568694E+03 -0.15414427317E+03  0.16888686526E+03  0.31640732363E+03  0.16500000000E+03 0.  0.
<mgrwt>
<rscale>  0 0.61282691E+03</rscale>
<asrwt>0</asrwt>
<pdfrwt beam="1">  1        2 0.13523047E+00 0.61282691E+03</pdfrwt>
<pdfrwt beam="2">  1       -2 0.14169190E-01 0.61282691E+03</pdfrwt>
<totfact> 0.11749532E+03</totfact>
</mgrwt>
</event>
<event>
 4    1  0.5280257E-005  0.5586138E+03  0.7818608E-02  0.9995196E-01
          2   -1    0    0  501    0  0.00000000000E+00  0.00000000000E+00  0.56502539468E+03  0.56502539468E+03  0.25500000000E-02 0.  1.
         -2   -1    0    0    0  501 -0.00000000000E+00 -0.00000000000E+00 -0.13806871792E+03  0.13806871794E+03  0.25500000000E-02 0. -1.
    5000001    1    1    2    0    0  0.11893573579E+03 -0.18616318039E+03  0.15740319778E+03  0.31749520572E+03  0.16500000000E+03 0.  0.
   -5000001    1    1    2    0    0 -0.11893573579E+03  0.18616318039E+03  0.26955347898E+03  0.38559890691E+03  0.16500000000E+03 0.  0.
<mgrwt>
<rscale>  0 0.55861376E+03</rscale>
<asrwt>0</asrwt>
<pdfrwt beam="1">  1        2 0.80717912E-01 0.55861376E+03</pdfrwt>
<pdfrwt beam="2">  1       -2 0.19724103E-01 0.55861376E+03</pdfrwt>
<totfact> 0.12738526E+03</totfact>
</mgrwt>
</event>
<event>
 4    1  0.5280257E-005  0.4273367E+03  0.7818608E-02  0.1034705E+00
         -2   -1    0    0    0  501 -0.00000000000E+00  0.00000000000E+00  0.36407852814E+03  0.36407852815E+03  0.25500000000E-02 0. -1.
          2   -1    0    0  501    0  0.00000000000E+00 -0.00000000000E+00 -0.12539649992E+03  0.12539649994E+03  0.25500000000E-02 0.  1.
    5000001    1    1    2    0    0  0.84536227678E+02 -0.10232736597E+03  0.15197830629E+03  0.26065239151E+03  0.16500000000E+03 0.  0.
   -5000001    1    1    2    0    0 -0.84536227678E+02  0.10232736597E+03  0.86703721927E+02  0.22882263658E+03  0.16500000000E+03 0.  0.
<mgrwt>
<rscale>  0 0.42733674E+03</rscale>
<asrwt>0</asrwt>
<pdfrwt beam="1">  1        2 0.17913786E-01 0.42733674E+03</pdfrwt>
<pdfrwt beam="2">  1       -2 0.52011218E-01 0.42733674E+03</pdfrwt>
<totfact> 0.11292773E+03</totfact>
</mgrwt>
</event>
<event>
 4    1  0.5280257E-005  0.7583224E+03  0.7818608E-02  0.9622384E-01
         -2   -1    0    0    0  501 -0.00000000000E+00  0.00000000000E+00  0.69202887850E+03  0.69202887850E+03  0.25500000000E-02 0. -1.
          2   -1    0    0  501    0  0.00000000000E+00 -0.00000000000E+00 -0.20774164952E+03  0.20774164954E+03  0.25500000000E-02 0.  1.
    5000001    1    1    2    0    0  0.19333130297E+03 -0.14156919642E+03 -0.46354411436E+02  0.29460577310E+03  0.16500000000E+03 0.  0.
   -5000001    1    1    2    0    0 -0.19333130297E+03  0.14156919642E+03  0.53064164041E+03  0.60516475494E+03  0.16500000000E+03 0.  0.
<mgrwt>
<rscale>  0 0.75832241E+03</rscale>
<asrwt>0</asrwt>
<pdfrwt beam="1">  1        2 0.29677379E-01 0.75832241E+03</pdfrwt>
<pdfrwt beam="2">  1       -2 0.98861268E-01 0.75832241E+03</pdfrwt>
<totfact> 0.15420620E+02</totfact>
</mgrwt>
</event>
<event>
 4    1  0.5280257E-005  0.3952818E+03  0.7818608E-02  0.1045426E+00
         -2   -1    0    0    0  501 -0.00000000000E+00  0.00000000000E+00  0.26325824717E+02  0.26325824841E+02  0.25500000000E-02 0. -1.
          2   -1    0    0  501    0  0.00000000000E+00 -0.00000000000E+00 -0.14837869636E+04  0.14837869636E+04  0.25500000000E-02 0.  1.
    5000001    1    1    2    0    0 -0.58317328893E+02 -0.86122742039E+02 -0.85067549386E+03  0.87274958230E+03  0.16500000000E+03 0.  0.
   -5000001    1    1    2    0    0  0.58317328893E+02  0.86122742039E+02 -0.60678564506E+03  0.63736320618E+03  0.16500000000E+03 0.  0.
<mgrwt>
<rscale>  0 0.39528175E+03</rscale>
<asrwt>0</asrwt>
<pdfrwt beam="1">  1        2 0.21196951E+00 0.39528175E+03</pdfrwt>
<pdfrwt beam="2">  1       -2 0.37608330E-02 0.39528175E+03</pdfrwt>
<totfact> 0.48131074E+03</totfact>
</mgrwt>
</event>
<event>
 4    1  0.5280257E-005  0.3887371E+03  0.7818608E-02  0.1047751E+00
         -2   -1    0    0    0  501 -0.00000000000E+00  0.00000000000E+00  0.15137212132E+03  0.15137212135E+03  0.25500000000E-02 0. -1.
          2   -1    0    0  501    0  0.00000000000E+00 -0.00000000000E+00 -0.24957791618E+03  0.24957791619E+03  0.25500000000E-02 0.  1.
    5000001    1    1    2    0    0  0.44219431317E+02 -0.81371120639E+02 -0.32364804598E+01  0.18924083118E+03  0.16500000000E+03 0.  0.
   -5000001    1    1    2    0    0 -0.44219431317E+02  0.81371120639E+02 -0.94969314393E+02  0.21170920636E+03  0.16500000000E+03 0.  0.
<mgrwt>
<rscale>  0 0.38873713E+03</rscale>
<asrwt>0</asrwt>
<pdfrwt beam="1">  1        2 0.35653988E-01 0.38873713E+03</pdfrwt>
<pdfrwt beam="2">  1       -2 0.21624589E-01 0.38873713E+03</pdfrwt>
<totfact> 0.26782999E+03</totfact>
</mgrwt>
</event>
<event>
 4    1  0.5280257E-005  0.4626605E+03  0.7818608E-02  0.1024012E+00
          2   -1    0    0  501    0  0.00000000000E+00  0.00000000000E+00  0.12420161405E+04  0.12420161405E+04  0.25500000000E-02 0.  1.
         -2   -1    0    0    0  501 -0.00000000000E+00 -0.00000000000E+00 -0.43086137718E+02  0.43086137794E+02  0.25500000000E-02 0. -1.
    5000001    1    1    2    0    0 -0.58552309907E+02  0.11148974173E+03  0.31578769742E+03  0.37789575989E+03  0.16500000000E+03 0.  0.
   -5000001    1    1    2    0    0  0.58552309907E+02 -0.11148974173E+03  0.88314230539E+03  0.90720651843E+03  0.16500000000E+03 0.  0.
<mgrwt>
<rscale>  0 0.46266047E+03</rscale>
<asrwt>0</asrwt>
<pdfrwt beam="1">  1        2 0.17743088E+00 0.46266047E+03</pdfrwt>
<pdfrwt beam="2">  1       -2 0.61551625E-02 0.46266047E+03</pdfrwt>
<totfact> 0.30327707E+03</totfact>
</mgrwt>
</event>
<event>
 4    1  0.5280257E-005  0.4534942E+03  0.7818608E-02  0.1026685E+00
         -2   -1    0    0    0  501 -0.00000000000E+00  0.00000000000E+00  0.12177238663E+03  0.12177238666E+03  0.25500000000E-02 0. -1.
          2   -1    0    0  501    0  0.00000000000E+00 -0.00000000000E+00 -0.42221592569E+03  0.42221592570E+03  0.25500000000E-02 0.  1.
    5000001    1    1    2    0    0 -0.99414994314E+02 -0.49021039116E+02 -0.28109267668E+03  0.34427386810E+03  0.16500000000E+03 0.  0.
   -5000001    1    1    2    0    0  0.99414994314E+02  0.49021039116E+02 -0.19350862371E+02  0.19971444426E+03  0.16500000000E+03 0.  0.
<mgrwt>
<rscale>  0 0.45349417E+03</rscale>
<asrwt>0</asrwt>
<pdfrwt beam="1">  1        2 0.60316560E-01 0.45349417E+03</pdfrwt>
<pdfrwt beam="2">  1       -2 0.17396055E-01 0.45349417E+03</pdfrwt>
<totfact> 0.21948991E+03</totfact>
</mgrwt>
</event>
<event>
 4    1  0.5280257E-005  0.5502931E+03  0.7818608E-02  0.1001426E+00
         -2   -1    0    0    0  501 -0.00000000000E+00  0.00000000000E+00  0.26649939471E+02  0.26649939593E+02  0.25500000000E-02 0. -1.
          2   -1    0    0  501    0  0.00000000000E+00 -0.00000000000E+00 -0.28407428151E+04  0.28407428151E+04  0.25500000000E-02 0.  1.
    5000001    1    1    2    0    0 -0.19270775535E+03 -0.92670521335E+02 -0.16806197133E+04  0.17021843981E+04  0.16500000000E+03 0.  0.
   -5000001    1    1    2    0    0  0.19270775535E+03  0.92670521335E+02 -0.11334731623E+04  0.11652083566E+04  0.16500000000E+03 0.  0.
<mgrwt>
<rscale>  0 0.55029310E+03</rscale>
<asrwt>0</asrwt>
<pdfrwt beam="1">  1        2 0.40582021E+00 0.55029310E+03</pdfrwt>
<pdfrwt beam="2">  1       -2 0.38071360E-02 0.55029310E+03</pdfrwt>
<totfact> 0.96394961E+02</totfact>
</mgrwt>
</event>
<event>
 4    1  0.5280257E-005  0.4436105E+03  0.7818608E-02  0.1029645E+00
         -2   -1    0    0    0  501 -0.00000000000E+00  0.00000000000E+00  0.72510938561E+03  0.72510938561E+03  0.25500000000E-02 0. -1.
          2   -1    0    0  501    0  0.00000000000E+00 -0.00000000000E+00 -0.67848491459E+02  0.67848491507E+02  0.25500000000E-02 0.  1.
    5000001    1    1    2    0    0 -0.85373270919E+02 -0.11290331030E+03  0.24996328844E+03  0.33127390243E+03  0.16500000000E+03 0.  0.
   -5000001    1    1    2    0    0  0.85373270919E+02  0.11290331030E+03  0.40729760571E+03  0.46168397469E+03  0.16500000000E+03 0.  0.
<mgrwt>
<rscale>  0 0.44361054E+03</rscale>
<asrwt>0</asrwt>
<pdfrwt beam="1">  1        2 0.96926414E-02 0.44361054E+03</pdfrwt>
<pdfrwt beam="2">  1       -2 0.10358706E+00 0.44361054E+03</pdfrwt>
<totfact> 0.52951688E+02</totfact>
</mgrwt>
</event>
<event>
 4    1  0.5280257E-005  0.5872287E+03  0.7818608E-02  0.9932262E-01
         -2   -1    0    0    0  501 -0.00000000000E+00  0.00000000000E+00  0.35429496263E+03  0.35429496264E+03  0.25500000000E-02 0. -1.
          2   -1    0    0  501    0  0.00000000000E+00 -0.00000000000E+00 -0.24332662737E+03  0.24332662738E+03  0.25500000000E-02 0.  1.
    5000001    1    1    2    0    0  0.78398157379E+02 -0.19582848450E+03  0.17798616130E+03  0.32155736664E+03  0.16500000000E+03 0.  0.
   -5000001    1    1    2    0    0 -0.78398157379E+02  0.19582848450E+03 -0.67017826037E+02  0.27606422338E+03  0.16500000000E+03 0.  0.
<mgrwt>
<rscale>  0 0.58722874E+03</rscale>
<asrwt>0</asrwt>
<pdfrwt beam="1">  1        2 0.34760947E-01 0.58722874E+03</pdfrwt>
<pdfrwt beam="2">  1       -2 0.50613565E-01 0.58722874E+03</pdfrwt>
<totfact> 0.56045264E+02</totfact>
</mgrwt>
</event>
<event>
 4    1  0.5280257E-005  0.6156140E+03  0.7818608E-02  0.9873531E-01
          2   -1    0    0  501    0  0.00000000000E+00  0.00000000000E+00  0.27030718464E+03  0.27030718465E+03  0.25500000000E-02 0.  1.
         -2   -1    0    0    0  501 -0.00000000000E+00 -0.00000000000E+00 -0.35050918745E+03  0.35050918745E+03  0.25500000000E-02 0. -1.
    5000001    1    1    2    0    0  0.88590530522E+02  0.19902596917E+03 -0.18293312849E+03  0.32886037767E+03  0.16500000000E+03 0.  0.
   -5000001    1    1    2    0    0 -0.88590530522E+02 -0.19902596917E+03  0.10273112568E+03  0.29195599443E+03  0.16500000000E+03 0.  0.
<mgrwt>
<rscale>  0 0.61561401E+03</rscale>
<asrwt>0</asrwt>
<pdfrwt beam="1">  1        2 0.38615312E-01 0.61561401E+03</pdfrwt>
<pdfrwt beam="2">  1       -2 0.50072741E-01 0.61561401E+03</pdfrwt>
<totfact> 0.50943635E+02</totfact>
</mgrwt>
</event>
<event>
 4    1  0.5280257E-005  0.7132402E+03  0.7818608E-02  0.9694854E-01
         -2   -1    0    0    0  501 -0.00000000000E+00  0.00000000000E+00  0.55352713959E+02  0.55352714018E+02  0.25500000000E-02 0. -1.
          2   -1    0    0  501    0  0.00000000000E+00 -0.00000000000E+00 -0.22975910144E+04  0.22975910144E+04  0.25500000000E-02 0.  1.
    5000001    1    1    2    0    0 -0.16196491402E+03  0.21533869074E+03 -0.16666892036E+04  0.16963729798E+04  0.16500000000E+03 0.  0.
   -5000001    1    1    2    0    0  0.16196491402E+03 -0.21533869074E+03 -0.57554909680E+03  0.65657074861E+03  0.16500000000E+03 0.  0.
<mgrwt>
<rscale>  0 0.71324021E+03</rscale>
<asrwt>0</asrwt>
<pdfrwt beam="1">  1        2 0.32822723E+00 0.71324021E+03</pdfrwt>
<pdfrwt beam="2">  1       -2 0.79075320E-02 0.71324021E+03</pdfrwt>
<totfact> 0.58098340E+02</totfact>
</mgrwt>
</event>
<event>
 4    1  0.5280257E-005  0.5214680E+03  0.7818608E-02  0.1008323E+00
         -2   -1    0    0    0  501 -0.00000000000E+00  0.00000000000E+00  0.11122024308E+03  0.11122024311E+03  0.25500000000E-02 0. -1.
          2   -1    0    0  501    0  0.00000000000E+00 -0.00000000000E+00 -0.61123957925E+03  0.61123957925E+03  0.25500000000E-02 0.  1.
    5000001    1    1    2    0    0  0.16818423738E+03 -0.27030315985E+02 -0.99891963216E+02  0.25733243091E+03  0.16500000000E+03 0.  0.
   -5000001    1    1    2    0    0 -0.16818423738E+03  0.27030315985E+02 -0.40012737296E+03  0.46512739145E+03  0.16500000000E+03 0.  0.
<mgrwt>
<rscale>  0 0.52146798E+03</rscale>
<asrwt>0</asrwt>
<pdfrwt beam="1">  1        2 0.87319938E-01 0.52146798E+03</pdfrwt>
<pdfrwt beam="2">  1       -2 0.15888607E-01 0.52146798E+03</pdfrwt>
<totfact> 0.16827808E+03</totfact>
</mgrwt>
</event>
<event>
 4    1  0.5280257E-005  0.3515464E+03  0.7818608E-02  0.1061982E+00
          2   -1    0    0  501    0  0.00000000000E+00  0.00000000000E+00  0.17728046702E+03  0.17728046704E+03  0.25500000000E-02 0.  1.
         -2   -1    0    0    0  501 -0.00000000000E+00 -0.00000000000E+00 -0.17427870842E+03  0.17427870844E+03  0.25500000000E-02 0. -1.
    5000001    1    1    2    0    0  0.45604090104E+02  0.21129189577E+02 -0.32338722140E+02  0.17549065114E+03  0.16500000000E+03 0.  0.
   -5000001    1    1    2    0    0 -0.45604090104E+02 -0.21129189577E+02  0.35340480735E+02  0.17606852434E+03  0.16500000000E+03 0.  0.
<mgrwt>
<rscale>  0 0.35154636E+03</rscale>
<asrwt>0</asrwt>
<pdfrwt beam="1">  1        2 0.25325781E-01 0.35154636E+03</pdfrwt>
<pdfrwt beam="2">  1       -2 0.24896958E-01 0.35154636E+03</pdfrwt>
<totfact> 0.30491072E+03</totfact>
</mgrwt>
</event>
<event>
 4    1  0.5280257E-005  0.4601845E+03  0.7818608E-02  0.1024728E+00
         -2   -1    0    0    0  501 -0.00000000000E+00  0.00000000000E+00  0.12671565889E+03  0.12671565892E+03  0.25500000000E-02 0. -1.
          2   -1    0    0  501    0  0.00000000000E+00 -0.00000000000E+00 -0.41780502240E+03  0.41780502241E+03  0.25500000000E-02 0.  1.
    5000001    1    1    2    0    0 -0.35767311969E+02 -0.42331623278E+02  0.32520829479E+02  0.17707024393E+03  0.16500000000E+03 0.  0.
   -5000001    1    1    2    0    0  0.35767311969E+02  0.42331623278E+02 -0.32361019299E+03  0.36745043739E+03  0.16500000000E+03 0.  0.
<mgrwt>
<rscale>  0 0.46018448E+03</rscale>
<asrwt>0</asrwt>
<pdfrwt beam="1">  1        2 0.59686431E-01 0.46018448E+03</pdfrwt>
<pdfrwt beam="2">  1       -2 0.18102237E-01 0.46018448E+03</pdfrwt>
<totfact> 0.20751622E+03</totfact>
</mgrwt>
</event>
<event>
 4    1  0.5280257E-005  0.1119800E+04  0.7818608E-02  0.9186106E-01
         -2   -1    0    0    0  501 -0.00000000000E+00  0.00000000000E+00  0.10370413332E+03  0.10370413335E+03  0.25500000000E-02 0. -1.
          2   -1    0    0  501    0  0.00000000000E+00 -0.00000000000E+00 -0.30229052737E+04  0.30229052737E+04  0.25500000000E-02 0.  1.
    5000001    1    1    2    0    0 -0.21341038206E+03  0.40781460600E+03 -0.69798223362E+03  0.85220944755E+03  0.16500000000E+03 0.  0.
   -5000001    1    1    2    0    0  0.21341038206E+03 -0.40781460600E+03 -0.22212189068E+04  0.22743999595E+04  0.16500000000E+03 0.  0.
<mgrwt>
<rscale>  0 0.11197996E+04</rscale>
<asrwt>0</asrwt>
<pdfrwt beam="1">  1        2 0.43184356E+00 0.11197996E+04</pdfrwt>
<pdfrwt beam="2">  1       -2 0.14814878E-01 0.11197996E+04</pdfrwt>
<totfact> 0.82659854E+01</totfact>
</mgrwt>
</event>
<event>
 4    1  0.5280257E-005  0.7289248E+03  0.7818608E-02  0.9669007E-01
         -2   -1    0    0    0  501 -0.00000000000E+00  0.00000000000E+00  0.85561669633E+03  0.85561669633E+03  0.25500000000E-02 0. -1.
          2   -1    0    0  501    0  0.00000000000E+00 -0.00000000000E+00 -0.15524807400E+03  0.15524807402E+03  0.25500000000E-02 0.  1.
    5000001    1    1    2    0    0 -0.87454792426E+02 -0.14942108628E+03 -0.31202386160E+02  0.24119202028E+03  0.16500000000E+03 0.  0.
   -5000001    1    1    2    0    0  0.87454792426E+02  0.14942108628E+03  0.73157100849E+03  0.76967275007E+03  0.16500000000E+03 0.  0.
<mgrwt>
<rscale>  0 0.72892481E+03</rscale>
<asrwt>0</asrwt>
<pdfrwt beam="1">  1        2 0.22178297E-01 0.72892481E+03</pdfrwt>
<pdfrwt beam="2">  1       -2 0.12223095E+00 0.72892481E+03</pdfrwt>
<totfact> 0.12897264E+02</totfact>
</mgrwt>
</event>
<event>
 4    1  0.5280257E-005  0.8503502E+03  0.7818608E-02  0.9489867E-01
         -2   -1    0    0    0  501 -0.00000000000E+00  0.00000000000E+00  0.31078023742E+03  0.31078023743E+03  0.25500000000E-02 0. -1.
          2   -1    0    0  501    0  0.00000000000E+00 -0.00000000000E+00 -0.58167742923E+03  0.58167742924E+03  0.25500000000E-02 0.  1.
    5000001    1    1    2    0    0 -0.16345745377E+03  0.35390765971E+03 -0.93732687188E+02  0.43356635875E+03  0.16500000000E+03 0.  0.
   -5000001    1    1    2    0    0  0.16345745377E+03 -0.35390765971E+03 -0.17716450462E+03  0.45889130793E+03  0.16500000000E+03 0.  0.
<mgrwt>
<rscale>  0 0.85035016E+03</rscale>
<asrwt>0</asrwt>
<pdfrwt beam="1">  1        2 0.83096776E-01 0.85035016E+03</pdfrwt>
<pdfrwt beam="2">  1       -2 0.44397177E-01 0.85035016E+03</pdfrwt>
<totfact> 0.27191420E+02</totfact>
</mgrwt>
</event>
<event>
 4    1  0.5280257E-005  0.3917284E+03  0.7818608E-02  0.1046682E+00
          2   -1    0    0  501    0  0.00000000000E+00  0.00000000000E+00  0.80163399298E+03  0.80163399298E+03  0.25500000000E-02 0.  1.
         -2   -1    0    0    0  501 -0.00000000000E+00 -0.00000000000E+00 -0.47855735991E+02  0.47855736059E+02  0.25500000000E-02 0. -1.
    5000001    1    1    2    0    0 -0.29432883078E+02  0.92161321960E+02  0.28545418715E+03  0.34361184035E+03  0.16500000000E+03 0.  0.
   -5000001    1    1    2    0    0  0.29432883078E+02 -0.92161321960E+02  0.46832406984E+03  0.50587788869E+03  0.16500000000E+03 0.  0.
<mgrwt>
<rscale>  0 0.39172840E+03</rscale>
<asrwt>0</asrwt>
<pdfrwt beam="1">  1        2 0.11451913E+00 0.39172840E+03</pdfrwt>
<pdfrwt beam="2">  1       -2 0.68365342E-02 0.39172840E+03</pdfrwt>
<totfact> 0.47303720E+03</totfact>
</mgrwt>
</event>
<event>
 4    1  0.5280257E-005  0.3610055E+03  0.7818608E-02  0.1058186E+00
          2   -1    0    0  501    0  0.00000000000E+00  0.00000000000E+00  0.27695933038E+03  0.27695933039E+03  0.25500000000E-02 0.  1.
         -2   -1    0    0    0  501 -0.00000000000E+00 -0.00000000000E+00 -0.11763911724E+03  0.11763911727E+03  0.25500000000E-02 0. -1.
    5000001    1    1    2    0    0  0.61174937538E+02  0.37768724050E+02  0.94623434674E+02  0.20334070888E+03  0.16500000000E+03 0.  0.
   -5000001    1    1    2    0    0 -0.61174937538E+02 -0.37768724050E+02  0.64696778465E+02  0.19125773878E+03  0.16500000000E+03 0.  0.
<mgrwt>
<rscale>  0 0.36100555E+03</rscale>
<asrwt>0</asrwt>
<pdfrwt beam="1">  1        2 0.39565618E-01 0.36100555E+03</pdfrwt>
<pdfrwt beam="2">  1       -2 0.16805588E-01 0.36100555E+03</pdfrwt>
<totfact> 0.36755164E+03</totfact>
</mgrwt>
</event>
<event>
 4    1  0.5280257E-005  0.5322072E+03  0.7818608E-02  0.1005698E+00
         -2   -1    0    0    0  501 -0.00000000000E+00  0.00000000000E+00  0.67429340717E+02  0.67429340765E+02  0.25500000000E-02 0. -1.
          2   -1    0    0  501    0  0.00000000000E+00 -0.00000000000E+00 -0.10501529640E+04  0.10501529640E+04  0.25500000000E-02 0.  1.
    5000001    1    1    2    0    0 -0.90874939577E+02  0.14021588460E+03 -0.22851853288E+03  0.32766517789E+03  0.16500000000E+03 0.  0.
   -5000001    1    1    2    0    0  0.90874939577E+02 -0.14021588460E+03 -0.75420509045E+03  0.78991712691E+03  0.16500000000E+03 0.  0.
<mgrwt>
<rscale>  0 0.53220719E+03</rscale>
<asrwt>0</asrwt>
<pdfrwt beam="1">  1        2 0.15002184E+00 0.53220719E+03</pdfrwt>
<pdfrwt beam="2">  1       -2 0.96327636E-02 0.53220719E+03</pdfrwt>
<totfact> 0.19168765E+03</totfact>
</mgrwt>
</event>
<event>
 4    1  0.5280257E-005  0.4289326E+03  0.7818608E-02  0.1034198E+00
          2   -1    0    0  501    0  0.00000000000E+00  0.00000000000E+00  0.12364365983E+03  0.12364365985E+03  0.25500000000E-02 0.  1.
         -2   -1    0    0    0  501 -0.00000000000E+00 -0.00000000000E+00 -0.37200282187E+03  0.37200282187E+03  0.25500000000E-02 0. -1.
    5000001    1    1    2    0    0  0.15662263937E+02 -0.98904003116E+02 -0.23222968767E+03  0.30196512411E+03  0.16500000000E+03 0.  0.
   -5000001    1    1    2    0    0 -0.15662263937E+02  0.98904003116E+02 -0.16129474368E+02  0.19368135761E+03  0.16500000000E+03 0.  0.
<mgrwt>
<rscale>  0 0.42893258E+03</rscale>
<asrwt>0</asrwt>
<pdfrwt beam="1">  1        2 0.17663380E-01 0.42893258E+03</pdfrwt>
<pdfrwt beam="2">  1       -2 0.53143260E-01 0.42893258E+03</pdfrwt>
<totfact> 0.10989757E+03</totfact>
</mgrwt>
</event>
<event>
 4    1  0.5280257E-005  0.3925185E+03  0.7818608E-02  0.1046401E+00
         -2   -1    0    0    0  501 -0.00000000000E+00  0.00000000000E+00  0.24021584929E+02  0.24021585065E+02  0.25500000000E-02 0. -1.
          2   -1    0    0  501    0  0.00000000000E+00 -0.00000000000E+00 -0.16034620943E+04  0.16034620943E+04  0.25500000000E-02 0.  1.
    5000001    1    1    2    0    0  0.14606848838E+02 -0.92493090264E+02 -0.58139932499E+03  0.61157052486E+03  0.16500000000E+03 0.  0.
   -5000001    1    1    2    0    0 -0.14606848838E+02  0.92493090264E+02 -0.99804118443E+03  0.10159131546E+04  0.16500000000E+03 0.  0.
<mgrwt>
<rscale>  0 0.39251854E+03</rscale>
<asrwt>0</asrwt>
<pdfrwt beam="1">  1        2 0.22906595E+00 0.39251854E+03</pdfrwt>
<pdfrwt beam="2">  1       -2 0.34316560E-02 0.39251854E+03</pdfrwt>
<totfact> 0.48044712E+03</totfact>
</mgrwt>
</event>
<event>
 4    1  0.5280257E-005  0.4687450E+03  0.7818608E-02  0.1022275E+00
          2   -1    0    0  501    0  0.00000000000E+00  0.00000000000E+00  0.14885742579E+04  0.14885742579E+04  0.25500000000E-02 0.  1.
         -2   -1    0    0    0  501 -0.00000000000E+00 -0.00000000000E+00 -0.36901399830E+02  0.36901399918E+02  0.25500000000E-02 0. -1.
    5000001    1    1    2    0    0  0.63295742978E+02  0.82780701735E+02  0.30343714209E+03  0.36077429905E+03  0.16500000000E+03 0.  0.
   -5000001    1    1    2    0    0 -0.63295742978E+02 -0.82780701735E+02  0.11482357160E+04  0.11647013588E+04  0.16500000000E+03 0.  0.
<mgrwt>
<rscale>  0 0.46874502E+03</rscale>
<asrwt>0</asrwt>
<pdfrwt beam="1">  1        2 0.21265355E+00 0.46874502E+03</pdfrwt>
<pdfrwt beam="2">  1       -2 0.52716265E-02 0.46874502E+03</pdfrwt>
<totfact> 0.28536717E+03</totfact>
</mgrwt>
</event>
<event>
 4    1  0.5280257E-005  0.8386757E+03  0.7818608E-02  0.9505663E-01
          2   -1    0    0  501    0  0.00000000000E+00  0.00000000000E+00  0.66399915670E+03  0.66399915671E+03  0.25500000000E-02 0.  1.
         -2   -1    0    0    0  501 -0.00000000000E+00 -0.00000000000E+00 -0.26482597467E+03  0.26482597469E+03  0.25500000000E-02 0. -1.
    5000001    1    1    2    0    0 -0.35870616566E+03  0.26525899016E+02  0.45946567848E+02  0.39838401537E+03  0.16500000000E+03 0.  0.
   -5000001    1    1    2    0    0  0.35870616566E+03 -0.26525899016E+02  0.35322661418E+03  0.53044111603E+03  0.16500000000E+03 0.  0.
<mgrwt>
<rscale>  0 0.83867568E+03</rscale>
<asrwt>0</asrwt>
<pdfrwt beam="1">  1        2 0.94857023E-01 0.83867568E+03</pdfrwt>
<pdfrwt beam="2">  1       -2 0.37832282E-01 0.83867568E+03</pdfrwt>
<totfact> 0.31766857E+02</totfact>
</mgrwt>
</event>
<event>
 4    1  0.5280257E-005  0.4026332E+03  0.7818608E-02  0.1042872E+00
          2   -1    0    0  501    0  0.00000000000E+00  0.00000000000E+00  0.17814728261E+03  0.17814728262E+03  0.25500000000E-02 0.  1.
         -2   -1    0    0    0  501 -0.00000000000E+00 -0.00000000000E+00 -0.22749919526E+03  0.22749919528E+03  0.25500000000E-02 0. -1.
    5000001    1    1    2    0    0 -0.25842760044E+02 -0.10191718229E+03  0.23096247037E+02  0.19701115938E+03  0.16500000000E+03 0.  0.
   -5000001    1    1    2    0    0  0.25842760044E+02  0.10191718229E+03 -0.72448159694E+02  0.20863531852E+03  0.16500000000E+03 0.  0.
<mgrwt>
<rscale>  0 0.40263315E+03</rscale>
<asrwt>0</asrwt>
<pdfrwt beam="1">  1        2 0.25449612E-01 0.40263315E+03</pdfrwt>
<pdfrwt beam="2">  1       -2 0.32499885E-01 0.40263315E+03</pdfrwt>
<totfact> 0.18745934E+03</totfact>
</mgrwt>
</event>
<event>
 4    1  0.5280257E-005  0.5138405E+03  0.7818608E-02  0.1010228E+00
          2   -1    0    0  501    0  0.00000000000E+00  0.00000000000E+00  0.61985938240E+03  0.61985938241E+03  0.25500000000E-02 0.  1.
         -2   -1    0    0    0  501 -0.00000000000E+00 -0.00000000000E+00 -0.10648870371E+03  0.10648870374E+03  0.25500000000E-02 0. -1.
    5000001    1    1    2    0    0  0.15691988815E+03  0.11192773863E+03  0.19959136165E+03  0.32282097456E+03  0.16500000000E+03 0.  0.
   -5000001    1    1    2    0    0 -0.15691988815E+03 -0.11192773863E+03  0.31377931705E+03  0.40352711158E+03  0.16500000000E+03 0.  0.
<mgrwt>
<rscale>  0 0.51384053E+03</rscale>
<asrwt>0</asrwt>
<pdfrwt beam="1">  1        2 0.88551344E-01 0.51384053E+03</pdfrwt>
<pdfrwt beam="2">  1       -2 0.15212671E-01 0.51384053E+03</pdfrwt>
<totfact> 0.17810015E+03</totfact>
</mgrwt>
</event>
<event>
 4    1  0.5280257E-005  0.6098712E+03  0.7818608E-02  0.9885135E-01
         -2   -1    0    0    0  501 -0.00000000000E+00  0.00000000000E+00  0.67012022071E+02  0.67012022120E+02  0.25500000000E-02 0. -1.
          2   -1    0    0  501    0  0.00000000000E+00 -0.00000000000E+00 -0.13875976514E+04  0.13875976514E+04  0.25500000000E-02 0.  1.
    5000001    1    1    2    0    0 -0.18769925806E+03  0.17273814939E+03 -0.59758462584E+03  0.67037442133E+03  0.16500000000E+03 0.  0.
   -5000001    1    1    2    0    0  0.18769925806E+03 -0.17273814939E+03 -0.72300100346E+03  0.78423525216E+03  0.16500000000E+03 0.  0.
<mgrwt>
<rscale>  0 0.60987121E+03</rscale>
<asrwt>0</asrwt>
<pdfrwt beam="1">  1        2 0.19822822E+00 0.60987121E+03</pdfrwt>
<pdfrwt beam="2">  1       -2 0.95731469E-02 0.60987121E+03</pdfrwt>
<totfact> 0.12527320E+03</totfact>
</mgrwt>
</event>
<event>
 4    1  0.5280257E-005  0.6598678E+03  0.7818608E-02  0.9788437E-01
          2   -1    0    0  501    0  0.00000000000E+00  0.00000000000E+00  0.17033224890E+03  0.17033224892E+03  0.25500000000E-02 0.  1.
         -2   -1    0    0    0  501 -0.00000000000E+00 -0.00000000000E+00 -0.63908266304E+03  0.63908266305E+03  0.25500000000E-02 0. -1.
    5000001    1    1    2    0    0 -0.28506017147E+03 -0.12901650442E+02 -0.21678540458E+03  0.39452080501E+03  0.16500000000E+03 0.  0.
   -5000001    1    1    2    0    0  0.28506017147E+03  0.12901650442E+02 -0.25196500956E+03  0.41489410695E+03  0.16500000000E+03 0.  0.
<mgrwt>
<rscale>  0 0.65986783E+03</rscale>
<asrwt>0</asrwt>
<pdfrwt beam="1">  1        2 0.24333179E-01 0.65986783E+03</pdfrwt>
<pdfrwt beam="2">  1       -2 0.91297521E-01 0.65986783E+03</pdfrwt>
<totfact> 0.23357355E+02</totfact>
</mgrwt>
</event>
<event>
 4    1  0.5280257E-005  0.4362553E+03  0.7818608E-02  0.1031902E+00
         -2   -1    0    0    0  501 -0.00000000000E+00  0.00000000000E+00  0.28387894379E+02  0.28387894494E+02  0.25500000000E-02 0. -1.
          2   -1    0    0  501    0  0.00000000000E+00 -0.00000000000E+00 -0.16760549647E+04  0.16760549647E+04  0.25500000000E-02 0.  1.
    5000001    1    1    2    0    0 -0.88902837827E+02  0.50203550781E+02 -0.43449390826E+03  0.47585088778E+03  0.16500000000E+03 0.  0.
   -5000001    1    1    2    0    0  0.88902837827E+02 -0.50203550781E+02 -0.12131731620E+04  0.12285919714E+04  0.16500000000E+03 0.  0.
<mgrwt>
<rscale>  0 0.43625530E+03</rscale>
<asrwt>0</asrwt>
<pdfrwt beam="1">  1        2 0.23943636E+00 0.43625530E+03</pdfrwt>
<pdfrwt beam="2">  1       -2 0.40554145E-02 0.43625530E+03</pdfrwt>
<totfact> 0.34267551E+03</totfact>
</mgrwt>
</event>
<event>
 4    1  0.5280257E-005  0.5332452E+03  0.7818608E-02  0.1005448E+00
          2   -1    0    0  501    0  0.00000000000E+00  0.00000000000E+00  0.78243120427E+03  0.78243120428E+03  0.25500000000E-02 0.  1.
         -2   -1    0    0    0  501 -0.00000000000E+00 -0.00000000000E+00 -0.90854783359E+02  0.90854783395E+02  0.25500000000E-02 0. -1.
    5000001    1    1    2    0    0 -0.18770737568E+02 -0.16330306672E+03  0.13325279094E+03  0.26833102408E+03  0.16500000000E+03 0.  0.
   -5000001    1    1    2    0    0  0.18770737568E+02  0.16330306672E+03  0.55832362998E+03  0.60495496360E+03  0.16500000000E+03 0.  0.
<mgrwt>
<rscale>  0 0.53324523E+03</rscale>
<asrwt>0</asrwt>
<pdfrwt beam="1">  1        2 0.11177589E+00 0.53324523E+03</pdfrwt>
<pdfrwt beam="2">  1       -2 0.12979254E-01 0.53324523E+03</pdfrwt>
<totfact> 0.17476616E+03</totfact>
</mgrwt>
</event>
<event>
 4    1  0.5280257E-005  0.4792960E+03  0.7818608E-02  0.1019329E+00
         -2   -1    0    0    0  501 -0.00000000000E+00  0.00000000000E+00  0.29166697126E+02  0.29166697238E+02  0.25500000000E-02 0. -1.
          2   -1    0    0  501    0  0.00000000000E+00 -0.00000000000E+00 -0.19690668120E+04  0.19690668120E+04  0.25500000000E-02 0.  1.
    5000001    1    1    2    0    0 -0.15202319621E+03  0.84103630366E+02 -0.95052785799E+03  0.98026153737E+03  0.16500000000E+03 0.  0.
   -5000001    1    1    2    0    0  0.15202319621E+03 -0.84103630366E+02 -0.98937225692E+03  0.10179719719E+04  0.16500000000E+03 0.  0.
<mgrwt>
<rscale>  0 0.47929605E+03</rscale>
<asrwt>0</asrwt>
<pdfrwt beam="1">  1        2 0.28129517E+00 0.47929605E+03</pdfrwt>
<pdfrwt beam="2">  1       -2 0.41666723E-02 0.47929605E+03</pdfrwt>
<totfact> 0.23440710E+03</totfact>
</mgrwt>
</event>
<event>
 4    1  0.5280257E-005  0.9706205E+03  0.7818608E-02  0.9341368E-01
          2   -1    0    0  501    0  0.00000000000E+00  0.00000000000E+00  0.17548946760E+04  0.17548946760E+04  0.25500000000E-02 0.  1.
         -2   -1    0    0    0  501 -0.00000000000E+00 -0.00000000000E+00 -0.13421092717E+03  0.13421092720E+03  0.25500000000E-02 0. -1.
    5000001    1    1    2    0    0 -0.18436817476E+03  0.40391448061E+03  0.10159724569E+04  0.11209654609E+04  0.16500000000E+03 0.  0.
   -5000001    1    1    2    0    0  0.18436817476E+03 -0.40391448061E+03  0.60471129193E+03  0.76814014223E+03  0.16500000000E+03 0.  0.
<mgrwt>
<rscale>  0 0.97062051E+03</rscale>
<asrwt>0</asrwt>
<pdfrwt beam="1">  1        2 0.25069922E+00 0.97062051E+03</pdfrwt>
<pdfrwt beam="2">  1       -2 0.19172991E-01 0.97062051E+03</pdfrwt>
<totfact> 0.24704186E+02</totfact>
</mgrwt>
</event>
<event>
 4    1  0.5280257E-005  0.4297795E+03  0.7818608E-02  0.1033930E+00
          2   -1    0    0  501    0  0.00000000000E+00  0.00000000000E+00  0.11437163251E+04  0.11437163251E+04  0.25500000000E-02 0.  1.
         -2   -1    0    0    0  501 -0.00000000000E+00 -0.00000000000E+00 -0.40375044916E+02  0.40375044996E+02  0.25500000000E-02 0. -1.
    5000001    1    1    2    0    0 -0.99155856812E+02 -0.38574975623E+02  0.79237182641E+03  0.81633205497E+03  0.16500000000E+03 0.  0.
   -5000001    1    1    2    0    0  0.99155856812E+02  0.38574975623E+02  0.31096945378E+03  0.36775931514E+03  0.16500000000E+03 0.  0.
<mgrwt>
<rscale>  0 0.42977947E+03</rscale>
<asrwt>0</asrwt>
<pdfrwt beam="1">  1        2 0.16338802E+00 0.42977947E+03</pdfrwt>
<pdfrwt beam="2">  1       -2 0.57678646E-02 0.42977947E+03</pdfrwt>
<totfact> 0.38038443E+03</totfact>
</mgrwt>
</event>
<event>
 4    1  0.5280257E-005  0.5261500E+03  0.7818608E-02  0.1007170E+00
          2   -1    0    0  501    0  0.00000000000E+00  0.00000000000E+00  0.41075444840E+04  0.41075444840E+04  0.25500000000E-02 0.  1.
         -2   -1    0    0    0  501 -0.00000000000E+00 -0.00000000000E+00 -0.16849106187E+02  0.16849106380E+02  0.25500000000E-02 0. -1.
    5000001    1    1    2    0    0 -0.17917374576E+03 -0.88646362980E+02  0.23978369701E+04  0.24118060751E+04  0.16500000000E+03 0.  0.
   -5000001    1    1    2    0    0  0.17917374576E+03  0.88646362980E+02  0.16928584077E+04  0.17125875152E+04  0.16500000000E+03 0.  0.
<mgrwt>
<rscale>  0 0.52614999E+03</rscale>
<asrwt>0</asrwt>
<pdfrwt beam="1">  1        2 0.58679217E+00 0.52614999E+03</pdfrwt>
<pdfrwt beam="2">  1       -2 0.24070148E-02 0.52614999E+03</pdfrwt>
<totfact> 0.34174811E+02</totfact>
</mgrwt>
</event>
<event>
 4    1  0.5280257E-005  0.4250152E+03  0.7818608E-02  0.1035446E+00
          2   -1    0    0  501    0  0.00000000000E+00  0.00000000000E+00  0.19229363201E+04  0.19229363201E+04  0.25500000000E-02 0.  1.
         -2   -1    0    0    0  501 -0.00000000000E+00 -0.00000000000E+00 -0.23484642157E+02  0.23484642295E+02  0.25500000000E-02 0. -1.
    5000001    1    1    2    0    0 -0.10123423255E+03  0.78721919269E+02  0.11264410878E+04  0.11456613962E+04  0.16500000000E+03 0.  0.
   -5000001    1    1    2    0    0  0.10123423255E+03 -0.78721919269E+02  0.77301059008E+03  0.80075956616E+03  0.16500000000E+03 0.  0.
<mgrwt>
<rscale>  0 0.42501516E+03</rscale>
<asrwt>0</asrwt>
<pdfrwt beam="1">  1        2 0.27470523E+00 0.42501516E+03</pdfrwt>
<pdfrwt beam="2">  1       -2 0.33549484E-02 0.42501516E+03</pdfrwt>
<totfact> 0.34418505E+03</totfact>
</mgrwt>
</event>
<event>
 4    1  0.5280257E-005  0.4968903E+03  0.7818608E-02  0.1014594E+00
         -2   -1    0    0    0  501 -0.00000000000E+00  0.00000000000E+00  0.14971192462E+03  0.14971192465E+03  0.25500000000E-02 0. -1.
          2   -1    0    0  501    0  0.00000000000E+00 -0.00000000000E+00 -0.41229168996E+03  0.41229168997E+03  0.25500000000E-02 0.  1.
    5000001    1    1    2    0    0 -0.80541756825E+02  0.42013006575E+01  0.57953904203E+02  0.19258317822E+03  0.16500000000E+03 0.  0.
   -5000001    1    1    2    0    0  0.80541756825E+02 -0.42013006575E+01 -0.32053366954E+03  0.36942043639E+03  0.16500000000E+03 0.  0.
<mgrwt>
<rscale>  0 0.49689026E+03</rscale>
<asrwt>0</asrwt>
<pdfrwt beam="1">  1        2 0.58898812E-01 0.49689026E+03</pdfrwt>
<pdfrwt beam="2">  1       -2 0.21387418E-01 0.49689026E+03</pdfrwt>
<totfact> 0.15790715E+03</totfact>
</mgrwt>
</event>
<event>
 4    1  0.5280257E-005  0.3634623E+03  0.7818608E-02  0.1057221E+00
         -2   -1    0    0    0  501 -0.00000000000E+00  0.00000000000E+00  0.14755761585E+02  0.14755761805E+02  0.25500000000E-02 0. -1.
          2   -1    0    0  501    0  0.00000000000E+00 -0.00000000000E+00 -0.22381909245E+04  0.22381909245E+04  0.25500000000E-02 0.  1.
    5000001    1    1    2    0    0 -0.96441818621E+01 -0.74468467934E+02 -0.11907703664E+04  0.12044906096E+04  0.16500000000E+03 0.  0.
   -5000001    1    1    2    0    0  0.96441818621E+01  0.74468467934E+02 -0.10326647965E+04  0.10484560768E+04  0.16500000000E+03 0.  0.
<mgrwt>
<rscale>  0 0.36346231E+03</rscale>
<asrwt>0</asrwt>
<pdfrwt beam="1">  1        2 0.31974134E+00 0.36346231E+03</pdfrwt>
<pdfrwt beam="2">  1       -2 0.21079674E-02 0.36346231E+03</pdfrwt>
<totfact> 0.48276427E+03</totfact>
</mgrwt>
</event>
<event>
 4    1  0.5280257E-005  0.4247583E+03  0.7818608E-02  0.1035529E+00
          2   -1    0    0  501    0  0.00000000000E+00  0.00000000000E+00  0.35873127615E+04  0.35873127615E+04  0.25500000000E-02 0.  1.
         -2   -1    0    0    0  501 -0.00000000000E+00 -0.00000000000E+00 -0.12573453921E+02  0.12573454180E+02  0.25500000000E-02 0. -1.
    5000001    1    1    2    0    0 -0.38045975516E+02 -0.11363153228E+03  0.22902169595E+04  0.22992777873E+04  0.16500000000E+03 0.  0.
   -5000001    1    1    2    0    0  0.38045975516E+02  0.11363153228E+03  0.12845223481E+04  0.13006084284E+04  0.16500000000E+03 0.  0.
<mgrwt>
<rscale>  0 0.42475834E+03</rscale>
<asrwt>0</asrwt>
<pdfrwt beam="1">  1        2 0.51247378E+00 0.42475834E+03</pdfrwt>
<pdfrwt beam="2">  1       -2 0.17962059E-02 0.42475834E+03</pdfrwt>
<totfact> 0.11545636E+03</totfact>
</mgrwt>
</event>
<event>
 4    1  0.5280257E-005  0.3469094E+03  0.7818608E-02  0.1063891E+00
          2   -1    0    0  501    0  0.00000000000E+00  0.00000000000E+00  0.18211358387E+03  0.18211358389E+03  0.25500000000E-02 0.  1.
         -2   -1    0    0    0  501 -0.00000000000E+00 -0.00000000000E+00 -0.16520749429E+03  0.16520749431E+03  0.25500000000E-02 0. -1.
    5000001    1    1    2    0    0  0.23213378759E+01 -0.51992661227E+02 -0.39270432778E+01  0.17305792990E+03  0.16500000000E+03 0.  0.
   -5000001    1    1    2    0    0 -0.23213378759E+01  0.51992661227E+02  0.20833132864E+02  0.17426314830E+03  0.16500000000E+03 0.  0.
<mgrwt>
<rscale>  0 0.34690938E+03</rscale>
<asrwt>0</asrwt>
<pdfrwt beam="1">  1        2 0.26016226E-01 0.34690938E+03</pdfrwt>
<pdfrwt beam="2">  1       -2 0.23601071E-01 0.34690938E+03</pdfrwt>
<totfact> 0.32503695E+03</totfact>
</mgrwt>
</event>
<event>
 4    1  0.5280257E-005  0.3961683E+03  0.7818608E-02  0.1045115E+00
          2   -1    0    0  501    0  0.00000000000E+00  0.00000000000E+00  0.16313570092E+03  0.16313570094E+03  0.25500000000E-02 0.  1.
         -2   -1    0    0    0  501 -0.00000000000E+00 -0.00000000000E+00 -0.24051956022E+03  0.24051956023E+03  0.25500000000E-02 0. -1.
    5000001    1    1    2    0    0  0.61583085177E+02 -0.86703268850E+02 -0.65695504459E+02  0.20700442632E+03  0.16500000000E+03 0.  0.
   -5000001    1    1    2    0    0 -0.61583085177E+02  0.86703268850E+02 -0.11688354841E+02  0.19665083485E+03  0.16500000000E+03 0.  0.
<mgrwt>
<rscale>  0 0.39616828E+03</rscale>
<asrwt>0</asrwt>
<pdfrwt beam="1">  1        2 0.23305100E-01 0.39616828E+03</pdfrwt>
<pdfrwt beam="2">  1       -2 0.34359937E-01 0.39616828E+03</pdfrwt>
<totfact> 0.18666906E+03</totfact>
</mgrwt>
</event>
<event>
 4    1  0.5280257E-005  0.4265486E+03  0.7818608E-02  0.1034956E+00
          2   -1    0    0  501    0  0.00000000000E+00  0.00000000000E+00  0.90727382345E+02  0.90727382380E+02  0.25500000000E-02 0.  1.
         -2   -1    0    0    0  501 -0.00000000000E+00 -0.00000000000E+00 -0.50134725359E+03  0.50134725360E+03  0.25500000000E-02 0. -1.
    5000001    1    1    2    0    0  0.91943445107E+02 -0.17416822787E+02 -0.69990326758E+02  0.20218948700E+03  0.16500000000E+03 0.  0.
   -5000001    1    1    2    0    0 -0.91943445107E+02  0.17416822787E+02 -0.34062954449E+03  0.38988514898E+03  0.16500000000E+03 0.  0.
<mgrwt>
<rscale>  0 0.42654859E+03</rscale>
<asrwt>0</asrwt>
<pdfrwt beam="1">  1        2 0.12961055E-01 0.42654859E+03</pdfrwt>
<pdfrwt beam="2">  1       -2 0.71621035E-01 0.42654859E+03</pdfrwt>
<totfact> 0.85070428E+02</totfact>
</mgrwt>
</event>
<event>
 4    1  0.5280257E-005  0.6092669E+03  0.7818608E-02  0.9886365E-01
          2   -1    0    0  501    0  0.00000000000E+00  0.00000000000E+00  0.58542286634E+03  0.58542286634E+03  0.25500000000E-02 0.  1.
         -2   -1    0    0    0  501 -0.00000000000E+00 -0.00000000000E+00 -0.15852052437E+03  0.15852052439E+03  0.25500000000E-02 0. -1.
    5000001    1    1    2    0    0  0.20465793893E+03 -0.29966748178E+02  0.29102779237E+02  0.26618574290E+03  0.16500000000E+03 0.  0.
   -5000001    1    1    2    0    0 -0.20465793893E+03  0.29966748178E+02  0.39779956273E+03  0.47775764784E+03  0.16500000000E+03 0.  0.
<mgrwt>
<rscale>  0 0.60926690E+03</rscale>
<asrwt>0</asrwt>
<pdfrwt beam="1">  1        2 0.83631838E-01 0.60926690E+03</pdfrwt>
<pdfrwt beam="2">  1       -2 0.22645789E-01 0.60926690E+03</pdfrwt>
<totfact> 0.95889735E+02</totfact>
</mgrwt>
</event>
<event>
 4    1  0.5280257E-005  0.4435823E+03  0.7818608E-02  0.1029653E+00
         -2   -1    0    0    0  501 -0.00000000000E+00  0.00000000000E+00  0.21577687363E+02  0.21577687513E+02  0.25500000000E-02 0. -1.
          2   -1    0    0  501    0  0.00000000000E+00 -0.00000000000E+00 -0.22797303159E+04  0.22797303159E+04  0.25500000000E-02 0.  1.
    5000001    1    1    2    0    0 -0.14559092839E+03  0.13210526213E+02 -0.10025195858E+04  0.10264705336E+04  0.16500000000E+03 0.  0.
   -5000001    1    1    2    0    0  0.14559092839E+03 -0.13210526213E+02 -0.12556330428E+04  0.12748374698E+04  0.16500000000E+03 0.  0.
<mgrwt>
<rscale>  0 0.44358227E+03</rscale>
<asrwt>0</asrwt>
<pdfrwt beam="1">  1        2 0.32567561E+00 0.44358227E+03</pdfrwt>
<pdfrwt beam="2">  1       -2 0.30825282E-02 0.44358227E+03</pdfrwt>
<totfact> 0.25985365E+03</totfact>
</mgrwt>
</event>
<event>
 4    1  0.5280257E-005  0.4346633E+03  0.7818608E-02  0.1032397E+00
         -2   -1    0    0    0  501 -0.00000000000E+00  0.00000000000E+00  0.46100421836E+02  0.46100421906E+02  0.25500000000E-02 0. -1.
          2   -1    0    0  501    0  0.00000000000E+00 -0.00000000000E+00 -0.10245686216E+04  0.10245686216E+04  0.25500000000E-02 0.  1.
    5000001    1    1    2    0    0 -0.12614513755E+03 -0.46373042069E+02 -0.38060127675E+03  0.43605663235E+03  0.16500000000E+03 0.  0.
   -5000001    1    1    2    0    0  0.12614513755E+03  0.46373042069E+02 -0.59786692303E+03  0.63461241117E+03  0.16500000000E+03 0.  0.
<mgrwt>
<rscale>  0 0.43466330E+03</rscale>
<asrwt>0</asrwt>
<pdfrwt beam="1">  1        2 0.14636693E+00 0.43466330E+03</pdfrwt>
<pdfrwt beam="2">  1       -2 0.65857752E-02 0.43466330E+03</pdfrwt>
<totfact> 0.36273592E+03</totfact>
</mgrwt>
</event>
<event>
 4    1  0.5280257E-005  0.6096674E+03  0.7818608E-02  0.9885550E-01
         -2   -1    0    0    0  501 -0.00000000000E+00  0.00000000000E+00  0.30136480433E+03  0.30136480434E+03  0.25500000000E-02 0. -1.
          2   -1    0    0  501    0  0.00000000000E+00 -0.00000000000E+00 -0.30834251140E+03  0.30834251141E+03  0.25500000000E-02 0.  1.
    5000001    1    1    2    0    0  0.13970549298E+03  0.19662782682E+03  0.83225841970E+02  0.30386126410E+03  0.16500000000E+03 0.  0.
   -5000001    1    1    2    0    0 -0.13970549298E+03 -0.19662782682E+03 -0.90203549039E+02  0.30584605165E+03  0.16500000000E+03 0.  0.
<mgrwt>
<rscale>  0 0.60966739E+03</rscale>
<asrwt>0</asrwt>
<pdfrwt beam="1">  1        2 0.44048930E-01 0.60966739E+03</pdfrwt>
<pdfrwt beam="2">  1       -2 0.43052115E-01 0.60966739E+03</pdfrwt>
<totfact> 0.59565266E+02</totfact>
</mgrwt>
</event>
<event>
 4    1  0.5280257E-005  0.6481797E+03  0.7818608E-02  0.9810201E-01
         -2   -1    0    0    0  501 -0.00000000000E+00  0.00000000000E+00  0.14898819290E+03  0.14898819292E+03  0.25500000000E-02 0. -1.
          2   -1    0    0  501    0  0.00000000000E+00 -0.00000000000E+00 -0.70498362063E+03  0.70498362063E+03  0.25500000000E-02 0.  1.
    5000001    1    1    2    0    0  0.20944782936E+03 -0.10650124655E+03 -0.79942516003E+02  0.29803810931E+03  0.16500000000E+03 0.  0.
   -5000001    1    1    2    0    0 -0.20944782936E+03  0.10650124655E+03 -0.47605291173E+03  0.55593370424E+03  0.16500000000E+03 0.  0.
<mgrwt>
<rscale>  0 0.64817971E+03</rscale>
<asrwt>0</asrwt>
<pdfrwt beam="1">  1        2 0.10071194E+00 0.64817971E+03</pdfrwt>
<pdfrwt beam="2">  1       -2 0.21284028E-01 0.64817971E+03</pdfrwt>
<totfact> 0.85560658E+02</totfact>
</mgrwt>
</event>
<event>
 4    1  0.5280257E-005  0.5187066E+03  0.7818608E-02  0.1009008E+00
         -2   -1    0    0    0  501 -0.00000000000E+00  0.00000000000E+00  0.32361894363E+02  0.32361894463E+02  0.25500000000E-02 0. -1.
          2   -1    0    0  501    0  0.00000000000E+00 -0.00000000000E+00 -0.20784977069E+04  0.20784977069E+04  0.25500000000E-02 0.  1.
    5000001    1    1    2    0    0 -0.23599642135E+02  0.18488194279E+03 -0.72678249860E+03  0.76822918205E+03  0.16500000000E+03 0.  0.
   -5000001    1    1    2    0    0  0.23599642135E+02 -0.18488194279E+03 -0.13193533139E+04  0.13426304193E+04  0.16500000000E+03 0.  0.
<mgrwt>
<rscale>  0 0.51870656E+03</rscale>
<asrwt>0</asrwt>
<pdfrwt beam="1">  1        2 0.29692816E+00 0.51870656E+03</pdfrwt>
<pdfrwt beam="2">  1       -2 0.46231291E-02 0.51870656E+03</pdfrwt>
<totfact> 0.17592136E+03</totfact>
</mgrwt>
</event>
<event>
 4    1  0.5280257E-005  0.6163963E+03  0.7818608E-02  0.9871961E-01
         -2   -1    0    0    0  501 -0.00000000000E+00  0.00000000000E+00  0.18310412558E+03  0.18310412560E+03  0.25500000000E-02 0. -1.
          2   -1    0    0  501    0  0.00000000000E+00 -0.00000000000E+00 -0.51875457209E+03  0.51875457210E+03  0.25500000000E-02 0.  1.
    5000001    1    1    2    0    0 -0.75688254232E+02  0.17163718633E+03 -0.37332860913E+03  0.44920739749E+03  0.16500000000E+03 0.  0.
   -5000001    1    1    2    0    0  0.75688254232E+02 -0.17163718633E+03  0.37678162616E+02  0.25265130021E+03  0.16500000000E+03 0.  0.
<mgrwt>
<rscale>  0 0.61639631E+03</rscale>
<asrwt>0</asrwt>
<pdfrwt beam="1">  1        2 0.74107796E-01 0.61639631E+03</pdfrwt>
<pdfrwt beam="2">  1       -2 0.26157732E-01 0.61639631E+03</pdfrwt>
<totfact> 0.85207269E+02</totfact>
</mgrwt>
</event>
<event>
 4    1  0.5280257E-005  0.3953573E+03  0.7818608E-02  0.1045399E+00
          2   -1    0    0  501    0  0.00000000000E+00  0.00000000000E+00  0.18549362149E+04  0.18549362149E+04  0.25500000000E-02 0. -1.
         -2   -1    0    0    0  501 -0.00000000000E+00 -0.00000000000E+00 -0.21066407094E+02  0.21066407248E+02  0.25500000000E-02 0.  1.
    5000001    1    1    2    0    0  0.74112328564E+01  0.10570803114E+03  0.79852372831E+03  0.82224951134E+03  0.16500000000E+03 0.  0.
   -5000001    1    1    2    0    0 -0.74112328564E+01 -0.10570803114E+03  0.10353460795E+04  0.10537531108E+04  0.16500000000E+03 0.  0.
<mgrwt>
<rscale>  0 0.39535726E+03</rscale>
<asrwt>0</asrwt>
<pdfrwt beam="1">  1        2 0.26499089E+00 0.39535726E+03</pdfrwt>
<pdfrwt beam="2">  1       -2 0.30094867E-02 0.39535726E+03</pdfrwt>
<totfact> 0.43844801E+03</totfact>
</mgrwt>
</event>
<event>
 4    1  0.5280257E-005  0.6198976E+03  0.7818608E-02  0.9864964E-01
          2   -1    0    0  501    0  0.00000000000E+00  0.00000000000E+00  0.37773428671E+03  0.37773428672E+03  0.25500000000E-02 0.  1.
         -2   -1    0    0    0  501 -0.00000000000E+00 -0.00000000000E+00 -0.25432764350E+03  0.25432764351E+03  0.25500000000E-02 0. -1.
    5000001    1    1    2    0    0  0.29532432524E+02 -0.24752626228E+03 -0.21767981552E+02  0.29973364861E+03  0.16500000000E+03 0.  0.
   -5000001    1    1    2    0    0 -0.29532432524E+02  0.24752626228E+03  0.14517462477E+03  0.33232828162E+03  0.16500000000E+03 0.  0.
<mgrwt>
<rscale>  0 0.61989764E+03</rscale>
<asrwt>0</asrwt>
<pdfrwt beam="1">  1        2 0.53962041E-01 0.61989764E+03</pdfrwt>
<pdfrwt beam="2">  1       -2 0.36332521E-01 0.61989764E+03</pdfrwt>
<totfact> 0.66110220E+02</totfact>
</mgrwt>
</event>
<event>
 4    1  0.5280257E-005  0.4503159E+03  0.7818608E-02  0.1027628E+00
         -2   -1    0    0    0  501 -0.00000000000E+00  0.00000000000E+00  0.35758360577E+02  0.35758360668E+02  0.25500000000E-02 0. -1.
          2   -1    0    0  501    0  0.00000000000E+00 -0.00000000000E+00 -0.14177409768E+04  0.14177409768E+04  0.25500000000E-02 0.  1.
    5000001    1    1    2    0    0 -0.78458312388E+02  0.10145860777E+03 -0.42052467264E+03  0.46959083911E+03  0.16500000000E+03 0.  0.
   -5000001    1    1    2    0    0  0.78458312388E+02 -0.10145860777E+03 -0.96145794357E+03  0.98390849835E+03  0.16500000000E+03 0.  0.
<mgrwt>
<rscale>  0 0.45031586E+03</rscale>
<asrwt>0</asrwt>
<pdfrwt beam="1">  1        2 0.20253439E+00 0.45031586E+03</pdfrwt>
<pdfrwt beam="2">  1       -2 0.51083381E-02 0.45031586E+03</pdfrwt>
<totfact> 0.32615533E+03</totfact>
</mgrwt>
</event>
<event>
 4    1  0.5280257E-005  0.5783304E+03  0.7818608E-02  0.9951412E-01
         -2   -1    0    0    0  501 -0.00000000000E+00  0.00000000000E+00  0.52999381405E+02  0.52999381466E+02  0.25500000000E-02 0. -1.
          2   -1    0    0  501    0  0.00000000000E+00 -0.00000000000E+00 -0.15776886522E+04  0.15776886522E+04  0.25500000000E-02 0.  1.
    5000001    1    1    2    0    0  0.13193933706E+03  0.18842174922E+03 -0.59599072029E+03  0.65980351841E+03  0.16500000000E+03 0.  0.
   -5000001    1    1    2    0    0 -0.13193933706E+03 -0.18842174922E+03 -0.92869855047E+03  0.97088451522E+03  0.16500000000E+03 0.  0.
<mgrwt>
<rscale>  0 0.57833043E+03</rscale>
<asrwt>0</asrwt>
<pdfrwt beam="1">  1        2 0.22538406E+00 0.57833043E+03</pdfrwt>
<pdfrwt beam="2">  1       -2 0.75713412E-02 0.57833043E+03</pdfrwt>
<totfact> 0.14521668E+03</totfact>
</mgrwt>
</event>
<event>
 4    1  0.5280257E-005  0.7766071E+03  0.7818608E-02  0.9594509E-01
         -2   -1    0    0    0  501 -0.00000000000E+00  0.00000000000E+00  0.20585884093E+03  0.20585884095E+03  0.25500000000E-02 0. -1.
          2   -1    0    0  501    0  0.00000000000E+00 -0.00000000000E+00 -0.73244196318E+03  0.73244196318E+03  0.25500000000E-02 0.  1.
    5000001    1    1    2    0    0 -0.32858404416E+03  0.10093136425E+03 -0.35207647541E+03  0.51897732022E+03  0.16500000000E+03 0.  0.
   -5000001    1    1    2    0    0  0.32858404416E+03 -0.10093136425E+03 -0.17450664684E+03  0.41932348391E+03  0.16500000000E+03 0.  0.
<mgrwt>
<rscale>  0 0.77660712E+03</rscale>
<asrwt>0</asrwt>
<pdfrwt beam="1">  1        2 0.10463457E+00 0.77660712E+03</pdfrwt>
<pdfrwt beam="2">  1       -2 0.29408406E-01 0.77660712E+03</pdfrwt>
<totfact> 0.45401194E+02</totfact>
</mgrwt>
</event>
<event>
 4    1  0.5280257E-005  0.4228539E+03  0.7818608E-02  0.1036141E+00
          2   -1    0    0  501    0  0.00000000000E+00  0.00000000000E+00  0.10912946033E+04  0.10912946033E+04  0.25500000000E-02 0.  1.
         -2   -1    0    0    0  501 -0.00000000000E+00 -0.00000000000E+00 -0.40961765001E+02  0.40961765080E+02  0.25500000000E-02 0. -1.
    5000001    1    1    2    0    0  0.41042472285E+02 -0.96083796502E+02  0.74203609762E+03  0.76730642552E+03  0.16500000000E+03 0.  0.
   -5000001    1    1    2    0    0 -0.41042472285E+02  0.96083796502E+02  0.30829674071E+03  0.36494994289E+03  0.16500000000E+03 0.  0.
<mgrwt>
<rscale>  0 0.42285389E+03</rscale>
<asrwt>0</asrwt>
<pdfrwt beam="1">  1        2 0.15589921E+00 0.42285389E+03</pdfrwt>
<pdfrwt beam="2">  1       -2 0.58516813E-02 0.42285389E+03</pdfrwt>
<totfact> 0.39842537E+03</totfact>
</mgrwt>
</event>
<event>
 4    1  0.5280257E-005  0.4704249E+03  0.7818608E-02  0.1021800E+00
         -2   -1    0    0    0  501 -0.00000000000E+00  0.00000000000E+00  0.20838151538E+03  0.20838151539E+03  0.25500000000E-02 0. -1.
          2   -1    0    0  501    0  0.00000000000E+00 -0.00000000000E+00 -0.26549815289E+03  0.26549815290E+03  0.25500000000E-02 0.  1.
    5000001    1    1    2    0    0  0.69782532407E+01  0.16349740449E+03 -0.65154305627E+02  0.24135074235E+03  0.16500000000E+03 0.  0.
   -5000001    1    1    2    0    0 -0.69782532407E+01 -0.16349740449E+03  0.80376681123E+01  0.23252892594E+03  0.16500000000E+03 0.  0.
<mgrwt>
<rscale>  0 0.47042495E+03</rscale>
<asrwt>0</asrwt>
<pdfrwt beam="1">  1        2 0.37928308E-01 0.47042495E+03</pdfrwt>
<pdfrwt beam="2">  1       -2 0.29768788E-01 0.47042495E+03</pdfrwt>
<totfact> 0.14164055E+03</totfact>
</mgrwt>
</event>
<event>
 4    1  0.5280257E-005  0.6807655E+03  0.7818608E-02  0.9750703E-01
          2   -1    0    0  501    0  0.00000000000E+00  0.00000000000E+00  0.11243694014E+04  0.11243694014E+04  0.25500000000E-02 0.  1.
         -2   -1    0    0    0  501 -0.00000000000E+00 -0.00000000000E+00 -0.10304480590E+03  0.10304480593E+03  0.25500000000E-02 0. -1.
    5000001    1    1    2    0    0  0.34924680529E+02  0.23828159108E+03  0.19507406984E+03  0.35110787898E+03  0.16500000000E+03 0.  0.
   -5000001    1    1    2    0    0 -0.34924680529E+02 -0.23828159108E+03  0.82625052569E+03  0.87630632838E+03  0.16500000000E+03 0.  0.
<mgrwt>
<rscale>  0 0.68076553E+03</rscale>
<asrwt>0</asrwt>
<pdfrwt beam="1">  1        2 0.16062420E+00 0.68076553E+03</pdfrwt>
<pdfrwt beam="2">  1       -2 0.14720687E-01 0.68076553E+03</pdfrwt>
<totfact> 0.85993423E+02</totfact>
</mgrwt>
</event>
<event>
 4    1  0.5280257E-005  0.1152874E+04  0.7818608E-02  0.9155136E-01
         -2   -1    0    0    0  501 -0.00000000000E+00  0.00000000000E+00  0.72402784679E+03  0.72402784679E+03  0.25500000000E-02 0. -1.
          2   -1    0    0  501    0  0.00000000000E+00 -0.00000000000E+00 -0.45893197966E+03  0.45893197967E+03  0.25500000000E-02 0.  1.
    5000001    1    1    2    0    0 -0.30052338251E+03  0.37706977266E+03 -0.14384866898E+03  0.52954070331E+03  0.16500000000E+03 0.  0.
   -5000001    1    1    2    0    0  0.30052338251E+03 -0.37706977266E+03  0.40894453611E+03  0.65341912315E+03  0.16500000000E+03 0.  0.
<mgrwt>
<rscale>  0 0.11528739E+04</rscale>
<asrwt>0</asrwt>
<pdfrwt beam="1">  1        2 0.65561711E-01 0.11528739E+04</pdfrwt>
<pdfrwt beam="2">  1       -2 0.10343255E+00 0.11528739E+04</pdfrwt>
<totfact> 0.55909958E+01</totfact>
</mgrwt>
</event>
<event>
 4    1  0.5280257E-005  0.5482413E+03  0.7818608E-02  0.1001902E+00
          2   -1    0    0  501    0  0.00000000000E+00  0.00000000000E+00  0.16443904804E+04  0.16443904804E+04  0.25500000000E-02 0.  1.
         -2   -1    0    0    0  501 -0.00000000000E+00 -0.00000000000E+00 -0.45696037582E+02  0.45696037653E+02  0.25500000000E-02 0. -1.
    5000001    1    1    2    0    0  0.14875970086E+03 -0.16054357439E+03  0.78804512388E+03  0.83435232675E+03  0.16500000000E+03 0.  0.
   -5000001    1    1    2    0    0 -0.14875970086E+03  0.16054357439E+03  0.81064931894E+03  0.85573419131E+03  0.16500000000E+03 0.  0.
<mgrwt>
<rscale>  0 0.54824129E+03</rscale>
<asrwt>0</asrwt>
<pdfrwt beam="1">  1        2 0.23491293E+00 0.54824129E+03</pdfrwt>
<pdfrwt beam="2">  1       -2 0.65280053E-02 0.54824129E+03</pdfrwt>
<totfact> 0.16981166E+03</totfact>
</mgrwt>
</event>
<event>
 4    1  0.5280257E-005  0.6204050E+03  0.7818608E-02  0.9863954E-01
         -2   -1    0    0    0  501 -0.00000000000E+00  0.00000000000E+00  0.82636343932E+02  0.82636343971E+02  0.25500000000E-02 0. -1.
          2   -1    0    0  501    0  0.00000000000E+00 -0.00000000000E+00 -0.11644464451E+04  0.11644464451E+04  0.25500000000E-02 0.  1.
    5000001    1    1    2    0    0  0.23523815932E+03 -0.20542459980E+02 -0.77221292803E+03  0.82419463143E+03  0.16500000000E+03 0.  0.
   -5000001    1    1    2    0    0 -0.23523815932E+03  0.20542459980E+02 -0.30959717313E+03  0.42288815764E+03  0.16500000000E+03 0.  0.
<mgrwt>
<rscale>  0 0.62040502E+03</rscale>
<asrwt>0</asrwt>
<pdfrwt beam="1">  1        2 0.16634948E+00 0.62040502E+03</pdfrwt>
<pdfrwt beam="2">  1       -2 0.11805193E-01 0.62040502E+03</pdfrwt>
<totfact> 0.11798255E+03</totfact>
</mgrwt>
</event>
<event>
 4    1  0.5280257E-005  0.4608938E+03  0.7818608E-02  0.1024522E+00
          2   -1    0    0  501    0  0.00000000000E+00  0.00000000000E+00  0.12607373865E+04  0.12607373865E+04  0.25500000000E-02 0.  1.
         -2   -1    0    0    0  501 -0.00000000000E+00 -0.00000000000E+00 -0.42122781689E+02  0.42122781766E+02  0.25500000000E-02 0. -1.
    5000001    1    1    2    0    0  0.94160145740E+02  0.12276287788E+03  0.48467377557E+03  0.53485561225E+03  0.16500000000E+03 0.  0.
   -5000001    1    1    2    0    0 -0.94160145740E+02 -0.12276287788E+03  0.73394082922E+03  0.76800455599E+03  0.16500000000E+03 0.  0.
<mgrwt>
<rscale>  0 0.46089377E+03</rscale>
<asrwt>0</asrwt>
<pdfrwt beam="1">  1        2 0.18010538E+00 0.46089377E+03</pdfrwt>
<pdfrwt beam="2">  1       -2 0.60175388E-02 0.46089377E+03</pdfrwt>
<totfact> 0.30684162E+03</totfact>
</mgrwt>
</event>
<event>
 4    1  0.5280257E-005  0.8705498E+03  0.7818608E-02  0.9463163E-01
          2   -1    0    0  501    0  0.00000000000E+00  0.00000000000E+00  0.44469565912E+03  0.44469565913E+03  0.25500000000E-02 0. -1.
         -2   -1    0    0    0  501 -0.00000000000E+00 -0.00000000000E+00 -0.42605373801E+03  0.42605373802E+03  0.25500000000E-02 0.  1.
    5000001    1    1    2    0    0 -0.19545830140E+03  0.20298100524E+03 -0.27855400529E+03  0.42921156780E+03  0.16500000000E+03 0.  0.
   -5000001    1    1    2    0    0  0.19545830140E+03 -0.20298100524E+03  0.29719592640E+03  0.44153782934E+03  0.16500000000E+03 0.  0.
<mgrwt>
<rscale>  0 0.87054982E+03</rscale>
<asrwt>0</asrwt>
<pdfrwt beam="1">  1        2 0.63527952E-01 0.87054982E+03</pdfrwt>
<pdfrwt beam="2">  1       -2 0.60864819E-01 0.87054982E+03</pdfrwt>
<totfact> 0.19375322E+02</totfact>
</mgrwt>
</event>
<event>
 4    1  0.5280257E-005  0.4822136E+03  0.7818608E-02  0.1018529E+00
          2   -1    0    0  501    0  0.00000000000E+00  0.00000000000E+00  0.22886389235E+04  0.22886389235E+04  0.25500000000E-02 0.  1.
         -2   -1    0    0    0  501 -0.00000000000E+00 -0.00000000000E+00 -0.25400463136E+02  0.25400463264E+02  0.25500000000E-02 0. -1.
    5000001    1    1    2    0    0  0.38057225979E+01 -0.75019194465E+02  0.36885200389E+03  0.41099776622E+03  0.16500000000E+03 0.  0.
   -5000001    1    1    2    0    0 -0.38057225979E+01  0.75019194465E+02  0.18943864564E+04  0.19030416205E+04  0.16500000000E+03 0.  0.
<mgrwt>
<rscale>  0 0.48221360E+03</rscale>
<asrwt>0</asrwt>
<pdfrwt beam="1">  1        2 0.32694821E+00 0.48221360E+03</pdfrwt>
<pdfrwt beam="2">  1       -2 0.36286399E-02 0.48221360E+03</pdfrwt>
<totfact> 0.20045419E+03</totfact>
</mgrwt>
</event>
<event>
 4    1  0.5280257E-005  0.3873083E+03  0.7818608E-02  0.1048265E+00
         -2   -1    0    0    0  501 -0.00000000000E+00  0.00000000000E+00  0.34202185575E+02  0.34202185670E+02  0.25500000000E-02 0. -1.
          2   -1    0    0  501    0  0.00000000000E+00 -0.00000000000E+00 -0.10964774312E+04  0.10964774312E+04  0.25500000000E-02 0.  1.
    5000001    1    1    2    0    0 -0.43875079753E+02  0.78691709765E+02 -0.66680051922E+03  0.69279530905E+03  0.16500000000E+03 0.  0.
   -5000001    1    1    2    0    0  0.43875079753E+02 -0.78691709765E+02 -0.39547472637E+03  0.43788430779E+03  0.16500000000E+03 0.  0.
<mgrwt>
<rscale>  0 0.38730827E+03</rscale>
<asrwt>0</asrwt>
<pdfrwt beam="1">  1        2 0.15663961E+00 0.38730827E+03</pdfrwt>
<pdfrwt beam="2">  1       -2 0.48860272E-02 0.38730827E+03</pdfrwt>
<totfact> 0.52201992E+03</totfact>
</mgrwt>
</event>
<event>
 4    1  0.5280257E-005  0.8034914E+03  0.7818608E-02  0.9554977E-01
          2   -1    0    0  501    0  0.00000000000E+00  0.00000000000E+00  0.24387433412E+03  0.24387433413E+03  0.25500000000E-02 0. -1.
         -2   -1    0    0    0  501 -0.00000000000E+00 -0.00000000000E+00 -0.66181469938E+03  0.66181469938E+03  0.25500000000E-02 0.  1.
    5000001    1    1    2    0    0  0.16613021232E+03 -0.32640779194E+03 -0.20246314622E+03  0.44984177181E+03  0.16500000000E+03 0.  0.
   -5000001    1    1    2    0    0 -0.16613021232E+03  0.32640779194E+03 -0.21547721903E+03  0.45584726171E+03  0.16500000000E+03 0.  0.
<mgrwt>
<rscale>  0 0.80349143E+03</rscale>
<asrwt>0</asrwt>
<pdfrwt beam="1">  1        2 0.34839191E-01 0.80349143E+03</pdfrwt>
<pdfrwt beam="2">  1       -2 0.94544957E-01 0.80349143E+03</pdfrwt>
<totfact> 0.14271782E+02</totfact>
</mgrwt>
</event>
<event>
 4    1  0.5280257E-005  0.4385236E+03  0.7818608E-02  0.1031201E+00
          2   -1    0    0  501    0  0.00000000000E+00  0.00000000000E+00  0.82795314676E+03  0.82795314677E+03  0.25500000000E-02 0.  1.
         -2   -1    0    0    0  501 -0.00000000000E+00 -0.00000000000E+00 -0.58065771013E+02  0.58065771069E+02  0.25500000000E-02 0. -1.
    5000001    1    1    2    0    0  0.59772951932E+02 -0.54169826115E+02  0.62692316147E+03  0.65327239819E+03  0.16500000000E+03 0.  0.
   -5000001    1    1    2    0    0 -0.59772951932E+02  0.54169826115E+02  0.14296421428E+03  0.23274651965E+03  0.16500000000E+03 0.  0.
<mgrwt>
<rscale>  0 0.43852360E+03</rscale>
<asrwt>0</asrwt>
<pdfrwt beam="1">  1        2 0.11827902E+00 0.43852360E+03</pdfrwt>
<pdfrwt beam="2">  1       -2 0.82951104E-02 0.43852360E+03</pdfrwt>
<totfact> 0.33543244E+03</totfact>
</mgrwt>
</event>
<event>
 4    1  0.5280257E-005  0.9068149E+03  0.7818608E-02  0.9417102E-01
          2   -1    0    0  501    0  0.00000000000E+00  0.00000000000E+00  0.19870430492E+04  0.19870430492E+04  0.25500000000E-02 0.  1.
         -2   -1    0    0    0  501 -0.00000000000E+00 -0.00000000000E+00 -0.10345940900E+03  0.10345940903E+03  0.25500000000E-02 0. -1.
    5000001    1    1    2    0    0  0.31288580891E+03  0.10109069932E+03  0.33083108571E+03  0.49476364679E+03  0.16500000000E+03 0.  0.
   -5000001    1    1    2    0    0 -0.31288580891E+03 -0.10109069932E+03  0.15527525545E+04  0.15957388115E+04  0.16500000000E+03 0.  0.
<mgrwt>
<rscale>  0 0.90681486E+03</rscale>
<asrwt>0</asrwt>
<pdfrwt beam="1">  1        2 0.28386327E+00 0.90681486E+03</pdfrwt>
<pdfrwt beam="2">  1       -2 0.14779917E-01 0.90681486E+03</pdfrwt>
<totfact> 0.29520804E+02</totfact>
</mgrwt>
</event>
<event>
 4    1  0.5280257E-005  0.8377785E+03  0.7818608E-02  0.9506889E-01
          2   -1    0    0  501    0  0.00000000000E+00  0.00000000000E+00  0.11120687442E+04  0.11120687442E+04  0.25500000000E-02 0.  1.
         -2   -1    0    0    0  501 -0.00000000000E+00 -0.00000000000E+00 -0.15778540481E+03  0.15778540483E+03  0.25500000000E-02 0. -1.
    5000001    1    1    2    0    0 -0.25446378963E+03 -0.28614893921E+03  0.41631948565E+03  0.58921978054E+03  0.16500000000E+03 0.  0.
   -5000001    1    1    2    0    0  0.25446378963E+03  0.28614893921E+03  0.53796385376E+03  0.68063436851E+03  0.16500000000E+03 0.  0.
<mgrwt>
<rscale>  0 0.83777853E+03</rscale>
<asrwt>0</asrwt>
<pdfrwt beam="1">  1        2 0.15886695E+00 0.83777853E+03</pdfrwt>
<pdfrwt beam="2">  1       -2 0.22540773E-01 0.83777853E+03</pdfrwt>
<totfact> 0.41579640E+02</totfact>
</mgrwt>
</event>
<event>
 4    1  0.5280257E-005  0.4473935E+03  0.7818608E-02  0.1028502E+00
          2   -1    0    0  501    0  0.00000000000E+00  0.00000000000E+00  0.64545038639E+03  0.64545038640E+03  0.25500000000E-02 0.  1.
         -2   -1    0    0    0  501 -0.00000000000E+00 -0.00000000000E+00 -0.77527631087E+02  0.77527631129E+02  0.25500000000E-02 0. -1.
    5000001    1    1    2    0    0 -0.13959626811E+03 -0.57677880741E+02  0.28586210172E+03  0.36298208936E+03  0.16500000000E+03 0.  0.
   -5000001    1    1    2    0    0  0.13959626811E+03  0.57677880741E+02  0.28206065359E+03  0.35999592817E+03  0.16500000000E+03 0.  0.
<mgrwt>
<rscale>  0 0.44739352E+03</rscale>
<asrwt>0</asrwt>
<pdfrwt beam="1">  1        2 0.92207195E-01 0.44739352E+03</pdfrwt>
<pdfrwt beam="2">  1       -2 0.11075376E-01 0.44739352E+03</pdfrwt>
<totfact> 0.28647942E+03</totfact>
</mgrwt>
</event>
<event>
 4    1  0.5280257E-005  0.4964738E+03  0.7818608E-02  0.1014703E+00
         -2   -1    0    0    0  501 -0.00000000000E+00  0.00000000000E+00  0.10048285572E+03  0.10048285575E+03  0.25500000000E-02 0. -1.
          2   -1    0    0  501    0  0.00000000000E+00 -0.00000000000E+00 -0.61325442601E+03  0.61325442602E+03  0.25500000000E-02 0.  1.
    5000001    1    1    2    0    0  0.17843180372E+03  0.40074336862E+02 -0.30075880565E+03  0.38874763051E+03  0.16500000000E+03 0.  0.
   -5000001    1    1    2    0    0 -0.17843180372E+03 -0.40074336862E+02 -0.21201276464E+03  0.32498965126E+03  0.16500000000E+03 0.  0.
<mgrwt>
<rscale>  0 0.49647379E+03</rscale>
<asrwt>0</asrwt>
<pdfrwt beam="1">  1        2 0.87607773E-01 0.49647379E+03</pdfrwt>
<pdfrwt beam="2">  1       -2 0.14354694E-01 0.49647379E+03</pdfrwt>
<totfact> 0.19875611E+03</totfact>
</mgrwt>
</event>
<event>
 4    1  0.5280257E-005  0.5546483E+03  0.7818608E-02  0.1000424E+00
         -2   -1    0    0    0  501 -0.00000000000E+00  0.00000000000E+00  0.26343804397E+02  0.26343804520E+02  0.25500000000E-02 0. -1.
          2   -1    0    0  501    0  0.00000000000E+00 -0.00000000000E+00 -0.29194215497E+04  0.29194215497E+04  0.25500000000E-02 0.  1.
    5000001    1    1    2    0    0 -0.13759319620E+03 -0.13982078246E+03 -0.20086561845E+04  0.20249460255E+04  0.16500000000E+03 0.  0.
   -5000001    1    1    2    0    0  0.13759319620E+03  0.13982078246E+03 -0.88442156077E+03  0.92081932865E+03  0.16500000000E+03 0.  0.
<mgrwt>
<rscale>  0 0.55464825E+03</rscale>
<asrwt>0</asrwt>
<pdfrwt beam="1">  1        2 0.41706001E+00 0.55464825E+03</pdfrwt>
<pdfrwt beam="2">  1       -2 0.37634025E-02 0.55464825E+03</pdfrwt>
<totfact> 0.89038819E+02</totfact>
</mgrwt>
</event>
<event>
 4    1  0.5280257E-005  0.4181766E+03  0.7818608E-02  0.1037661E+00
          2   -1    0    0  501    0  0.00000000000E+00  0.00000000000E+00  0.12993713214E+04  0.12993713214E+04  0.25500000000E-02 0.  1.
         -2   -1    0    0    0  501 -0.00000000000E+00 -0.00000000000E+00 -0.33645436680E+02  0.33645436777E+02  0.25500000000E-02 0. -1.
    5000001    1    1    2    0    0  0.54392044316E+02 -0.11387788573E+03  0.70871708831E+03  0.73853339708E+03  0.16500000000E+03 0.  0.
   -5000001    1    1    2    0    0 -0.54392044316E+02  0.11387788573E+03  0.55700879639E+03  0.59448336108E+03  0.16500000000E+03 0.  0.
<mgrwt>
<rscale>  0 0.41817659E+03</rscale>
<asrwt>0</asrwt>
<pdfrwt beam="1">  1        2 0.18562452E+00 0.41817659E+03</pdfrwt>
<pdfrwt beam="2">  1       -2 0.48064898E-02 0.41817659E+03</pdfrwt>
<totfact> 0.41376114E+03</totfact>
</mgrwt>
</event>
<event>
 4    1  0.5280257E-005  0.4621465E+03  0.7818608E-02  0.1024161E+00
         -2   -1    0    0    0  501 -0.00000000000E+00  0.00000000000E+00  0.26318347446E+02  0.26318347570E+02  0.25500000000E-02 0. -1.
          2   -1    0    0  501    0  0.00000000000E+00 -0.00000000000E+00 -0.20288069250E+04  0.20288069250E+04  0.25500000000E-02 0.  1.
    5000001    1    1    2    0    0  0.41358026303E+02 -0.70006264887E+02 -0.37933619174E+03  0.42158309955E+03  0.16500000000E+03 0.  0.
   -5000001    1    1    2    0    0 -0.41358026303E+02  0.70006264887E+02 -0.16231523858E+04  0.16335421730E+04  0.16500000000E+03 0.  0.
<mgrwt>
<rscale>  0 0.46214649E+03</rscale>
<asrwt>0</asrwt>
<pdfrwt beam="1">  1        2 0.28982946E+00 0.46214649E+03</pdfrwt>
<pdfrwt beam="2">  1       -2 0.37597652E-02 0.46214649E+03</pdfrwt>
<totfact> 0.25623293E+03</totfact>
</mgrwt>
</event>
<event>
 4    1  0.5280257E-005  0.8357848E+03  0.7818608E-02  0.9509617E-01
         -2   -1    0    0    0  501 -0.00000000000E+00  0.00000000000E+00  0.82956620460E+02  0.82956620499E+02  0.25500000000E-02 0. -1.
          2   -1    0    0  501    0  0.00000000000E+00 -0.00000000000E+00 -0.21051251872E+04  0.21051251872E+04  0.25500000000E-02 0.  1.
    5000001    1    1    2    0    0 -0.13111787819E+03  0.36057375623E+03 -0.97371569040E+03  0.10595058175E+04  0.16500000000E+03 0.  0.
   -5000001    1    1    2    0    0  0.13111787819E+03 -0.36057375623E+03 -0.10484528763E+04  0.11285759901E+04  0.16500000000E+03 0.  0.
<mgrwt>
<rscale>  0 0.83578483E+03</rscale>
<asrwt>0</asrwt>
<pdfrwt beam="1">  1        2 0.30073214E+00 0.83578483E+03</pdfrwt>
<pdfrwt beam="2">  1       -2 0.11850947E-01 0.83578483E+03</pdfrwt>
<totfact> 0.37384604E+02</totfact>
</mgrwt>
</event>
<event>
 4    1  0.5280257E-005  0.4142880E+03  0.7818608E-02  0.1038942E+00
          2   -1    0    0  501    0  0.00000000000E+00  0.00000000000E+00  0.20326970237E+03  0.20326970239E+03  0.25500000000E-02 0.  1.
         -2   -1    0    0    0  501 -0.00000000000E+00 -0.00000000000E+00 -0.21109215569E+03  0.21109215570E+03  0.25500000000E-02 0. -1.
    5000001    1    1    2    0    0 -0.34779515006E+02 -0.71895398554E+02 -0.10039124580E+03  0.20900230915E+03  0.16500000000E+03 0.  0.
   -5000001    1    1    2    0    0  0.34779515006E+02  0.71895398554E+02  0.92568792487E+02  0.20535954894E+03  0.16500000000E+03 0.  0.
<mgrwt>
<rscale>  0 0.41428801E+03</rscale>
<asrwt>0</asrwt>
<pdfrwt beam="1">  1        2 0.29038529E-01 0.41428801E+03</pdfrwt>
<pdfrwt beam="2">  1       -2 0.30156022E-01 0.41428801E+03</pdfrwt>
<totfact> 0.18568878E+03</totfact>
</mgrwt>
</event>
<event>
 4    1  0.5280257E-005  0.5564467E+03  0.7818608E-02  0.1000013E+00
          2   -1    0    0  501    0  0.00000000000E+00  0.00000000000E+00  0.12969832288E+04  0.12969832288E+04  0.25500000000E-02 0.  1.
         -2   -1    0    0    0  501 -0.00000000000E+00 -0.00000000000E+00 -0.59683294839E+02  0.59683294893E+02  0.25500000000E-02 0. -1.
    5000001    1    1    2    0    0 -0.12774025816E+03  0.59940186805E+01  0.10670842505E+04  0.10873119605E+04  0.16500000000E+03 0.  0.
   -5000001    1    1    2    0    0  0.12774025816E+03 -0.59940186805E+01  0.17021568349E+03  0.26935456321E+03  0.16500000000E+03 0.  0.
<mgrwt>
<rscale>  0 0.55644670E+03</rscale>
<asrwt>0</asrwt>
<pdfrwt beam="1">  1        2 0.18528331E+00 0.55644670E+03</pdfrwt>
<pdfrwt beam="2">  1       -2 0.85261853E-02 0.55644670E+03</pdfrwt>
<totfact> 0.16906919E+03</totfact>
</mgrwt>
</event>
<event>
 4    1  0.5280257E-005  0.6996139E+03  0.7818608E-02  0.9717893E-01
          2   -1    0    0  501    0  0.00000000000E+00  0.00000000000E+00  0.69447889185E+03  0.69447889185E+03  0.25500000000E-02 0.  1.
         -2   -1    0    0    0  501 -0.00000000000E+00 -0.00000000000E+00 -0.17619671838E+03  0.17619671840E+03  0.25500000000E-02 0. -1.
    5000001    1    1    2    0    0  0.11372047396E+03  0.17580074709E+03  0.54102067552E+03  0.60313068253E+03  0.16500000000E+03 0.  0.
   -5000001    1    1    2    0    0 -0.11372047396E+03 -0.17580074709E+03 -0.22738502051E+02  0.26754492772E+03  0.16500000000E+03 0.  0.
<mgrwt>
<rscale>  0 0.69961390E+03</rscale>
<asrwt>0</asrwt>
<pdfrwt beam="1">  1        2 0.99211271E-01 0.69961390E+03</pdfrwt>
<pdfrwt beam="2">  1       -2 0.25170960E-01 0.69961390E+03</pdfrwt>
<totfact> 0.64577774E+02</totfact>
</mgrwt>
</event>
<event>
 4    1  0.5280257E-005  0.5592116E+03  0.7818608E-02  0.9993840E-01
          2   -1    0    0  501    0  0.00000000000E+00  0.00000000000E+00  0.20925284657E+04  0.20925284657E+04  0.25500000000E-02 0.  1.
         -2   -1    0    0    0  501 -0.00000000000E+00 -0.00000000000E+00 -0.37361214443E+02  0.37361214530E+02  0.25500000000E-02 0. -1.
    5000001    1    1    2    0    0  0.15501202763E+03  0.15871340020E+03  0.86890356472E+03  0.91183171523E+03  0.16500000000E+03 0.  0.
   -5000001    1    1    2    0    0 -0.15501202763E+03 -0.15871340020E+03  0.11862636865E+04  0.12180579650E+04  0.16500000000E+03 0.  0.
<mgrwt>
<rscale>  0 0.55921161E+03</rscale>
<asrwt>0</asrwt>
<pdfrwt beam="1">  1        2 0.29893257E+00 0.55921161E+03</pdfrwt>
<pdfrwt beam="2">  1       -2 0.53373176E-02 0.55921161E+03</pdfrwt>
<totfact> 0.13831573E+03</totfact>
</mgrwt>
</event>
<event>
 4    1  0.5280257E-005  0.6465208E+03  0.7818608E-02  0.9813330E-01
         -2   -1    0    0    0  501 -0.00000000000E+00  0.00000000000E+00  0.35141667277E+03  0.35141667278E+03  0.25500000000E-02 0. -1.
          2   -1    0    0  501    0  0.00000000000E+00 -0.00000000000E+00 -0.29736003855E+03  0.29736003856E+03  0.25500000000E-02 0.  1.
    5000001    1    1    2    0    0  0.22806636368E+03 -0.24098252923E+02 -0.13060987540E+03  0.31125380574E+03  0.16500000000E+03 0.  0.
   -5000001    1    1    2    0    0 -0.22806636368E+03  0.24098252923E+02  0.18466650961E+03  0.33752290561E+03  0.16500000000E+03 0.  0.
<mgrwt>
<rscale>  0 0.64652077E+03</rscale>
<asrwt>0</asrwt>
<pdfrwt beam="1">  1        2 0.42480006E-01 0.64652077E+03</pdfrwt>
<pdfrwt beam="2">  1       -2 0.50202382E-01 0.64652077E+03</pdfrwt>
<totfact> 0.45571867E+02</totfact>
</mgrwt>
</event>
<event>
 4    1  0.5280257E-005  0.5096653E+03  0.7818608E-02  0.1011286E+00
          2   -1    0    0  501    0  0.00000000000E+00  0.00000000000E+00  0.84312206598E+03  0.84312206599E+03  0.25500000000E-02 0.  1.
         -2   -1    0    0    0  501 -0.00000000000E+00 -0.00000000000E+00 -0.77022866867E+02  0.77022866909E+02  0.25500000000E-02 0. -1.
    5000001    1    1    2    0    0 -0.88975510669E+02 -0.17043709635E+03  0.43246698072E+03  0.50121665447E+03  0.16500000000E+03 0.  0.
   -5000001    1    1    2    0    0  0.88975510669E+02  0.17043709635E+03  0.33363221840E+03  0.41892827842E+03  0.16500000000E+03 0.  0.
<mgrwt>
<rscale>  0 0.50966530E+03</rscale>
<asrwt>0</asrwt>
<pdfrwt beam="1">  1        2 0.12044601E+00 0.50966530E+03</pdfrwt>
<pdfrwt beam="2">  1       -2 0.11003267E-01 0.50966530E+03</pdfrwt>
<totfact> 0.20829722E+03</totfact>
</mgrwt>
</event>
<event>
 4    1  0.5280257E-005  0.5105496E+03  0.7818608E-02  0.1011061E+00
          2   -1    0    0  501    0  0.00000000000E+00  0.00000000000E+00  0.35508313676E+03  0.35508313677E+03  0.25500000000E-02 0.  1.
         -2   -1    0    0    0  501 -0.00000000000E+00 -0.00000000000E+00 -0.18352099578E+03  0.18352099580E+03  0.25500000000E-02 0. -1.
    5000001    1    1    2    0    0  0.55306970233E+02  0.18528919571E+03  0.61056868055E+02  0.26142664007E+03  0.16500000000E+03 0.  0.
   -5000001    1    1    2    0    0 -0.55306970233E+02 -0.18528919571E+03  0.11050527293E+03  0.27717749250E+03  0.16500000000E+03 0.  0.
<mgrwt>
<rscale>  0 0.51054955E+03</rscale>
<asrwt>0</asrwt>
<pdfrwt beam="1">  1        2 0.50726161E-01 0.51054955E+03</pdfrwt>
<pdfrwt beam="2">  1       -2 0.26217286E-01 0.51054955E+03</pdfrwt>
<totfact> 0.12972654E+03</totfact>
</mgrwt>
</event>
<event>
 4    1  0.5280257E-005  0.7427408E+03  0.7818608E-02  0.9646808E-01
         -2   -1    0    0    0  501 -0.00000000000E+00  0.00000000000E+00  0.29617361354E+03  0.29617361355E+03  0.25500000000E-02 0. -1.
          2   -1    0    0  501    0  0.00000000000E+00 -0.00000000000E+00 -0.46565925055E+03  0.46565925056E+03  0.25500000000E-02 0.  1.
    5000001    1    1    2    0    0  0.33542617624E+02  0.33082184730E+03 -0.73377329467E+02  0.37838794157E+03  0.16500000000E+03 0.  0.
   -5000001    1    1    2    0    0 -0.33542617624E+02 -0.33082184730E+03 -0.96108307542E+02  0.38344492254E+03  0.16500000000E+03 0.  0.
<mgrwt>
<rscale>  0 0.74274082E+03</rscale>
<asrwt>0</asrwt>
<pdfrwt beam="1">  1        2 0.66522749E-01 0.74274082E+03</pdfrwt>
<pdfrwt beam="2">  1       -2 0.42310517E-01 0.74274082E+03</pdfrwt>
<totfact> 0.38815627E+02</totfact>
</mgrwt>
</event>
<event>
 4    1  0.5280257E-005  0.6915890E+03  0.7818608E-02  0.9731725E-01
          2   -1    0    0  501    0  0.00000000000E+00  0.00000000000E+00  0.10260377054E+04  0.10260377054E+04  0.25500000000E-02 0. -1.
         -2   -1    0    0    0  501 -0.00000000000E+00 -0.00000000000E+00 -0.11653943290E+03  0.11653943293E+03  0.25500000000E-02 0.  1.
    5000001    1    1    2    0    0 -0.60702667373E+02  0.29461653970E+03  0.52609886608E+03  0.62808338315E+03  0.16500000000E+03 0.  0.
   -5000001    1    1    2    0    0  0.60702667373E+02 -0.29461653970E+03  0.38339940641E+03  0.51449375519E+03  0.16500000000E+03 0.  0.
<mgrwt>
<rscale>  0 0.69158905E+03</rscale>
<asrwt>0</asrwt>
<pdfrwt beam="1">  1        2 0.14657682E+00 0.69158905E+03</pdfrwt>
<pdfrwt beam="2">  1       -2 0.16648490E-01 0.69158905E+03</pdfrwt>
<totfact> 0.79762169E+02</totfact>
</mgrwt>
</event>
<event>
 4    1  0.5280257E-005  0.5826304E+03  0.7818608E-02  0.9942112E-01
          2   -1    0    0  501    0  0.00000000000E+00  0.00000000000E+00  0.23792245836E+04  0.23792245836E+04  0.25500000000E-02 0.  1.
         -2   -1    0    0    0  501 -0.00000000000E+00 -0.00000000000E+00 -0.35668991684E+02  0.35668991775E+02  0.25500000000E-02 0. -1.
    5000001    1    1    2    0    0 -0.17519760474E+03 -0.95965789540E+02  0.61978731969E+03  0.67176257347E+03  0.16500000000E+03 0.  0.
   -5000001    1    1    2    0    0  0.17519760474E+03  0.95965789540E+02  0.17237682722E+04  0.17431310019E+04  0.16500000000E+03 0.  0.
<mgrwt>
<rscale>  0 0.58263039E+03</rscale>
<asrwt>0</asrwt>
<pdfrwt beam="1">  1        2 0.33988926E+00 0.58263039E+03</pdfrwt>
<pdfrwt beam="2">  1       -2 0.50955697E-02 0.58263039E+03</pdfrwt>
<totfact> 0.10641857E+03</totfact>
</mgrwt>
</event>
<event>
 4    1  0.5280257E-005  0.6002130E+03  0.7818608E-02  0.9904964E-01
          2   -1    0    0  501    0  0.00000000000E+00  0.00000000000E+00  0.16805965395E+04  0.16805965395E+04  0.25500000000E-02 0.  1.
         -2   -1    0    0    0  501 -0.00000000000E+00 -0.00000000000E+00 -0.53590439644E+02  0.53590439704E+02  0.25500000000E-02 0. -1.
    5000001    1    1    2    0    0 -0.73843809696E+02 -0.22267017600E+03  0.55826293031E+03  0.62762840509E+03  0.16500000000E+03 0.  0.
   -5000001    1    1    2    0    0  0.73843809696E+02  0.22267017600E+03  0.10687431695E+04  0.11065585741E+04  0.16500000000E+03 0.  0.
<mgrwt>
<rscale>  0 0.60021299E+03</rscale>
<asrwt>0</asrwt>
<pdfrwt beam="1">  1        2 0.24008522E+00 0.60021299E+03</pdfrwt>
<pdfrwt beam="2">  1       -2 0.76557772E-02 0.60021299E+03</pdfrwt>
<totfact> 0.12627299E+03</totfact>
</mgrwt>
</event>
<event>
 4    1  0.5280257E-005  0.3946707E+03  0.7818608E-02  0.1045641E+00
          2   -1    0    0  501    0  0.00000000000E+00  0.00000000000E+00  0.99995845262E+03  0.99995845262E+03  0.25500000000E-02 0.  1.
         -2   -1    0    0    0  501 -0.00000000000E+00 -0.00000000000E+00 -0.38942865776E+02  0.38942865859E+02  0.25500000000E-02 0. -1.
    5000001    1    1    2    0    0  0.62733672884E+02  0.15010748792E+02  0.25170125399E+03  0.30779759186E+03  0.16500000000E+03 0.  0.
   -5000001    1    1    2    0    0 -0.62733672884E+02 -0.15010748792E+02  0.70931433285E+03  0.73110372662E+03  0.16500000000E+03 0.  0.
<mgrwt>
<rscale>  0 0.39467074E+03</rscale>
<asrwt>0</asrwt>
<pdfrwt beam="1">  1        2 0.14285123E+00 0.39467074E+03</pdfrwt>
<pdfrwt beam="2">  1       -2 0.55632658E-02 0.39467074E+03</pdfrwt>
<totfact> 0.48709470E+03</totfact>
</mgrwt>
</event>
<event>
 4    1  0.5280257E-005  0.4116203E+03  0.7818608E-02  0.1039829E+00
         -2   -1    0    0    0  501 -0.00000000000E+00  0.00000000000E+00  0.52464088328E+02  0.52464088390E+02  0.25500000000E-02 0. -1.
          2   -1    0    0  501    0  0.00000000000E+00 -0.00000000000E+00 -0.80736791643E+03  0.80736791643E+03  0.25500000000E-02 0.  1.
    5000001    1    1    2    0    0  0.25050759913E+02 -0.30142886674E+02 -0.62102727799E+03  0.64376704964E+03  0.16500000000E+03 0.  0.
   -5000001    1    1    2    0    0 -0.25050759913E+02  0.30142886674E+02 -0.13387655010E+03  0.21606495518E+03  0.16500000000E+03 0.  0.
<mgrwt>
<rscale>  0 0.41162032E+03</rscale>
<asrwt>0</asrwt>
<pdfrwt beam="1">  1        2 0.11533827E+00 0.41162032E+03</pdfrwt>
<pdfrwt beam="2">  1       -2 0.74948702E-02 0.41162032E+03</pdfrwt>
<totfact> 0.40622737E+03</totfact>
</mgrwt>
</event>
<event>
 4    1  0.5280257E-005  0.2257756E+04  0.7818608E-02  0.8494766E-01
          2   -1    0    0  501    0  0.00000000000E+00  0.00000000000E+00  0.26686171109E+04  0.26686171109E+04  0.25500000000E-02 0.  1.
         -2   -1    0    0    0  501 -0.00000000000E+00 -0.00000000000E+00 -0.47753763936E+03  0.47753763937E+03  0.25500000000E-02 0. -1.
    5000001    1    1    2    0    0  0.42894606685E+03 -0.99264072283E+03  0.70683462703E+03  0.13023711156E+04  0.16500000000E+03 0.  0.
   -5000001    1    1    2    0    0 -0.42894606685E+03  0.99264072283E+03  0.14842448445E+04  0.18437836347E+04  0.16500000000E+03 0.  0.
<mgrwt>
<rscale>  0 0.22577556E+04</rscale>
<asrwt>0</asrwt>
<pdfrwt beam="1">  1        2 0.38123102E+00 0.22577556E+04</pdfrwt>
<pdfrwt beam="2">  1       -2 0.68219662E-01 0.22577556E+04</pdfrwt>
<totfact> 0.64410756E+00</totfact>
</mgrwt>
</event>
<event>
 4    1  0.5280257E-005  0.7762059E+03  0.7818608E-02  0.9595111E-01
          2   -1    0    0  501    0  0.00000000000E+00  0.00000000000E+00  0.17500398558E+03  0.17500398560E+03  0.25500000000E-02 0.  1.
         -2   -1    0    0    0  501 -0.00000000000E+00 -0.00000000000E+00 -0.86068847882E+03  0.86068847882E+03  0.25500000000E-02 0. -1.
    5000001    1    1    2    0    0 -0.16898356614E+03 -0.17967405539E+03 -0.67657948201E+03  0.73879835360E+03  0.16500000000E+03 0.  0.
   -5000001    1    1    2    0    0  0.16898356614E+03  0.17967405539E+03 -0.91050112300E+01  0.29689411082E+03  0.16500000000E+03 0.  0.
<mgrwt>
<rscale>  0 0.77620594E+03</rscale>
<asrwt>0</asrwt>
<pdfrwt beam="1">  1        2 0.25000570E-01 0.77620594E+03</pdfrwt>
<pdfrwt beam="2">  1       -2 0.12295549E+00 0.77620594E+03</pdfrwt>
<totfact> 0.11043649E+02</totfact>
</mgrwt>
</event>
<event>
 4    1  0.5280257E-005  0.6158468E+03  0.7818608E-02  0.9873064E-01
          2   -1    0    0  501    0  0.00000000000E+00  0.00000000000E+00  0.85631357359E+02  0.85631357397E+02  0.25500000000E-02 0.  1.
         -2   -1    0    0    0  501 -0.00000000000E+00 -0.00000000000E+00 -0.11072673578E+04  0.11072673578E+04  0.25500000000E-02 0. -1.
    5000001    1    1    2    0    0  0.19633323156E+03 -0.14511631025E+03 -0.33771507130E+03  0.44819856169E+03  0.16500000000E+03 0.  0.
   -5000001    1    1    2    0    0 -0.19633323156E+03  0.14511631025E+03 -0.68392092912E+03  0.74470015349E+03  0.16500000000E+03 0.  0.
<mgrwt>
<rscale>  0 0.61584676E+03</rscale>
<asrwt>0</asrwt>
<pdfrwt beam="1">  1        2 0.12233052E-01 0.61584676E+03</pdfrwt>
<pdfrwt beam="2">  1       -2 0.15818104E+00 0.61584676E+03</pdfrwt>
<totfact> 0.13624932E+02</totfact>
</mgrwt>
</event>
<event>
 4    1  0.5280257E-005  0.7134584E+03  0.7818608E-02  0.9694489E-01
         -2   -1    0    0    0  501 -0.00000000000E+00  0.00000000000E+00  0.49232186137E+02  0.49232186203E+02  0.25500000000E-02 0. -1.
          2   -1    0    0  501    0  0.00000000000E+00 -0.00000000000E+00 -0.25848075567E+04  0.25848075567E+04  0.25500000000E-02 0.  1.
    5000001    1    1    2    0    0  0.23254682425E+02 -0.30714722462E+03 -0.10028281348E+04  0.10619649080E+04  0.16500000000E+03 0.  0.
   -5000001    1    1    2    0    0 -0.23254682425E+02  0.30714722462E+03 -0.15327472358E+04  0.15720748350E+04  0.16500000000E+03 0.  0.
<mgrwt>
<rscale>  0 0.71345841E+03</rscale>
<asrwt>0</asrwt>
<pdfrwt beam="1">  1        2 0.36925814E+00 0.71345841E+03</pdfrwt>
<pdfrwt beam="2">  1       -2 0.70331711E-02 0.71345841E+03</pdfrwt>
<totfact> 0.49842460E+02</totfact>
</mgrwt>
</event>
<event>
 4    1  0.5280257E-005  0.5415436E+03  0.7818608E-02  0.1003470E+00
         -2   -1    0    0    0  501 -0.00000000000E+00  0.00000000000E+00  0.44503647803E+03  0.44503647804E+03  0.25500000000E-02 0. -1.
          2   -1    0    0  501    0  0.00000000000E+00 -0.00000000000E+00 -0.16474463839E+03  0.16474463841E+03  0.25500000000E-02 0.  1.
    5000001    1    1    2    0    0 -0.18877570885E+03  0.78533569987E+02  0.66406880491E+02  0.27099568934E+03  0.16500000000E+03 0.  0.
   -5000001    1    1    2    0    0  0.18877570885E+03 -0.78533569987E+02  0.21388495915E+03  0.33878542711E+03  0.16500000000E+03 0.  0.
<mgrwt>
<rscale>  0 0.54154362E+03</rscale>
<asrwt>0</asrwt>
<pdfrwt beam="1">  1        2 0.23534948E-01 0.54154362E+03</pdfrwt>
<pdfrwt beam="2">  1       -2 0.63576639E-01 0.54154362E+03</pdfrwt>
<totfact> 0.54222124E+02</totfact>
</mgrwt>
</event>
<event>
 4    1  0.5280257E-005  0.4061019E+03  0.7818608E-02  0.1041687E+00
         -2   -1    0    0    0  501 -0.00000000000E+00  0.00000000000E+00  0.43556153530E+02  0.43556153605E+02  0.25500000000E-02 0. -1.
          2   -1    0    0  501    0  0.00000000000E+00 -0.00000000000E+00 -0.94658687330E+03  0.94658687330E+03  0.25500000000E-02 0.  1.
    5000001    1    1    2    0    0  0.31671619031E+02 -0.80260744579E+02 -0.64898866352E+03  0.67517121084E+03  0.16500000000E+03 0.  0.
   -5000001    1    1    2    0    0 -0.31671619031E+02  0.80260744579E+02 -0.25404205625E+03  0.31497181607E+03  0.16500000000E+03 0.  0.
<mgrwt>
<rscale>  0 0.40610188E+03</rscale>
<asrwt>0</asrwt>
<pdfrwt beam="1">  1        2 0.13522668E+00 0.40610188E+03</pdfrwt>
<pdfrwt beam="2">  1       -2 0.62223082E-02 0.40610188E+03</pdfrwt>
<totfact> 0.44153820E+03</totfact>
</mgrwt>
</event>
<event>
 4    1  0.5280257E-005  0.3954611E+03  0.7818608E-02  0.1045363E+00
         -2   -1    0    0    0  501 -0.00000000000E+00  0.00000000000E+00  0.27356870203E+02  0.27356870322E+02  0.25500000000E-02 0. -1.
          2   -1    0    0  501    0  0.00000000000E+00 -0.00000000000E+00 -0.14291610329E+04  0.14291610329E+04  0.25500000000E-02 0.  1.
    5000001    1    1    2    0    0 -0.40619733069E+02 -0.82532319660E+02 -0.91600279671E+03  0.93527946096E+03  0.16500000000E+03 0.  0.
   -5000001    1    1    2    0    0  0.40619733069E+02  0.82532319660E+02 -0.48580136597E+03  0.52123844225E+03  0.16500000000E+03 0.  0.
<mgrwt>
<rscale>  0 0.39546111E+03</rscale>
<asrwt>0</asrwt>
<pdfrwt beam="1">  1        2 0.20416581E+00 0.39546111E+03</pdfrwt>
<pdfrwt beam="2">  1       -2 0.39081252E-02 0.39546111E+03</pdfrwt>
<totfact> 0.48454873E+03</totfact>
</mgrwt>
</event>
<event>
 4    1  0.5280257E-005  0.4513358E+03  0.7818608E-02  0.1027324E+00
          2   -1    0    0  501    0  0.00000000000E+00  0.00000000000E+00  0.59315650615E+03  0.59315650615E+03  0.25500000000E-02 0.  1.
         -2   -1    0    0    0  501 -0.00000000000E+00 -0.00000000000E+00 -0.85855922676E+02  0.85855922714E+02  0.25500000000E-02 0. -1.
    5000001    1    1    2    0    0  0.15082219387E+03 -0.31534913102E+01  0.20743351682E+03  0.30497695416E+03  0.16500000000E+03 0.  0.
   -5000001    1    1    2    0    0 -0.15082219387E+03  0.31534913102E+01  0.29986706666E+03  0.37403547470E+03  0.16500000000E+03 0.  0.
<mgrwt>
<rscale>  0 0.45133579E+03</rscale>
<asrwt>0</asrwt>
<pdfrwt beam="1">  1        2 0.84736644E-01 0.45133579E+03</pdfrwt>
<pdfrwt beam="2">  1       -2 0.12265132E-01 0.45133579E+03</pdfrwt>
<totfact> 0.26785031E+03</totfact>
</mgrwt>
</event>
<event>
 4    1  0.5280257E-005  0.3904391E+03  0.7818608E-02  0.1047141E+00
          2   -1    0    0  501    0  0.00000000000E+00  0.00000000000E+00  0.25970378779E+03  0.25970378781E+03  0.25500000000E-02 0.  1.
         -2   -1    0    0    0  501 -0.00000000000E+00 -0.00000000000E+00 -0.14674668093E+03  0.14674668095E+03  0.25500000000E-02 0. -1.
    5000001    1    1    2    0    0  0.91147517282E+02  0.50771146140E+02  0.56166764919E+02  0.20313858488E+03  0.16500000000E+03 0.  0.
   -5000001    1    1    2    0    0 -0.91147517282E+02 -0.50771146140E+02  0.56790341946E+02  0.20331188388E+03  0.16500000000E+03 0.  0.
<mgrwt>
<rscale>  0 0.39043908E+03</rscale>
<asrwt>0</asrwt>
<pdfrwt beam="1">  1        2 0.37100541E-01 0.39043908E+03</pdfrwt>
<pdfrwt beam="2">  1       -2 0.20963812E-01 0.39043908E+03</pdfrwt>
<totfact> 0.27064269E+03</totfact>
</mgrwt>
</event>
<event>
 4    1  0.5280257E-005  0.5251636E+03  0.7818608E-02  0.1007412E+00
         -2   -1    0    0    0  501 -0.00000000000E+00  0.00000000000E+00  0.21667247778E+03  0.21667247780E+03  0.25500000000E-02 0. -1.
          2   -1    0    0  501    0  0.00000000000E+00 -0.00000000000E+00 -0.31821849102E+03  0.31821849103E+03  0.25500000000E-02 0.  1.
    5000001    1    1    2    0    0  0.90657505674E+02  0.17342560142E+03 -0.11041502077E+03  0.27876818215E+03  0.16500000000E+03 0.  0.
   -5000001    1    1    2    0    0 -0.90657505674E+02 -0.17342560142E+03  0.88690075391E+01  0.25612278668E+03  0.16500000000E+03 0.  0.
<mgrwt>
<rscale>  0 0.52516355E+03</rscale>
<asrwt>0</asrwt>
<pdfrwt beam="1">  1        2 0.45459785E-01 0.52516355E+03</pdfrwt>
<pdfrwt beam="2">  1       -2 0.30953211E-01 0.52516355E+03</pdfrwt>
<totfact> 0.10805386E+03</totfact>
</mgrwt>
</event>
<event>
 4    1  0.5280257E-005  0.8856984E+03  0.7818608E-02  0.9443638E-01
          2   -1    0    0  501    0  0.00000000000E+00  0.00000000000E+00  0.30953793429E+04  0.30953793429E+04  0.25500000000E-02 0. -1.
         -2   -1    0    0    0  501 -0.00000000000E+00 -0.00000000000E+00 -0.63357476153E+02  0.63357476204E+02  0.25500000000E-02 0.  1.
    5000001    1    1    2    0    0 -0.27411012988E+03  0.10721994598E+03  0.25388716383E+04  0.25611963369E+04  0.16500000000E+03 0.  0.
   -5000001    1    1    2    0    0  0.27411012988E+03 -0.10721994598E+03  0.49315022846E+03  0.59754048227E+03  0.16500000000E+03 0.  0.
<mgrwt>
<rscale>  0 0.88569842E+03</rscale>
<asrwt>0</asrwt>
<pdfrwt beam="1">  1        2 0.44219708E+00 0.88569842E+03</pdfrwt>
<pdfrwt beam="2">  1       -2 0.90510674E-02 0.88569842E+03</pdfrwt>
<totfact> 0.17414724E+02</totfact>
</mgrwt>
</event>
<event>
 4    1  0.5280257E-005  0.5748311E+03  0.7818608E-02  0.9959045E-01
         -2   -1    0    0    0  501 -0.00000000000E+00  0.00000000000E+00  0.30476248939E+02  0.30476249045E+02  0.25500000000E-02 0. -1.
          2   -1    0    0  501    0  0.00000000000E+00 -0.00000000000E+00 -0.27105602031E+04  0.27105602031E+04  0.25500000000E-02 0.  1.
    5000001    1    1    2    0    0 -0.94294020555E+02  0.13832532904E+03 -0.21287428596E+04  0.21416807468E+04  0.16500000000E+03 0.  0.
   -5000001    1    1    2    0    0  0.94294020555E+02 -0.13832532904E+03 -0.55134109456E+03  0.59935570534E+03  0.16500000000E+03 0.  0.
<mgrwt>
<rscale>  0 0.57483113E+03</rscale>
<asrwt>0</asrwt>
<pdfrwt beam="1">  1        2 0.38722273E+00 0.57483113E+03</pdfrwt>
<pdfrwt beam="2">  1       -2 0.43537516E-02 0.57483113E+03</pdfrwt>
<totfact> 0.91685797E+02</totfact>
</mgrwt>
</event>
<event>
 4    1  0.5280257E-005  0.8243116E+03  0.7818608E-02  0.9525479E-01
         -2   -1    0    0    0  501 -0.00000000000E+00  0.00000000000E+00  0.29807170589E+03  0.29807170590E+03  0.25500000000E-02 0. -1.
          2   -1    0    0  501    0  0.00000000000E+00 -0.00000000000E+00 -0.56990447297E+03  0.56990447297E+03  0.25500000000E-02 0.  1.
    5000001    1    1    2    0    0 -0.16335415523E+03 -0.22255909863E+03  0.13547708854E+03  0.34899308579E+03  0.16500000000E+03 0.  0.
   -5000001    1    1    2    0    0  0.16335415523E+03  0.22255909863E+03 -0.40730985562E+03  0.51898309308E+03  0.16500000000E+03 0.  0.
<mgrwt>
<rscale>  0 0.82431159E+03</rscale>
<asrwt>0</asrwt>
<pdfrwt beam="1">  1        2 0.81414924E-01 0.82431159E+03</pdfrwt>
<pdfrwt beam="2">  1       -2 0.42581673E-01 0.82431159E+03</pdfrwt>
<totfact> 0.30285822E+02</totfact>
</mgrwt>
</event>
<event>
 4    1  0.5280257E-005  0.5670172E+03  0.7818608E-02  0.9976301E-01
         -2   -1    0    0    0  501 -0.00000000000E+00  0.00000000000E+00  0.44748792221E+03  0.44748792222E+03  0.25500000000E-02 0. -1.
          2   -1    0    0  501    0  0.00000000000E+00 -0.00000000000E+00 -0.17961852126E+03  0.17961852128E+03  0.25500000000E-02 0.  1.
    5000001    1    1    2    0    0 -0.16257445710E+03 -0.36746249485E+00  0.31472524322E+03  0.39077815682E+03  0.16500000000E+03 0.  0.
   -5000001    1    1    2    0    0  0.16257445710E+03  0.36746249485E+00 -0.46855842272E+02  0.23632828668E+03  0.16500000000E+03 0.  0.
<mgrwt>
<rscale>  0 0.56701717E+03</rscale>
<asrwt>0</asrwt>
<pdfrwt beam="1">  1        2 0.25659788E-01 0.56701717E+03</pdfrwt>
<pdfrwt beam="2">  1       -2 0.63926847E-01 0.56701717E+03</pdfrwt>
<totfact> 0.48534239E+02</totfact>
</mgrwt>
</event>
<event>
 4    1  0.5280257E-005  0.3798330E+03  0.7818608E-02  0.1050995E+00
         -2   -1    0    0    0  501 -0.00000000000E+00  0.00000000000E+00  0.11048841544E+02  0.11048841838E+02  0.25500000000E-02 0. -1.
          2   -1    0    0  501    0  0.00000000000E+00 -0.00000000000E+00 -0.32644403541E+04  0.32644403541E+04  0.25500000000E-02 0.  1.
    5000001    1    1    2    0    0 -0.38552070872E+02  0.71641925480E+02 -0.12199758379E+04  0.12337685653E+04  0.16500000000E+03 0.  0.
   -5000001    1    1    2    0    0  0.38552070872E+02 -0.71641925480E+02 -0.20334156746E+04  0.20417206306E+04  0.16500000000E+03 0.  0.
<mgrwt>
<rscale>  0 0.37983304E+03</rscale>
<asrwt>0</asrwt>
<pdfrwt beam="1">  1        2 0.46634801E+00 0.37983304E+03</pdfrwt>
<pdfrwt beam="2">  1       -2 0.15784080E-02 0.37983304E+03</pdfrwt>
<totfact> 0.21606012E+03</totfact>
</mgrwt>
</event>
<event>
 4    1  0.5280257E-005  0.4000924E+03  0.7818608E-02  0.1043748E+00
          2   -1    0    0  501    0  0.00000000000E+00  0.00000000000E+00  0.22845688409E+03  0.22845688410E+03  0.25500000000E-02 0.  1.
         -2   -1    0    0    0  501 -0.00000000000E+00 -0.00000000000E+00 -0.17516868401E+03  0.17516868403E+03  0.25500000000E-02 0. -1.
    5000001    1    1    2    0    0 -0.11098694184E+03  0.12283313829E+02  0.84708409283E+01  0.19941348050E+03  0.16500000000E+03 0.  0.
   -5000001    1    1    2    0    0  0.11098694184E+03 -0.12283313829E+02  0.44817359147E+02  0.20421208764E+03  0.16500000000E+03 0.  0.
<mgrwt>
<rscale>  0 0.40009245E+03</rscale>
<asrwt>0</asrwt>
<pdfrwt beam="1">  1        2 0.32636698E-01 0.40009245E+03</pdfrwt>
<pdfrwt beam="2">  1       -2 0.25024098E-01 0.40009245E+03</pdfrwt>
<totfact> 0.22838606E+03</totfact>
</mgrwt>
</event>
<event>
 4    1  0.5280257E-005  0.3916370E+03  0.7818608E-02  0.1046715E+00
          2   -1    0    0  501    0  0.00000000000E+00  0.00000000000E+00  0.15205954704E+04  0.15205954704E+04  0.25500000000E-02 0.  1.
         -2   -1    0    0    0  501 -0.00000000000E+00 -0.00000000000E+00 -0.25217023288E+02  0.25217023417E+02  0.25500000000E-02 0. -1.
    5000001    1    1    2    0    0 -0.24452047007E+01 -0.10537271972E+03  0.73489784205E+03  0.76053220006E+03  0.16500000000E+03 0.  0.
   -5000001    1    1    2    0    0  0.24452047007E+01  0.10537271972E+03  0.76048060511E+03  0.78528029380E+03  0.16500000000E+03 0.  0.
<mgrwt>
<rscale>  0 0.39163703E+03</rscale>
<asrwt>0</asrwt>
<pdfrwt beam="1">  1        2 0.21722794E+00 0.39163703E+03</pdfrwt>
<pdfrwt beam="2">  1       -2 0.36024317E-02 0.39163703E+03</pdfrwt>
<totfact> 0.49186795E+03</totfact>
</mgrwt>
</event>
<event>
 4    1  0.5280257E-005  0.4838182E+03  0.7818608E-02  0.1018091E+00
          2   -1    0    0  501    0  0.00000000000E+00  0.00000000000E+00  0.37142223807E+03  0.37142223807E+03  0.25500000000E-02 0.  1.
         -2   -1    0    0    0  501 -0.00000000000E+00 -0.00000000000E+00 -0.15755654423E+03  0.15755654425E+03  0.25500000000E-02 0. -1.
    5000001    1    1    2    0    0  0.14592078964E+03 -0.97875396978E+02  0.12940718795E+03  0.27357574907E+03  0.16500000000E+03 0.  0.
   -5000001    1    1    2    0    0 -0.14592078964E+03  0.97875396978E+02  0.84458505883E+02  0.25540303326E+03  0.16500000000E+03 0.  0.
<mgrwt>
<rscale>  0 0.48381817E+03</rscale>
<asrwt>0</asrwt>
<pdfrwt beam="1">  1        2 0.53060319E-01 0.48381817E+03</pdfrwt>
<pdfrwt beam="2">  1       -2 0.22508078E-01 0.48381817E+03</pdfrwt>
<totfact> 0.16197427E+03</totfact>
</mgrwt>
</event>
<event>
 4    1  0.5280257E-005  0.6013717E+03  0.7818608E-02  0.9902564E-01
          2   -1    0    0  501    0  0.00000000000E+00  0.00000000000E+00  0.12373895498E+04  0.12373895498E+04  0.25500000000E-02 0.  1.
         -2   -1    0    0    0  501 -0.00000000000E+00 -0.00000000000E+00 -0.73066707616E+02  0.73066707661E+02  0.25500000000E-02 0. -1.
    5000001    1    1    2    0    0 -0.14899566475E+03  0.74662335427E+02  0.99223305115E+03  0.10195712826E+04  0.16500000000E+03 0.  0.
   -5000001    1    1    2    0    0  0.14899566475E+03 -0.74662335427E+02  0.17208979105E+03  0.29088497491E+03  0.16500000000E+03 0.  0.
<mgrwt>
<rscale>  0 0.60137170E+03</rscale>
<asrwt>0</asrwt>
<pdfrwt beam="1">  1        2 0.17676993E+00 0.60137170E+03</pdfrwt>
<pdfrwt beam="2">  1       -2 0.10438102E-01 0.60137170E+03</pdfrwt>
<totfact> 0.13139361E+03</totfact>
</mgrwt>
</event>
<event>
 4    1  0.5280257E-005  0.5057700E+03  0.7818608E-02  0.1012284E+00
          2   -1    0    0  501    0  0.00000000000E+00  0.00000000000E+00  0.99849040201E+03  0.99849040201E+03  0.25500000000E-02 0.  1.
         -2   -1    0    0    0  501 -0.00000000000E+00 -0.00000000000E+00 -0.64047503896E+02  0.64047503947E+02  0.25500000000E-02 0. -1.
    5000001    1    1    2    0    0  0.93366192163E+02  0.11955159659E+03  0.71326100297E+03  0.74764703467E+03  0.16500000000E+03 0.  0.
   -5000001    1    1    2    0    0 -0.93366192163E+02 -0.11955159659E+03  0.22118189514E+03  0.31489087129E+03  0.16500000000E+03 0.  0.
<mgrwt>
<rscale>  0 0.50576998E+03</rscale>
<asrwt>0</asrwt>
<pdfrwt beam="1">  1        2 0.14264150E+00 0.50576998E+03</pdfrwt>
<pdfrwt beam="2">  1       -2 0.91496428E-02 0.50576998E+03</pdfrwt>
<totfact> 0.22363682E+03</totfact>
</mgrwt>
</event>
<event>
 4    1  0.5280257E-005  0.4894797E+03  0.7818608E-02  0.1016562E+00
         -2   -1    0    0    0  501 -0.00000000000E+00  0.00000000000E+00  0.10455367896E+03  0.10455367899E+03  0.25500000000E-02 0. -1.
          2   -1    0    0  501    0  0.00000000000E+00 -0.00000000000E+00 -0.57288847155E+03  0.57288847156E+03  0.25500000000E-02 0.  1.
    5000001    1    1    2    0    0 -0.60163272354E+01 -0.16047389268E+03 -0.34900250764E+03  0.41810981424E+03  0.16500000000E+03 0.  0.
   -5000001    1    1    2    0    0  0.60163272354E+01  0.16047389268E+03 -0.11933228496E+03  0.25933233631E+03  0.16500000000E+03 0.  0.
<mgrwt>
<rscale>  0 0.48947971E+03</rscale>
<asrwt>0</asrwt>
<pdfrwt beam="1">  1        2 0.81841208E-01 0.48947971E+03</pdfrwt>
<pdfrwt beam="2">  1       -2 0.14936240E-01 0.48947971E+03</pdfrwt>
<totfact> 0.20133672E+03</totfact>
</mgrwt>
</event>
<event>
 4    1  0.5280257E-005  0.5352005E+03  0.7818608E-02  0.1004979E+00
          2   -1    0    0  501    0  0.00000000000E+00  0.00000000000E+00  0.30556402370E+04  0.30556402370E+04  0.25500000000E-02 0.  1.
         -2   -1    0    0    0  501 -0.00000000000E+00 -0.00000000000E+00 -0.23435317666E+02  0.23435317805E+02  0.25500000000E-02 0. -1.
    5000001    1    1    2    0    0 -0.14143206276E+03 -0.14141736603E+03  0.18969836756E+04  0.19146211023E+04  0.16500000000E+03 0.  0.
   -5000001    1    1    2    0    0  0.14143206276E+03  0.14141736603E+03  0.11352212438E+04  0.11644544526E+04  0.16500000000E+03 0.  0.
<mgrwt>
<rscale>  0 0.53520052E+03</rscale>
<asrwt>0</asrwt>
<pdfrwt beam="1">  1        2 0.43651999E+00 0.53520052E+03</pdfrwt>
<pdfrwt beam="2">  1       -2 0.33479029E-02 0.53520052E+03</pdfrwt>
<totfact> 0.89976838E+02</totfact>
</mgrwt>
</event>
<event>
 4    1  0.5280257E-005  0.4166629E+03  0.7818608E-02  0.1038158E+00
          2   -1    0    0  501    0  0.00000000000E+00  0.00000000000E+00  0.13342879217E+04  0.13342879217E+04  0.25500000000E-02 0.  1.
         -2   -1    0    0    0  501 -0.00000000000E+00 -0.00000000000E+00 -0.32528201556E+02  0.32528201656E+02  0.25500000000E-02 0. -1.
    5000001    1    1    2    0    0  0.99256986674E+01 -0.12543458744E+03  0.71177780723E+03  0.74140744675E+03  0.16500000000E+03 0.  0.
   -5000001    1    1    2    0    0 -0.99256986674E+01  0.12543458744E+03  0.58998191292E+03  0.62540867662E+03  0.16500000000E+03 0.  0.
<mgrwt>
<rscale>  0 0.41666287E+03</rscale>
<asrwt>0</asrwt>
<pdfrwt beam="1">  1        2 0.19061255E+00 0.41666287E+03</pdfrwt>
<pdfrwt beam="2">  1       -2 0.46468863E-02 0.41666287E+03</pdfrwt>
<totfact> 0.41743745E+03</totfact>
</mgrwt>
</event>
<event>
 4    1  0.5280257E-005  0.3894639E+03  0.7818608E-02  0.1047490E+00
         -2   -1    0    0    0  501 -0.00000000000E+00  0.00000000000E+00  0.37011655791E+02  0.37011655879E+02  0.25500000000E-02 0. -1.
          2   -1    0    0  501    0  0.00000000000E+00 -0.00000000000E+00 -0.10245566217E+04  0.10245566217E+04  0.25500000000E-02 0.  1.
    5000001    1    1    2    0    0 -0.95854272806E+02 -0.17868715407E+02 -0.39981610062E+03  0.44337934878E+03  0.16500000000E+03 0.  0.
   -5000001    1    1    2    0    0  0.95854272806E+02  0.17868715407E+02 -0.58772886528E+03  0.61818892880E+03  0.16500000000E+03 0.  0.
<mgrwt>
<rscale>  0 0.38946392E+03</rscale>
<asrwt>0</asrwt>
<pdfrwt beam="1">  1        2 0.14636522E+00 0.38946392E+03</pdfrwt>
<pdfrwt beam="2">  1       -2 0.52873800E-02 0.38946392E+03</pdfrwt>
<totfact> 0.50923800E+03</totfact>
</mgrwt>
</event>
<event>
 4    1  0.5280257E-005  0.5067553E+03  0.7818608E-02  0.1012031E+00
          2   -1    0    0  501    0  0.00000000000E+00  0.00000000000E+00  0.11859048913E+04  0.11859048913E+04  0.25500000000E-02 0.  1.
         -2   -1    0    0    0  501 -0.00000000000E+00 -0.00000000000E+00 -0.54136068281E+02  0.54136068341E+02  0.25500000000E-02 0. -1.
    5000001    1    1    2    0    0 -0.18444229174E+03  0.53634634666E+02  0.58771578994E+03  0.63994568736E+03  0.16500000000E+03 0.  0.
   -5000001    1    1    2    0    0  0.18444229174E+03 -0.53634634666E+02  0.54405303306E+03  0.60009527227E+03  0.16500000000E+03 0.  0.
<mgrwt>
<rscale>  0 0.50675528E+03</rscale>
<asrwt>0</asrwt>
<pdfrwt beam="1">  1        2 0.16941498E+00 0.50675528E+03</pdfrwt>
<pdfrwt beam="2">  1       -2 0.77337241E-02 0.50675528E+03</pdfrwt>
<totfact> 0.22751705E+03</totfact>
</mgrwt>
</event>
<event>
 4    1  0.5280257E-005  0.5344316E+03  0.7818608E-02  0.1005163E+00
          2   -1    0    0  501    0  0.00000000000E+00  0.00000000000E+00  0.16166919669E+03  0.16166919671E+03  0.25500000000E-02 0.  1.
         -2   -1    0    0    0  501 -0.00000000000E+00 -0.00000000000E+00 -0.44166913170E+03  0.44166913171E+03  0.25500000000E-02 0. -1.
    5000001    1    1    2    0    0  0.13271468695E+03 -0.13127721184E+03 -0.24905994689E+03  0.35228220452E+03  0.16500000000E+03 0.  0.
   -5000001    1    1    2    0    0 -0.13271468695E+03  0.13127721184E+03 -0.30939988131E+02  0.25105612390E+03  0.16500000000E+03 0.  0.
<mgrwt>
<rscale>  0 0.53443164E+03</rscale>
<asrwt>0</asrwt>
<pdfrwt beam="1">  1        2 0.23095600E-01 0.53443164E+03</pdfrwt>
<pdfrwt beam="2">  1       -2 0.63095590E-01 0.53443164E+03</pdfrwt>
<totfact> 0.56313102E+02</totfact>
</mgrwt>
</event>
<event>
 4    1  0.5280257E-005  0.4217250E+03  0.7818608E-02  0.1036506E+00
         -2   -1    0    0    0  501 -0.00000000000E+00  0.00000000000E+00  0.57445503103E+03  0.57445503104E+03  0.25500000000E-02 0. -1.
          2   -1    0    0  501    0  0.00000000000E+00 -0.00000000000E+00 -0.77400312819E+02  0.77400312861E+02  0.25500000000E-02 0.  1.
    5000001    1    1    2    0    0 -0.54858673719E+02 -0.10256493400E+03  0.34266165848E+03  0.39770724404E+03  0.16500000000E+03 0.  0.
   -5000001    1    1    2    0    0  0.54858673719E+02  0.10256493400E+03  0.15439305974E+03  0.25414809987E+03  0.16500000000E+03 0.  0.
<mgrwt>
<rscale>  0 0.42172502E+03</rscale>
<asrwt>0</asrwt>
<pdfrwt beam="1">  1        2 0.11057188E-01 0.42172502E+03</pdfrwt>
<pdfrwt beam="2">  1       -2 0.82065002E-01 0.42172502E+03</pdfrwt>
<totfact> 0.76659461E+02</totfact>
</mgrwt>
</event>
<event>
 4    1  0.5280257E-005  0.4524164E+03  0.7818608E-02  0.1027004E+00
         -2   -1    0    0    0  501 -0.00000000000E+00  0.00000000000E+00  0.39569791129E+02  0.39569791211E+02  0.25500000000E-02 0. -1.
          2   -1    0    0  501    0  0.00000000000E+00 -0.00000000000E+00 -0.12931617884E+04  0.12931617884E+04  0.25500000000E-02 0.  1.
    5000001    1    1    2    0    0  0.50949154485E+02 -0.14037963135E+03 -0.50739501018E+03  0.55405500954E+03  0.16500000000E+03 0.  0.
   -5000001    1    1    2    0    0 -0.50949154485E+02  0.14037963135E+03 -0.74619698710E+03  0.77867657008E+03  0.16500000000E+03 0.  0.
<mgrwt>
<rscale>  0 0.45241637E+03</rscale>
<asrwt>0</asrwt>
<pdfrwt beam="1">  1        2 0.18473737E+00 0.45241637E+03</pdfrwt>
<pdfrwt beam="2">  1       -2 0.56528281E-02 0.45241637E+03</pdfrwt>
<totfact> 0.32473421E+03</totfact>
</mgrwt>
</event>
<event>
 4    1  0.5280257E-005  0.3850432E+03  0.7818608E-02  0.1049085E+00
         -2   -1    0    0    0  501 -0.00000000000E+00  0.00000000000E+00  0.17965020766E+02  0.17965020947E+02  0.25500000000E-02 0. -1.
          2   -1    0    0  501    0  0.00000000000E+00 -0.00000000000E+00 -0.20631513654E+04  0.20631513654E+04  0.25500000000E-02 0.  1.
    5000001    1    1    2    0    0  0.22582762296E+02 -0.95454637389E+02 -0.94279303891E+03  0.96213579248E+03  0.16500000000E+03 0.  0.
   -5000001    1    1    2    0    0 -0.22582762296E+02  0.95454637389E+02 -0.11023933058E+04  0.11189805939E+04  0.16500000000E+03 0.  0.
<mgrwt>
<rscale>  0 0.38504315E+03</rscale>
<asrwt>0</asrwt>
<pdfrwt beam="1">  1        2 0.29473576E+00 0.38504315E+03</pdfrwt>
<pdfrwt beam="2">  1       -2 0.25664329E-02 0.38504315E+03</pdfrwt>
<totfact> 0.43927970E+03</totfact>
</mgrwt>
</event>
<event>
 4    1  0.5280257E-005  0.5624582E+03  0.7818608E-02  0.9986508E-01
          2   -1    0    0  501    0  0.00000000000E+00  0.00000000000E+00  0.17721999547E+03  0.17721999549E+03  0.25500000000E-02 0.  1.
         -2   -1    0    0    0  501 -0.00000000000E+00 -0.00000000000E+00 -0.44628043436E+03  0.44628043437E+03  0.25500000000E-02 0. -1.
    5000001    1    1    2    0    0 -0.19604503282E+03 -0.55727318260E+02 -0.21887089912E+02  0.26314109067E+03  0.16500000000E+03 0.  0.
   -5000001    1    1    2    0    0  0.19604503282E+03  0.55727318260E+02 -0.24717334898E+03  0.36035933919E+03  0.16500000000E+03 0.  0.
<mgrwt>
<rscale>  0 0.56245824E+03</rscale>
<asrwt>0</asrwt>
<pdfrwt beam="1">  1        2 0.25317142E-01 0.56245824E+03</pdfrwt>
<pdfrwt beam="2">  1       -2 0.63754348E-01 0.56245824E+03</pdfrwt>
<totfact> 0.49570839E+02</totfact>
</mgrwt>
</event>
<event>
 4    1  0.5280257E-005  0.7541089E+03  0.7818608E-02  0.9628926E-01
          2   -1    0    0  501    0  0.00000000000E+00  0.00000000000E+00  0.16010117578E+04  0.16010117578E+04  0.25500000000E-02 0.  1.
         -2   -1    0    0    0  501 -0.00000000000E+00 -0.00000000000E+00 -0.88800126146E+02  0.88800126183E+02  0.25500000000E-02 0. -1.
    5000001    1    1    2    0    0 -0.33833233655E+03 -0.76806323343E+01  0.71033167666E+03  0.80394269257E+03  0.16500000000E+03 0.  0.
   -5000001    1    1    2    0    0  0.33833233655E+03  0.76806323343E+01  0.80187995495E+03  0.88586919137E+03  0.16500000000E+03 0.  0.
<mgrwt>
<rscale>  0 0.75410887E+03</rscale>
<asrwt>0</asrwt>
<pdfrwt beam="1">  1        2 0.22871597E+00 0.75410887E+03</pdfrwt>
<pdfrwt beam="2">  1       -2 0.12685732E-01 0.75410887E+03</pdfrwt>
<totfact> 0.60659805E+02</totfact>
</mgrwt>
</event>
<event>
 4    1  0.5280257E-005  0.5586914E+03  0.7818608E-02  0.9995020E-01
         -2   -1    0    0    0  501 -0.00000000000E+00  0.00000000000E+00  0.30651132127E+02  0.30651132233E+02  0.25500000000E-02 0. -1.
          2   -1    0    0  501    0  0.00000000000E+00 -0.00000000000E+00 -0.25458774575E+04  0.25458774575E+04  0.25500000000E-02 0.  1.
    5000001    1    1    2    0    0  0.22456904375E+03 -0.56988212756E+00 -0.11680167663E+04  0.12007996280E+04  0.16500000000E+03 0.  0.
   -5000001    1    1    2    0    0 -0.22456904375E+03  0.56988212756E+00 -0.13472095591E+04  0.13757289618E+04  0.16500000000E+03 0.  0.
<mgrwt>
<rscale>  0 0.55869142E+03</rscale>
<asrwt>0</asrwt>
<pdfrwt beam="1">  1        2 0.36369664E+00 0.55869142E+03</pdfrwt>
<pdfrwt beam="2">  1       -2 0.43787348E-02 0.55869142E+03</pdfrwt>
<totfact> 0.11076575E+03</totfact>
</mgrwt>
</event>
<event>
 4    1  0.5280257E-005  0.4285946E+03  0.7818608E-02  0.1034305E+00
         -2   -1    0    0    0  501 -0.00000000000E+00  0.00000000000E+00  0.65722165375E+02  0.65722165425E+02  0.25500000000E-02 0. -1.
          2   -1    0    0  501    0  0.00000000000E+00 -0.00000000000E+00 -0.69874955652E+03  0.69874955653E+03  0.25500000000E-02 0.  1.
    5000001    1    1    2    0    0  0.10616556612E+03  0.47639255310E+01 -0.16302975832E+03  0.25514216530E+03  0.16500000000E+03 0.  0.
   -5000001    1    1    2    0    0 -0.10616556612E+03 -0.47639255310E+01 -0.46999763282E+03  0.50932955665E+03  0.16500000000E+03 0.  0.
<mgrwt>
<rscale>  0 0.42859461E+03</rscale>
<asrwt>0</asrwt>
<pdfrwt beam="1">  1        2 0.99821361E-01 0.42859461E+03</pdfrwt>
<pdfrwt beam="2">  1       -2 0.93888812E-02 0.42859461E+03</pdfrwt>
<totfact> 0.33985521E+03</totfact>
</mgrwt>
</event>
<event>
 4    1  0.5280257E-005  0.4160065E+03  0.7818608E-02  0.1038374E+00
          2   -1    0    0  501    0  0.00000000000E+00  0.00000000000E+00  0.65993733516E+02  0.65993733565E+02  0.25500000000E-02 0.  1.
         -2   -1    0    0    0  501 -0.00000000000E+00 -0.00000000000E+00 -0.65559789611E+03  0.65559789611E+03  0.25500000000E-02 0. -1.
    5000001    1    1    2    0    0 -0.12364548709E+03 -0.18268458156E+02 -0.33028279149E+03  0.38978669217E+03  0.16500000000E+03 0.  0.
   -5000001    1    1    2    0    0  0.12364548709E+03  0.18268458156E+02 -0.25932137110E+03  0.33180493750E+03  0.16500000000E+03 0.  0.
<mgrwt>
<rscale>  0 0.41600650E+03</rscale>
<asrwt>0</asrwt>
<pdfrwt beam="1">  1        2 0.94276766E-02 0.41600650E+03</pdfrwt>
<pdfrwt beam="2">  1       -2 0.93656839E-01 0.41600650E+03</pdfrwt>
<totfact> 0.69383613E+02</totfact>
</mgrwt>
</event>
<event>
 4    1  0.5280257E-005  0.1131961E+04  0.7818608E-02  0.9174589E-01
          2   -1    0    0  501    0  0.00000000000E+00  0.00000000000E+00  0.98354202728E+03  0.98354202728E+03  0.25500000000E-02 0.  1.
         -2   -1    0    0    0  501 -0.00000000000E+00 -0.00000000000E+00 -0.32569413333E+03  0.32569413334E+03  0.25500000000E-02 0. -1.
    5000001    1    1    2    0    0 -0.22903188372E+03 -0.16506882388E+03  0.86322917031E+03  0.92308879359E+03  0.16500000000E+03 0.  0.
   -5000001    1    1    2    0    0  0.22903188372E+03  0.16506882388E+03 -0.20538127637E+03  0.38614736703E+03  0.16500000000E+03 0.  0.
<mgrwt>
<rscale>  0 0.11319609E+04</rscale>
<asrwt>0</asrwt>
<pdfrwt beam="1">  1        2 0.14050600E+00 0.11319609E+04</pdfrwt>
<pdfrwt beam="2">  1       -2 0.46527734E-01 0.11319609E+04</pdfrwt>
<totfact> 0.12473666E+02</totfact>
</mgrwt>
</event>
<event>
 4    1  0.5280257E-005  0.6581357E+03  0.7818608E-02  0.9791632E-01
          2   -1    0    0  501    0  0.00000000000E+00  0.00000000000E+00  0.15443739646E+04  0.15443739646E+04  0.25500000000E-02 0.  1.
         -2   -1    0    0    0  501 -0.00000000000E+00 -0.00000000000E+00 -0.70116218059E+02  0.70116218105E+02  0.25500000000E-02 0. -1.
    5000001    1    1    2    0    0 -0.80484084345E+02 -0.27151174475E+03  0.66500752568E+03  0.74138810658E+03  0.16500000000E+03 0.  0.
   -5000001    1    1    2    0    0  0.80484084345E+02  0.27151174475E+03  0.80925022089E+03  0.87310207615E+03  0.16500000000E+03 0.  0.
<mgrwt>
<rscale>  0 0.65813574E+03</rscale>
<asrwt>0</asrwt>
<pdfrwt beam="1">  1        2 0.22062484E+00 0.65813574E+03</pdfrwt>
<pdfrwt beam="2">  1       -2 0.10016603E-01 0.65813574E+03</pdfrwt>
<totfact> 0.96114331E+02</totfact>
</mgrwt>
</event>
<event>
 4    1  0.5280257E-005  0.4712892E+03  0.7818608E-02  0.1021557E+00
         -2   -1    0    0    0  501 -0.00000000000E+00  0.00000000000E+00  0.32832685799E+02  0.32832685898E+02  0.25500000000E-02 0. -1.
          2   -1    0    0  501    0  0.00000000000E+00 -0.00000000000E+00 -0.16912527274E+04  0.16912527274E+04  0.25500000000E-02 0.  1.
    5000001    1    1    2    0    0 -0.27046861380E+02 -0.10327978720E+03 -0.13048523314E+04  0.13195691926E+04  0.16500000000E+03 0.  0.
   -5000001    1    1    2    0    0  0.27046861380E+02  0.10327978720E+03 -0.35356771018E+03  0.40451622074E+03  0.16500000000E+03 0.  0.
<mgrwt>
<rscale>  0 0.47128917E+03</rscale>
<asrwt>0</asrwt>
<pdfrwt beam="1">  1        2 0.24160748E+00 0.47128917E+03</pdfrwt>
<pdfrwt beam="2">  1       -2 0.46903848E-02 0.47128917E+03</pdfrwt>
<totfact> 0.26928572E+03</totfact>
</mgrwt>
</event>
<event>
 4    1  0.5280257E-005  0.4687593E+03  0.7818608E-02  0.1022271E+00
          2   -1    0    0  501    0  0.00000000000E+00  0.00000000000E+00  0.83572676852E+03  0.83572676852E+03  0.25500000000E-02 0.  1.
         -2   -1    0    0    0  501 -0.00000000000E+00 -0.00000000000E+00 -0.65731784839E+02  0.65731784888E+02  0.25500000000E-02 0. -1.
    5000001    1    1    2    0    0 -0.10805130081E+03  0.11081500885E+03  0.26717470604E+03  0.35008909343E+03  0.16500000000E+03 0.  0.
   -5000001    1    1    2    0    0  0.10805130081E+03 -0.11081500885E+03  0.50282027764E+03  0.55136945998E+03  0.16500000000E+03 0.  0.
<mgrwt>
<rscale>  0 0.46875927E+03</rscale>
<asrwt>0</asrwt>
<pdfrwt beam="1">  1        2 0.11938954E+00 0.46875927E+03</pdfrwt>
<pdfrwt beam="2">  1       -2 0.93902547E-02 0.46875927E+03</pdfrwt>
<totfact> 0.27210572E+03</totfact>
</mgrwt>
</event>
<event>
 4    1  0.5280257E-005  0.4327348E+03  0.7818608E-02  0.1033000E+00
          2   -1    0    0  501    0  0.00000000000E+00  0.00000000000E+00  0.24709271980E+03  0.24709271981E+03  0.25500000000E-02 0. -1.
         -2   -1    0    0    0  501 -0.00000000000E+00 -0.00000000000E+00 -0.18946267179E+03  0.18946267181E+03  0.25500000000E-02 0.  1.
    5000001    1    1    2    0    0  0.72218578811E+02 -0.30544375473E+02 -0.88145483032E+02  0.20283763994E+03  0.16500000000E+03 0.  0.
   -5000001    1    1    2    0    0 -0.72218578811E+02  0.30544375473E+02  0.14577553104E+03  0.23371775168E+03  0.16500000000E+03 0.  0.
<mgrwt>
<rscale>  0 0.43273478E+03</rscale>
<asrwt>0</asrwt>
<pdfrwt beam="1">  1        2 0.35298960E-01 0.43273478E+03</pdfrwt>
<pdfrwt beam="2">  1       -2 0.27066096E-01 0.43273478E+03</pdfrwt>
<totfact> 0.18217655E+03</totfact>
</mgrwt>
</event>
<event>
 4    1  0.5280257E-005  0.5448190E+03  0.7818608E-02  0.1002700E+00
          2   -1    0    0  501    0  0.00000000000E+00  0.00000000000E+00  0.18796660677E+04  0.18796660677E+04  0.25500000000E-02 0.  1.
         -2   -1    0    0    0  501 -0.00000000000E+00 -0.00000000000E+00 -0.39478782238E+02  0.39478782320E+02  0.25500000000E-02 0. -1.
    5000001    1    1    2    0    0 -0.17390517728E+02 -0.12894692921E+03  0.15307453478E+04  0.15451006635E+04  0.16500000000E+03 0.  0.
   -5000001    1    1    2    0    0  0.17390517728E+02  0.12894692921E+03  0.30944193768E+03  0.37404418650E+03  0.16500000000E+03 0.  0.
<mgrwt>
<rscale>  0 0.54481897E+03</rscale>
<asrwt>0</asrwt>
<pdfrwt beam="1">  1        2 0.26852380E+00 0.54481897E+03</pdfrwt>
<pdfrwt beam="2">  1       -2 0.56398244E-02 0.54481897E+03</pdfrwt>
<totfact> 0.16239016E+03</totfact>
</mgrwt>
</event>
<event>
 4    1  0.5280257E-005  0.6478547E+03  0.7818608E-02  0.9810813E-01
          2   -1    0    0  501    0  0.00000000000E+00  0.00000000000E+00  0.86302144308E+03  0.86302144309E+03  0.25500000000E-02 0.  1.
         -2   -1    0    0    0  501 -0.00000000000E+00 -0.00000000000E+00 -0.12158323553E+03  0.12158323556E+03  0.25500000000E-02 0. -1.
    5000001    1    1    2    0    0  0.24405489522E+03 -0.65225709401E+02  0.19162361999E+03  0.35743782227E+03  0.16500000000E+03 0.  0.
   -5000001    1    1    2    0    0 -0.24405489522E+03  0.65225709401E+02  0.54981458756E+03  0.62716685638E+03  0.16500000000E+03 0.  0.
<mgrwt>
<rscale>  0 0.64785473E+03</rscale>
<asrwt>0</asrwt>
<pdfrwt beam="1">  1        2 0.12328878E+00 0.64785473E+03</pdfrwt>
<pdfrwt beam="2">  1       -2 0.17369033E-01 0.64785473E+03</pdfrwt>
<totfact> 0.94153701E+02</totfact>
</mgrwt>
</event>
<event>
 4    1  0.5280257E-005  0.4645185E+03  0.7818608E-02  0.1023479E+00
          2   -1    0    0  501    0  0.00000000000E+00  0.00000000000E+00  0.15124560995E+04  0.15124560995E+04  0.25500000000E-02 0.  1.
         -2   -1    0    0    0  501 -0.00000000000E+00 -0.00000000000E+00 -0.35666732336E+02  0.35666732427E+02  0.25500000000E-02 0. -1.
    5000001    1    1    2    0    0  0.11047708012E+03 -0.12033830735E+03  0.71928624019E+03  0.75583343984E+03  0.16500000000E+03 0.  0.
   -5000001    1    1    2    0    0 -0.11047708012E+03  0.12033830735E+03  0.75750312700E+03  0.79228939212E+03  0.16500000000E+03 0.  0.
<mgrwt>
<rscale>  0 0.46451853E+03</rscale>
<asrwt>0</asrwt>
<pdfrwt beam="1">  1        2 0.21606518E+00 0.46451853E+03</pdfrwt>
<pdfrwt beam="2">  1       -2 0.50952470E-02 0.46451853E+03</pdfrwt>
<totfact> 0.29236700E+03</totfact>
</mgrwt>
</event>
<event>
 4    1  0.5280257E-005  0.5284884E+03  0.7818608E-02  0.1006599E+00
          2   -1    0    0  501    0  0.00000000000E+00  0.00000000000E+00  0.15703868131E+04  0.15703868131E+04  0.25500000000E-02 0.  1.
         -2   -1    0    0    0  501 -0.00000000000E+00 -0.00000000000E+00 -0.44463567117E+02  0.44463567191E+02  0.25500000000E-02 0. -1.
    5000001    1    1    2    0    0  0.42467527276E+02 -0.17120116181E+03  0.10904485078E+04  0.11168779149E+04  0.16500000000E+03 0.  0.
   -5000001    1    1    2    0    0 -0.42467527276E+02  0.17120116181E+03  0.43547473825E+03  0.49797246543E+03  0.16500000000E+03 0.  0.
<mgrwt>
<rscale>  0 0.52848841E+03</rscale>
<asrwt>0</asrwt>
<pdfrwt beam="1">  1        2 0.22434093E+00 0.52848841E+03</pdfrwt>
<pdfrwt beam="2">  1       -2 0.63519395E-02 0.52848841E+03</pdfrwt>
<totfact> 0.19351500E+03</totfact>
</mgrwt>
</event>
<event>
 4    1  0.5280257E-005  0.5708934E+03  0.7818608E-02  0.9967704E-01
         -2   -1    0    0    0  501 -0.00000000000E+00  0.00000000000E+00  0.18006293815E+03  0.18006293817E+03  0.25500000000E-02 0. -1.
          2   -1    0    0  501    0  0.00000000000E+00 -0.00000000000E+00 -0.45250744884E+03  0.45250744884E+03  0.25500000000E-02 0.  1.
    5000001    1    1    2    0    0  0.23746986493E+02 -0.12893828875E+03  0.77102192329E+02  0.22440755276E+03  0.16500000000E+03 0.  0.
   -5000001    1    1    2    0    0 -0.23746986493E+02  0.12893828875E+03 -0.34954670302E+03  0.40816283425E+03  0.16500000000E+03 0.  0.
<mgrwt>
<rscale>  0 0.57089341E+03</rscale>
<asrwt>0</asrwt>
<pdfrwt beam="1">  1        2 0.64643921E-01 0.57089341E+03</pdfrwt>
<pdfrwt beam="2">  1       -2 0.25723277E-01 0.57089341E+03</pdfrwt>
<totfact> 0.10257752E+03</totfact>
</mgrwt>
</event>
<event>
 4    1  0.5280257E-005  0.4683566E+03  0.7818608E-02  0.1022385E+00
          2   -1    0    0  501    0  0.00000000000E+00  0.00000000000E+00  0.64028743682E+03  0.64028743682E+03  0.25500000000E-02 0.  1.
         -2   -1    0    0    0  501 -0.00000000000E+00 -0.00000000000E+00 -0.85648226498E+02  0.85648226536E+02  0.25500000000E-02 0. -1.
    5000001    1    1    2    0    0 -0.90839339978E+02  0.49823171484E+02  0.47869767517E+03  0.51682743572E+03  0.16500000000E+03 0.  0.
   -5000001    1    1    2    0    0  0.90839339978E+02 -0.49823171484E+02  0.75941535153E+02  0.20910822764E+03  0.16500000000E+03 0.  0.
<mgrwt>
<rscale>  0 0.46835663E+03</rscale>
<asrwt>0</asrwt>
<pdfrwt beam="1">  1        2 0.91469636E-01 0.46835663E+03</pdfrwt>
<pdfrwt beam="2">  1       -2 0.12235461E-01 0.46835663E+03</pdfrwt>
<totfact> 0.24593506E+03</totfact>
</mgrwt>
</event>
<event>
 4    1  0.5280257E-005  0.8579122E+03  0.7818608E-02  0.9479779E-01
          2   -1    0    0  501    0  0.00000000000E+00  0.00000000000E+00  0.64422013502E+03  0.64422013503E+03  0.25500000000E-02 0.  1.
         -2   -1    0    0    0  501 -0.00000000000E+00 -0.00000000000E+00 -0.28562182619E+03  0.28562182620E+03  0.25500000000E-02 0. -1.
    5000001    1    1    2    0    0 -0.54174213860E+01  0.19291101450E+03 -0.19542580052E+03  0.32040638489E+03  0.16500000000E+03 0.  0.
   -5000001    1    1    2    0    0  0.54174213860E+01 -0.19291101450E+03  0.55402410935E+03  0.60943557634E+03  0.16500000000E+03 0.  0.
<mgrwt>
<rscale>  0 0.85791219E+03</rscale>
<asrwt>0</asrwt>
<pdfrwt beam="1">  1        2 0.92031448E-01 0.85791219E+03</pdfrwt>
<pdfrwt beam="2">  1       -2 0.40803118E-01 0.85791219E+03</pdfrwt>
<totfact> 0.28427032E+02</totfact>
</mgrwt>
</event>
<event>
 4    1  0.5280257E-005  0.4208972E+03  0.7818608E-02  0.1036775E+00
          2   -1    0    0  501    0  0.00000000000E+00  0.00000000000E+00  0.27474694673E+03  0.27474694674E+03  0.25500000000E-02 0.  1.
         -2   -1    0    0    0  501 -0.00000000000E+00 -0.00000000000E+00 -0.16119780086E+03  0.16119780088E+03  0.25500000000E-02 0. -1.
    5000001    1    1    2    0    0 -0.11336156175E+03 -0.91109545368E+01  0.12333519375E+03  0.23530920762E+03  0.16500000000E+03 0.  0.
   -5000001    1    1    2    0    0  0.11336156175E+03  0.91109545368E+01 -0.97860478831E+01  0.20063553999E+03  0.16500000000E+03 0.  0.
<mgrwt>
<rscale>  0 0.42089715E+03</rscale>
<asrwt>0</asrwt>
<pdfrwt beam="1">  1        2 0.39249564E-01 0.42089715E+03</pdfrwt>
<pdfrwt beam="2">  1       -2 0.23028257E-01 0.42089715E+03</pdfrwt>
<totfact> 0.21617073E+03</totfact>
</mgrwt>
</event>
<event>
 4    1  0.5280257E-005  0.4467482E+03  0.7818608E-02  0.1028696E+00
         -2   -1    0    0    0  501 -0.00000000000E+00  0.00000000000E+00  0.55494496316E+02  0.55494496375E+02  0.25500000000E-02 0. -1.
          2   -1    0    0  501    0  0.00000000000E+00 -0.00000000000E+00 -0.89911613172E+03  0.89911613172E+03  0.25500000000E-02 0.  1.
    5000001    1    1    2    0    0  0.65161375753E+02 -0.13573842853E+03 -0.42124136819E+03  0.47680207230E+03  0.16500000000E+03 0.  0.
   -5000001    1    1    2    0    0 -0.65161375753E+02  0.13573842853E+03 -0.42238026721E+03  0.47780855580E+03  0.16500000000E+03 0.  0.
<mgrwt>
<rscale>  0 0.44674824E+03</rscale>
<asrwt>0</asrwt>
<pdfrwt beam="1">  1        2 0.12844515E+00 0.44674824E+03</pdfrwt>
<pdfrwt beam="2">  1       -2 0.79277857E-02 0.44674824E+03</pdfrwt>
<totfact> 0.32379653E+03</totfact>
</mgrwt>
</event>
<event>
 4    1  0.5280257E-005  0.4401264E+03  0.7818608E-02  0.1030708E+00
          2   -1    0    0  501    0  0.00000000000E+00  0.00000000000E+00  0.45559532031E+04  0.45559532031E+04  0.25500000000E-02 0.  1.
         -2   -1    0    0    0  501 -0.00000000000E+00 -0.00000000000E+00 -0.10629565557E+02  0.10629565863E+02  0.25500000000E-02 0. -1.
    5000001    1    1    2    0    0 -0.11828935404E+03 -0.48981913129E+02  0.15529794309E+04  0.15669593842E+04  0.16500000000E+03 0.  0.
   -5000001    1    1    2    0    0  0.11828935404E+03  0.48981913129E+02  0.29923442067E+04  0.29996233848E+04  0.16500000000E+03 0.  0.
<mgrwt>
<rscale>  0 0.44012636E+03</rscale>
<asrwt>0</asrwt>
<pdfrwt beam="1">  1        2 0.65085150E+00 0.44012636E+03</pdfrwt>
<pdfrwt beam="2">  1       -2 0.15185069E-02 0.44012636E+03</pdfrwt>
<totfact> 0.32477783E+02</totfact>
</mgrwt>
</event>
<event>
 4    1  0.5280257E-005  0.6108769E+03  0.7818608E-02  0.9883093E-01
          2   -1    0    0  501    0  0.00000000000E+00  0.00000000000E+00  0.11719296831E+04  0.11719296831E+04  0.25500000000E-02 0.  1.
         -2   -1    0    0    0  501 -0.00000000000E+00 -0.00000000000E+00 -0.79606020342E+02  0.79606020383E+02  0.25500000000E-02 0. -1.
    5000001    1    1    2    0    0  0.38241636004E+02 -0.24773693591E+03  0.66262843487E+03  0.72741834926E+03  0.16500000000E+03 0.  0.
   -5000001    1    1    2    0    0 -0.38241636004E+02  0.24773693591E+03  0.42969522794E+03  0.52411735427E+03  0.16500000000E+03 0.  0.
<mgrwt>
<rscale>  0 0.61087694E+03</rscale>
<asrwt>0</asrwt>
<pdfrwt beam="1">  1        2 0.16741853E+00 0.61087694E+03</pdfrwt>
<pdfrwt beam="2">  1       -2 0.11372289E-01 0.61087694E+03</pdfrwt>
<totfact> 0.12425924E+03</totfact>
</mgrwt>
</event>
<event>
 4    1  0.5280257E-005  0.5091927E+03  0.7818608E-02  0.1011407E+00
         -2   -1    0    0    0  501 -0.00000000000E+00  0.00000000000E+00  0.56452061840E+02  0.56452061897E+02  0.25500000000E-02 0. -1.
          2   -1    0    0  501    0  0.00000000000E+00 -0.00000000000E+00 -0.11482182969E+04  0.11482182969E+04  0.25500000000E-02 0.  1.
    5000001    1    1    2    0    0 -0.61011138342E+02  0.18298820495E+03 -0.59243966733E+03  0.64452835591E+03  0.16500000000E+03 0.  0.
   -5000001    1    1    2    0    0  0.61011138342E+02 -0.18298820495E+03 -0.49932656773E+03  0.56014200289E+03  0.16500000000E+03 0.  0.
<mgrwt>
<rscale>  0 0.50919266E+03</rscale>
<asrwt>0</asrwt>
<pdfrwt beam="1">  1        2 0.16403117E+00 0.50919266E+03</pdfrwt>
<pdfrwt beam="2">  1       -2 0.80645810E-02 0.50919266E+03</pdfrwt>
<totfact> 0.22354886E+03</totfact>
</mgrwt>
</event>
<event>
 4    1  0.5280257E-005  0.5619983E+03  0.7818608E-02  0.9987543E-01
         -2   -1    0    0    0  501 -0.00000000000E+00  0.00000000000E+00  0.84478265572E+02  0.84478265610E+02  0.25500000000E-02 0. -1.
          2   -1    0    0  501    0  0.00000000000E+00 -0.00000000000E+00 -0.93468460935E+03  0.93468460936E+03  0.25500000000E-02 0.  1.
    5000001    1    1    2    0    0  0.17562084690E+02  0.22444933292E+03 -0.36635133290E+03  0.46056946163E+03  0.16500000000E+03 0.  0.
   -5000001    1    1    2    0    0 -0.17562084690E+02 -0.22444933292E+03 -0.48385501088E+03  0.55859341333E+03  0.16500000000E+03 0.  0.
<mgrwt>
<rscale>  0 0.56199834E+03</rscale>
<asrwt>0</asrwt>
<pdfrwt beam="1">  1        2 0.13352637E+00 0.56199834E+03</pdfrwt>
<pdfrwt beam="2">  1       -2 0.12068324E-01 0.56199834E+03</pdfrwt>
<totfact> 0.15615246E+03</totfact>
</mgrwt>
</event>
<event>
 4    1  0.5280257E-005  0.7207835E+03  0.7818608E-02  0.9682335E-01
          2   -1    0    0  501    0  0.00000000000E+00  0.00000000000E+00  0.44893460848E+03  0.44893460849E+03  0.25500000000E-02 0.  1.
         -2   -1    0    0    0  501 -0.00000000000E+00 -0.00000000000E+00 -0.28931212201E+03  0.28931212202E+03  0.25500000000E-02 0. -1.
    5000001    1    1    2    0    0  0.24761040856E+03  0.95688959789E+02 -0.10395118155E+03  0.32939055784E+03  0.16500000000E+03 0.  0.
   -5000001    1    1    2    0    0 -0.24761040856E+03 -0.95688959789E+02  0.26357366802E+03  0.40885617266E+03  0.16500000000E+03 0.  0.
<mgrwt>
<rscale>  0 0.72078353E+03</rscale>
<asrwt>0</asrwt>
<pdfrwt beam="1">  1        2 0.64133515E-01 0.72078353E+03</pdfrwt>
<pdfrwt beam="2">  1       -2 0.41330303E-01 0.72078353E+03</pdfrwt>
<totfact> 0.42387751E+02</totfact>
</mgrwt>
</event>
<event>
 4    1  0.5280257E-005  0.5987878E+03  0.7818608E-02  0.9907924E-01
          2   -1    0    0  501    0  0.00000000000E+00  0.00000000000E+00  0.11619479430E+04  0.11619479430E+04  0.25500000000E-02 0.  1.
         -2   -1    0    0    0  501 -0.00000000000E+00 -0.00000000000E+00 -0.77143491536E+02  0.77143491579E+02  0.25500000000E-02 0. -1.
    5000001    1    1    2    0    0 -0.24242293861E+03  0.20595897458E+02  0.42500246850E+03  0.51676413420E+03  0.16500000000E+03 0.  0.
   -5000001    1    1    2    0    0  0.24242293861E+03 -0.20595897458E+02  0.65980198294E+03  0.72232730036E+03  0.16500000000E+03 0.  0.
<mgrwt>
<rscale>  0 0.59878785E+03</rscale>
<asrwt>0</asrwt>
<pdfrwt beam="1">  1        2 0.16599256E+00 0.59878785E+03</pdfrwt>
<pdfrwt beam="2">  1       -2 0.11020499E-01 0.59878785E+03</pdfrwt>
<totfact> 0.13257430E+03</totfact>
</mgrwt>
</event>
<event>
 4    1  0.5280257E-005  0.9088766E+03  0.7818608E-02  0.9414553E-01
          2   -1    0    0  501    0  0.00000000000E+00  0.00000000000E+00  0.88398655362E+03  0.88398655363E+03  0.25500000000E-02 0.  1.
         -2   -1    0    0    0  501 -0.00000000000E+00 -0.00000000000E+00 -0.23361684457E+03  0.23361684458E+03  0.25500000000E-02 0. -1.
    5000001    1    1    2    0    0 -0.40033710531E+03 -0.11791675127E+03  0.23724104855E+03  0.50762434263E+03  0.16500000000E+03 0.  0.
   -5000001    1    1    2    0    0  0.40033710531E+03  0.11791675127E+03  0.41312866050E+03  0.60997905558E+03  0.16500000000E+03 0.  0.
<mgrwt>
<rscale>  0 0.90887656E+03</rscale>
<asrwt>0</asrwt>
<pdfrwt beam="1">  1        2 0.12628379E+00 0.90887656E+03</pdfrwt>
<pdfrwt beam="2">  1       -2 0.33373835E-01 0.90887656E+03</pdfrwt>
<totfact> 0.27942853E+02</totfact>
</mgrwt>
</event>
<event>
 4    1  0.5280257E-005  0.3650476E+03  0.7818608E-02  0.1056603E+00
          2   -1    0    0  501    0  0.00000000000E+00  0.00000000000E+00  0.22162687652E+03  0.22162687654E+03  0.25500000000E-02 0.  1.
         -2   -1    0    0    0  501 -0.00000000000E+00 -0.00000000000E+00 -0.15031995413E+03  0.15031995415E+03  0.25500000000E-02 0. -1.
    5000001    1    1    2    0    0 -0.84765189410E+01  0.51485239044E+02  0.94779142286E+02  0.19730855791E+03  0.16500000000E+03 0.  0.
   -5000001    1    1    2    0    0  0.84765189410E+01 -0.51485239044E+02 -0.23472219890E+02  0.17463827278E+03  0.16500000000E+03 0.  0.
<mgrwt>
<rscale>  0 0.36504762E+03</rscale>
<asrwt>0</asrwt>
<pdfrwt beam="1">  1        2 0.31660982E-01 0.36504762E+03</pdfrwt>
<pdfrwt beam="2">  1       -2 0.21474279E-01 0.36504762E+03</pdfrwt>
<totfact> 0.30856618E+03</totfact>
</mgrwt>
</event>
<event>
 4    1  0.5280257E-005  0.3814617E+03  0.7818608E-02  0.1050395E+00
          2   -1    0    0  501    0  0.00000000000E+00  0.00000000000E+00  0.56861712206E+03  0.56861712206E+03  0.25500000000E-02 0. -1.
         -2   -1    0    0    0  501 -0.00000000000E+00 -0.00000000000E+00 -0.63976720744E+02  0.63976720795E+02  0.25500000000E-02 0.  1.
    5000001    1    1    2    0    0 -0.36727871567E+02  0.67971779100E+02  0.15874270454E+03  0.24164715092E+03  0.16500000000E+03 0.  0.
   -5000001    1    1    2    0    0  0.36727871567E+02 -0.67971779100E+02  0.34589769677E+03  0.39094669194E+03  0.16500000000E+03 0.  0.
<mgrwt>
<rscale>  0 0.38146171E+03</rscale>
<asrwt>0</asrwt>
<pdfrwt beam="1">  1        2 0.81231019E-01 0.38146171E+03</pdfrwt>
<pdfrwt beam="2">  1       -2 0.91395313E-02 0.38146171E+03</pdfrwt>
<totfact> 0.45101407E+03</totfact>
</mgrwt>
</event>
<event>
 4    1  0.5280257E-005  0.4982221E+03  0.7818608E-02  0.1014244E+00
          2   -1    0    0  501    0  0.00000000000E+00  0.00000000000E+00  0.32782488301E+03  0.32782488302E+03  0.25500000000E-02 0.  1.
         -2   -1    0    0    0  501 -0.00000000000E+00 -0.00000000000E+00 -0.18929715312E+03  0.18929715314E+03  0.25500000000E-02 0. -1.
    5000001    1    1    2    0    0  0.21717899370E+02  0.72157115033E+02 -0.10795570639E+03  0.21108706958E+03  0.16500000000E+03 0.  0.
   -5000001    1    1    2    0    0 -0.21717899370E+02 -0.72157115033E+02  0.24648343628E+03  0.30603496657E+03  0.16500000000E+03 0.  0.
<mgrwt>
<rscale>  0 0.49822211E+03</rscale>
<asrwt>0</asrwt>
<pdfrwt beam="1">  1        2 0.46832126E-01 0.49822211E+03</pdfrwt>
<pdfrwt beam="2">  1       -2 0.27042450E-01 0.49822211E+03</pdfrwt>
<totfact> 0.13391377E+03</totfact>
</mgrwt>
</event>
<event>
 4    1  0.5280257E-005  0.5605502E+03  0.7818608E-02  0.9990810E-01
          2   -1    0    0  501    0  0.00000000000E+00  0.00000000000E+00  0.11541531170E+04  0.11541531170E+04  0.25500000000E-02 0.  1.
         -2   -1    0    0    0  501 -0.00000000000E+00 -0.00000000000E+00 -0.68062150009E+02  0.68062150057E+02  0.25500000000E-02 0. -1.
    5000001    1    1    2    0    0 -0.10090133727E+02  0.15057687226E+03  0.17460600118E+03  0.28370312108E+03  0.16500000000E+03 0.  0.
   -5000001    1    1    2    0    0  0.10090133727E+02 -0.15057687226E+03  0.91148496578E+03  0.93851214596E+03  0.16500000000E+03 0.  0.
<mgrwt>
<rscale>  0 0.56055024E+03</rscale>
<asrwt>0</asrwt>
<pdfrwt beam="1">  1        2 0.16487902E+00 0.56055024E+03</pdfrwt>
<pdfrwt beam="2">  1       -2 0.97231642E-02 0.56055024E+03</pdfrwt>
<totfact> 0.16428468E+03</totfact>
</mgrwt>
</event>
<event>
 4    1  0.5280257E-005  0.6182535E+03  0.7818608E-02  0.9868243E-01
          2   -1    0    0  501    0  0.00000000000E+00  0.00000000000E+00  0.68345063170E+03  0.68345063171E+03  0.25500000000E-02 0.  1.
         -2   -1    0    0    0  501 -0.00000000000E+00 -0.00000000000E+00 -0.13981894789E+03  0.13981894792E+03  0.25500000000E-02 0. -1.
    5000001    1    1    2    0    0 -0.58542201804E+02 -0.24940033133E+03  0.34109302470E+03  0.45738076715E+03  0.16500000000E+03 0.  0.
   -5000001    1    1    2    0    0  0.58542201804E+02  0.24940033133E+03  0.20253865911E+03  0.36588881247E+03  0.16500000000E+03 0.  0.
<mgrwt>
<rscale>  0 0.61825350E+03</rscale>
<asrwt>0</asrwt>
<pdfrwt beam="1">  1        2 0.97635805E-01 0.61825350E+03</pdfrwt>
<pdfrwt beam="2">  1       -2 0.19974135E-01 0.61825350E+03</pdfrwt>
<totfact> 0.99377999E+02</totfact>
</mgrwt>
</event>
<event>
 4    1  0.5280257E-005  0.8928321E+03  0.7818608E-02  0.9434586E-01
         -2   -1    0    0    0  501 -0.00000000000E+00  0.00000000000E+00  0.33365530781E+03  0.33365530782E+03  0.25500000000E-02 0. -1.
          2   -1    0    0  501    0  0.00000000000E+00 -0.00000000000E+00 -0.59728489445E+03  0.59728489446E+03  0.25500000000E-02 0.  1.
    5000001    1    1    2    0    0  0.15130416029E+03 -0.33142001488E+03 -0.33859765020E+03  0.52402818999E+03  0.16500000000E+03 0.  0.
   -5000001    1    1    2    0    0 -0.15130416029E+03  0.33142001488E+03  0.74968063555E+02  0.40691201228E+03  0.16500000000E+03 0.  0.
<mgrwt>
<rscale>  0 0.89283207E+03</rscale>
<asrwt>0</asrwt>
<pdfrwt beam="1">  1        2 0.85326413E-01 0.89283207E+03</pdfrwt>
<pdfrwt beam="2">  1       -2 0.47665044E-01 0.89283207E+03</pdfrwt>
<totfact> 0.22817549E+02</totfact>
</mgrwt>
</event>
<event>
 4    1  0.5280257E-005  0.6771136E+03  0.7818608E-02  0.9757192E-01
          2   -1    0    0  501    0  0.00000000000E+00  0.00000000000E+00  0.11208062781E+04  0.11208062781E+04  0.25500000000E-02 0.  1.
         -2   -1    0    0    0  501 -0.00000000000E+00 -0.00000000000E+00 -0.10226630863E+03  0.10226630866E+03  0.25500000000E-02 0. -1.
    5000001    1    1    2    0    0  0.43332159277E+02  0.24478351337E+03  0.22026667485E+03  0.37086257899E+03  0.16500000000E+03 0.  0.
   -5000001    1    1    2    0    0 -0.43332159277E+02 -0.24478351337E+03  0.79827329466E+03  0.85221000781E+03  0.16500000000E+03 0.  0.
<mgrwt>
<rscale>  0 0.67711364E+03</rscale>
<asrwt>0</asrwt>
<pdfrwt beam="1">  1        2 0.16011518E+00 0.67711364E+03</pdfrwt>
<pdfrwt beam="2">  1       -2 0.14609473E-01 0.67711364E+03</pdfrwt>
<totfact> 0.87523681E+02</totfact>
</mgrwt>
</event>
<event>
 4    1  0.5280257E-005  0.8895260E+03  0.7818608E-02  0.9438770E-01
         -2   -1    0    0    0  501 -0.00000000000E+00  0.00000000000E+00  0.37704546861E+03  0.37704546861E+03  0.25500000000E-02 0.  1.
          2   -1    0    0  501    0  0.00000000000E+00 -0.00000000000E+00 -0.52464267390E+03  0.52464267390E+03  0.25500000000E-02 0. -1.
    5000001    1    1    2    0    0  0.54408952186E+02  0.37302150019E+03 -0.24487749210E+03  0.47884795062E+03  0.16500000000E+03 0.  0.
   -5000001    1    1    2    0    0 -0.54408952186E+02 -0.37302150019E+03  0.97280286810E+02  0.42284019189E+03  0.16500000000E+03 0.  0.
<mgrwt>
<rscale>  0 0.88952604E+03</rscale>
<asrwt>0</asrwt>
<pdfrwt beam="1">  1        2 0.74948953E-01 0.88952604E+03</pdfrwt>
<pdfrwt beam="2">  1       -2 0.53863638E-01 0.88952604E+03</pdfrwt>
<totfact> 0.20696116E+02</totfact>
</mgrwt>
</event>
<event>
 4    1  0.5280257E-005  0.5746375E+03  0.7818608E-02  0.9959469E-01
          2   -1    0    0  501    0  0.00000000000E+00  0.00000000000E+00  0.13625818770E+03  0.13625818773E+03  0.25500000000E-02 0.  1.
         -2   -1    0    0    0  501 -0.00000000000E+00 -0.00000000000E+00 -0.60585034835E+03  0.60585034836E+03  0.25500000000E-02 0. -1.
    5000001    1    1    2    0    0  0.17266473851E+03 -0.14617787526E+03 -0.31795090132E+03  0.42367305648E+03  0.16500000000E+03 0.  0.
   -5000001    1    1    2    0    0 -0.17266473851E+03  0.14617787526E+03 -0.15164125933E+03  0.31843547960E+03  0.16500000000E+03 0.  0.
<mgrwt>
<rscale>  0 0.57463752E+03</rscale>
<asrwt>0</asrwt>
<pdfrwt beam="1">  1        2 0.19465456E-01 0.57463752E+03</pdfrwt>
<pdfrwt beam="2">  1       -2 0.86550049E-01 0.57463752E+03</pdfrwt>
<totfact> 0.34278925E+02</totfact>
</mgrwt>
</event>
<event>
 4    1  0.5280257E-005  0.7902142E+03  0.7818608E-02  0.9574291E-01
         -2   -1    0    0    0  501 -0.00000000000E+00  0.00000000000E+00  0.19220884611E+03  0.19220884613E+03  0.25500000000E-02 0. -1.
          2   -1    0    0  501    0  0.00000000000E+00 -0.00000000000E+00 -0.81218742897E+03  0.81218742897E+03  0.25500000000E-02 0.  1.
    5000001    1    1    2    0    0  0.30875091198E+03  0.58603256628E+02 -0.89386801832E+02  0.36602796024E+03  0.16500000000E+03 0.  0.
   -5000001    1    1    2    0    0 -0.30875091198E+03 -0.58603256628E+02 -0.53059178102E+03  0.63836831486E+03  0.16500000000E+03 0.  0.
<mgrwt>
<rscale>  0 0.79021417E+03</rscale>
<asrwt>0</asrwt>
<pdfrwt beam="1">  1        2 0.11602677E+00 0.79021417E+03</pdfrwt>
<pdfrwt beam="2">  1       -2 0.27458407E-01 0.79021417E+03</pdfrwt>
<totfact> 0.45140496E+02</totfact>
</mgrwt>
</event>
<event>
 4    1  0.5280257E-005  0.5169276E+03  0.7818608E-02  0.1009453E+00
         -2   -1    0    0    0  501 -0.00000000000E+00  0.00000000000E+00  0.13730258290E+03  0.13730258293E+03  0.25500000000E-02 0. -1.
          2   -1    0    0  501    0  0.00000000000E+00 -0.00000000000E+00 -0.48654253711E+03  0.48654253711E+03  0.25500000000E-02 0.  1.
    5000001    1    1    2    0    0 -0.17384814320E+03  0.56284123613E+02 -0.79689974351E+02  0.25877900123E+03  0.16500000000E+03 0.  0.
   -5000001    1    1    2    0    0  0.17384814320E+03 -0.56284123613E+02 -0.26954997985E+03  0.36506611881E+03  0.16500000000E+03 0.  0.
<mgrwt>
<rscale>  0 0.51692764E+03</rscale>
<asrwt>0</asrwt>
<pdfrwt beam="1">  1        2 0.69506076E-01 0.51692764E+03</pdfrwt>
<pdfrwt beam="2">  1       -2 0.19614655E-01 0.51692764E+03</pdfrwt>
<totfact> 0.15260335E+03</totfact>
</mgrwt>
</event>
<event>
 4    1  0.5280257E-005  0.4260987E+03  0.7818608E-02  0.1035099E+00
         -2   -1    0    0    0  501 -0.00000000000E+00  0.00000000000E+00  0.31237414502E+02  0.31237414606E+02  0.25500000000E-02 0. -1.
          2   -1    0    0  501    0  0.00000000000E+00 -0.00000000000E+00 -0.14530663434E+04  0.14530663434E+04  0.25500000000E-02 0.  1.
    5000001    1    1    2    0    0  0.10356148706E+03  0.86220254013E+02 -0.71953346907E+03  0.75040810691E+03  0.16500000000E+03 0.  0.
   -5000001    1    1    2    0    0 -0.10356148706E+03 -0.86220254013E+02 -0.70229545981E+03  0.73389565108E+03  0.16500000000E+03 0.  0.
<mgrwt>
<rscale>  0 0.42609875E+03</rscale>
<asrwt>0</asrwt>
<pdfrwt beam="1">  1        2 0.20758086E+00 0.42609875E+03</pdfrwt>
<pdfrwt beam="2">  1       -2 0.44624887E-02 0.42609875E+03</pdfrwt>
<totfact> 0.38478702E+03</totfact>
</mgrwt>
</event>
<event>
 4    1  0.5280257E-005  0.5079997E+03  0.7818608E-02  0.1011712E+00
          2   -1    0    0  501    0  0.00000000000E+00  0.00000000000E+00  0.27853791012E+03  0.27853791014E+03  0.25500000000E-02 0.  1.
         -2   -1    0    0    0  501 -0.00000000000E+00 -0.00000000000E+00 -0.23162350335E+03  0.23162350336E+03  0.25500000000E-02 0. -1.
    5000001    1    1    2    0    0 -0.17332674163E+03  0.51805792656E+02 -0.44394548124E+02  0.24884106458E+03  0.16500000000E+03 0.  0.
   -5000001    1    1    2    0    0  0.17332674163E+03 -0.51805792656E+02  0.91308954900E+02  0.26132034892E+03  0.16500000000E+03 0.  0.
<mgrwt>
<rscale>  0 0.50799971E+03</rscale>
<asrwt>0</asrwt>
<pdfrwt beam="1">  1        2 0.39791130E-01 0.50799971E+03</pdfrwt>
<pdfrwt beam="2">  1       -2 0.33089072E-01 0.50799971E+03</pdfrwt>
<totfact> 0.11047855E+03</totfact>
</mgrwt>
</event>
<event>
 4    1  0.5280257E-005  0.7392698E+03  0.7818608E-02  0.9652336E-01
          2   -1    0    0  501    0  0.00000000000E+00  0.00000000000E+00  0.11487918324E+03  0.11487918327E+03  0.25500000000E-02 0. -1.
         -2   -1    0    0    0  501 -0.00000000000E+00 -0.00000000000E+00 -0.11893359921E+04  0.11893359921E+04  0.25500000000E-02 0.  1.
    5000001    1    1    2    0    0  0.12694696404E+03  0.27157949152E+03 -0.78379931812E+03  0.85524109056E+03  0.16500000000E+03 0.  0.
   -5000001    1    1    2    0    0 -0.12694696404E+03 -0.27157949152E+03 -0.29065749070E+03  0.44897408477E+03  0.16500000000E+03 0.  0.
<mgrwt>
<rscale>  0 0.73926977E+03</rscale>
<asrwt>0</asrwt>
<pdfrwt beam="1">  1        2 0.16411313E-01 0.73926977E+03</pdfrwt>
<pdfrwt beam="2">  1       -2 0.16990513E+00 0.73926977E+03</pdfrwt>
<totfact> 0.77824257E+01</totfact>
</mgrwt>
</event>
<event>
 4    1  0.5280257E-005  0.3996639E+03  0.7818608E-02  0.1043896E+00
          2   -1    0    0  501    0  0.00000000000E+00  0.00000000000E+00  0.71232745027E+03  0.71232745027E+03  0.25500000000E-02 0.  1.
         -2   -1    0    0    0  501 -0.00000000000E+00 -0.00000000000E+00 -0.56059636639E+02  0.56059636697E+02  0.25500000000E-02 0. -1.
    5000001    1    1    2    0    0 -0.83400723100E+02  0.73488262070E+02  0.29208289922E+03  0.35340292202E+03  0.16500000000E+03 0.  0.
   -5000001    1    1    2    0    0  0.83400723100E+02 -0.73488262070E+02  0.36418491440E+03  0.41498416495E+03  0.16500000000E+03 0.  0.
<mgrwt>
<rscale>  0 0.39966395E+03</rscale>
<asrwt>0</asrwt>
<pdfrwt beam="1">  1        2 0.10176107E+00 0.39966395E+03</pdfrwt>
<pdfrwt beam="2">  1       -2 0.80085191E-02 0.39966395E+03</pdfrwt>
<totfact> 0.42704512E+03</totfact>
</mgrwt>
</event>
<event>
 4    1  0.5280257E-005  0.3937694E+03  0.7818608E-02  0.1045959E+00
          2   -1    0    0  501    0  0.00000000000E+00  0.00000000000E+00  0.51191261502E+03  0.51191261503E+03  0.25500000000E-02 0.  1.
         -2   -1    0    0    0  501 -0.00000000000E+00 -0.00000000000E+00 -0.75723049002E+02  0.75723049045E+02  0.25500000000E-02 0. -1.
    5000001    1    1    2    0    0  0.92887614193E+02 -0.44391182125E+02  0.26384641386E+03  0.32777830316E+03  0.16500000000E+03 0.  0.
   -5000001    1    1    2    0    0 -0.92887614193E+02  0.44391182125E+02  0.17234315217E+03  0.25985736091E+03  0.16500000000E+03 0.  0.
<mgrwt>
<rscale>  0 0.39376939E+03</rscale>
<asrwt>0</asrwt>
<pdfrwt beam="1">  1        2 0.73130378E-01 0.39376939E+03</pdfrwt>
<pdfrwt beam="2">  1       -2 0.10817578E-01 0.39376939E+03</pdfrwt>
<totfact> 0.38804073E+03</totfact>
</mgrwt>
</event>
<event>
 4    1  0.5280257E-005  0.6828296E+03  0.7818608E-02  0.9747055E-01
          2   -1    0    0  501    0  0.00000000000E+00  0.00000000000E+00  0.14480475392E+04  0.14480475392E+04  0.25500000000E-02 0.  1.
         -2   -1    0    0    0  501 -0.00000000000E+00 -0.00000000000E+00 -0.80497409690E+02  0.80497409730E+02  0.25500000000E-02 0. -1.
    5000001    1    1    2    0    0 -0.10901164361E+03  0.17359585614E+03  0.11707294697E+04  0.11999381446E+04  0.16500000000E+03 0.  0.
   -5000001    1    1    2    0    0  0.10901164361E+03 -0.17359585614E+03  0.19682065983E+03  0.32860680433E+03  0.16500000000E+03 0.  0.
<mgrwt>
<rscale>  0 0.68282963E+03</rscale>
<asrwt>0</asrwt>
<pdfrwt beam="1">  1        2 0.20686393E+00 0.68282963E+03</pdfrwt>
<pdfrwt beam="2">  1       -2 0.11499630E-01 0.68282963E+03</pdfrwt>
<totfact> 0.86058566E+02</totfact>
</mgrwt>
</event>
<event>
 4    1  0.5280257E-005  0.4302783E+03  0.7818608E-02  0.1033772E+00
         -2   -1    0    0    0  501 -0.00000000000E+00  0.00000000000E+00  0.11650482613E+02  0.11650482892E+02  0.25500000000E-02 0. -1.
          2   -1    0    0  501    0  0.00000000000E+00 -0.00000000000E+00 -0.39727834918E+04  0.39727834918E+04  0.25500000000E-02 0.  1.
    5000001    1    1    2    0    0 -0.13576755621E+03 -0.20908714778E+02 -0.21081555078E+04  0.21190598502E+04  0.16500000000E+03 0.  0.
   -5000001    1    1    2    0    0  0.13576755621E+03  0.20908714778E+02 -0.18529775014E+04  0.18653741245E+04  0.16500000000E+03 0.  0.
<mgrwt>
<rscale>  0 0.43027826E+03</rscale>
<asrwt>0</asrwt>
<pdfrwt beam="1">  1        2 0.56753963E+00 0.43027826E+03</pdfrwt>
<pdfrwt beam="2">  1       -2 0.16643572E-02 0.43027826E+03</pdfrwt>
<totfact> 0.74130847E+02</totfact>
</mgrwt>
</event>
<event>
 4    1  0.5280257E-005  0.5905657E+03  0.7818608E-02  0.9925175E-01
         -2   -1    0    0    0  501 -0.00000000000E+00  0.00000000000E+00  0.42249760751E+02  0.42249760828E+02  0.25500000000E-02 0. -1.
          2   -1    0    0  501    0  0.00000000000E+00 -0.00000000000E+00 -0.20637267377E+04  0.20637267377E+04  0.25500000000E-02 0.  1.
    5000001    1    1    2    0    0  0.13014404400E+03 -0.10889098535E+03 -0.38113181519E+03  0.44864371101E+03  0.16500000000E+03 0.  0.
   -5000001    1    1    2    0    0 -0.13014404400E+03  0.10889098535E+03 -0.16403451617E+04  0.16573327875E+04  0.16500000000E+03 0.  0.
<mgrwt>
<rscale>  0 0.59056570E+03</rscale>
<asrwt>0</asrwt>
<pdfrwt beam="1">  1        2 0.29481804E+00 0.59056570E+03</pdfrwt>
<pdfrwt beam="2">  1       -2 0.60356814E-02 0.59056570E+03</pdfrwt>
<totfact> 0.11783315E+03</totfact>
</mgrwt>
</event>
<event>
 4    1  0.5280257E-005  0.3543496E+03  0.7818608E-02  0.1060844E+00
          2   -1    0    0  501    0  0.00000000000E+00  0.00000000000E+00  0.47776012442E+02  0.47776012510E+02  0.25500000000E-02 0.  1.
         -2   -1    0    0    0  501 -0.00000000000E+00 -0.00000000000E+00 -0.65704347644E+03  0.65704347644E+03  0.25500000000E-02 0. -1.
    5000001    1    1    2    0    0 -0.48191604606E+02 -0.33089050792E+01 -0.21948614073E+03  0.27880556950E+03  0.16500000000E+03 0.  0.
   -5000001    1    1    2    0    0  0.48191604606E+02  0.33089050792E+01 -0.38978132326E+03  0.42601391945E+03  0.16500000000E+03 0.  0.
<mgrwt>
<rscale>  0 0.35434964E+03</rscale>
<asrwt>0</asrwt>
<pdfrwt beam="1">  1        2 0.68251450E-02 0.35434964E+03</pdfrwt>
<pdfrwt beam="2">  1       -2 0.93863348E-01 0.35434964E+03</pdfrwt>
<totfact> 0.10433563E+03</totfact>
</mgrwt>
</event>
<event>
 4    1  0.5280257E-005  0.1038859E+04  0.7818608E-02  0.9266923E-01
          2   -1    0    0  501    0  0.00000000000E+00  0.00000000000E+00  0.11156051049E+04  0.11156051049E+04  0.25500000000E-02 0.  1.
         -2   -1    0    0    0  501 -0.00000000000E+00 -0.00000000000E+00 -0.24184800282E+03  0.24184800283E+03  0.25500000000E-02 0. -1.
    5000001    1    1    2    0    0 -0.43962200689E+03 -0.21977555510E+03  0.47846832611E+03  0.70549680555E+03  0.16500000000E+03 0.  0.
   -5000001    1    1    2    0    0  0.43962200689E+03  0.21977555510E+03  0.39528877599E+03  0.65195630220E+03  0.16500000000E+03 0.  0.
<mgrwt>
<rscale>  0 0.10388587E+04</rscale>
<asrwt>0</asrwt>
<pdfrwt beam="1">  1        2 0.15937216E+00 0.10388587E+04</pdfrwt>
<pdfrwt beam="2">  1       -2 0.34549714E-01 0.10388587E+04</pdfrwt>
<totfact> 0.18674948E+02</totfact>
</mgrwt>
</event>
<event>
 4    1  0.5280257E-005  0.7564755E+03  0.7818608E-02  0.9625246E-01
         -2   -1    0    0    0  501 -0.00000000000E+00  0.00000000000E+00  0.10679053997E+04  0.10679053997E+04  0.25500000000E-02 0. -1.
          2   -1    0    0  501    0  0.00000000000E+00 -0.00000000000E+00 -0.13396674603E+03  0.13396674605E+03  0.25500000000E-02 0.  1.
    5000001    1    1    2    0    0  0.13251207614E+03  0.24592665861E+03  0.15807775381E+03  0.36090573282E+03  0.16500000000E+03 0.  0.
   -5000001    1    1    2    0    0 -0.13251207614E+03 -0.24592665861E+03  0.77586089984E+03  0.84096641290E+03  0.16500000000E+03 0.  0.
<mgrwt>
<rscale>  0 0.75647554E+03</rscale>
<asrwt>0</asrwt>
<pdfrwt beam="1">  1        2 0.19138107E-01 0.75647554E+03</pdfrwt>
<pdfrwt beam="2">  1       -2 0.15255791E+00 0.75647554E+03</pdfrwt>
<totfact> 0.86684739E+01</totfact>
</mgrwt>
</event>
<event>
 4    1  0.5280257E-005  0.6784976E+03  0.7818608E-02  0.9754728E-01
         -2   -1    0    0    0  501 -0.00000000000E+00  0.00000000000E+00  0.10188897921E+03  0.10188897924E+03  0.25500000000E-02 0. -1.
          2   -1    0    0  501    0  0.00000000000E+00 -0.00000000000E+00 -0.11295603335E+04  0.11295603335E+04  0.25500000000E-02 0.  1.
    5000001    1    1    2    0    0 -0.39633512803E+02  0.29316913221E+03 -0.54758592071E+03  0.64388997195E+03  0.16500000000E+03 0.  0.
   -5000001    1    1    2    0    0  0.39633512803E+02 -0.29316913221E+03 -0.48008543362E+03  0.58755934082E+03  0.16500000000E+03 0.  0.
<mgrwt>
<rscale>  0 0.67849760E+03</rscale>
<asrwt>0</asrwt>
<pdfrwt beam="1">  1        2 0.16136575E+00 0.67849760E+03</pdfrwt>
<pdfrwt beam="2">  1       -2 0.14555569E-01 0.67849760E+03</pdfrwt>
<totfact> 0.87045007E+02</totfact>
</mgrwt>
</event>
<event>
 4    1  0.5280257E-005  0.1184059E+04  0.7818608E-02  0.9126925E-01
          2   -1    0    0  501    0  0.00000000000E+00  0.00000000000E+00  0.42150246182E+04  0.42150246182E+04  0.25500000000E-02 0.  1.
         -2   -1    0    0    0  501 -0.00000000000E+00 -0.00000000000E+00 -0.83154711413E+02  0.83154711452E+02  0.25500000000E-02 0. -1.
    5000001    1    1    2    0    0 -0.40869658214E+03  0.39464340805E+03  0.19849403732E+04  0.20712290074E+04  0.16500000000E+03 0.  0.
   -5000001    1    1    2    0    0  0.40869658214E+03 -0.39464340805E+03  0.21469295336E+04  0.22269503223E+04  0.16500000000E+03 0.  0.
<mgrwt>
<rscale>  0 0.11840594E+04</rscale>
<asrwt>0</asrwt>
<pdfrwt beam="1">  1        2 0.60214653E+00 0.11840594E+04</pdfrwt>
<pdfrwt beam="2">  1       -2 0.11879241E-01 0.11840594E+04</pdfrwt>
<totfact> 0.21385936E+01</totfact>
</mgrwt>
</event>
<event>
 4    1  0.5280257E-005  0.4914185E+03  0.7818608E-02  0.1016043E+00
          2   -1    0    0  501    0  0.00000000000E+00  0.00000000000E+00  0.61366843303E+03  0.61366843304E+03  0.25500000000E-02 0.  1.
         -2   -1    0    0    0  501 -0.00000000000E+00 -0.00000000000E+00 -0.98380527854E+02  0.98380527887E+02  0.25500000000E-02 0. -1.
    5000001    1    1    2    0    0 -0.16237123558E+02  0.17831538099E+03  0.30543800565E+03  0.39061156483E+03  0.16500000000E+03 0.  0.
   -5000001    1    1    2    0    0  0.16237123558E+02 -0.17831538099E+03  0.20984989953E+03  0.32143739610E+03  0.16500000000E+03 0.  0.
<mgrwt>
<rscale>  0 0.49141845E+03</rscale>
<asrwt>0</asrwt>
<pdfrwt beam="1">  1        2 0.87666918E-01 0.49141845E+03</pdfrwt>
<pdfrwt beam="2">  1       -2 0.14054361E-01 0.49141845E+03</pdfrwt>
<totfact> 0.20571303E+03</totfact>
</mgrwt>
</event>
<event>
 4    1  0.5280257E-005  0.4032221E+03  0.7818608E-02  0.1042670E+00
         -2   -1    0    0    0  501 -0.00000000000E+00  0.00000000000E+00  0.14993648889E+03  0.14993648891E+03  0.25500000000E-02 0. -1.
          2   -1    0    0  501    0  0.00000000000E+00 -0.00000000000E+00 -0.27109485460E+03  0.27109485461E+03  0.25500000000E-02 0.  1.
    5000001    1    1    2    0    0  0.79974165290E+02  0.83538207251E+02 -0.67776479363E+02  0.21258680660E+03  0.16500000000E+03 0.  0.
   -5000001    1    1    2    0    0 -0.79974165290E+02 -0.83538207251E+02 -0.53381886345E+02  0.20844453693E+03  0.16500000000E+03 0.  0.
<mgrwt>
<rscale>  0 0.40322208E+03</rscale>
<asrwt>0</asrwt>
<pdfrwt beam="1">  1        2 0.38727836E-01 0.40322208E+03</pdfrwt>
<pdfrwt beam="2">  1       -2 0.21419499E-01 0.40322208E+03</pdfrwt>
<totfact> 0.24887735E+03</totfact>
</mgrwt>
</event>
<event>
 4    1  0.5280257E-005  0.4528783E+03  0.7818608E-02  0.1026867E+00
         -2   -1    0    0    0  501 -0.00000000000E+00  0.00000000000E+00  0.17881143706E+04  0.17881143706E+04  0.25500000000E-02 0. -1.
          2   -1    0    0  501    0  0.00000000000E+00 -0.00000000000E+00 -0.28675288661E+02  0.28675288774E+02  0.25500000000E-02 0.  1.
    5000001    1    1    2    0    0 -0.10683339285E+03  0.30407389764E+02  0.13138630494E+04  0.13288337352E+04  0.16500000000E+03 0.  0.
   -5000001    1    1    2    0    0  0.10683339285E+03 -0.30407389764E+02  0.44557603251E+03  0.48795592416E+03  0.16500000000E+03 0.  0.
<mgrwt>
<rscale>  0 0.45287833E+03</rscale>
<asrwt>0</asrwt>
<pdfrwt beam="1">  1        2 0.40964680E-02 0.45287833E+03</pdfrwt>
<pdfrwt beam="2">  1       -2 0.25544503E+00 0.45287833E+03</pdfrwt>
<totfact> 0.13534830E+02</totfact>
</mgrwt>
</event>
<event>
 4    1  0.5280257E-005  0.5301902E+03  0.7818608E-02  0.1006186E+00
          2   -1    0    0  501    0  0.00000000000E+00  0.00000000000E+00  0.10485850129E+04  0.10485850129E+04  0.25500000000E-02 0.  1.
         -2   -1    0    0    0  501 -0.00000000000E+00 -0.00000000000E+00 -0.67019274799E+02  0.67019274847E+02  0.25500000000E-02 0. -1.
    5000001    1    1    2    0    0  0.72732121037E+02 -0.19425016656E+03  0.47978503748E+03  0.54812568890E+03  0.16500000000E+03 0.  0.
   -5000001    1    1    2    0    0 -0.72732121037E+02  0.19425016656E+03  0.50178070064E+03  0.56747859887E+03  0.16500000000E+03 0.  0.
<mgrwt>
<rscale>  0 0.53019018E+03</rscale>
<asrwt>0</asrwt>
<pdfrwt beam="1">  1        2 0.14979785E+00 0.53019018E+03</pdfrwt>
<pdfrwt beam="2">  1       -2 0.95741825E-02 0.53019018E+03</pdfrwt>
<totfact> 0.19399952E+03</totfact>
</mgrwt>
</event>
<event>
 4    1  0.5280257E-005  0.5841610E+03  0.7818608E-02  0.9938823E-01
          2   -1    0    0  501    0  0.00000000000E+00  0.00000000000E+00  0.15485663762E+04  0.15485663762E+04  0.25500000000E-02 0. -1.
         -2   -1    0    0    0  501 -0.00000000000E+00 -0.00000000000E+00 -0.55090328372E+02  0.55090328431E+02  0.25500000000E-02 0.  1.
    5000001    1    1    2    0    0 -0.16858918077E+03  0.11090142387E+03  0.11084901680E+04  0.11387259943E+04  0.16500000000E+03 0.  0.
   -5000001    1    1    2    0    0  0.16858918077E+03 -0.11090142387E+03  0.38498587985E+03  0.46493071029E+03  0.16500000000E+03 0.  0.
<mgrwt>
<rscale>  0 0.58416104E+03</rscale>
<asrwt>0</asrwt>
<pdfrwt beam="1">  1        2 0.22122376E+00 0.58416104E+03</pdfrwt>
<pdfrwt beam="2">  1       -2 0.78700473E-02 0.58416104E+03</pdfrwt>
<totfact> 0.14133320E+03</totfact>
</mgrwt>
</event>
<event>
 4    1  0.5280257E-005  0.4270289E+03  0.7818608E-02  0.1034803E+00
         -2   -1    0    0    0  501 -0.00000000000E+00  0.00000000000E+00  0.28656819787E+02  0.28656819901E+02  0.25500000000E-02 0. -1.
          2   -1    0    0  501    0  0.00000000000E+00 -0.00000000000E+00 -0.15908403754E+04  0.15908403754E+04  0.25500000000E-02 0.  1.
    5000001    1    1    2    0    0  0.47823279355E+02 -0.35805540443E+01 -0.12617579179E+04  0.12734040717E+04  0.16500000000E+03 0.  0.
   -5000001    1    1    2    0    0 -0.47823279355E+02  0.35805540443E+01 -0.30042563770E+03  0.34609312360E+03  0.16500000000E+03 0.  0.
<mgrwt>
<rscale>  0 0.42702893E+03</rscale>
<asrwt>0</asrwt>
<pdfrwt beam="1">  1        2 0.22726286E+00 0.42702893E+03</pdfrwt>
<pdfrwt beam="2">  1       -2 0.40938324E-02 0.42702893E+03</pdfrwt>
<totfact> 0.37304478E+03</totfact>
</mgrwt>
</event>
<event>
 4    1  0.5280257E-005  0.5859316E+03  0.7818608E-02  0.9935031E-01
          2   -1    0    0  501    0  0.00000000000E+00  0.00000000000E+00  0.60795755772E+03  0.60795755773E+03  0.25500000000E-02 0.  1.
         -2   -1    0    0    0  501 -0.00000000000E+00 -0.00000000000E+00 -0.14117592520E+03  0.14117592523E+03  0.25500000000E-02 0. -1.
    5000001    1    1    2    0    0  0.81988437013E+02 -0.21519816219E+03  0.32882477139E+03  0.43403120060E+03  0.16500000000E+03 0.  0.
   -5000001    1    1    2    0    0 -0.81988437013E+02  0.21519816219E+03  0.13795686113E+03  0.31510228236E+03  0.16500000000E+03 0.  0.
<mgrwt>
<rscale>  0 0.58593164E+03</rscale>
<asrwt>0</asrwt>
<pdfrwt beam="1">  1        2 0.86851079E-01 0.58593164E+03</pdfrwt>
<pdfrwt beam="2">  1       -2 0.20167989E-01 0.58593164E+03</pdfrwt>
<totfact> 0.11247012E+03</totfact>
</mgrwt>
</event>
<event>
 4    1  0.5280257E-005  0.9765914E+03  0.7818608E-02  0.9334598E-01
          2   -1    0    0  501    0  0.00000000000E+00  0.00000000000E+00  0.43738344633E+04  0.43738344633E+04  0.25500000000E-02 0.  1.
         -2   -1    0    0    0  501 -0.00000000000E+00 -0.00000000000E+00 -0.54513424484E+02  0.54513424544E+02  0.25500000000E-02 0. -1.
    5000001    1    1    2    0    0  0.40714189757E+03 -0.12228172757E+02  0.11946157680E+04  0.12728887956E+04  0.16500000000E+03 0.  0.
   -5000001    1    1    2    0    0 -0.40714189757E+03  0.12228172757E+02  0.31247052708E+04  0.31554590922E+04  0.16500000000E+03 0.  0.
<mgrwt>
<rscale>  0 0.97659141E+03</rscale>
<asrwt>0</asrwt>
<pdfrwt beam="1">  1        2 0.62483350E+00 0.97659141E+03</pdfrwt>
<pdfrwt beam="2">  1       -2 0.77876320E-02 0.97659141E+03</pdfrwt>
<totfact> 0.33414621E+01</totfact>
</mgrwt>
</event>
<event>
 4    1  0.5280257E-005  0.4289703E+03  0.7818608E-02  0.1034186E+00
         -2   -1    0    0    0  501 -0.00000000000E+00  0.00000000000E+00  0.78309125606E+02  0.78309125648E+02  0.25500000000E-02 0. -1.
          2   -1    0    0  501    0  0.00000000000E+00 -0.00000000000E+00 -0.58746505738E+03  0.58746505739E+03  0.25500000000E-02 0.  1.
    5000001    1    1    2    0    0 -0.10483178611E+03 -0.83577166117E+02 -0.21056956586E+03  0.29923132881E+03  0.16500000000E+03 0.  0.
   -5000001    1    1    2    0    0  0.10483178611E+03  0.83577166117E+02 -0.29858636591E+03  0.36654285422E+03  0.16500000000E+03 0.  0.
<mgrwt>
<rscale>  0 0.42897028E+03</rscale>
<asrwt>0</asrwt>
<pdfrwt beam="1">  1        2 0.83923577E-01 0.42897028E+03</pdfrwt>
<pdfrwt beam="2">  1       -2 0.11187018E-01 0.42897028E+03</pdfrwt>
<totfact> 0.31452816E+03</totfact>
</mgrwt>
</event>
<event>
 4    1  0.5280257E-005  0.4922780E+03  0.7818608E-02  0.1015814E+00
          2   -1    0    0  501    0  0.00000000000E+00  0.00000000000E+00  0.26997795316E+04  0.26997795316E+04  0.25500000000E-02 0.  1.
         -2   -1    0    0    0  501 -0.00000000000E+00 -0.00000000000E+00 -0.22440501476E+02  0.22440501620E+02  0.25500000000E-02 0. -1.
    5000001    1    1    2    0    0 -0.16078519617E+03 -0.81544173311E+02  0.11766842583E+04  0.12017953966E+04  0.16500000000E+03 0.  0.
   -5000001    1    1    2    0    0  0.16078519617E+03  0.81544173311E+02  0.15006547718E+04  0.15204246366E+04  0.16500000000E+03 0.  0.
<mgrwt>
<rscale>  0 0.49227800E+03</rscale>
<asrwt>0</asrwt>
<pdfrwt beam="1">  1        2 0.38568300E+00 0.49227800E+03</pdfrwt>
<pdfrwt beam="2">  1       -2 0.32057842E-02 0.49227800E+03</pdfrwt>
<totfact> 0.14922844E+03</totfact>
</mgrwt>
</event>
<event>
 4    1  0.5280257E-005  0.1227997E+04  0.7818608E-02  0.9088698E-01
          2   -1    0    0  501    0  0.00000000000E+00  0.00000000000E+00  0.30815450803E+04  0.30815450803E+04  0.25500000000E-02 0.  1.
         -2   -1    0    0    0  501 -0.00000000000E+00 -0.00000000000E+00 -0.12233930960E+03  0.12233930963E+03  0.25500000000E-02 0. -1.
    5000001    1    1    2    0    0  0.32504568175E+03  0.14652861681E+03  0.24852696688E+03  0.46488276375E+03  0.16500000000E+03 0.  0.
   -5000001    1    1    2    0    0 -0.32504568175E+03 -0.14652861681E+03  0.27106788038E+04  0.27390016262E+04  0.16500000000E+03 0.  0.
<mgrwt>
<rscale>  0 0.12279969E+04</rscale>
<asrwt>0</asrwt>
<pdfrwt beam="1">  1        2 0.44022066E+00 0.12279969E+04</pdfrwt>
<pdfrwt beam="2">  1       -2 0.17477047E-01 0.12279969E+04</pdfrwt>
<totfact> 0.57188037E+01</totfact>
</mgrwt>
</event>
<event>
 4    1  0.5280257E-005  0.5251636E+03  0.7818608E-02  0.1007412E+00
         -2   -1    0    0    0  501 -0.00000000000E+00  0.00000000000E+00  0.44459041899E+02  0.44459041972E+02  0.25500000000E-02 0. -1.
          2   -1    0    0  501    0  0.00000000000E+00 -0.00000000000E+00 -0.15508475411E+04  0.15508475411E+04  0.25500000000E-02 0.  1.
    5000001    1    1    2    0    0  0.53846287041E+02 -0.23439833915E+02 -0.13474989015E+04  0.13588330059E+04  0.16500000000E+03 0.  0.
   -5000001    1    1    2    0    0 -0.53846287041E+02  0.23439833915E+02 -0.15888959776E+03  0.23647357721E+03  0.16500000000E+03 0.  0.
<mgrwt>
<rscale>  0 0.52516358E+03</rscale>
<asrwt>0</asrwt>
<pdfrwt beam="1">  1        2 0.22154961E+00 0.52516358E+03</pdfrwt>
<pdfrwt beam="2">  1       -2 0.63512927E-02 0.52516358E+03</pdfrwt>
<totfact> 0.19809285E+03</totfact>
</mgrwt>
</event>
<event>
 4    1  0.5280257E-005  0.5347484E+03  0.7818608E-02  0.1005087E+00
          2   -1    0    0  501    0  0.00000000000E+00  0.00000000000E+00  0.11045313864E+03  0.11045313867E+03  0.25500000000E-02 0.  1.
         -2   -1    0    0    0  501 -0.00000000000E+00 -0.00000000000E+00 -0.64723331463E+03  0.64723331463E+03  0.25500000000E-02 0. -1.
    5000001    1    1    2    0    0  0.11001504605E+03 -0.97755943884E+02 -0.48141809844E+03  0.52976213570E+03  0.16500000000E+03 0.  0.
   -5000001    1    1    2    0    0 -0.11001504605E+03  0.97755943884E+02 -0.55362077550E+02  0.22792431760E+03  0.16500000000E+03 0.  0.
<mgrwt>
<rscale>  0 0.53474836E+03</rscale>
<asrwt>0</asrwt>
<pdfrwt beam="1">  1        2 0.15779020E-01 0.53474836E+03</pdfrwt>
<pdfrwt beam="2">  1       -2 0.92461900E-01 0.53474836E+03</pdfrwt>
<totfact> 0.37833531E+02</totfact>
</mgrwt>
</event>
<event>
 4    1  0.5280257E-005  0.4764535E+03  0.7818608E-02  0.1020114E+00
          2   -1    0    0  501    0  0.00000000000E+00  0.00000000000E+00  0.16920551678E+04  0.16920551678E+04  0.25500000000E-02 0.  1.
         -2   -1    0    0    0  501 -0.00000000000E+00 -0.00000000000E+00 -0.33540266866E+02  0.33540266963E+02  0.25500000000E-02 0. -1.
    5000001    1    1    2    0    0  0.15273081276E+03  0.49353857914E+02  0.10514711471E+04  0.10763731127E+04  0.16500000000E+03 0.  0.
   -5000001    1    1    2    0    0 -0.15273081276E+03 -0.49353857914E+02  0.60704375380E+03  0.64922232208E+03  0.16500000000E+03 0.  0.
<mgrwt>
<rscale>  0 0.47645349E+03</rscale>
<asrwt>0</asrwt>
<pdfrwt beam="1">  1        2 0.24172216E+00 0.47645349E+03</pdfrwt>
<pdfrwt beam="2">  1       -2 0.47914669E-02 0.47645349E+03</pdfrwt>
<totfact> 0.26031952E+03</totfact>
</mgrwt>
</event>
<event>
 4    1  0.5280257E-005  0.4495488E+03  0.7818608E-02  0.1027857E+00
         -2   -1    0    0    0  501 -0.00000000000E+00  0.00000000000E+00  0.41593496185E+02  0.41593496263E+02  0.25500000000E-02 0. -1.
          2   -1    0    0  501    0  0.00000000000E+00 -0.00000000000E+00 -0.12146978154E+04  0.12146978154E+04  0.25500000000E-02 0.  1.
    5000001    1    1    2    0    0  0.69831518274E+02 -0.78958464994E+02 -0.89506517346E+03  0.91623007203E+03  0.16500000000E+03 0.  0.
   -5000001    1    1    2    0    0 -0.69831518274E+02  0.78958464994E+02 -0.27803914579E+03  0.34006123967E+03  0.16500000000E+03 0.  0.
<mgrwt>
<rscale>  0 0.44954879E+03</rscale>
<asrwt>0</asrwt>
<pdfrwt beam="1">  1        2 0.17352824E+00 0.44954879E+03</pdfrwt>
<pdfrwt beam="2">  1       -2 0.59419288E-02 0.44954879E+03</pdfrwt>
<totfact> 0.33164058E+03</totfact>
</mgrwt>
</event>
<event>
 4    1  0.5280257E-005  0.4430969E+03  0.7818608E-02  0.1029801E+00
          2   -1    0    0  501    0  0.00000000000E+00  0.00000000000E+00  0.49076023566E+03  0.49076023567E+03  0.25500000000E-02 0.  1.
         -2   -1    0    0    0  501 -0.00000000000E+00 -0.00000000000E+00 -0.10001569437E+03  0.10001569441E+03  0.25500000000E-02 0. -1.
    5000001    1    1    2    0    0  0.76636657205E+02 -0.77487420332E+02  0.32857602462E+03  0.38349013220E+03  0.16500000000E+03 0.  0.
   -5000001    1    1    2    0    0 -0.76636657205E+02  0.77487420332E+02  0.62168516666E+02  0.20728579788E+03  0.16500000000E+03 0.  0.
<mgrwt>
<rscale>  0 0.44309695E+03</rscale>
<asrwt>0</asrwt>
<pdfrwt beam="1">  1        2 0.70108605E-01 0.44309695E+03</pdfrwt>
<pdfrwt beam="2">  1       -2 0.14287956E-01 0.44309695E+03</pdfrwt>
<totfact> 0.25839715E+03</totfact>
</mgrwt>
</event>
<event>
 4    1  0.5280257E-005  0.1548897E+04  0.7818608E-02  0.8852573E-01
          2   -1    0    0  501    0  0.00000000000E+00  0.00000000000E+00  0.65874066044E+03  0.65874066044E+03  0.25500000000E-02 0.  1.
         -2   -1    0    0    0  501 -0.00000000000E+00 -0.00000000000E+00 -0.91048003723E+03  0.91048003723E+03  0.25500000000E-02 0. -1.
    5000001    1    1    2    0    0 -0.58512222783E+03  0.32653681402E+03 -0.48198000414E+03  0.84173869865E+03  0.16500000000E+03 0.  0.
   -5000001    1    1    2    0    0  0.58512222783E+03 -0.32653681402E+03  0.23024062735E+03  0.72748199902E+03  0.16500000000E+03 0.  0.
<mgrwt>
<rscale>  0 0.15488967E+04</rscale>
<asrwt>0</asrwt>
<pdfrwt beam="1">  1        2 0.94105809E-01 0.15488967E+04</pdfrwt>
<pdfrwt beam="2">  1       -2 0.13006858E+00 0.15488967E+04</pdfrwt>
<totfact> 0.20286146E+01</totfact>
</mgrwt>
</event>
<event>
 4    1  0.5280257E-005  0.4608536E+03  0.7818608E-02  0.1024534E+00
         -2   -1    0    0    0  501 -0.00000000000E+00  0.00000000000E+00  0.13128543625E+02  0.13128543873E+02  0.25500000000E-02 0. -1.
          2   -1    0    0  501    0  0.00000000000E+00 -0.00000000000E+00 -0.40443572700E+04  0.40443572700E+04  0.25500000000E-02 0.  1.
    5000001    1    1    2    0    0  0.77031014261E+02 -0.13471904988E+03 -0.16432731591E+04  0.16588112234E+04  0.16500000000E+03 0.  0.
   -5000001    1    1    2    0    0 -0.77031014261E+02  0.13471904988E+03 -0.23879555672E+04  0.23986745904E+04  0.16500000000E+03 0.  0.
<mgrwt>
<rscale>  0 0.46085365E+03</rscale>
<asrwt>0</asrwt>
<pdfrwt beam="1">  1        2 0.57776453E+00 0.46085365E+03</pdfrwt>
<pdfrwt beam="2">  1       -2 0.18755088E-02 0.46085365E+03</pdfrwt>
<totfact> 0.55375263E+02</totfact>
</mgrwt>
</event>
<event>
 4    1  0.5280257E-005  0.4486265E+03  0.7818608E-02  0.1028132E+00
          2   -1    0    0  501    0  0.00000000000E+00  0.00000000000E+00  0.25212601644E+04  0.25212601644E+04  0.25500000000E-02 0.  1.
         -2   -1    0    0    0  501 -0.00000000000E+00 -0.00000000000E+00 -0.19956854758E+02  0.19956854921E+02  0.25500000000E-02 0. -1.
    5000001    1    1    2    0    0  0.94808542934E+02  0.10156286060E+03  0.90203554253E+03  0.92746794794E+03  0.16500000000E+03 0.  0.
   -5000001    1    1    2    0    0 -0.94808542934E+02 -0.10156286060E+03  0.15992677671E+04  0.16137490714E+04  0.16500000000E+03 0.  0.
<mgrwt>
<rscale>  0 0.44862645E+03</rscale>
<asrwt>0</asrwt>
<pdfrwt beam="1">  1        2 0.36017988E+00 0.44862645E+03</pdfrwt>
<pdfrwt beam="2">  1       -2 0.28509804E-02 0.44862645E+03</pdfrwt>
<totfact> 0.22079400E+03</totfact>
</mgrwt>
</event>
<event>
 4    1  0.5280257E-005  0.4605042E+03  0.7818608E-02  0.1024635E+00
          2   -1    0    0  501    0  0.00000000000E+00  0.00000000000E+00  0.27383807779E+04  0.27383807779E+04  0.25500000000E-02 0.  1.
         -2   -1    0    0    0  501 -0.00000000000E+00 -0.00000000000E+00 -0.19360358055E+02  0.19360358222E+02  0.25500000000E-02 0. -1.
    5000001    1    1    2    0    0  0.13995068844E+03 -0.31784220100E+02  0.92789575985E+03  0.95331630269E+03  0.16500000000E+03 0.  0.
   -5000001    1    1    2    0    0 -0.13995068844E+03  0.31784220100E+02  0.17911246600E+04  0.18044248334E+04  0.16500000000E+03 0.  0.
<mgrwt>
<rscale>  0 0.46050421E+03</rscale>
<asrwt>0</asrwt>
<pdfrwt beam="1">  1        2 0.39119736E+00 0.46050421E+03</pdfrwt>
<pdfrwt beam="2">  1       -2 0.27657647E-02 0.46050421E+03</pdfrwt>
<totfact> 0.17853647E+03</totfact>
</mgrwt>
</event>
<event>
 4    1  0.5280257E-005  0.4277491E+03  0.7818608E-02  0.1034573E+00
          2   -1    0    0  501    0  0.00000000000E+00  0.00000000000E+00  0.12103995328E+03  0.12103995330E+03  0.25500000000E-02 0.  1.
         -2   -1    0    0    0  501 -0.00000000000E+00 -0.00000000000E+00 -0.37791096736E+03  0.37791096737E+03  0.25500000000E-02 0. -1.
    5000001    1    1    2    0    0 -0.11858883663E+03  0.47823313640E+02 -0.74136412308E+02  0.22152108056E+03  0.16500000000E+03 0.  0.
   -5000001    1    1    2    0    0  0.11858883663E+03 -0.47823313640E+02 -0.18273460178E+03  0.27742984012E+03  0.16500000000E+03 0.  0.
<mgrwt>
<rscale>  0 0.42774911E+03</rscale>
<asrwt>0</asrwt>
<pdfrwt beam="1">  1        2 0.17291422E-01 0.42774911E+03</pdfrwt>
<pdfrwt beam="2">  1       -2 0.53987281E-01 0.42774911E+03</pdfrwt>
<totfact> 0.10912182E+03</totfact>
</mgrwt>
</event>
<event>
 4    1  0.5280257E-005  0.4463366E+03  0.7818608E-02  0.1028820E+00
         -2   -1    0    0    0  501 -0.00000000000E+00  0.00000000000E+00  0.80168581213E+02  0.80168581254E+02  0.25500000000E-02 0. -1.
          2   -1    0    0  501    0  0.00000000000E+00 -0.00000000000E+00 -0.62124208276E+03  0.62124208277E+03  0.25500000000E-02 0.  1.
    5000001    1    1    2    0    0 -0.43745940053E+02 -0.13365662321E+03 -0.18736241313E+03  0.28654401765E+03  0.16500000000E+03 0.  0.
   -5000001    1    1    2    0    0  0.43745940053E+02  0.13365662321E+03 -0.35371108842E+03  0.41486664637E+03  0.16500000000E+03 0.  0.
<mgrwt>
<rscale>  0 0.44633663E+03</rscale>
<asrwt>0</asrwt>
<pdfrwt beam="1">  1        2 0.88748866E-01 0.44633663E+03</pdfrwt>
<pdfrwt beam="2">  1       -2 0.11452655E-01 0.44633663E+03</pdfrwt>
<totfact> 0.28379421E+03</totfact>
</mgrwt>
</event>
<event>
 4    1  0.5280257E-005  0.4202272E+03  0.7818608E-02  0.1036992E+00
          2   -1    0    0  501    0  0.00000000000E+00  0.00000000000E+00  0.45367252538E+03  0.45367252539E+03  0.25500000000E-02 0.  1.
         -2   -1    0    0    0  501 -0.00000000000E+00 -0.00000000000E+00 -0.97311855339E+02  0.97311855373E+02  0.25500000000E-02 0. -1.
    5000001    1    1    2    0    0  0.70425177620E+02 -0.10871778112E+03  0.19388435717E+03  0.28564909510E+03  0.16500000000E+03 0.  0.
   -5000001    1    1    2    0    0 -0.70425177620E+02  0.10871778112E+03  0.16247631287E+03  0.26533528566E+03  0.16500000000E+03 0.  0.
<mgrwt>
<rscale>  0 0.42022715E+03</rscale>
<asrwt>0</asrwt>
<pdfrwt beam="1">  1        2 0.64810361E-01 0.42022715E+03</pdfrwt>
<pdfrwt beam="2">  1       -2 0.13901693E-01 0.42022715E+03</pdfrwt>
<totfact> 0.29502661E+03</totfact>
</mgrwt>
</event>
<event>
 4    1  0.5280257E-005  0.5643430E+03  0.7818608E-02  0.9982275E-01
         -2   -1    0    0    0  501 -0.00000000000E+00  0.00000000000E+00  0.37493986346E+02  0.37493986432E+02  0.25500000000E-02 0. -1.
          2   -1    0    0  501    0  0.00000000000E+00 -0.00000000000E+00 -0.21235605950E+04  0.21235605950E+04  0.25500000000E-02 0.  1.
    5000001    1    1    2    0    0 -0.13982727393E+03  0.17017577594E+03 -0.80437394491E+03  0.85014934247E+03  0.16500000000E+03 0.  0.
   -5000001    1    1    2    0    0  0.13982727393E+03 -0.17017577594E+03 -0.12816926637E+04  0.13109052389E+04  0.16500000000E+03 0.  0.
<mgrwt>
<rscale>  0 0.56434299E+03</rscale>
<asrwt>0</asrwt>
<pdfrwt beam="1">  1        2 0.30336572E+00 0.56434299E+03</pdfrwt>
<pdfrwt beam="2">  1       -2 0.53562851E-02 0.56434299E+03</pdfrwt>
<totfact> 0.13267676E+03</totfact>
</mgrwt>
</event>
<event>
 4    1  0.5280257E-005  0.5848157E+03  0.7818608E-02  0.9937419E-01
          2   -1    0    0  501    0  0.00000000000E+00  0.00000000000E+00  0.26458494712E+04  0.26458494712E+04  0.25500000000E-02 0.  1.
         -2   -1    0    0    0  501 -0.00000000000E+00 -0.00000000000E+00 -0.32315651482E+02  0.32315651583E+02  0.25500000000E-02 0. -1.
    5000001    1    1    2    0    0 -0.11894590507E+03 -0.17386314466E+03  0.76683540818E+03  0.81218105410E+03  0.16500000000E+03 0.  0.
   -5000001    1    1    2    0    0  0.11894590507E+03  0.17386314466E+03  0.18466984115E+04  0.18659840687E+04  0.16500000000E+03 0.  0.
<mgrwt>
<rscale>  0 0.58481570E+03</rscale>
<asrwt>0</asrwt>
<pdfrwt beam="1">  1        2 0.37797833E+00 0.58481570E+03</pdfrwt>
<pdfrwt beam="2">  1       -2 0.46165237E-02 0.58481570E+03</pdfrwt>
<totfact> 0.90454801E+02</totfact>
</mgrwt>
</event>
<event>
 4    1  0.5280257E-005  0.4305470E+03  0.7818608E-02  0.1033687E+00
         -2   -1    0    0    0  501 -0.00000000000E+00  0.00000000000E+00  0.42418017264E+02  0.42418017341E+02  0.25500000000E-02 0. -1.
          2   -1    0    0  501    0  0.00000000000E+00 -0.00000000000E+00 -0.10925236892E+04  0.10925236892E+04  0.25500000000E-02 0.  1.
    5000001    1    1    2    0    0 -0.10899859184E+03 -0.55985120128E+01 -0.74881651820E+03  0.77450836941E+03  0.16500000000E+03 0.  0.
   -5000001    1    1    2    0    0  0.10899859184E+03  0.55985120128E+01 -0.30128915374E+03  0.36043333714E+03  0.16500000000E+03 0.  0.
<mgrwt>
<rscale>  0 0.43054704E+03</rscale>
<asrwt>0</asrwt>
<pdfrwt beam="1">  1        2 0.15607480E+00 0.43054704E+03</pdfrwt>
<pdfrwt beam="2">  1       -2 0.60597174E-02 0.43054704E+03</pdfrwt>
<totfact> 0.37682971E+03</totfact>
</mgrwt>
</event>
<event>
 4    1  0.5280257E-005  0.8507864E+03  0.7818608E-02  0.9489282E-01
         -2   -1    0    0    0  501 -0.00000000000E+00  0.00000000000E+00  0.76975789379E+02  0.76975789421E+02  0.25500000000E-02 0. -1.
          2   -1    0    0  501    0  0.00000000000E+00 -0.00000000000E+00 -0.23508609292E+04  0.23508609292E+04  0.25500000000E-02 0.  1.
    5000001    1    1    2    0    0  0.29579977466E+03 -0.16726093961E+03 -0.16951236233E+04  0.17367045883E+04  0.16500000000E+03 0.  0.
   -5000001    1    1    2    0    0 -0.29579977466E+03  0.16726093961E+03 -0.57876151647E+03  0.69113213032E+03  0.16500000000E+03 0.  0.
<mgrwt>
<rscale>  0 0.85078640E+03</rscale>
<asrwt>0</asrwt>
<pdfrwt beam="1">  1        2 0.33583723E+00 0.85078640E+03</pdfrwt>
<pdfrwt beam="2">  1       -2 0.10996543E-01 0.85078640E+03</pdfrwt>
<totfact> 0.31657478E+02</totfact>
</mgrwt>
</event>
<event>
 4    1  0.5280257E-005  0.3909836E+03  0.7818608E-02  0.1046947E+00
         -2   -1    0    0    0  501 -0.00000000000E+00  0.00000000000E+00  0.38016530336E+02  0.38016530421E+02  0.25500000000E-02 0. -1.
          2   -1    0    0  501    0  0.00000000000E+00 -0.00000000000E+00 -0.10052743431E+04  0.10052743431E+04  0.25500000000E-02 0.  1.
    5000001    1    1    2    0    0  0.10228739022E+03 -0.48917165815E+01 -0.54361713033E+03  0.57726183269E+03  0.16500000000E+03 0.  0.
   -5000001    1    1    2    0    0 -0.10228739022E+03  0.48917165815E+01 -0.42364068239E+03  0.46602904080E+03  0.16500000000E+03 0.  0.
<mgrwt>
<rscale>  0 0.39098359E+03</rscale>
<asrwt>0</asrwt>
<pdfrwt beam="1">  1        2 0.14361060E+00 0.39098359E+03</pdfrwt>
<pdfrwt beam="2">  1       -2 0.54309335E-02 0.39098359E+03</pdfrwt>
<totfact> 0.50176107E+03</totfact>
</mgrwt>
</event>
<event>
 4    1  0.5280257E-005  0.5817726E+03  0.7818608E-02  0.9943961E-01
         -2   -1    0    0    0  501 -0.00000000000E+00  0.00000000000E+00  0.21850942773E+02  0.21850942922E+02  0.25500000000E-02 0. -1.
          2   -1    0    0  501    0  0.00000000000E+00 -0.00000000000E+00 -0.38723660399E+04  0.38723660399E+04  0.25500000000E-02 0.  1.
    5000001    1    1    2    0    0  0.23792586644E+03 -0.20563625470E+02 -0.17985591523E+04  0.18218319366E+04  0.16500000000E+03 0.  0.
   -5000001    1    1    2    0    0 -0.23792586644E+03  0.20563625470E+02 -0.20519559448E+04  0.20723850463E+04  0.16500000000E+03 0.  0.
<mgrwt>
<rscale>  0 0.58177263E+03</rscale>
<asrwt>0</asrwt>
<pdfrwt beam="1">  1        2 0.55319471E+00 0.58177263E+03</pdfrwt>
<pdfrwt beam="2">  1       -2 0.31215657E-02 0.58177263E+03</pdfrwt>
<totfact> 0.32768218E+02</totfact>
</mgrwt>
</event>
<event>
 4    1  0.5280257E-005  0.7530289E+03  0.7818608E-02  0.9630610E-01
          2   -1    0    0  501    0  0.00000000000E+00  0.00000000000E+00  0.59406993774E+03  0.59406993774E+03  0.25500000000E-02 0.  1.
         -2   -1    0    0    0  501 -0.00000000000E+00 -0.00000000000E+00 -0.23863034914E+03  0.23863034915E+03  0.25500000000E-02 0. -1.
    5000001    1    1    2    0    0 -0.24770302202E+02  0.33107012621E+03  0.25037624341E+03  0.44736367711E+03  0.16500000000E+03 0.  0.
   -5000001    1    1    2    0    0  0.24770302202E+02 -0.33107012621E+03  0.10506334519E+03  0.38533660978E+03  0.16500000000E+03 0.  0.
<mgrwt>
<rscale>  0 0.75302886E+03</rscale>
<asrwt>0</asrwt>
<pdfrwt beam="1">  1        2 0.84867134E-01 0.75302886E+03</pdfrwt>
<pdfrwt beam="2">  1       -2 0.34090050E-01 0.75302886E+03</pdfrwt>
<totfact> 0.44436015E+02</totfact>
</mgrwt>
</event>
<event>
 4    1  0.5280257E-005  0.5084659E+03  0.7818608E-02  0.1011593E+00
          2   -1    0    0  501    0  0.00000000000E+00  0.00000000000E+00  0.12151643300E+04  0.12151643300E+04  0.25500000000E-02 0.  1.
         -2   -1    0    0    0  501 -0.00000000000E+00 -0.00000000000E+00 -0.53189837805E+02  0.53189837867E+02  0.25500000000E-02 0. -1.
    5000001    1    1    2    0    0 -0.19325574606E+03  0.65806033381E+01  0.57031453673E+03  0.62439951836E+03  0.16500000000E+03 0.  0.
   -5000001    1    1    2    0    0  0.19325574606E+03 -0.65806033381E+01  0.59165995549E+03  0.64395464954E+03  0.16500000000E+03 0.  0.
<mgrwt>
<rscale>  0 0.50846590E+03</rscale>
<asrwt>0</asrwt>
<pdfrwt beam="1">  1        2 0.17359492E+00 0.50846590E+03</pdfrwt>
<pdfrwt beam="2">  1       -2 0.75985477E-02 0.50846590E+03</pdfrwt>
<totfact> 0.22533976E+03</totfact>
</mgrwt>
</event>
<event>
 4    1  0.5280257E-005  0.3677050E+03  0.7818608E-02  0.1055574E+00
          2   -1    0    0  501    0  0.00000000000E+00  0.00000000000E+00  0.21670313985E+04  0.21670313985E+04  0.25500000000E-02 0.  1.
         -2   -1    0    0    0  501 -0.00000000000E+00 -0.00000000000E+00 -0.15598175582E+02  0.15598175791E+02  0.25500000000E-02 0. -1.
    5000001    1    1    2    0    0  0.42665692692E+02 -0.25626490676E+02  0.69565469434E+03  0.71668509969E+03  0.16500000000E+03 0.  0.
   -5000001    1    1    2    0    0 -0.42665692692E+02  0.25626490676E+02  0.14557785286E+04  0.14659444746E+04  0.16500000000E+03 0.  0.
<mgrwt>
<rscale>  0 0.36770497E+03</rscale>
<asrwt>0</asrwt>
<pdfrwt beam="1">  1        2 0.30957592E+00 0.36770497E+03</pdfrwt>
<pdfrwt beam="2">  1       -2 0.22283108E-02 0.36770497E+03</pdfrwt>
<totfact> 0.48202378E+03</totfact>
</mgrwt>
</event>
<event>
 4    1  0.5280257E-005  0.7096444E+03  0.7818608E-02  0.9700880E-01
          2   -1    0    0  501    0  0.00000000000E+00  0.00000000000E+00  0.24798227859E+04  0.24798227859E+04  0.25500000000E-02 0.  1.
         -2   -1    0    0    0  501 -0.00000000000E+00 -0.00000000000E+00 -0.50769267873E+02  0.50769267937E+02  0.25500000000E-02 0. -1.
    5000001    1    1    2    0    0 -0.16336375118E+03  0.11742804378E+03  0.20747885818E+04  0.20910403439E+04  0.16500000000E+03 0.  0.
   -5000001    1    1    2    0    0  0.16336375118E+03 -0.11742804378E+03  0.35426493621E+03  0.43955170992E+03  0.16500000000E+03 0.  0.
<mgrwt>
<rscale>  0 0.70964438E+03</rscale>
<asrwt>0</asrwt>
<pdfrwt beam="1">  1        2 0.35426041E+00 0.70964438E+03</pdfrwt>
<pdfrwt beam="2">  1       -2 0.72527524E-02 0.70964438E+03</pdfrwt>
<totfact> 0.53808652E+02</totfact>
</mgrwt>
</event>
<event>
 4    1  0.5280257E-005  0.4100933E+03  0.7818608E-02  0.1040340E+00
          2   -1    0    0  501    0  0.00000000000E+00  0.00000000000E+00  0.69612527283E+02  0.69612527330E+02  0.25500000000E-02 0. -1.
         -2   -1    0    0    0  501 -0.00000000000E+00 -0.00000000000E+00 -0.60397373354E+03  0.60397373354E+03  0.25500000000E-02 0.  1.
    5000001    1    1    2    0    0 -0.31098726230E+02  0.10662358295E+03 -0.34903376891E+03  0.40172788185E+03  0.16500000000E+03 0.  0.
   -5000001    1    1    2    0    0  0.31098726230E+02 -0.10662358295E+03 -0.18532743734E+03  0.27185837903E+03  0.16500000000E+03 0.  0.
<mgrwt>
<rscale>  0 0.41009335E+03</rscale>
<asrwt>0</asrwt>
<pdfrwt beam="1">  1        2 0.99446471E-02 0.41009335E+03</pdfrwt>
<pdfrwt beam="2">  1       -2 0.86281959E-01 0.41009335E+03</pdfrwt>
<totfact> 0.78202895E+02</totfact>
</mgrwt>
</event>
<event>
 4    1  0.5280257E-005  0.5601431E+03  0.7818608E-02  0.9991731E-01
         -2   -1    0    0    0  501 -0.00000000000E+00  0.00000000000E+00  0.85677885009E+02  0.85677885047E+02  0.25500000000E-02 0. -1.
          2   -1    0    0  501    0  0.00000000000E+00 -0.00000000000E+00 -0.91552311810E+03  0.91552311810E+03  0.25500000000E-02 0.  1.
    5000001    1    1    2    0    0 -0.18572156208E+03  0.93982366404E+02 -0.57368880589E+03  0.63219382299E+03  0.16500000000E+03 0.  0.
   -5000001    1    1    2    0    0  0.18572156208E+03 -0.93982366404E+02 -0.25615642719E+03  0.36900718016E+03  0.16500000000E+03 0.  0.
<mgrwt>
<rscale>  0 0.56014314E+03</rscale>
<asrwt>0</asrwt>
<pdfrwt beam="1">  1        2 0.13078901E+00 0.56014314E+03</pdfrwt>
<pdfrwt beam="2">  1       -2 0.12239698E-01 0.56014314E+03</pdfrwt>
<totfact> 0.15690217E+03</totfact>
</mgrwt>
</event>
<event>
 4    1  0.5280257E-005  0.4944536E+03  0.7818608E-02  0.1015237E+00
          2   -1    0    0  501    0  0.00000000000E+00  0.00000000000E+00  0.61066584446E+03  0.61066584446E+03  0.25500000000E-02 0.  1.
         -2   -1    0    0    0  501 -0.00000000000E+00 -0.00000000000E+00 -0.10008923858E+03  0.10008923861E+03  0.25500000000E-02 0. -1.
    5000001    1    1    2    0    0 -0.16391408368E+03 -0.43075211208E+02  0.15190356695E+03  0.28111028851E+03  0.16500000000E+03 0.  0.
   -5000001    1    1    2    0    0  0.16391408368E+03  0.43075211208E+02  0.35867303892E+03  0.42964479457E+03  0.16500000000E+03 0.  0.
<mgrwt>
<rscale>  0 0.49445355E+03</rscale>
<asrwt>0</asrwt>
<pdfrwt beam="1">  1        2 0.87237975E-01 0.49445355E+03</pdfrwt>
<pdfrwt beam="2">  1       -2 0.14298463E-01 0.49445355E+03</pdfrwt>
<totfact> 0.20105501E+03</totfact>
</mgrwt>
</event>
<event>
 4    1  0.5280257E-005  0.6585074E+03  0.7818608E-02  0.9790945E-01
          2   -1    0    0  501    0  0.00000000000E+00  0.00000000000E+00  0.41887466630E+04  0.41887466630E+04  0.25500000000E-02 0. -1.
         -2   -1    0    0    0  501 -0.00000000000E+00 -0.00000000000E+00 -0.25880773134E+02  0.25880773259E+02  0.25500000000E-02 0.  1.
    5000001    1    1    2    0    0  0.18752256921E+03 -0.21411261091E+03  0.19969885594E+04  0.20239064283E+04  0.16500000000E+03 0.  0.
   -5000001    1    1    2    0    0 -0.18752256921E+03  0.21411261091E+03  0.21658773305E+04  0.21907210080E+04  0.16500000000E+03 0.  0.
<mgrwt>
<rscale>  0 0.65850741E+03</rscale>
<asrwt>0</asrwt>
<pdfrwt beam="1">  1        2 0.59839291E+00 0.65850741E+03</pdfrwt>
<pdfrwt beam="2">  1       -2 0.36972500E-02 0.65850741E+03</pdfrwt>
<totfact> 0.15319885E+02</totfact>
</mgrwt>
</event>
<event>
 4    1  0.5280257E-005  0.3764687E+03  0.7818608E-02  0.1052247E+00
         -2   -1    0    0    0  501 -0.00000000000E+00  0.00000000000E+00  0.37087418810E+02  0.37087418898E+02  0.25500000000E-02 0. -1.
          2   -1    0    0  501    0  0.00000000000E+00 -0.00000000000E+00 -0.95536898333E+03  0.95536898334E+03  0.25500000000E-02 0.  1.
    5000001    1    1    2    0    0 -0.32223578214E+02  0.79979677484E+02 -0.38589061617E+03  0.42845265252E+03  0.16500000000E+03 0.  0.
   -5000001    1    1    2    0    0  0.32223578214E+02 -0.79979677484E+02 -0.53239094835E+03  0.56400374971E+03  0.16500000000E+03 0.  0.
<mgrwt>
<rscale>  0 0.37646870E+03</rscale>
<asrwt>0</asrwt>
<pdfrwt beam="1">  1        2 0.13648127E+00 0.37646870E+03</pdfrwt>
<pdfrwt beam="2">  1       -2 0.52982033E-02 0.37646870E+03</pdfrwt>
<totfact> 0.55843510E+03</totfact>
</mgrwt>
</event>
<event>
 4    1  0.5280257E-005  0.5273055E+03  0.7818608E-02  0.1006888E+00
          2   -1    0    0  501    0  0.00000000000E+00  0.00000000000E+00  0.37301557771E+03  0.37301557772E+03  0.25500000000E-02 0.  1.
         -2   -1    0    0    0  501 -0.00000000000E+00 -0.00000000000E+00 -0.18635356769E+03  0.18635356771E+03  0.25500000000E-02 0. -1.
    5000001    1    1    2    0    0 -0.11269743109E+03  0.16937518068E+03  0.61522356266E+02  0.26906999670E+03  0.16500000000E+03 0.  0.
   -5000001    1    1    2    0    0  0.11269743109E+03 -0.16937518068E+03  0.12513965376E+03  0.29029914872E+03  0.16500000000E+03 0.  0.
<mgrwt>
<rscale>  0 0.52730554E+03</rscale>
<asrwt>0</asrwt>
<pdfrwt beam="1">  1        2 0.53287939E-01 0.52730554E+03</pdfrwt>
<pdfrwt beam="2">  1       -2 0.26621938E-01 0.52730554E+03</pdfrwt>
<totfact> 0.11952291E+03</totfact>
</mgrwt>
</event>
<event>
 4    1  0.5280257E-005  0.6734185E+03  0.7818608E-02  0.9763802E-01
         -2   -1    0    0    0  501 -0.00000000000E+00  0.00000000000E+00  0.10505434420E+03  0.10505434423E+03  0.25500000000E-02 0. -1.
          2   -1    0    0  501    0  0.00000000000E+00 -0.00000000000E+00 -0.10791853351E+04  0.10791853351E+04  0.25500000000E-02 0.  1.
    5000001    1    1    2    0    0  0.27355003099E+02 -0.15628057152E+03 -0.52820576627E+02  0.23491897868E+03  0.16500000000E+03 0.  0.
   -5000001    1    1    2    0    0 -0.27355003099E+02  0.15628057152E+03 -0.92131041427E+03  0.94932070065E+03  0.16500000000E+03 0.  0.
<mgrwt>
<rscale>  0 0.67341847E+03</rscale>
<asrwt>0</asrwt>
<pdfrwt beam="1">  1        2 0.15416933E+00 0.67341847E+03</pdfrwt>
<pdfrwt beam="2">  1       -2 0.15007764E-01 0.67341847E+03</pdfrwt>
<totfact> 0.88472729E+02</totfact>
</mgrwt>
</event>
<event>
 4    1  0.5280257E-005  0.4538610E+03  0.7818608E-02  0.1026577E+00
          2   -1    0    0  501    0  0.00000000000E+00  0.00000000000E+00  0.24744810450E+03  0.24744810451E+03  0.25500000000E-02 0.  1.
         -2   -1    0    0    0  501 -0.00000000000E+00 -0.00000000000E+00 -0.20811412495E+03  0.20811412497E+03  0.25500000000E-02 0. -1.
    5000001    1    1    2    0    0 -0.28060645837E+02 -0.15324725899E+03  0.19096076602E+02  0.22773182117E+03  0.16500000000E+03 0.  0.
   -5000001    1    1    2    0    0  0.28060645837E+02  0.15324725899E+03  0.20237902939E+02  0.22783040831E+03  0.16500000000E+03 0.  0.
<mgrwt>
<rscale>  0 0.45386097E+03</rscale>
<asrwt>0</asrwt>
<pdfrwt beam="1">  1        2 0.35349729E-01 0.45386097E+03</pdfrwt>
<pdfrwt beam="2">  1       -2 0.29730589E-01 0.45386097E+03</pdfrwt>
<totfact> 0.15339023E+03</totfact>
</mgrwt>
</event>
<event>
 4    1  0.5280257E-005  0.5827070E+03  0.7818608E-02  0.9941947E-01
         -2   -1    0    0    0  501 -0.00000000000E+00  0.00000000000E+00  0.95770087532E+02  0.95770087566E+02  0.25500000000E-02 0. -1.
          2   -1    0    0  501    0  0.00000000000E+00 -0.00000000000E+00 -0.88636102586E+03  0.88636102586E+03  0.25500000000E-02 0.  1.
    5000001    1    1    2    0    0 -0.31818599672E+02  0.11994442708E+03 -0.48799443272E+02  0.21214493757E+03  0.16500000000E+03 0.  0.
   -5000001    1    1    2    0    0  0.31818599672E+02 -0.11994442708E+03 -0.74179149505E+03  0.76998617585E+03  0.16500000000E+03 0.  0.
<mgrwt>
<rscale>  0 0.58270704E+03</rscale>
<asrwt>0</asrwt>
<pdfrwt beam="1">  1        2 0.12662300E+00 0.58270704E+03</pdfrwt>
<pdfrwt beam="2">  1       -2 0.13681442E-01 0.58270704E+03</pdfrwt>
<totfact> 0.13619830E+03</totfact>
</mgrwt>
</event>
<event>
 4    1  0.5280257E-005  0.7443710E+03  0.7818608E-02  0.9644223E-01
          2   -1    0    0  501    0  0.00000000000E+00  0.00000000000E+00  0.19626296134E+04  0.19626296134E+04  0.25500000000E-02 0.  1.
         -2   -1    0    0    0  501 -0.00000000000E+00 -0.00000000000E+00 -0.70579822979E+02  0.70579823025E+02  0.25500000000E-02 0. -1.
    5000001    1    1    2    0    0  0.23785076067E+03  0.17712869669E+03  0.13634046460E+04  0.14050070421E+04  0.16500000000E+03 0.  0.
   -5000001    1    1    2    0    0 -0.23785076067E+03 -0.17712869669E+03  0.52864514438E+03  0.62820239432E+03  0.16500000000E+03 0.  0.
<mgrwt>
<rscale>  0 0.74437101E+03</rscale>
<asrwt>0</asrwt>
<pdfrwt beam="1">  1        2 0.28037564E+00 0.74437101E+03</pdfrwt>
<pdfrwt beam="2">  1       -2 0.10082832E-01 0.74437101E+03</pdfrwt>
<totfact> 0.57898992E+02</totfact>
</mgrwt>
</event>
<event>
 4    1  0.5280257E-005  0.5588542E+03  0.7818608E-02  0.9994651E-01
          2   -1    0    0  501    0  0.00000000000E+00  0.00000000000E+00  0.12909378956E+04  0.12909378956E+04  0.25500000000E-02 0.  1.
         -2   -1    0    0    0  501 -0.00000000000E+00 -0.00000000000E+00 -0.60482769907E+02  0.60482769960E+02  0.25500000000E-02 0. -1.
    5000001    1    1    2    0    0  0.25453528539E+02 -0.22358532570E+03  0.57966936553E+03  0.64333494645E+03  0.16500000000E+03 0.  0.
   -5000001    1    1    2    0    0 -0.25453528539E+02  0.22358532570E+03  0.65078576011E+03  0.70808571907E+03  0.16500000000E+03 0.  0.
<mgrwt>
<rscale>  0 0.55885418E+03</rscale>
<asrwt>0</asrwt>
<pdfrwt beam="1">  1        2 0.18441970E+00 0.55885418E+03</pdfrwt>
<pdfrwt beam="2">  1       -2 0.86403957E-02 0.55885418E+03</pdfrwt>
<totfact> 0.16675692E+03</totfact>
</mgrwt>
</event>
<event>
 4    1  0.5280257E-005  0.6179958E+03  0.7818608E-02  0.9868758E-01
          2   -1    0    0  501    0  0.00000000000E+00  0.00000000000E+00  0.43805966849E+03  0.43805966850E+03  0.25500000000E-02 0.  1.
         -2   -1    0    0    0  501 -0.00000000000E+00 -0.00000000000E+00 -0.21796050183E+03  0.21796050185E+03  0.25500000000E-02 0. -1.
    5000001    1    1    2    0    0 -0.19783954788E+03  0.16654223420E+03  0.70645526318E+02  0.31478975979E+03  0.16500000000E+03 0.  0.
   -5000001    1    1    2    0    0  0.19783954788E+03 -0.16654223420E+03  0.14945364034E+03  0.34123041056E+03  0.16500000000E+03 0.  0.
<mgrwt>
<rscale>  0 0.61799581E+03</rscale>
<asrwt>0</asrwt>
<pdfrwt beam="1">  1        2 0.62579954E-01 0.61799581E+03</pdfrwt>
<pdfrwt beam="2">  1       -2 0.31137214E-01 0.61799581E+03</pdfrwt>
<totfact> 0.74957610E+02</totfact>
</mgrwt>
</event>
<event>
 4    1  0.5280257E-005  0.5756095E+03  0.7818608E-02  0.9957342E-01
          2   -1    0    0  501    0  0.00000000000E+00  0.00000000000E+00  0.27724788679E+04  0.27724788679E+04  0.25500000000E-02 0.  1.
         -2   -1    0    0    0  501 -0.00000000000E+00 -0.00000000000E+00 -0.29876358676E+02  0.29876358784E+02  0.25500000000E-02 0. -1.
    5000001    1    1    2    0    0 -0.12424912995E+03 -0.15517346245E+03  0.19888513945E+04  0.20055601510E+04  0.16500000000E+03 0.  0.
   -5000001    1    1    2    0    0  0.12424912995E+03  0.15517346245E+03  0.75375111471E+03  0.79679507571E+03  0.16500000000E+03 0.  0.
<mgrwt>
<rscale>  0 0.57560950E+03</rscale>
<asrwt>0</asrwt>
<pdfrwt beam="1">  1        2 0.39606828E+00 0.57560950E+03</pdfrwt>
<pdfrwt beam="2">  1       -2 0.42680526E-02 0.57560950E+03</pdfrwt>
<totfact> 0.87710804E+02</totfact>
</mgrwt>
</event>
<event>
 4    1  0.5280257E-005  0.5962218E+03  0.7818608E-02  0.9913276E-01
          2   -1    0    0  501    0  0.00000000000E+00  0.00000000000E+00  0.51456953134E+03  0.51456953134E+03  0.25500000000E-02 0.  1.
         -2   -1    0    0    0  501 -0.00000000000E+00 -0.00000000000E+00 -0.17270769070E+03  0.17270769072E+03  0.25500000000E-02 0. -1.
    5000001    1    1    2    0    0  0.18201266289E+03  0.94442566654E+02  0.33229990689E+03  0.42390592821E+03  0.16500000000E+03 0.  0.
   -5000001    1    1    2    0    0 -0.18201266289E+03 -0.94442566654E+02  0.95619337420E+01  0.26337129385E+03  0.16500000000E+03 0.  0.
<mgrwt>
<rscale>  0 0.59622182E+03</rscale>
<asrwt>0</asrwt>
<pdfrwt beam="1">  1        2 0.73509935E-01 0.59622182E+03</pdfrwt>
<pdfrwt beam="2">  1       -2 0.24672527E-01 0.59622182E+03</pdfrwt>
<totfact> 0.95570873E+02</totfact>
</mgrwt>
</event>
<event>
 4    1  0.5280257E-005  0.4897805E+03  0.7818608E-02  0.1016481E+00
          2   -1    0    0  501    0  0.00000000000E+00  0.00000000000E+00  0.23014678739E+04  0.23014678739E+04  0.25500000000E-02 0.  1.
         -2   -1    0    0    0  501 -0.00000000000E+00 -0.00000000000E+00 -0.26057817466E+02  0.26057817590E+02  0.25500000000E-02 0. -1.
    5000001    1    1    2    0    0 -0.15745857411E+03 -0.34104445218E+02  0.15292892209E+04  0.15465790756E+04  0.16500000000E+03 0.  0.
   -5000001    1    1    2    0    0  0.15745857411E+03  0.34104445218E+02  0.74612083551E+03  0.78094661592E+03  0.16500000000E+03 0.  0.
<mgrwt>
<rscale>  0 0.48978048E+03</rscale>
<asrwt>0</asrwt>
<pdfrwt beam="1">  1        2 0.32878113E+00 0.48978048E+03</pdfrwt>
<pdfrwt beam="2">  1       -2 0.37225453E-02 0.48978048E+03</pdfrwt>
<totfact> 0.18988280E+03</totfact>
</mgrwt>
</event>
<event>
 4    1  0.5280257E-005  0.9238695E+03  0.7818608E-02  0.9396226E-01
          2   -1    0    0  501    0  0.00000000000E+00  0.00000000000E+00  0.16641544364E+03  0.16641544366E+03  0.25500000000E-02 0.  1.
         -2   -1    0    0    0  501 -0.00000000000E+00 -0.00000000000E+00 -0.12822349203E+04  0.12822349203E+04  0.25500000000E-02 0. -1.
    5000001    1    1    2    0    0 -0.21624141206E+03 -0.23858407025E+02 -0.11421523888E+04  0.11743366856E+04  0.16500000000E+03 0.  0.
   -5000001    1    1    2    0    0  0.21624141206E+03  0.23858407025E+02  0.26332912141E+02  0.27431367837E+03  0.16500000000E+03 0.  0.
<mgrwt>
<rscale>  0 0.92386946E+03</rscale>
<asrwt>0</asrwt>
<pdfrwt beam="1">  1        2 0.23773635E-01 0.92386946E+03</pdfrwt>
<pdfrwt beam="2">  1       -2 0.18317641E+00 0.92386946E+03</pdfrwt>
<totfact> 0.40227010E+01</totfact>
</mgrwt>
</event>
<event>
 4    1  0.5280257E-005  0.3861118E+03  0.7818608E-02  0.1048698E+00
          2   -1    0    0  501    0  0.00000000000E+00  0.00000000000E+00  0.10677800994E+03  0.10677800997E+03  0.25500000000E-02 0.  1.
         -2   -1    0    0    0  501 -0.00000000000E+00 -0.00000000000E+00 -0.34904742143E+03  0.34904742144E+03  0.25500000000E-02 0. -1.
    5000001    1    1    2    0    0 -0.50127962936E+01  0.99437464602E+02 -0.13473165865E+03  0.23513944232E+03  0.16500000000E+03 0.  0.
   -5000001    1    1    2    0    0  0.50127962936E+01 -0.99437464602E+02 -0.10753775284E+03  0.22068598908E+03  0.16500000000E+03 0.  0.
<mgrwt>
<rscale>  0 0.38611184E+03</rscale>
<asrwt>0</asrwt>
<pdfrwt beam="1">  1        2 0.15254002E-01 0.38611184E+03</pdfrwt>
<pdfrwt beam="2">  1       -2 0.49863917E-01 0.38611184E+03</pdfrwt>
<totfact> 0.14862060E+03</totfact>
</mgrwt>
</event>
<event>
 4    1  0.5280257E-005  0.5991257E+03  0.7818608E-02  0.9907222E-01
         -2   -1    0    0    0  501 -0.00000000000E+00  0.00000000000E+00  0.21320047626E+02  0.21320047778E+02  0.25500000000E-02 0. -1.
          2   -1    0    0  501    0  0.00000000000E+00 -0.00000000000E+00 -0.42090860574E+04  0.42090860574E+04  0.25500000000E-02 0.  1.
    5000001    1    1    2    0    0  0.17188201381E+03  0.18153930638E+03 -0.21193113989E+04  0.21403751428E+04  0.16500000000E+03 0.  0.
   -5000001    1    1    2    0    0 -0.17188201381E+03 -0.18153930638E+03 -0.20684546109E+04  0.20900309624E+04  0.16500000000E+03 0.  0.
<mgrwt>
<rscale>  0 0.59912575E+03</rscale>
<asrwt>0</asrwt>
<pdfrwt beam="1">  1        2 0.60129748E+00 0.59912575E+03</pdfrwt>
<pdfrwt beam="2">  1       -2 0.30457238E-02 0.59912575E+03</pdfrwt>
<totfact> 0.20110169E+02</totfact>
</mgrwt>
</event>
<event>
 4    1  0.5280257E-005  0.4218203E+03  0.7818608E-02  0.1036475E+00
         -2   -1    0    0    0  501 -0.00000000000E+00  0.00000000000E+00  0.51722910475E+02  0.51722910537E+02  0.25500000000E-02 0. -1.
          2   -1    0    0  501    0  0.00000000000E+00 -0.00000000000E+00 -0.86002674708E+03  0.86002674708E+03  0.25500000000E-02 0.  1.
    5000001    1    1    2    0    0 -0.57788777706E+02 -0.11785665565E+03 -0.39264278019E+03  0.44567150116E+03  0.16500000000E+03 0.  0.
   -5000001    1    1    2    0    0  0.57788777706E+02  0.11785665565E+03 -0.41566105641E+03  0.46607815646E+03  0.16500000000E+03 0.  0.
<mgrwt>
<rscale>  0 0.42182028E+03</rscale>
<asrwt>0</asrwt>
<pdfrwt beam="1">  1        2 0.12286096E+00 0.42182028E+03</pdfrwt>
<pdfrwt beam="2">  1       -2 0.73889877E-02 0.42182028E+03</pdfrwt>
<totfact> 0.38327263E+03</totfact>
</mgrwt>
</event>
<event>
 4    1  0.5280257E-005  0.6402193E+03  0.7818608E-02  0.9825307E-01
          2   -1    0    0  501    0  0.00000000000E+00  0.00000000000E+00  0.36997240533E+04  0.36997240533E+04  0.25500000000E-02 0.  1.
         -2   -1    0    0    0  501 -0.00000000000E+00 -0.00000000000E+00 -0.27696710462E+02  0.27696710579E+02  0.25500000000E-02 0. -1.
    5000001    1    1    2    0    0  0.10228571385E+02  0.22859096580E+03  0.27168020212E+04  0.27314092838E+04  0.16500000000E+03 0.  0.
   -5000001    1    1    2    0    0 -0.10228571385E+02 -0.22859096580E+03  0.95522532162E+03  0.99601148004E+03  0.16500000000E+03 0.  0.
<mgrwt>
<rscale>  0 0.64021929E+03</rscale>
<asrwt>0</asrwt>
<pdfrwt beam="1">  1        2 0.52853179E+00 0.64021929E+03</pdfrwt>
<pdfrwt beam="2">  1       -2 0.39566745E-02 0.64021929E+03</pdfrwt>
<totfact> 0.29100162E+02</totfact>
</mgrwt>
</event>
<event>
 4    1  0.5280257E-005  0.4773718E+03  0.7818608E-02  0.1019860E+00
          2   -1    0    0  501    0  0.00000000000E+00  0.00000000000E+00  0.63711174946E+03  0.63711174947E+03  0.25500000000E-02 0.  1.
         -2   -1    0    0    0  501 -0.00000000000E+00 -0.00000000000E+00 -0.89420666741E+02  0.89420666777E+02  0.25500000000E-02 0. -1.
    5000001    1    1    2    0    0  0.13152850523E+03 -0.11089809796E+02  0.44279641658E+03  0.49062857449E+03  0.16500000000E+03 0.  0.
   -5000001    1    1    2    0    0 -0.13152850523E+03  0.11089809796E+02  0.10489466614E+03  0.23590384176E+03  0.16500000000E+03 0.  0.
<mgrwt>
<rscale>  0 0.47737179E+03</rscale>
<asrwt>0</asrwt>
<pdfrwt beam="1">  1        2 0.91015963E-01 0.47737179E+03</pdfrwt>
<pdfrwt beam="2">  1       -2 0.12774381E-01 0.47737179E+03</pdfrwt>
<totfact> 0.23050082E+03</totfact>
</mgrwt>
</event>
<event>
 4    1  0.5280257E-005  0.5745797E+03  0.7818608E-02  0.9959595E-01
         -2   -1    0    0    0  501 -0.00000000000E+00  0.00000000000E+00  0.38568906416E+03  0.38568906417E+03  0.25500000000E-02 0. -1.
          2   -1    0    0  501    0  0.00000000000E+00 -0.00000000000E+00 -0.21399477724E+03  0.21399477725E+03  0.25500000000E-02 0.  1.
    5000001    1    1    2    0    0  0.96622013962E+02  0.20747933548E+03  0.29382019817E+02  0.28367550356E+03  0.16500000000E+03 0.  0.
   -5000001    1    1    2    0    0 -0.96622013962E+02 -0.20747933548E+03  0.14231226711E+03  0.31600833786E+03  0.16500000000E+03 0.  0.
<mgrwt>
<rscale>  0 0.57457966E+03</rscale>
<asrwt>0</asrwt>
<pdfrwt beam="1">  1        2 0.30570682E-01 0.57457966E+03</pdfrwt>
<pdfrwt beam="2">  1       -2 0.55098438E-01 0.57457966E+03</pdfrwt>
<totfact> 0.54375369E+02</totfact>
</mgrwt>
</event>
<event>
 4    1  0.5280257E-005  0.6676291E+03  0.7818608E-02  0.9774250E-01
          2   -1    0    0  501    0  0.00000000000E+00  0.00000000000E+00  0.26297699426E+04  0.26297699426E+04  0.25500000000E-02 0.  1.
         -2   -1    0    0    0  501 -0.00000000000E+00 -0.00000000000E+00 -0.42373341205E+02  0.42373341282E+02  0.25500000000E-02 0. -1.
    5000001    1    1    2    0    0 -0.18771125538E+03 -0.18268490415E+02  0.41100087968E+03  0.48136885674E+03  0.16500000000E+03 0.  0.
   -5000001    1    1    2    0    0  0.18771125538E+03  0.18268490415E+02  0.21763957217E+04  0.21907744272E+04  0.16500000000E+03 0.  0.
<mgrwt>
<rscale>  0 0.66762906E+03</rscale>
<asrwt>0</asrwt>
<pdfrwt beam="1">  1        2 0.37568141E+00 0.66762906E+03</pdfrwt>
<pdfrwt beam="2">  1       -2 0.60533346E-02 0.66762906E+03</pdfrwt>
<totfact> 0.60071287E+02</totfact>
</mgrwt>
</event>
<event>
 4    1  0.5280257E-005  0.6102214E+03  0.7818608E-02  0.9884424E-01
          2   -1    0    0  501    0  0.00000000000E+00  0.00000000000E+00  0.32730932830E+04  0.32730932830E+04  0.25500000000E-02 0.  1.
         -2   -1    0    0    0  501 -0.00000000000E+00 -0.00000000000E+00 -0.28441758782E+02  0.28441758896E+02  0.25500000000E-02 0. -1.
    5000001    1    1    2    0    0 -0.17999132524E+03  0.78457174922E+02  0.72813518245E+03  0.77198332196E+03  0.16500000000E+03 0.  0.
   -5000001    1    1    2    0    0  0.17999132524E+03 -0.78457174922E+02  0.25165163417E+04  0.25295517199E+04  0.16500000000E+03 0.  0.
<mgrwt>
<rscale>  0 0.61022137E+03</rscale>
<asrwt>0</asrwt>
<pdfrwt beam="1">  1        2 0.46758491E+00 0.61022137E+03</pdfrwt>
<pdfrwt beam="2">  1       -2 0.40631071E-02 0.61022137E+03</pdfrwt>
<totfact> 0.50223313E+02</totfact>
</mgrwt>
</event>
<event>
 4    1  0.5280257E-005  0.4892788E+03  0.7818608E-02  0.1016616E+00
          2   -1    0    0  501    0  0.00000000000E+00  0.00000000000E+00  0.13021924423E+03  0.13021924426E+03  0.25500000000E-02 0.  1.
         -2   -1    0    0    0  501 -0.00000000000E+00 -0.00000000000E+00 -0.45959746777E+03  0.45959746778E+03  0.25500000000E-02 0. -1.
    5000001    1    1    2    0    0  0.43254216357E+02  0.16972116258E+03 -0.21788399063E+03  0.32461459245E+03  0.16500000000E+03 0.  0.
   -5000001    1    1    2    0    0 -0.43254216357E+02 -0.16972116258E+03 -0.11149423291E+03  0.26520211959E+03  0.16500000000E+03 0.  0.
<mgrwt>
<rscale>  0 0.48927880E+03</rscale>
<asrwt>0</asrwt>
<pdfrwt beam="1">  1        2 0.18602749E-01 0.48927880E+03</pdfrwt>
<pdfrwt beam="2">  1       -2 0.65656780E-01 0.48927880E+03</pdfrwt>
<totfact> 0.66545730E+02</totfact>
</mgrwt>
</event>
<event>
 4    1  0.5280257E-005  0.1030914E+04  0.7818608E-02  0.9275274E-01
         -2   -1    0    0    0  501 -0.00000000000E+00  0.00000000000E+00  0.89422202545E+02  0.89422202582E+02  0.25500000000E-02 0. -1.
          2   -1    0    0  501    0  0.00000000000E+00 -0.00000000000E+00 -0.29712493558E+04  0.29712493558E+04  0.25500000000E-02 0.  1.
    5000001    1    1    2    0    0  0.28483224434E+03 -0.37502219883E+03 -0.18245745254E+04  0.18915782447E+04  0.16500000000E+03 0.  0.
   -5000001    1    1    2    0    0 -0.28483224434E+03  0.37502219883E+03 -0.10572526278E+04  0.11690933137E+04  0.16500000000E+03 0.  0.
<mgrwt>
<rscale>  0 0.10309135E+04</rscale>
<asrwt>0</asrwt>
<pdfrwt beam="1">  1        2 0.42446413E+00 0.10309135E+04</pdfrwt>
<pdfrwt beam="2">  1       -2 0.12774602E-01 0.10309135E+04</pdfrwt>
<totfact> 0.11421279E+02</totfact>
</mgrwt>
</event>
<event>
 4    1  0.5280257E-005  0.5237638E+03  0.7818608E-02  0.1007756E+00
          2   -1    0    0  501    0  0.00000000000E+00  0.00000000000E+00  0.44156315009E+03  0.44156315010E+03  0.25500000000E-02 0.  1.
         -2   -1    0    0    0  501 -0.00000000000E+00 -0.00000000000E+00 -0.15531669745E+03  0.15531669747E+03  0.25500000000E-02 0. -1.
    5000001    1    1    2    0    0 -0.15453305142E+03  0.12562733022E+03  0.96213321963E+02  0.27594327932E+03  0.16500000000E+03 0.  0.
   -5000001    1    1    2    0    0  0.15453305142E+03 -0.12562733022E+03  0.19003313068E+03  0.32093656824E+03  0.16500000000E+03 0.  0.
<mgrwt>
<rscale>  0 0.52376380E+03</rscale>
<asrwt>0</asrwt>
<pdfrwt beam="1">  1        2 0.63080452E-01 0.52376380E+03</pdfrwt>
<pdfrwt beam="2">  1       -2 0.22188099E-01 0.52376380E+03</pdfrwt>
<totfact> 0.13719341E+03</totfact>
</mgrwt>
</event>
<event>
 4    1  0.5280257E-005  0.4651586E+03  0.7818608E-02  0.1023296E+00
          2   -1    0    0  501    0  0.00000000000E+00  0.00000000000E+00  0.49893103262E+02  0.49893103327E+02  0.25500000000E-02 0.  1.
         -2   -1    0    0    0  501 -0.00000000000E+00 -0.00000000000E+00 -0.10841805959E+04  0.10841805959E+04  0.25500000000E-02 0. -1.
    5000001    1    1    2    0    0  0.15761571087E+03  0.20977081606E+02 -0.61421876261E+03  0.65557031554E+03  0.16500000000E+03 0.  0.
   -5000001    1    1    2    0    0 -0.15761571087E+03 -0.20977081606E+02 -0.42006873007E+03  0.47850338374E+03  0.16500000000E+03 0.  0.
<mgrwt>
<rscale>  0 0.46515862E+03</rscale>
<asrwt>0</asrwt>
<pdfrwt beam="1">  1        2 0.71275869E-02 0.46515862E+03</pdfrwt>
<pdfrwt beam="2">  1       -2 0.15488293E+00 0.46515862E+03</pdfrwt>
<totfact> 0.28833882E+02</totfact>
</mgrwt>
</event>
<event>
 4    1  0.5280257E-005  0.4461146E+03  0.7818608E-02  0.1028887E+00
         -2   -1    0    0    0  501 -0.00000000000E+00  0.00000000000E+00  0.39720722798E+02  0.39720722879E+02  0.25500000000E-02 0. -1.
          2   -1    0    0  501    0  0.00000000000E+00 -0.00000000000E+00 -0.12526096113E+04  0.12526096113E+04  0.25500000000E-02 0.  1.
    5000001    1    1    2    0    0 -0.14173596869E+03  0.41310074715E+02 -0.52796408877E+03  0.57250911445E+03  0.16500000000E+03 0.  0.
   -5000001    1    1    2    0    0  0.14173596869E+03 -0.41310074715E+02 -0.68492479972E+03  0.71982121972E+03  0.16500000000E+03 0.  0.
<mgrwt>
<rscale>  0 0.44611460E+03</rscale>
<asrwt>0</asrwt>
<pdfrwt beam="1">  1        2 0.17894421E+00 0.44611460E+03</pdfrwt>
<pdfrwt beam="2">  1       -2 0.56743898E-02 0.44611460E+03</pdfrwt>
<totfact> 0.33957353E+03</totfact>
</mgrwt>
</event>
<event>
 4    1  0.5280257E-005  0.5095027E+03  0.7818608E-02  0.1011328E+00
         -2   -1    0    0    0  501 -0.00000000000E+00  0.00000000000E+00  0.10349724216E+03  0.10349724219E+03  0.25500000000E-02 0. -1.
          2   -1    0    0  501    0  0.00000000000E+00 -0.00000000000E+00 -0.62705293185E+03  0.62705293186E+03  0.25500000000E-02 0.  1.
    5000001    1    1    2    0    0  0.26076475375E+02  0.17990097727E+03 -0.16422438101E+03  0.29536247478E+03  0.16500000000E+03 0.  0.
   -5000001    1    1    2    0    0 -0.26076475375E+02 -0.17990097727E+03 -0.35933130869E+03  0.43518769927E+03  0.16500000000E+03 0.  0.
<mgrwt>
<rscale>  0 0.50950270E+03</rscale>
<asrwt>0</asrwt>
<pdfrwt beam="1">  1        2 0.89578988E-01 0.50950270E+03</pdfrwt>
<pdfrwt beam="2">  1       -2 0.14785321E-01 0.50950270E+03</pdfrwt>
<totfact> 0.18429043E+03</totfact>
</mgrwt>
</event>
<event>
 4    1  0.5280257E-005  0.5759965E+03  0.7818608E-02  0.9956496E-01
         -2   -1    0    0    0  501 -0.00000000000E+00  0.00000000000E+00  0.25095958376E+02  0.25095958505E+02  0.25500000000E-02 0. -1.
          2   -1    0    0  501    0  0.00000000000E+00 -0.00000000000E+00 -0.33050337322E+04  0.33050337322E+04  0.25500000000E-02 0.  1.
    5000001    1    1    2    0    0 -0.22160701723E+03  0.52248365812E+02 -0.12799136418E+04  0.13104363747E+04  0.16500000000E+03 0.  0.
   -5000001    1    1    2    0    0  0.22160701723E+03 -0.52248365812E+02 -0.20000241320E+04  0.20196933160E+04  0.16500000000E+03 0.  0.
<mgrwt>
<rscale>  0 0.57599649E+03</rscale>
<asrwt>0</asrwt>
<pdfrwt beam="1">  1        2 0.47214740E+00 0.57599649E+03</pdfrwt>
<pdfrwt beam="2">  1       -2 0.35851390E-02 0.57599649E+03</pdfrwt>
<totfact> 0.58564650E+02</totfact>
</mgrwt>
</event>
<event>
 4    1  0.5280257E-005  0.6683700E+03  0.7818608E-02  0.9772907E-01
          2   -1    0    0  501    0  0.00000000000E+00  0.00000000000E+00  0.16104923260E+03  0.16104923262E+03  0.25500000000E-02 0.  1.
         -2   -1    0    0    0  501 -0.00000000000E+00 -0.00000000000E+00 -0.69345008902E+03  0.69345008902E+03  0.25500000000E-02 0. -1.
    5000001    1    1    2    0    0  0.16899404055E+03 -0.22504223935E+03 -0.17355137118E+03  0.36952411785E+03  0.16500000000E+03 0.  0.
   -5000001    1    1    2    0    0 -0.16899404055E+03  0.22504223935E+03 -0.35884948524E+03  0.48497520379E+03  0.16500000000E+03 0.  0.
<mgrwt>
<rscale>  0 0.66836997E+03</rscale>
<asrwt>0</asrwt>
<pdfrwt beam="1">  1        2 0.23007034E-01 0.66836997E+03</pdfrwt>
<pdfrwt beam="2">  1       -2 0.99064297E-01 0.66836997E+03</pdfrwt>
<totfact> 0.20592679E+02</totfact>
</mgrwt>
</event>
<event>
 4    1  0.5280257E-005  0.7017342E+03  0.7818608E-02  0.9714271E-01
          2   -1    0    0  501    0  0.00000000000E+00  0.00000000000E+00  0.75938142508E+03  0.75938142509E+03  0.25500000000E-02 0.  1.
         -2   -1    0    0    0  501 -0.00000000000E+00 -0.00000000000E+00 -0.16211580189E+03  0.16211580191E+03  0.25500000000E-02 0. -1.
    5000001    1    1    2    0    0 -0.85610759894E+02 -0.28667246555E+03  0.19380567844E+03  0.39280522618E+03  0.16500000000E+03 0.  0.
   -5000001    1    1    2    0    0  0.85610759894E+02  0.28667246555E+03  0.40345994475E+03  0.52869200082E+03  0.16500000000E+03 0.  0.
<mgrwt>
<rscale>  0 0.70173422E+03</rscale>
<asrwt>0</asrwt>
<pdfrwt beam="1">  1        2 0.10848306E+00 0.70173422E+03</pdfrwt>
<pdfrwt beam="2">  1       -2 0.23159400E-01 0.70173422E+03</pdfrwt>
<totfact> 0.67081957E+02</totfact>
</mgrwt>
</event>
<event>
 4    1  0.5280257E-005  0.4485941E+03  0.7818608E-02  0.1028142E+00
          2   -1    0    0  501    0  0.00000000000E+00  0.00000000000E+00  0.13322954820E+04  0.13322954820E+04  0.25500000000E-02 0.  1.
         -2   -1    0    0    0  501 -0.00000000000E+00 -0.00000000000E+00 -0.37761270268E+02  0.37761270354E+02  0.25500000000E-02 0. -1.
    5000001    1    1    2    0    0 -0.27959613487E+02 -0.14064587968E+03  0.49391641412E+03  0.54013093560E+03  0.16500000000E+03 0.  0.
   -5000001    1    1    2    0    0  0.27959613487E+02  0.14064587968E+03  0.80061779758E+03  0.82992581672E+03  0.16500000000E+03 0.  0.
<mgrwt>
<rscale>  0 0.44859411E+03</rscale>
<asrwt>0</asrwt>
<pdfrwt beam="1">  1        2 0.19032792E+00 0.44859411E+03</pdfrwt>
<pdfrwt beam="2">  1       -2 0.53944673E-02 0.44859411E+03</pdfrwt>
<totfact> 0.33266173E+03</totfact>
</mgrwt>
</event>
<event>
 4    1  0.5280257E-005  0.6214492E+03  0.7818608E-02  0.9861879E-01
         -2   -1    0    0    0  501 -0.00000000000E+00  0.00000000000E+00  0.26698497642E+03  0.26698497643E+03  0.25500000000E-02 0. -1.
          2   -1    0    0  501    0  0.00000000000E+00 -0.00000000000E+00 -0.36162996441E+03  0.36162996441E+03  0.25500000000E-02 0.  1.
    5000001    1    1    2    0    0 -0.13839956678E+03  0.13137021311E+03  0.13618656488E+03  0.28667813560E+03  0.16500000000E+03 0.  0.
   -5000001    1    1    2    0    0  0.13839956678E+03 -0.13137021311E+03 -0.23083155287E+03  0.34193680524E+03  0.16500000000E+03 0.  0.
<mgrwt>
<rscale>  0 0.62144917E+03</rscale>
<asrwt>0</asrwt>
<pdfrwt beam="1">  1        2 0.51661423E-01 0.62144917E+03</pdfrwt>
<pdfrwt beam="2">  1       -2 0.38140711E-01 0.62144917E+03</pdfrwt>
<totfact> 0.63212119E+02</totfact>
</mgrwt>
</event>
<event>
 4    1  0.5280257E-005  0.4332389E+03  0.7818608E-02  0.1032842E+00
          2   -1    0    0  501    0  0.00000000000E+00  0.00000000000E+00  0.19135935466E+04  0.19135935466E+04  0.25500000000E-02 0.  1.
         -2   -1    0    0    0  501 -0.00000000000E+00 -0.00000000000E+00 -0.24521395936E+02  0.24521396068E+02  0.25500000000E-02 0. -1.
    5000001    1    1    2    0    0  0.15629375045E+02  0.13531503403E+03  0.10958815190E+04  0.11165732128E+04  0.16500000000E+03 0.  0.
   -5000001    1    1    2    0    0 -0.15629375045E+02 -0.13531503403E+03  0.79319063164E+03  0.82154172987E+03  0.16500000000E+03 0.  0.
<mgrwt>
<rscale>  0 0.43323890E+03</rscale>
<asrwt>0</asrwt>
<pdfrwt beam="1">  1        2 0.27337051E+00 0.43323890E+03</pdfrwt>
<pdfrwt beam="2">  1       -2 0.35030565E-02 0.43323890E+03</pdfrwt>
<totfact> 0.32578898E+03</totfact>
</mgrwt>
</event>
<event>
 4    1  0.5280257E-005  0.4018114E+03  0.7818608E-02  0.1043154E+00
          2   -1    0    0  501    0  0.00000000000E+00  0.00000000000E+00  0.15186567983E+04  0.15186567983E+04  0.25500000000E-02 0.  1.
         -2   -1    0    0    0  501 -0.00000000000E+00 -0.00000000000E+00 -0.26578160623E+02  0.26578160746E+02  0.25500000000E-02 0. -1.
    5000001    1    1    2    0    0 -0.20152887752E+02 -0.10645746772E+03  0.88986812769E+03  0.91149855512E+03  0.16500000000E+03 0.  0.
   -5000001    1    1    2    0    0  0.20152887752E+02  0.10645746772E+03  0.60221051002E+03  0.63373640396E+03  0.16500000000E+03 0.  0.
<mgrwt>
<rscale>  0 0.40181142E+03</rscale>
<asrwt>0</asrwt>
<pdfrwt beam="1">  1        2 0.21695097E+00 0.40181142E+03</pdfrwt>
<pdfrwt beam="2">  1       -2 0.37968802E-02 0.40181142E+03</pdfrwt>
<totfact> 0.45528639E+03</totfact>
</mgrwt>
</event>
<event>
 4    1  0.5280257E-005  0.6240664E+03  0.7818608E-02  0.9856697E-01
         -2   -1    0    0    0  501 -0.00000000000E+00  0.00000000000E+00  0.13536926515E+03  0.13536926517E+03  0.25500000000E-02 0. -1.
          2   -1    0    0  501    0  0.00000000000E+00 -0.00000000000E+00 -0.71925280411E+03  0.71925280412E+03  0.25500000000E-02 0.  1.
    5000001    1    1    2    0    0 -0.19203016218E+03  0.12787575864E+03 -0.11385162514E+03  0.30563865165E+03  0.16500000000E+03 0.  0.
   -5000001    1    1    2    0    0  0.19203016218E+03 -0.12787575864E+03 -0.47003191383E+03  0.54898341765E+03  0.16500000000E+03 0.  0.
<mgrwt>
<rscale>  0 0.62406642E+03</rscale>
<asrwt>0</asrwt>
<pdfrwt beam="1">  1        2 0.10275040E+00 0.62406642E+03</pdfrwt>
<pdfrwt beam="2">  1       -2 0.19338467E-01 0.62406642E+03</pdfrwt>
<totfact> 0.98738713E+02</totfact>
</mgrwt>
</event>
<event>
 4    1  0.5280257E-005  0.3916431E+03  0.7818608E-02  0.1046712E+00
         -2   -1    0    0    0  501 -0.00000000000E+00  0.00000000000E+00  0.21825520494E+03  0.21825520496E+03  0.25500000000E-02 0. -1.
          2   -1    0    0  501    0  0.00000000000E+00 -0.00000000000E+00 -0.17569375939E+03  0.17569375941E+03  0.25500000000E-02 0.  1.
    5000001    1    1    2    0    0 -0.58899043645E+02 -0.86432911621E+02  0.77354853919E+01  0.19551108226E+03  0.16500000000E+03 0.  0.
   -5000001    1    1    2    0    0  0.58899043645E+02  0.86432911621E+02  0.34825960159E+02  0.19843788211E+03  0.16500000000E+03 0.  0.
<mgrwt>
<rscale>  0 0.39164309E+03</rscale>
<asrwt>0</asrwt>
<pdfrwt beam="1">  1        2 0.25099108E-01 0.39164309E+03</pdfrwt>
<pdfrwt beam="2">  1       -2 0.31179315E-01 0.39164309E+03</pdfrwt>
<totfact> 0.20551520E+03</totfact>
</mgrwt>
</event>
<event>
 4    1  0.5280257E-005  0.8506537E+03  0.7818608E-02  0.9489460E-01
         -2   -1    0    0    0  501 -0.00000000000E+00  0.00000000000E+00  0.91990419617E+02  0.91990419652E+02  0.25500000000E-02 0. -1.
          2   -1    0    0  501    0  0.00000000000E+00 -0.00000000000E+00 -0.19665407672E+04  0.19665407672E+04  0.25500000000E-02 0.  1.
    5000001    1    1    2    0    0  0.84629314032E+02 -0.37933322161E+03 -0.10611916406E+04  0.11421070492E+04  0.16500000000E+03 0.  0.
   -5000001    1    1    2    0    0 -0.84629314032E+02  0.37933322161E+03 -0.81335870702E+03  0.91642413766E+03  0.16500000000E+03 0.  0.
<mgrwt>
<rscale>  0 0.85065366E+03</rscale>
<asrwt>0</asrwt>
<pdfrwt beam="1">  1        2 0.28093437E+00 0.85065366E+03</pdfrwt>
<pdfrwt beam="2">  1       -2 0.13141490E-01 0.85065366E+03</pdfrwt>
<totfact> 0.36982218E+02</totfact>
</mgrwt>
</event>
<event>
 4    1  0.5280257E-005  0.3824914E+03  0.7818608E-02  0.1050017E+00
          2   -1    0    0  501    0  0.00000000000E+00  0.00000000000E+00  0.33988865641E+03  0.33988865642E+03  0.25500000000E-02 0.  1.
         -2   -1    0    0    0  501 -0.00000000000E+00 -0.00000000000E+00 -0.10760849952E+03  0.10760849955E+03  0.25500000000E-02 0. -1.
    5000001    1    1    2    0    0  0.94232408166E+02  0.15832083886E+02  0.98806327484E+02  0.21475123278E+03  0.16500000000E+03 0.  0.
   -5000001    1    1    2    0    0 -0.94232408166E+02 -0.15832083886E+02  0.13347382940E+03  0.23274592320E+03  0.16500000000E+03 0.  0.
<mgrwt>
<rscale>  0 0.38249135E+03</rscale>
<asrwt>0</asrwt>
<pdfrwt beam="1">  1        2 0.48555522E-01 0.38249135E+03</pdfrwt>
<pdfrwt beam="2">  1       -2 0.15372643E-01 0.38249135E+03</pdfrwt>
<totfact> 0.34204248E+03</totfact>
</mgrwt>
</event>
<event>
 4    1  0.5280257E-005  0.4251042E+03  0.7818608E-02  0.1035418E+00
          2   -1    0    0  501    0  0.00000000000E+00  0.00000000000E+00  0.16549424045E+03  0.16549424047E+03  0.25500000000E-02 0.  1.
         -2   -1    0    0    0  501 -0.00000000000E+00 -0.00000000000E+00 -0.27299067629E+03  0.27299067630E+03  0.25500000000E-02 0. -1.
    5000001    1    1    2    0    0 -0.65999553886E+02 -0.10975549565E+03 -0.94372871353E+02  0.22920176436E+03  0.16500000000E+03 0.  0.
   -5000001    1    1    2    0    0  0.65999553886E+02  0.10975549565E+03 -0.13123564485E+02  0.20928315241E+03  0.16500000000E+03 0.  0.
<mgrwt>
<rscale>  0 0.42510415E+03</rscale>
<asrwt>0</asrwt>
<pdfrwt beam="1">  1        2 0.23642034E-01 0.42510415E+03</pdfrwt>
<pdfrwt beam="2">  1       -2 0.38998668E-01 0.42510415E+03</pdfrwt>
<totfact> 0.14456466E+03</totfact>
</mgrwt>
</event>
<event>
 4    1  0.5280257E-005  0.1386921E+04  0.7818608E-02  0.8963341E-01
          2   -1    0    0  501    0  0.00000000000E+00  0.00000000000E+00  0.75417867425E+03  0.75417867426E+03  0.25500000000E-02 0.  1.
         -2   -1    0    0    0  501 -0.00000000000E+00 -0.00000000000E+00 -0.63763035887E+03  0.63763035888E+03  0.25500000000E-02 0. -1.
    5000001    1    1    2    0    0  0.48700473421E+03  0.17068404002E+03  0.49264567307E+03  0.73227823391E+03  0.16500000000E+03 0.  0.
   -5000001    1    1    2    0    0 -0.48700473421E+03 -0.17068404002E+03 -0.37609735770E+03  0.65953079922E+03  0.16500000000E+03 0.  0.
<mgrwt>
<rscale>  0 0.13869206E+04</rscale>
<asrwt>0</asrwt>
<pdfrwt beam="1">  1        2 0.10773981E+00 0.13869206E+04</pdfrwt>
<pdfrwt beam="2">  1       -2 0.91090051E-01 0.13869206E+04</pdfrwt>
<totfact> 0.41123774E+01</totfact>
</mgrwt>
</event>
<event>
 4    1  0.5280257E-005  0.4593042E+03  0.7818608E-02  0.1024983E+00
         -2   -1    0    0    0  501 -0.00000000000E+00  0.00000000000E+00  0.64244704465E+02  0.64244704515E+02  0.25500000000E-02 0. -1.
          2   -1    0    0  501    0  0.00000000000E+00 -0.00000000000E+00 -0.82092520706E+03  0.82092520706E+03  0.25500000000E-02 0.  1.
    5000001    1    1    2    0    0  0.10767487628E+03  0.98866165991E+02 -0.25423862570E+03  0.33649766204E+03  0.16500000000E+03 0.  0.
   -5000001    1    1    2    0    0 -0.10767487628E+03 -0.98866165991E+02 -0.50244187689E+03  0.54867224954E+03  0.16500000000E+03 0.  0.
<mgrwt>
<rscale>  0 0.45930424E+03</rscale>
<asrwt>0</asrwt>
<pdfrwt beam="1">  1        2 0.11727502E+00 0.45930424E+03</pdfrwt>
<pdfrwt beam="2">  1       -2 0.91778154E-02 0.45930424E+03</pdfrwt>
<totfact> 0.28876760E+03</totfact>
</mgrwt>
</event>
<event>
 4    1  0.5280257E-005  0.3840070E+03  0.7818608E-02  0.1049463E+00
         -2   -1    0    0    0  501 -0.00000000000E+00  0.00000000000E+00  0.10540536394E+03  0.10540536397E+03  0.25500000000E-02 0. -1.
          2   -1    0    0  501    0  0.00000000000E+00 -0.00000000000E+00 -0.34974829587E+03  0.34974829587E+03  0.25500000000E-02 0.  1.
    5000001    1    1    2    0    0 -0.96513348446E+02  0.21743581487E+01 -0.14340052563E+03  0.23897335628E+03  0.16500000000E+03 0.  0.
   -5000001    1    1    2    0    0  0.96513348446E+02 -0.21743581487E+01 -0.10094240629E+03  0.21618030357E+03  0.16500000000E+03 0.  0.
<mgrwt>
<rscale>  0 0.38400701E+03</rscale>
<asrwt>0</asrwt>
<pdfrwt beam="1">  1        2 0.49964042E-01 0.38400701E+03</pdfrwt>
<pdfrwt beam="2">  1       -2 0.15057909E-01 0.38400701E+03</pdfrwt>
<totfact> 0.34322439E+03</totfact>
</mgrwt>
</event>
<event>
 4    1  0.5280257E-005  0.4019491E+03  0.7818608E-02  0.1043107E+00
         -2   -1    0    0    0  501 -0.00000000000E+00  0.00000000000E+00  0.16948307206E+03  0.16948307208E+03  0.25500000000E-02 0. -1.
          2   -1    0    0  501    0  0.00000000000E+00 -0.00000000000E+00 -0.23831738704E+03  0.23831738705E+03  0.25500000000E-02 0.  1.
    5000001    1    1    2    0    0 -0.10767242681E+03  0.36676144973E+02 -0.19122158699E+02  0.20131852388E+03  0.16500000000E+03 0.  0.
   -5000001    1    1    2    0    0  0.10767242681E+03 -0.36676144973E+02 -0.49712156274E+02  0.20648193525E+03  0.16500000000E+03 0.  0.
<mgrwt>
<rscale>  0 0.40194907E+03</rscale>
<asrwt>0</asrwt>
<pdfrwt beam="1">  1        2 0.34045341E-01 0.40194907E+03</pdfrwt>
<pdfrwt beam="2">  1       -2 0.24211867E-01 0.40194907E+03</pdfrwt>
<totfact> 0.23116059E+03</totfact>
</mgrwt>
</event>
<event>
 4    1  0.5280257E-005  0.4292181E+03  0.7818608E-02  0.1034107E+00
         -2   -1    0    0    0  501 -0.00000000000E+00  0.00000000000E+00  0.30830267242E+02  0.30830267347E+02  0.25500000000E-02 0. -1.
          2   -1    0    0  501    0  0.00000000000E+00 -0.00000000000E+00 -0.14938905365E+04  0.14938905365E+04  0.25500000000E-02 0.  1.
    5000001    1    1    2    0    0 -0.25459365029E+02 -0.12663471433E+03 -0.56691099000E+03  0.60439854460E+03  0.16500000000E+03 0.  0.
   -5000001    1    1    2    0    0  0.25459365029E+02  0.12663471433E+03 -0.89614927921E+03  0.92032225920E+03  0.16500000000E+03 0.  0.
<mgrwt>
<rscale>  0 0.42921810E+03</rscale>
<asrwt>0</asrwt>
<pdfrwt beam="1">  1        2 0.21341289E+00 0.42921810E+03</pdfrwt>
<pdfrwt beam="2">  1       -2 0.44043248E-02 0.42921810E+03</pdfrwt>
<totfact> 0.37397290E+03</totfact>
</mgrwt>
</event>
<event>
 4    1  0.5280257E-005  0.3781917E+03  0.7818608E-02  0.1051604E+00
          2   -1    0    0  501    0  0.00000000000E+00  0.00000000000E+00  0.43994706240E+04  0.43994706240E+04  0.25500000000E-02 0.  1.
         -2   -1    0    0    0  501 -0.00000000000E+00 -0.00000000000E+00 -0.81276211293E+01  0.81276215293E+01  0.25500000000E-02 0. -1.
    5000001    1    1    2    0    0 -0.80352515821E+02  0.31408269986E+02  0.18110364339E+04  0.18205825911E+04  0.16500000000E+03 0.  0.
   -5000001    1    1    2    0    0  0.80352515821E+02 -0.31408269986E+02  0.25803065690E+04  0.25870156544E+04  0.16500000000E+03 0.  0.
<mgrwt>
<rscale>  0 0.37819165E+03</rscale>
<asrwt>0</asrwt>
<pdfrwt beam="1">  1        2 0.62849565E+00 0.37819165E+03</pdfrwt>
<pdfrwt beam="2">  1       -2 0.11610890E-02 0.37819165E+03</pdfrwt>
<totfact> 0.64279611E+02</totfact>
</mgrwt>
</event>
<event>
 4    1  0.5280257E-005  0.6727929E+03  0.7818608E-02  0.9764926E-01
          2   -1    0    0  501    0  0.00000000000E+00  0.00000000000E+00  0.87360896091E+03  0.87360896092E+03  0.25500000000E-02 0.  1.
         -2   -1    0    0    0  501 -0.00000000000E+00 -0.00000000000E+00 -0.12953456946E+03  0.12953456948E+03  0.25500000000E-02 0. -1.
    5000001    1    1    2    0    0 -0.22507440129E+03  0.18434464748E+03  0.42571629505E+03  0.54138784531E+03  0.16500000000E+03 0.  0.
   -5000001    1    1    2    0    0  0.22507440129E+03 -0.18434464748E+03  0.31835809640E+03  0.46175568509E+03  0.16500000000E+03 0.  0.
<mgrwt>
<rscale>  0 0.67279287E+03</rscale>
<asrwt>0</asrwt>
<pdfrwt beam="1">  1        2 0.12480128E+00 0.67279287E+03</pdfrwt>
<pdfrwt beam="2">  1       -2 0.18504938E-01 0.67279287E+03</pdfrwt>
<totfact> 0.83027228E+02</totfact>
</mgrwt>
</event>
<event>
 4    1  0.5280257E-005  0.3865740E+03  0.7818608E-02  0.1048530E+00
          2   -1    0    0  501    0  0.00000000000E+00  0.00000000000E+00  0.10749440955E+04  0.10749440955E+04  0.25500000000E-02 0.  1.
         -2   -1    0    0    0  501 -0.00000000000E+00 -0.00000000000E+00 -0.34755163267E+02  0.34755163361E+02  0.25500000000E-02 0. -1.
    5000001    1    1    2    0    0 -0.93077495129E+01  0.99986314715E+02  0.49960226854E+03  0.53564104031E+03  0.16500000000E+03 0.  0.
   -5000001    1    1    2    0    0  0.93077495129E+01 -0.99986314715E+02  0.54058666371E+03  0.57405821857E+03  0.16500000000E+03 0.  0.
<mgrwt>
<rscale>  0 0.38657396E+03</rscale>
<asrwt>0</asrwt>
<pdfrwt beam="1">  1        2 0.15356345E+00 0.38657396E+03</pdfrwt>
<pdfrwt beam="2">  1       -2 0.49650231E-02 0.38657396E+03</pdfrwt>
<totfact> 0.52406220E+03</totfact>
</mgrwt>
</event>
<event>
 4    1  0.5280257E-005  0.7444754E+03  0.7818608E-02  0.9644058E-01
         -2   -1    0    0    0  501 -0.00000000000E+00  0.00000000000E+00  0.54225356269E+02  0.54225356329E+02  0.25500000000E-02 0. -1.
          2   -1    0    0  501    0  0.00000000000E+00 -0.00000000000E+00 -0.25552789168E+04  0.25552789168E+04  0.25500000000E-02 0.  1.
    5000001    1    1    2    0    0 -0.30501729333E+03 -0.21728928709E+01 -0.77641423722E+03  0.85034365903E+03  0.16500000000E+03 0.  0.
   -5000001    1    1    2    0    0  0.30501729333E+03  0.21728928709E+01 -0.17246393234E+04  0.17591606141E+04  0.16500000000E+03 0.  0.
<mgrwt>
<rscale>  0 0.74447541E+03</rscale>
<asrwt>0</asrwt>
<pdfrwt beam="1">  1        2 0.36503977E+00 0.74447541E+03</pdfrwt>
<pdfrwt beam="2">  1       -2 0.77464811E-02 0.74447541E+03</pdfrwt>
<totfact> 0.44165320E+02</totfact>
</mgrwt>
</event>
<event>
 4    1  0.5280257E-005  0.5063972E+03  0.7818608E-02  0.1012123E+00
         -2   -1    0    0    0  501 -0.00000000000E+00  0.00000000000E+00  0.55591630179E+02  0.55591630238E+02  0.25500000000E-02 0. -1.
          2   -1    0    0  501    0  0.00000000000E+00 -0.00000000000E+00 -0.11532229406E+04  0.11532229406E+04  0.25500000000E-02 0.  1.
    5000001    1    1    2    0    0  0.81143176717E+02 -0.15557829457E+03 -0.36244353771E+03  0.43517713508E+03  0.16500000000E+03 0.  0.
   -5000001    1    1    2    0    0 -0.81143176717E+02  0.15557829457E+03 -0.73518777269E+03  0.77363743574E+03  0.16500000000E+03 0.  0.
<mgrwt>
<rscale>  0 0.50639725E+03</rscale>
<asrwt>0</asrwt>
<pdfrwt beam="1">  1        2 0.16474612E+00 0.50639725E+03</pdfrwt>
<pdfrwt beam="2">  1       -2 0.79416622E-02 0.50639725E+03</pdfrwt>
<totfact> 0.22758264E+03</totfact>
</mgrwt>
</event>
<event>
 4    1  0.5280257E-005  0.4020711E+03  0.7818608E-02  0.1043065E+00
          2   -1    0    0  501    0  0.00000000000E+00  0.00000000000E+00  0.11386932269E+04  0.11386932269E+04  0.25500000000E-02 0.  1.
         -2   -1    0    0    0  501 -0.00000000000E+00 -0.00000000000E+00 -0.35492692566E+02  0.35492692658E+02  0.25500000000E-02 0. -1.
    5000001    1    1    2    0    0 -0.97085041273E+02 -0.57378465102E+02  0.48812088006E+03  0.52745121769E+03  0.16500000000E+03 0.  0.
   -5000001    1    1    2    0    0  0.97085041273E+02  0.57378465102E+02  0.61507965429E+03  0.64673470188E+03  0.16500000000E+03 0.  0.
<mgrwt>
<rscale>  0 0.40207108E+03</rscale>
<asrwt>0</asrwt>
<pdfrwt beam="1">  1        2 0.16267048E+00 0.40207108E+03</pdfrwt>
<pdfrwt beam="2">  1       -2 0.50703840E-02 0.40207108E+03</pdfrwt>
<totfact> 0.46688536E+03</totfact>
</mgrwt>
</event>
<event>
 4    1  0.5280257E-005  0.4598746E+03  0.7818608E-02  0.1024818E+00
          2   -1    0    0  501    0  0.00000000000E+00  0.00000000000E+00  0.21503420609E+04  0.21503420609E+04  0.25500000000E-02 0.  1.
         -2   -1    0    0    0  501 -0.00000000000E+00 -0.00000000000E+00 -0.24587330283E+02  0.24587330415E+02  0.25500000000E-02 0. -1.
    5000001    1    1    2    0    0  0.13582795354E+03  0.68468960078E+02  0.82598516130E+03  0.85592857071E+03  0.16500000000E+03 0.  0.
   -5000001    1    1    2    0    0 -0.13582795354E+03 -0.68468960078E+02  0.12997695693E+04  0.13190008206E+04  0.16500000000E+03 0.  0.
<mgrwt>
<rscale>  0 0.45987464E+03</rscale>
<asrwt>0</asrwt>
<pdfrwt beam="1">  1        2 0.30719175E+00 0.45987464E+03</pdfrwt>
<pdfrwt beam="2">  1       -2 0.35124754E-02 0.45987464E+03</pdfrwt>
<totfact> 0.24723795E+03</totfact>
</mgrwt>
</event>
<event>
 4    1  0.5280257E-005  0.3697783E+03  0.7818608E-02  0.1054778E+00
          2   -1    0    0  501    0  0.00000000000E+00  0.00000000000E+00  0.13331448064E+04  0.13331448064E+04  0.25500000000E-02 0.  1.
         -2   -1    0    0    0  501 -0.00000000000E+00 -0.00000000000E+00 -0.25641624434E+02  0.25641624561E+02  0.25500000000E-02 0. -1.
    5000001    1    1    2    0    0 -0.63399415659E+02 -0.43183018584E+02  0.77421673003E+03  0.79531176532E+03  0.16500000000E+03 0.  0.
   -5000001    1    1    2    0    0  0.63399415659E+02  0.43183018584E+02  0.53328645191E+03  0.56347466562E+03  0.16500000000E+03 0.  0.
<mgrwt>
<rscale>  0 0.36977830E+03</rscale>
<asrwt>0</asrwt>
<pdfrwt beam="1">  1        2 0.19044933E+00 0.36977830E+03</pdfrwt>
<pdfrwt beam="2">  1       -2 0.36630878E-02 0.36977830E+03</pdfrwt>
<totfact> 0.59977661E+03</totfact>
</mgrwt>
</event>
<event>
 4    1  0.5280257E-005  0.9384294E+03  0.7818608E-02  0.9378778E-01
         -2   -1    0    0    0  501 -0.00000000000E+00  0.00000000000E+00  0.24691675225E+03  0.24691675226E+03  0.25500000000E-02 0. -1.
          2   -1    0    0  501    0  0.00000000000E+00 -0.00000000000E+00 -0.89164634095E+03  0.89164634095E+03  0.25500000000E-02 0.  1.
    5000001    1    1    2    0    0 -0.10352669581E+03  0.40224970033E+03 -0.49571657036E+03  0.66744476647E+03  0.16500000000E+03 0.  0.
   -5000001    1    1    2    0    0  0.10352669581E+03 -0.40224970033E+03 -0.14901301834E+03  0.47111832674E+03  0.16500000000E+03 0.  0.
<mgrwt>
<rscale>  0 0.93842937E+03</rscale>
<asrwt>0</asrwt>
<pdfrwt beam="1">  1        2 0.12737805E+00 0.93842937E+03</pdfrwt>
<pdfrwt beam="2">  1       -2 0.35273822E-01 0.93842937E+03</pdfrwt>
<totfact> 0.24826938E+02</totfact>
</mgrwt>
</event>
<event>
 4    1  0.5280257E-005  0.4879408E+03  0.7818608E-02  0.1016975E+00
          2   -1    0    0  501    0  0.00000000000E+00  0.00000000000E+00  0.19821016474E+04  0.19821016474E+04  0.25500000000E-02 0.  1.
         -2   -1    0    0    0  501 -0.00000000000E+00 -0.00000000000E+00 -0.30029514690E+02  0.30029514798E+02  0.25500000000E-02 0. -1.
    5000001    1    1    2    0    0  0.15368890528E+03  0.88522017782E+02  0.10955616068E+04  0.11220234675E+04  0.16500000000E+03 0.  0.
   -5000001    1    1    2    0    0 -0.15368890528E+03 -0.88522017782E+02  0.85651052585E+03  0.89010769468E+03  0.16500000000E+03 0.  0.
<mgrwt>
<rscale>  0 0.48794078E+03</rscale>
<asrwt>0</asrwt>
<pdfrwt beam="1">  1        2 0.28315737E+00 0.48794078E+03</pdfrwt>
<pdfrwt beam="2">  1       -2 0.42899308E-02 0.48794078E+03</pdfrwt>
<totfact> 0.22076744E+03</totfact>
</mgrwt>
</event>
<event>
 4    1  0.5280257E-005  0.7254637E+03  0.7818608E-02  0.9674650E-01
          2   -1    0    0  501    0  0.00000000000E+00  0.00000000000E+00  0.23095042398E+04  0.23095042398E+04  0.25500000000E-02 0.  1.
         -2   -1    0    0    0  501 -0.00000000000E+00 -0.00000000000E+00 -0.56970843776E+02  0.56970843833E+02  0.25500000000E-02 0. -1.
    5000001    1    1    2    0    0 -0.44122960271E+02  0.31982885166E+03  0.10917331457E+04  0.11503667204E+04  0.16500000000E+03 0.  0.
   -5000001    1    1    2    0    0  0.44122960271E+02 -0.31982885166E+03  0.11608002504E+04  0.12161083633E+04  0.16500000000E+03 0.  0.
<mgrwt>
<rscale>  0 0.72546373E+03</rscale>
<asrwt>0</asrwt>
<pdfrwt beam="1">  1        2 0.32992916E+00 0.72546373E+03</pdfrwt>
<pdfrwt beam="2">  1       -2 0.81386925E-02 0.72546373E+03</pdfrwt>
<totfact> 0.54663230E+02</totfact>
</mgrwt>
</event>
<event>
 4    1  0.5280257E-005  0.4678985E+03  0.7818608E-02  0.1022515E+00
         -2   -1    0    0    0  501 -0.00000000000E+00  0.00000000000E+00  0.48977250766E+02  0.48977250832E+02  0.25500000000E-02 0. -1.
          2   -1    0    0  501    0  0.00000000000E+00 -0.00000000000E+00 -0.11175037745E+04  0.11175037745E+04  0.25500000000E-02 0.  1.
    5000001    1    1    2    0    0  0.65062254004E+02  0.15020150626E+03 -0.60086348632E+03  0.64424802566E+03  0.16500000000E+03 0.  0.
   -5000001    1    1    2    0    0 -0.65062254004E+02 -0.15020150626E+03 -0.46766303738E+03  0.52223299964E+03  0.16500000000E+03 0.  0.
<mgrwt>
<rscale>  0 0.46789855E+03</rscale>
<asrwt>0</asrwt>
<pdfrwt beam="1">  1        2 0.15964338E+00 0.46789855E+03</pdfrwt>
<pdfrwt beam="2">  1       -2 0.69967508E-02 0.46789855E+03</pdfrwt>
<totfact> 0.29132322E+03</totfact>
</mgrwt>
</event>
<event>
 4    1  0.5280257E-005  0.3510513E+03  0.7818608E-02  0.1062184E+00
         -2   -1    0    0    0  501 -0.00000000000E+00  0.00000000000E+00  0.86205317722E+02  0.86205317760E+02  0.25500000000E-02 0. -1.
          2   -1    0    0  501    0  0.00000000000E+00 -0.00000000000E+00 -0.35739397537E+03  0.35739397538E+03  0.25500000000E-02 0.  1.
    5000001    1    1    2    0    0 -0.14874047883E+02 -0.44796031024E+02 -0.89056682518E+02  0.19334946185E+03  0.16500000000E+03 0.  0.
   -5000001    1    1    2    0    0  0.14874047883E+02  0.44796031024E+02 -0.18213197513E+03  0.25024983129E+03  0.16500000000E+03 0.  0.
<mgrwt>
<rscale>  0 0.35105134E+03</rscale>
<asrwt>0</asrwt>
<pdfrwt beam="1">  1        2 0.51056281E-01 0.35105134E+03</pdfrwt>
<pdfrwt beam="2">  1       -2 0.12315046E-01 0.35105134E+03</pdfrwt>
<totfact> 0.46596722E+03</totfact>
</mgrwt>
</event>
<event>
 4    1  0.5280257E-005  0.4420691E+03  0.7818608E-02  0.1030114E+00
         -2   -1    0    0    0  501 -0.00000000000E+00  0.00000000000E+00  0.53740937021E+02  0.53740937082E+02  0.25500000000E-02 0. -1.
          2   -1    0    0  501    0  0.00000000000E+00 -0.00000000000E+00 -0.90910703459E+03  0.90910703459E+03  0.25500000000E-02 0.  1.
    5000001    1    1    2    0    0 -0.44995704978E+02 -0.10549615339E+03 -0.22714622978E+03  0.30327291595E+03  0.16500000000E+03 0.  0.
   -5000001    1    1    2    0    0  0.44995704978E+02  0.10549615339E+03 -0.62821986779E+03  0.65957505572E+03  0.16500000000E+03 0.  0.
<mgrwt>
<rscale>  0 0.44206906E+03</rscale>
<asrwt>0</asrwt>
<pdfrwt beam="1">  1        2 0.12987242E+00 0.44206906E+03</pdfrwt>
<pdfrwt beam="2">  1       -2 0.76772773E-02 0.44206906E+03</pdfrwt>
<totfact> 0.33566641E+03</totfact>
</mgrwt>
</event>
<event>
 4    1  0.5280257E-005  0.1026002E+04  0.7818608E-02  0.9280477E-01
         -2   -1    0    0    0  501 -0.00000000000E+00  0.00000000000E+00  0.37334422289E+03  0.37334422290E+03  0.25500000000E-02 0. -1.
          2   -1    0    0  501    0  0.00000000000E+00 -0.00000000000E+00 -0.70489928186E+03  0.70489928186E+03  0.25500000000E-02 0.  1.
    5000001    1    1    2    0    0 -0.11292511574E+03 -0.45606272243E+03 -0.36212636478E+02  0.49928112682E+03  0.16500000000E+03 0.  0.
   -5000001    1    1    2    0    0  0.11292511574E+03  0.45606272243E+03 -0.29534242249E+03  0.57896237794E+03  0.16500000000E+03 0.  0.
<mgrwt>
<rscale>  0 0.10260021E+04</rscale>
<asrwt>0</asrwt>
<pdfrwt beam="1">  1        2 0.10069990E+00 0.10260021E+04</pdfrwt>
<pdfrwt beam="2">  1       -2 0.53334889E-01 0.10260021E+04</pdfrwt>
<totfact> 0.14743684E+02</totfact>
</mgrwt>
</event>
<event>
 4    1  0.5280257E-005  0.6095484E+03  0.7818608E-02  0.9885792E-01
          2   -1    0    0  501    0  0.00000000000E+00  0.00000000000E+00  0.86981700068E+03  0.86981700068E+03  0.25500000000E-02 0.  1.
         -2   -1    0    0    0  501 -0.00000000000E+00 -0.00000000000E+00 -0.10678950073E+03  0.10678950076E+03  0.25500000000E-02 0. -1.
    5000001    1    1    2    0    0  0.12734179119E+03  0.21398718328E+03  0.47838773618E+03  0.56399137628E+03  0.16500000000E+03 0.  0.
   -5000001    1    1    2    0    0 -0.12734179119E+03 -0.21398718328E+03  0.28463976377E+03  0.41261512516E+03  0.16500000000E+03 0.  0.
<mgrwt>
<rscale>  0 0.60954843E+03</rscale>
<asrwt>0</asrwt>
<pdfrwt beam="1">  1        2 0.12425957E+00 0.60954843E+03</pdfrwt>
<pdfrwt beam="2">  1       -2 0.15255643E-01 0.60954843E+03</pdfrwt>
<totfact> 0.11627879E+03</totfact>
</mgrwt>
</event>
<event>
 4    1  0.5280257E-005  0.5034064E+03  0.7818608E-02  0.1012894E+00
          2   -1    0    0  501    0  0.00000000000E+00  0.00000000000E+00  0.31456950550E+04  0.31456950550E+04  0.25500000000E-02 0.  1.
         -2   -1    0    0    0  501 -0.00000000000E+00 -0.00000000000E+00 -0.20140060955E+02  0.20140061117E+02  0.25500000000E-02 0. -1.
    5000001    1    1    2    0    0 -0.14758090824E+03 -0.11268980515E+03  0.13072952370E+04  0.13306858958E+04  0.16500000000E+03 0.  0.
   -5000001    1    1    2    0    0  0.14758090824E+03  0.11268980515E+03  0.18182597570E+04  0.18351492203E+04  0.16500000000E+03 0.  0.
<mgrwt>
<rscale>  0 0.50340636E+03</rscale>
<asrwt>0</asrwt>
<pdfrwt beam="1">  1        2 0.44938429E+00 0.50340636E+03</pdfrwt>
<pdfrwt beam="2">  1       -2 0.28771562E-02 0.50340636E+03</pdfrwt>
<totfact> 0.10133537E+03</totfact>
</mgrwt>
</event>
<event>
 4    1  0.5280257E-005  0.5530555E+03  0.7818608E-02  0.1000789E+00
         -2   -1    0    0    0  501 -0.00000000000E+00  0.00000000000E+00  0.36893015988E+03  0.36893015989E+03  0.25500000000E-02 0. -1.
          2   -1    0    0  501    0  0.00000000000E+00 -0.00000000000E+00 -0.20726852260E+03  0.20726852262E+03  0.25500000000E-02 0.  1.
    5000001    1    1    2    0    0  0.18485475962E+03 -0.12089656911E+03  0.58599021840E+02  0.28186185967E+03  0.16500000000E+03 0.  0.
   -5000001    1    1    2    0    0 -0.18485475962E+03  0.12089656911E+03  0.10306261544E+03  0.29433682284E+03  0.16500000000E+03 0.  0.
<mgrwt>
<rscale>  0 0.55305555E+03</rscale>
<asrwt>0</asrwt>
<pdfrwt beam="1">  1        2 0.29609789E-01 0.55305555E+03</pdfrwt>
<pdfrwt beam="2">  1       -2 0.52704308E-01 0.55305555E+03</pdfrwt>
<totfact> 0.61761298E+02</totfact>
</mgrwt>
</event>
<event>
 4    1  0.5280257E-005  0.4413539E+03  0.7818608E-02  0.1030332E+00
          2   -1    0    0  501    0  0.00000000000E+00  0.00000000000E+00  0.11469426163E+04  0.11469426163E+04  0.25500000000E-02 0.  1.
         -2   -1    0    0    0  501 -0.00000000000E+00 -0.00000000000E+00 -0.42459245505E+02  0.42459245581E+02  0.25500000000E-02 0. -1.
    5000001    1    1    2    0    0 -0.11213567236E+03 -0.66670344270E+02  0.37238959379E+03  0.42768955258E+03  0.16500000000E+03 0.  0.
   -5000001    1    1    2    0    0  0.11213567236E+03  0.66670344270E+02  0.73209377705E+03  0.76171230935E+03  0.16500000000E+03 0.  0.
<mgrwt>
<rscale>  0 0.44135391E+03</rscale>
<asrwt>0</asrwt>
<pdfrwt beam="1">  1        2 0.16384896E+00 0.44135391E+03</pdfrwt>
<pdfrwt beam="2">  1       -2 0.60656061E-02 0.44135391E+03</pdfrwt>
<totfact> 0.35036795E+03</totfact>
</mgrwt>
</event>
<event>
 4    1  0.5280257E-005  0.5623505E+03  0.7818608E-02  0.9986750E-01
          2   -1    0    0  501    0  0.00000000000E+00  0.00000000000E+00  0.41325144540E+03  0.41325144541E+03  0.25500000000E-02 0.  1.
         -2   -1    0    0    0  501 -0.00000000000E+00 -0.00000000000E+00 -0.19131095042E+03  0.19131095043E+03  0.25500000000E-02 0. -1.
    5000001    1    1    2    0    0 -0.47675911928E+02 -0.20445728719E+03  0.16274612091E+02  0.26751754683E+03  0.16500000000E+03 0.  0.
   -5000001    1    1    2    0    0  0.47675911928E+02  0.20445728719E+03  0.20566588290E+03  0.33704484902E+03  0.16500000000E+03 0.  0.
<mgrwt>
<rscale>  0 0.56235052E+03</rscale>
<asrwt>0</asrwt>
<pdfrwt beam="1">  1        2 0.59035922E-01 0.56235052E+03</pdfrwt>
<pdfrwt beam="2">  1       -2 0.27330135E-01 0.56235052E+03</pdfrwt>
<totfact> 0.10173269E+03</totfact>
</mgrwt>
</event>
<event>
 4    1  0.5280257E-005  0.9536607E+03  0.7818608E-02  0.9360882E-01
          2   -1    0    0  501    0  0.00000000000E+00  0.00000000000E+00  0.33895120751E+04  0.33895120751E+04  0.25500000000E-02 0. -1.
         -2   -1    0    0    0  501 -0.00000000000E+00 -0.00000000000E+00 -0.67079618068E+02  0.67079618116E+02  0.25500000000E-02 0.  1.
    5000001    1    1    2    0    0  0.59414416366E+02  0.41133080324E+03  0.22613949394E+04  0.23051800742E+04  0.16500000000E+03 0.  0.
   -5000001    1    1    2    0    0 -0.59414416366E+02 -0.41133080324E+03  0.10610375176E+04  0.11514116190E+04  0.16500000000E+03 0.  0.
<mgrwt>
<rscale>  0 0.95366068E+03</rscale>
<asrwt>0</asrwt>
<pdfrwt beam="1">  1        2 0.48421619E+00 0.95366068E+03</pdfrwt>
<pdfrwt beam="2">  1       -2 0.95827990E-02 0.95366068E+03</pdfrwt>
<totfact> 0.10696983E+02</totfact>
</mgrwt>
</event>
<event>
 4    1  0.5280257E-005  0.5253284E+03  0.7818608E-02  0.1007371E+00
          2   -1    0    0  501    0  0.00000000000E+00  0.00000000000E+00  0.18933918112E+03  0.18933918113E+03  0.25500000000E-02 0.  1.
         -2   -1    0    0    0  501 -0.00000000000E+00 -0.00000000000E+00 -0.36438568375E+03  0.36438568376E+03  0.25500000000E-02 0. -1.
    5000001    1    1    2    0    0  0.17466032348E+03  0.10609789792E+03 -0.89757856639E+02  0.27756884798E+03  0.16500000000E+03 0.  0.
   -5000001    1    1    2    0    0 -0.17466032348E+03 -0.10609789792E+03 -0.85288645999E+02  0.27615601691E+03  0.16500000000E+03 0.  0.
<mgrwt>
<rscale>  0 0.52532842E+03</rscale>
<asrwt>0</asrwt>
<pdfrwt beam="1">  1        2 0.27048454E-01 0.52532842E+03</pdfrwt>
<pdfrwt beam="2">  1       -2 0.52055098E-01 0.52532842E+03</pdfrwt>
<totfact> 0.70154932E+02</totfact>
</mgrwt>
</event>
<event>
 4    1  0.5280257E-005  0.4879006E+03  0.7818608E-02  0.1016986E+00
         -2   -1    0    0    0  501 -0.00000000000E+00  0.00000000000E+00  0.64426144783E+02  0.64426144834E+02  0.25500000000E-02 0. -1.
          2   -1    0    0  501    0  0.00000000000E+00 -0.00000000000E+00 -0.92372055063E+03  0.92372055064E+03  0.25500000000E-02 0.  1.
    5000001    1    1    2    0    0  0.14449247907E+03  0.62605271730E+02 -0.25437645874E+03  0.34165754685E+03  0.16500000000E+03 0.  0.
   -5000001    1    1    2    0    0 -0.14449247907E+03 -0.62605271730E+02 -0.60491794711E+03  0.64648914862E+03  0.16500000000E+03 0.  0.
<mgrwt>
<rscale>  0 0.48790062E+03</rscale>
<asrwt>0</asrwt>
<pdfrwt beam="1">  1        2 0.13196007E+00 0.48790062E+03</pdfrwt>
<pdfrwt beam="2">  1       -2 0.92037355E-02 0.48790062E+03</pdfrwt>
<totfact> 0.24641048E+03</totfact>
</mgrwt>
</event>
<event>
 4    1  0.5280257E-005  0.5325419E+03  0.7818608E-02  0.1005618E+00
         -2   -1    0    0    0  501 -0.00000000000E+00  0.00000000000E+00  0.41076909719E+02  0.41076909798E+02  0.25500000000E-02 0.  1.
          2   -1    0    0  501    0  0.00000000000E+00 -0.00000000000E+00 -0.17260356786E+04  0.17260356786E+04  0.25500000000E-02 0. -1.
    5000001    1    1    2    0    0 -0.18795486902E+03  0.41738707335E+02 -0.11121798485E+04  0.11407182684E+04  0.16500000000E+03 0.  0.
   -5000001    1    1    2    0    0  0.18795486902E+03 -0.41738707335E+02 -0.57277892035E+03  0.62639431996E+03  0.16500000000E+03 0.  0.
<mgrwt>
<rscale>  0 0.53254187E+03</rscale>
<asrwt>0</asrwt>
<pdfrwt beam="1">  1        2 0.24657648E+00 0.53254187E+03</pdfrwt>
<pdfrwt beam="2">  1       -2 0.58681311E-02 0.53254187E+03</pdfrwt>
<totfact> 0.18247824E+03</totfact>
</mgrwt>
</event>
<event>
 4    1  0.5280257E-005  0.4800622E+03  0.7818608E-02  0.1019118E+00
         -2   -1    0    0    0  501 -0.00000000000E+00  0.00000000000E+00  0.10814064692E+03  0.10814064695E+03  0.25500000000E-02 0. -1.
          2   -1    0    0  501    0  0.00000000000E+00 -0.00000000000E+00 -0.53277768593E+03  0.53277768594E+03  0.25500000000E-02 0.  1.
    5000001    1    1    2    0    0  0.16802938002E+03  0.44388589455E+02 -0.19412502704E+03  0.30840516459E+03  0.16500000000E+03 0.  0.
   -5000001    1    1    2    0    0 -0.16802938002E+03 -0.44388589455E+02 -0.23051201198E+03  0.33251316829E+03  0.16500000000E+03 0.  0.
<mgrwt>
<rscale>  0 0.48006218E+03</rscale>
<asrwt>0</asrwt>
<pdfrwt beam="1">  1        2 0.76111097E-01 0.48006218E+03</pdfrwt>
<pdfrwt beam="2">  1       -2 0.15448664E-01 0.48006218E+03</pdfrwt>
<totfact> 0.20678189E+03</totfact>
</mgrwt>
</event>
<event>
 4    1  0.5280257E-005  0.6156840E+03  0.7818608E-02  0.9873391E-01
          2   -1    0    0  501    0  0.00000000000E+00  0.00000000000E+00  0.12338073071E+04  0.12338073071E+04  0.25500000000E-02 0.  1.
         -2   -1    0    0    0  501 -0.00000000000E+00 -0.00000000000E+00 -0.76808348228E+02  0.76808348270E+02  0.25500000000E-02 0. -1.
    5000001    1    1    2    0    0 -0.13215968053E+03  0.13751565124E+03  0.20270464920E+03  0.32355974765E+03  0.16500000000E+03 0.  0.
   -5000001    1    1    2    0    0  0.13215968053E+03 -0.13751565124E+03  0.95429430972E+03  0.98705590777E+03  0.16500000000E+03 0.  0.
<mgrwt>
<rscale>  0 0.61568401E+03</rscale>
<asrwt>0</asrwt>
<pdfrwt beam="1">  1        2 0.17625820E+00 0.61568401E+03</pdfrwt>
<pdfrwt beam="2">  1       -2 0.10972621E-01 0.61568401E+03</pdfrwt>
<totfact> 0.12162403E+03</totfact>
</mgrwt>
</event>
<event>
 4    1  0.5280257E-005  0.6351050E+03  0.7818608E-02  0.9835137E-01
          2   -1    0    0  501    0  0.00000000000E+00  0.00000000000E+00  0.17277638163E+04  0.17277638163E+04  0.25500000000E-02 0.  1.
         -2   -1    0    0    0  501 -0.00000000000E+00 -0.00000000000E+00 -0.58364216594E+02  0.58364216649E+02  0.25500000000E-02 0. -1.
    5000001    1    1    2    0    0  0.11298532903E+01  0.26431908702E+03  0.10068901792E+04  0.10540012757E+04  0.16500000000E+03 0.  0.
   -5000001    1    1    2    0    0 -0.11298532903E+01 -0.26431908702E+03  0.66250942051E+03  0.73212675719E+03  0.16500000000E+03 0.  0.
<mgrwt>
<rscale>  0 0.63510497E+03</rscale>
<asrwt>0</asrwt>
<pdfrwt beam="1">  1        2 0.24682342E+00 0.63510497E+03</pdfrwt>
<pdfrwt beam="2">  1       -2 0.83377445E-02 0.63510497E+03</pdfrwt>
<totfact> 0.10411709E+03</totfact>
</mgrwt>
</event>
<event>
 4    1  0.5280257E-005  0.4824453E+03  0.7818608E-02  0.1018465E+00
         -2   -1    0    0    0  501 -0.00000000000E+00  0.00000000000E+00  0.31102852572E+02  0.31102852677E+02  0.25500000000E-02 0. -1.
          2   -1    0    0  501    0  0.00000000000E+00 -0.00000000000E+00 -0.18708368803E+04  0.18708368803E+04  0.25500000000E-02 0.  1.
    5000001    1    1    2    0    0 -0.12535835372E+03  0.11511877357E+03 -0.74372489876E+03  0.78058873545E+03  0.16500000000E+03 0.  0.
   -5000001    1    1    2    0    0  0.12535835372E+03 -0.11511877357E+03 -0.10960091289E+04  0.11213509975E+04  0.16500000000E+03 0.  0.
<mgrwt>
<rscale>  0 0.48244529E+03</rscale>
<asrwt>0</asrwt>
<pdfrwt beam="1">  1        2 0.26726234E+00 0.48244529E+03</pdfrwt>
<pdfrwt beam="2">  1       -2 0.44432658E-02 0.48244529E+03</pdfrwt>
<totfact> 0.23775298E+03</totfact>
</mgrwt>
</event>
<event>
 4    1  0.5280257E-005  0.5121556E+03  0.7818608E-02  0.1010654E+00
          2   -1    0    0  501    0  0.00000000000E+00  0.00000000000E+00  0.13819161733E+04  0.13819161733E+04  0.25500000000E-02 0.  1.
         -2   -1    0    0    0  501 -0.00000000000E+00 -0.00000000000E+00 -0.47452835025E+02  0.47452835094E+02  0.25500000000E-02 0. -1.
    5000001    1    1    2    0    0  0.15119037007E+03  0.61123881485E+02  0.96983632739E+03  0.99719715142E+03  0.16500000000E+03 0.  0.
   -5000001    1    1    2    0    0 -0.15119037007E+03 -0.61123881485E+02  0.36462701089E+03  0.43217185697E+03  0.16500000000E+03 0.  0.
<mgrwt>
<rscale>  0 0.51215560E+03</rscale>
<asrwt>0</asrwt>
<pdfrwt beam="1">  1        2 0.19741658E+00 0.51215560E+03</pdfrwt>
<pdfrwt beam="2">  1       -2 0.67789771E-02 0.51215560E+03</pdfrwt>
<totfact> 0.21914309E+03</totfact>
</mgrwt>
</event>
<event>
 4    1  0.5280257E-005  0.5254261E+03  0.7818608E-02  0.1007347E+00
          2   -1    0    0  501    0  0.00000000000E+00  0.00000000000E+00  0.28377518009E+04  0.28377518009E+04  0.25500000000E-02 0.  1.
         -2   -1    0    0    0  501 -0.00000000000E+00 -0.00000000000E+00 -0.24321417245E+02  0.24321417379E+02  0.25500000000E-02 0. -1.
    5000001    1    1    2    0    0 -0.85691928901E+02 -0.61167661803E+02  0.23612654507E+04  0.23693636526E+04  0.16500000000E+03 0.  0.
   -5000001    1    1    2    0    0  0.85691928901E+02  0.61167661803E+02  0.45216493292E+03  0.49270956566E+03  0.16500000000E+03 0.  0.
<mgrwt>
<rscale>  0 0.52542610E+03</rscale>
<asrwt>0</asrwt>
<pdfrwt beam="1">  1        2 0.40539284E+00 0.52542610E+03</pdfrwt>
<pdfrwt beam="2">  1       -2 0.34744905E-02 0.52542610E+03</pdfrwt>
<totfact> 0.11147658E+03</totfact>
</mgrwt>
</event>
<event>
 4    1  0.5280257E-005  0.7196538E+03  0.7818608E-02  0.9684200E-01
         -2   -1    0    0    0  501 -0.00000000000E+00  0.00000000000E+00  0.13032953550E+03  0.13032953553E+03  0.25500000000E-02 0. -1.
          2   -1    0    0  501    0  0.00000000000E+00 -0.00000000000E+00 -0.99344635875E+03  0.99344635875E+03  0.25500000000E-02 0.  1.
    5000001    1    1    2    0    0  0.29663389649E+03 -0.75347668980E+02 -0.28690231510E+03  0.45078473596E+03  0.16500000000E+03 0.  0.
   -5000001    1    1    2    0    0 -0.29663389649E+03  0.75347668980E+02 -0.57621450815E+03  0.67299115831E+03  0.16500000000E+03 0.  0.
<mgrwt>
<rscale>  0 0.71965381E+03</rscale>
<asrwt>0</asrwt>
<pdfrwt beam="1">  1        2 0.14192090E+00 0.71965381E+03</pdfrwt>
<pdfrwt beam="2">  1       -2 0.18618506E-01 0.71965381E+03</pdfrwt>
<totfact> 0.68829609E+02</totfact>
</mgrwt>
</event>
<event>
 4    1  0.5280257E-005  0.7504669E+03  0.7818608E-02  0.9634618E-01
         -2   -1    0    0    0  501 -0.00000000000E+00  0.00000000000E+00  0.51658693160E+02  0.51658693223E+02  0.25500000000E-02 0. -1.
          2   -1    0    0  501    0  0.00000000000E+00 -0.00000000000E+00 -0.27255846239E+04  0.27255846239E+04  0.25500000000E-02 0.  1.
    5000001    1    1    2    0    0  0.32637072059E+03  0.43827551947E+02 -0.10717385939E+04  0.11332640095E+04  0.16500000000E+03 0.  0.
   -5000001    1    1    2    0    0 -0.32637072059E+03 -0.43827551947E+02 -0.16021873368E+04  0.16439793076E+04  0.16500000000E+03 0.  0.
<mgrwt>
<rscale>  0 0.75046689E+03</rscale>
<asrwt>0</asrwt>
<pdfrwt beam="1">  1        2 0.38936914E+00 0.75046689E+03</pdfrwt>
<pdfrwt beam="2">  1       -2 0.73798150E-02 0.75046689E+03</pdfrwt>
<totfact> 0.38840294E+02</totfact>
</mgrwt>
</event>
<event>
 4    1  0.5280257E-005  0.3387933E+03  0.7818608E-02  0.1067311E+00
         -2   -1    0    0    0  501 -0.00000000000E+00  0.00000000000E+00  0.33541017302E+03  0.33541017303E+03  0.25500000000E-02 0. -1.
          2   -1    0    0  501    0  0.00000000000E+00 -0.00000000000E+00 -0.85552651314E+02  0.85552651352E+02  0.25500000000E-02 0.  1.
    5000001    1    1    2    0    0 -0.14499548023E+02 -0.27291949723E+02  0.15313027664E+03  0.22722008942E+03  0.16500000000E+03 0.  0.
   -5000001    1    1    2    0    0  0.14499548023E+02  0.27291949723E+02  0.96727245071E+02  0.19374273496E+03  0.16500000000E+03 0.  0.
<mgrwt>
<rscale>  0 0.33879333E+03</rscale>
<asrwt>0</asrwt>
<pdfrwt beam="1">  1        2 0.12221807E-01 0.33879333E+03</pdfrwt>
<pdfrwt beam="2">  1       -2 0.47915740E-01 0.33879333E+03</pdfrwt>
<totfact> 0.20993004E+03</totfact>
</mgrwt>
</event>
<event>
 4    1  0.5280257E-005  0.4515636E+03  0.7818608E-02  0.1027257E+00
         -2   -1    0    0    0  501 -0.00000000000E+00  0.00000000000E+00  0.22582440172E+02  0.22582440316E+02  0.25500000000E-02 0. -1.
          2   -1    0    0  501    0  0.00000000000E+00 -0.00000000000E+00 -0.22573919278E+04  0.22573919278E+04  0.25500000000E-02 0.  1.
    5000001    1    1    2    0    0 -0.13230964405E+03  0.75629898480E+02 -0.10015295181E+04  0.10264073748E+04  0.16500000000E+03 0.  0.
   -5000001    1    1    2    0    0  0.13230964405E+03 -0.75629898480E+02 -0.12332799695E+04  0.12535669933E+04  0.16500000000E+03 0.  0.
<mgrwt>
<rscale>  0 0.45156359E+03</rscale>
<asrwt>0</asrwt>
<pdfrwt beam="1">  1        2 0.32248442E+00 0.45156359E+03</pdfrwt>
<pdfrwt beam="2">  1       -2 0.32260643E-02 0.45156359E+03</pdfrwt>
<totfact> 0.24880329E+03</totfact>
</mgrwt>
</event>
<event>
 4    1  0.5280257E-005  0.8406228E+03  0.7818608E-02  0.9503010E-01
         -2   -1    0    0    0  501 -0.00000000000E+00  0.00000000000E+00  0.10432702518E+03  0.10432702521E+03  0.25500000000E-02 0. -1.
          2   -1    0    0  501    0  0.00000000000E+00 -0.00000000000E+00 -0.16933451152E+04  0.16933451152E+04  0.25500000000E-02 0.  1.
    5000001    1    1    2    0    0 -0.33183143285E+03 -0.19640222896E+03 -0.73591557199E+03  0.84704348440E+03  0.16500000000E+03 0.  0.
   -5000001    1    1    2    0    0  0.33183143285E+03  0.19640222896E+03 -0.85310251804E+03  0.95062865603E+03  0.16500000000E+03 0.  0.
<mgrwt>
<rscale>  0 0.84062277E+03</rscale>
<asrwt>0</asrwt>
<pdfrwt beam="1">  1        2 0.24190643E+00 0.84062277E+03</pdfrwt>
<pdfrwt beam="2">  1       -2 0.14903862E-01 0.84062277E+03</pdfrwt>
<totfact> 0.41285297E+02</totfact>
</mgrwt>
</event>
<event>
 4    1  0.5280257E-005  0.6524014E+03  0.7818608E-02  0.9802284E-01
         -2   -1    0    0    0  501 -0.00000000000E+00  0.00000000000E+00  0.48021392037E+02  0.48021392104E+02  0.25500000000E-02 0. -1.
          2   -1    0    0  501    0  0.00000000000E+00 -0.00000000000E+00 -0.22158224882E+04  0.22158224882E+04  0.25500000000E-02 0.  1.
    5000001    1    1    2    0    0 -0.25936049270E+03  0.10585179571E+03 -0.99147733084E+03  0.10434197456E+04  0.16500000000E+03 0.  0.
   -5000001    1    1    2    0    0  0.25936049270E+03 -0.10585179571E+03 -0.11763237653E+04  0.12204241347E+04  0.16500000000E+03 0.  0.
<mgrwt>
<rscale>  0 0.65240135E+03</rscale>
<asrwt>0</asrwt>
<pdfrwt beam="1">  1        2 0.31654600E+00 0.65240135E+03</pdfrwt>
<pdfrwt beam="2">  1       -2 0.68602003E-02 0.65240135E+03</pdfrwt>
<totfact> 0.80452740E+02</totfact>
</mgrwt>
</event>
<event>
 4    1  0.5280257E-005  0.3707189E+03  0.7818608E-02  0.1054418E+00
          2   -1    0    0  501    0  0.00000000000E+00  0.00000000000E+00  0.62532987455E+03  0.62532987456E+03  0.25500000000E-02 0.  1.
         -2   -1    0    0    0  501 -0.00000000000E+00 -0.00000000000E+00 -0.54944013473E+02  0.54944013532E+02  0.25500000000E-02 0. -1.
    5000001    1    1    2    0    0  0.44662354140E+01  0.78033649353E+02  0.34391147781E+03  0.38937039212E+03  0.16500000000E+03 0.  0.
   -5000001    1    1    2    0    0 -0.44662354140E+01 -0.78033649353E+02  0.22647438327E+03  0.29090349597E+03  0.16500000000E+03 0.  0.
<mgrwt>
<rscale>  0 0.37071894E+03</rscale>
<asrwt>0</asrwt>
<pdfrwt beam="1">  1        2 0.89332836E-01 0.37071894E+03</pdfrwt>
<pdfrwt beam="2">  1       -2 0.78491451E-02 0.37071894E+03</pdfrwt>
<totfact> 0.51380829E+03</totfact>
</mgrwt>
</event>
<event>
 4    1  0.5280257E-005  0.3968025E+03  0.7818608E-02  0.1044893E+00
          2   -1    0    0  501    0  0.00000000000E+00  0.00000000000E+00  0.29123616391E+03  0.29123616392E+03  0.25500000000E-02 0.  1.
         -2   -1    0    0    0  501 -0.00000000000E+00 -0.00000000000E+00 -0.13515851492E+03  0.13515851494E+03  0.25500000000E-02 0. -1.
    5000001    1    1    2    0    0  0.87511074363E+02 -0.57920097607E+02  0.41994478553E+02  0.20000365515E+03  0.16500000000E+03 0.  0.
   -5000001    1    1    2    0    0 -0.87511074363E+02  0.57920097607E+02  0.11408317044E+03  0.22639102372E+03  0.16500000000E+03 0.  0.
<mgrwt>
<rscale>  0 0.39680246E+03</rscale>
<asrwt>0</asrwt>
<pdfrwt beam="1">  1        2 0.41605166E-01 0.39680246E+03</pdfrwt>
<pdfrwt beam="2">  1       -2 0.19308359E-01 0.39680246E+03</pdfrwt>
<totfact> 0.27531673E+03</totfact>
</mgrwt>
</event>
<event>
 4    1  0.5280257E-005  0.4074424E+03  0.7818608E-02  0.1041233E+00
          2   -1    0    0  501    0  0.00000000000E+00  0.00000000000E+00  0.13074527455E+04  0.13074527455E+04  0.25500000000E-02 0.  1.
         -2   -1    0    0    0  501 -0.00000000000E+00 -0.00000000000E+00 -0.31742886171E+02  0.31742886273E+02  0.25500000000E-02 0. -1.
    5000001    1    1    2    0    0  0.91283178587E+01 -0.11579591995E+03  0.72996270773E+03  0.75733914195E+03  0.16500000000E+03 0.  0.
   -5000001    1    1    2    0    0 -0.91283178587E+01  0.11579591995E+03  0.54574715160E+03  0.58185648982E+03  0.16500000000E+03 0.  0.
<mgrwt>
<rscale>  0 0.40744238E+03</rscale>
<asrwt>0</asrwt>
<pdfrwt beam="1">  1        2 0.18677896E+00 0.40744238E+03</pdfrwt>
<pdfrwt beam="2">  1       -2 0.45346982E-02 0.40744238E+03</pdfrwt>
<totfact> 0.44781035E+03</totfact>
</mgrwt>
</event>
<event>
 4    1  0.5280257E-005  0.4707172E+03  0.7818608E-02  0.1021718E+00
         -2   -1    0    0    0  501 -0.00000000000E+00  0.00000000000E+00  0.89210650915E+02  0.89210650951E+02  0.25500000000E-02 0. -1.
          2   -1    0    0  501    0  0.00000000000E+00 -0.00000000000E+00 -0.62093119065E+03  0.62093119066E+03  0.25500000000E-02 0.  1.
    5000001    1    1    2    0    0 -0.12603336591E+02  0.10755776414E+03 -0.45930247257E+03  0.49991127016E+03  0.16500000000E+03 0.  0.
   -5000001    1    1    2    0    0  0.12603336591E+02 -0.10755776414E+03 -0.72418067166E+02  0.21023057145E+03  0.16500000000E+03 0.  0.
<mgrwt>
<rscale>  0 0.47071722E+03</rscale>
<asrwt>0</asrwt>
<pdfrwt beam="1">  1        2 0.88704454E-01 0.47071722E+03</pdfrwt>
<pdfrwt beam="2">  1       -2 0.12744379E-01 0.47071722E+03</pdfrwt>
<totfact> 0.23849997E+03</totfact>
</mgrwt>
</event>
<event>
 4    1  0.5280257E-005  0.7641942E+03  0.7818608E-02  0.9613341E-01
         -2   -1    0    0    0  501 -0.00000000000E+00  0.00000000000E+00  0.43895064415E+03  0.43895064416E+03  0.25500000000E-02 0. -1.
          2   -1    0    0  501    0  0.00000000000E+00 -0.00000000000E+00 -0.33260731716E+03  0.33260731717E+03  0.25500000000E-02 0.  1.
    5000001    1    1    2    0    0 -0.15967054926E+03 -0.30439709077E+03  0.28013225515E+02  0.38231140969E+03  0.16500000000E+03 0.  0.
   -5000001    1    1    2    0    0  0.15967054926E+03  0.30439709077E+03  0.78330101472E+02  0.38924655165E+03  0.16500000000E+03 0.  0.
<mgrwt>
<rscale>  0 0.76419421E+03</rscale>
<asrwt>0</asrwt>
<pdfrwt beam="1">  1        2 0.47515331E-01 0.76419421E+03</pdfrwt>
<pdfrwt beam="2">  1       -2 0.62707234E-01 0.76419421E+03</pdfrwt>
<totfact> 0.25265942E+02</totfact>
</mgrwt>
</event>
<event>
 4    1  0.5280257E-005  0.3630061E+03  0.7818608E-02  0.1057400E+00
          2   -1    0    0  501    0  0.00000000000E+00  0.00000000000E+00  0.21179346924E+03  0.21179346926E+03  0.25500000000E-02 0.  1.
         -2   -1    0    0    0  501 -0.00000000000E+00 -0.00000000000E+00 -0.15554470921E+03  0.15554470923E+03  0.25500000000E-02 0. -1.
    5000001    1    1    2    0    0 -0.72569518774E+02 -0.21233766890E+02  0.27041241637E+02  0.18350323338E+03  0.16500000000E+03 0.  0.
   -5000001    1    1    2    0    0  0.72569518774E+02  0.21233766890E+02  0.29207518394E+02  0.18383494511E+03  0.16500000000E+03 0.  0.
<mgrwt>
<rscale>  0 0.36300608E+03</rscale>
<asrwt>0</asrwt>
<pdfrwt beam="1">  1        2 0.30256210E-01 0.36300608E+03</pdfrwt>
<pdfrwt beam="2">  1       -2 0.22220673E-01 0.36300608E+03</pdfrwt>
<totfact> 0.30564793E+03</totfact>
</mgrwt>
</event>
<event>
 4    1  0.5280257E-005  0.4858336E+03  0.7818608E-02  0.1017544E+00
         -2   -1    0    0    0  501 -0.00000000000E+00  0.00000000000E+00  0.46877242449E+02  0.46877242518E+02  0.25500000000E-02 0. -1.
          2   -1    0    0  501    0  0.00000000000E+00 -0.00000000000E+00 -0.12587895507E+04  0.12587895507E+04  0.25500000000E-02 0.  1.
    5000001    1    1    2    0    0  0.82600625049E+02  0.13859910913E+03 -0.80976203285E+03  0.84200482549E+03  0.16500000000E+03 0.  0.
   -5000001    1    1    2    0    0 -0.82600625049E+02 -0.13859910913E+03 -0.40215027540E+03  0.46366196773E+03  0.16500000000E+03 0.  0.
<mgrwt>
<rscale>  0 0.48583365E+03</rscale>
<asrwt>0</asrwt>
<pdfrwt beam="1">  1        2 0.17982706E+00 0.48583365E+03</pdfrwt>
<pdfrwt beam="2">  1       -2 0.66967497E-02 0.48583365E+03</pdfrwt>
<totfact> 0.26023870E+03</totfact>
</mgrwt>
</event>
<event>
 4    1  0.5280257E-005  0.4980414E+03  0.7818608E-02  0.1014291E+00
          2   -1    0    0  501    0  0.00000000000E+00  0.00000000000E+00  0.94521611631E+03  0.94521611631E+03  0.25500000000E-02 0. -1.
         -2   -1    0    0    0  501 -0.00000000000E+00 -0.00000000000E+00 -0.65605436912E+02  0.65605436962E+02  0.25500000000E-02 0.  1.
    5000001    1    1    2    0    0 -0.93297731434E+02  0.12145890789E+03  0.22377438167E+03  0.31742196976E+03  0.16500000000E+03 0.  0.
   -5000001    1    1    2    0    0  0.93297731434E+02 -0.12145890789E+03  0.65583629773E+03  0.69339958351E+03  0.16500000000E+03 0.  0.
<mgrwt>
<rscale>  0 0.49804143E+03</rscale>
<asrwt>0</asrwt>
<pdfrwt beam="1">  1        2 0.13503087E+00 0.49804143E+03</pdfrwt>
<pdfrwt beam="2">  1       -2 0.93722058E-02 0.49804143E+03</pdfrwt>
<totfact> 0.23203047E+03</totfact>
</mgrwt>
</event>
<event>
 4    1  0.5280257E-005  0.4305976E+03  0.7818608E-02  0.1033671E+00
          2   -1    0    0  501    0  0.00000000000E+00  0.00000000000E+00  0.12803530591E+03  0.12803530594E+03  0.25500000000E-02 0.  1.
         -2   -1    0    0    0  501 -0.00000000000E+00 -0.00000000000E+00 -0.36203741032E+03  0.36203741032E+03  0.25500000000E-02 0. -1.
    5000001    1    1    2    0    0 -0.66503048955E+02  0.11359471368E+03 -0.16531640273E+03  0.26810618700E+03  0.16500000000E+03 0.  0.
   -5000001    1    1    2    0    0  0.66503048955E+02 -0.11359471368E+03 -0.68685701670E+02  0.22196652926E+03  0.16500000000E+03 0.  0.
<mgrwt>
<rscale>  0 0.43059759E+03</rscale>
<asrwt>0</asrwt>
<pdfrwt beam="1">  1        2 0.18290758E-01 0.43059759E+03</pdfrwt>
<pdfrwt beam="2">  1       -2 0.51719630E-01 0.43059759E+03</pdfrwt>
<totfact> 0.11146783E+03</totfact>
</mgrwt>
</event>
<event>
 4    1  0.5280257E-005  0.4075747E+03  0.7818608E-02  0.1041188E+00
         -2   -1    0    0    0  501 -0.00000000000E+00  0.00000000000E+00  0.48641623552E+03  0.48641623553E+03  0.25500000000E-02 0. -1.
          2   -1    0    0  501    0  0.00000000000E+00 -0.00000000000E+00 -0.85378100314E+02  0.85378100352E+02  0.25500000000E-02 0.  1.
    5000001    1    1    2    0    0 -0.44006827799E+02 -0.34513903672E+02  0.52204034377E+02  0.18187377943E+03  0.16500000000E+03 0.  0.
   -5000001    1    1    2    0    0  0.44006827799E+02  0.34513903672E+02  0.34883410083E+03  0.38992055645E+03  0.16500000000E+03 0.  0.
<mgrwt>
<rscale>  0 0.40757475E+03</rscale>
<asrwt>0</asrwt>
<pdfrwt beam="1">  1        2 0.12196871E-01 0.40757475E+03</pdfrwt>
<pdfrwt beam="2">  1       -2 0.69488035E-01 0.40757475E+03</pdfrwt>
<totfact> 0.97816052E+02</totfact>
</mgrwt>
</event>
<event>
 4    1  0.5280257E-005  0.4914092E+03  0.7818608E-02  0.1016046E+00
         -2   -1    0    0    0  501 -0.00000000000E+00  0.00000000000E+00  0.21563314133E+03  0.21563314134E+03  0.25500000000E-02 0. -1.
          2   -1    0    0  501    0  0.00000000000E+00 -0.00000000000E+00 -0.27996967954E+03  0.27996967956E+03  0.25500000000E-02 0.  1.
    5000001    1    1    2    0    0  0.10924901692E+03  0.80361269540E+02 -0.15466450507E+03  0.26370322423E+03  0.16500000000E+03 0.  0.
   -5000001    1    1    2    0    0 -0.10924901692E+03 -0.80361269540E+02  0.90327966853E+02  0.23189959667E+03  0.16500000000E+03 0.  0.
<mgrwt>
<rscale>  0 0.49140916E+03</rscale>
<asrwt>0</asrwt>
<pdfrwt beam="1">  1        2 0.39995669E-01 0.49140916E+03</pdfrwt>
<pdfrwt beam="2">  1       -2 0.30804734E-01 0.49140916E+03</pdfrwt>
<totfact> 0.12547806E+03</totfact>
</mgrwt>
</event>
<event>
 4    1  0.5280257E-005  0.3956564E+03  0.7818608E-02  0.1045294E+00
          2   -1    0    0  501    0  0.00000000000E+00  0.00000000000E+00  0.66128549999E+03  0.66128550000E+03  0.25500000000E-02 0.  1.
         -2   -1    0    0    0  501 -0.00000000000E+00 -0.00000000000E+00 -0.59181688341E+02  0.59181688396E+02  0.25500000000E-02 0. -1.
    5000001    1    1    2    0    0  0.41948471753E+02 -0.90666499238E+02  0.22103599022E+03  0.29336325151E+03  0.16500000000E+03 0.  0.
   -5000001    1    1    2    0    0 -0.41948471753E+02  0.90666499238E+02  0.38106782143E+03  0.42710393688E+03  0.16500000000E+03 0.  0.
<mgrwt>
<rscale>  0 0.39565638E+03</rscale>
<asrwt>0</asrwt>
<pdfrwt beam="1">  1        2 0.94469354E-01 0.39565638E+03</pdfrwt>
<pdfrwt beam="2">  1       -2 0.84545272E-02 0.39565638E+03</pdfrwt>
<totfact> 0.42843588E+03</totfact>
</mgrwt>
</event>
<event>
 4    1  0.5280257E-005  0.8166783E+03  0.7818608E-02  0.9536185E-01
         -2   -1    0    0    0  501 -0.00000000000E+00  0.00000000000E+00  0.12092901222E+04  0.12092901222E+04  0.25500000000E-02 0. -1.
          2   -1    0    0  501    0  0.00000000000E+00 -0.00000000000E+00 -0.13788326035E+03  0.13788326038E+03  0.25500000000E-02 0.  1.
    5000001    1    1    2    0    0 -0.30697255447E+03  0.20533463787E+03  0.62786446307E+03  0.74688235131E+03  0.16500000000E+03 0.  0.
   -5000001    1    1    2    0    0  0.30697255447E+03 -0.20533463787E+03  0.44354239879E+03  0.60029103128E+03  0.16500000000E+03 0.  0.
<mgrwt>
<rscale>  0 0.81667831E+03</rscale>
<asrwt>0</asrwt>
<pdfrwt beam="1">  1        2 0.19697608E-01 0.81667831E+03</pdfrwt>
<pdfrwt beam="2">  1       -2 0.17275574E+00 0.81667831E+03</pdfrwt>
<totfact> 0.59533578E+01</totfact>
</mgrwt>
</event>
<event>
 4    1  0.5280257E-005  0.1420718E+04  0.7818608E-02  0.8938957E-01
          2   -1    0    0  501    0  0.00000000000E+00  0.00000000000E+00  0.21891802944E+04  0.21891802944E+04  0.25500000000E-02 0.  1.
         -2   -1    0    0    0  501 -0.00000000000E+00 -0.00000000000E+00 -0.23050184873E+03  0.23050184875E+03  0.25500000000E-02 0. -1.
    5000001    1    1    2    0    0 -0.62370214126E+03  0.14810093245E+03  0.54031591599E+03  0.85446154757E+03  0.16500000000E+03 0.  0.
   -5000001    1    1    2    0    0  0.62370214126E+03 -0.14810093245E+03  0.14183625296E+04  0.15652205955E+04  0.16500000000E+03 0.  0.
<mgrwt>
<rscale>  0 0.14207183E+04</rscale>
<asrwt>0</asrwt>
<pdfrwt beam="1">  1        2 0.31274004E+00 0.14207183E+04</pdfrwt>
<pdfrwt beam="2">  1       -2 0.32928836E-01 0.14207183E+04</pdfrwt>
<totfact> 0.53667822E+01</totfact>
</mgrwt>
</event>
<event>
 4    1  0.5280257E-005  0.4922500E+03  0.7818608E-02  0.1015822E+00
          2   -1    0    0  501    0  0.00000000000E+00  0.00000000000E+00  0.34661533067E+04  0.34661533067E+04  0.25500000000E-02 0.  1.
         -2   -1    0    0    0  501 -0.00000000000E+00 -0.00000000000E+00 -0.17476874591E+02  0.17476874777E+02  0.25500000000E-02 0. -1.
    5000001    1    1    2    0    0  0.78477088146E+02  0.14190670731E+03  0.23188173902E+04  0.23303294308E+04  0.16500000000E+03 0.  0.
   -5000001    1    1    2    0    0 -0.78477088146E+02 -0.14190670731E+03  0.11298590420E+04  0.11533007508E+04  0.16500000000E+03 0.  0.
<mgrwt>
<rscale>  0 0.49225005E+03</rscale>
<asrwt>0</asrwt>
<pdfrwt beam="1">  1        2 0.49516548E+00 0.49225005E+03</pdfrwt>
<pdfrwt beam="2">  1       -2 0.24966927E-02 0.49225005E+03</pdfrwt>
<totfact> 0.82556901E+02</totfact>
</mgrwt>
</event>
<event>
 4    1  0.5280257E-005  0.4751102E+03  0.7818608E-02  0.1020488E+00
          2   -1    0    0  501    0  0.00000000000E+00  0.00000000000E+00  0.83052207667E+03  0.83052207667E+03  0.25500000000E-02 0.  1.
         -2   -1    0    0    0  501 -0.00000000000E+00 -0.00000000000E+00 -0.67948139297E+02  0.67948139345E+02  0.25500000000E-02 0. -1.
    5000001    1    1    2    0    0  0.98915843732E+02  0.11545472341E+02  0.11863960956E+03  0.22631393910E+03  0.16500000000E+03 0.  0.
   -5000001    1    1    2    0    0 -0.98915843732E+02 -0.11545472341E+02  0.64393432781E+03  0.67215627692E+03  0.16500000000E+03 0.  0.
<mgrwt>
<rscale>  0 0.47511022E+03</rscale>
<asrwt>0</asrwt>
<pdfrwt beam="1">  1        2 0.11864601E+00 0.47511022E+03</pdfrwt>
<pdfrwt beam="2">  1       -2 0.97068774E-02 0.47511022E+03</pdfrwt>
<totfact> 0.26009182E+03</totfact>
</mgrwt>
</event>
<event>
 4    1  0.5280257E-005  0.3740980E+03  0.7818608E-02  0.1053137E+00
         -2   -1    0    0    0  501 -0.00000000000E+00  0.00000000000E+00  0.13024356739E+03  0.13024356742E+03  0.25500000000E-02 0. -1.
          2   -1    0    0  501    0  0.00000000000E+00 -0.00000000000E+00 -0.26863001404E+03  0.26863001405E+03  0.25500000000E-02 0.  1.
    5000001    1    1    2    0    0 -0.23128767579E+02 -0.75015098449E+02 -0.26542439054E+02  0.18463939438E+03  0.16500000000E+03 0.  0.
   -5000001    1    1    2    0    0  0.23128767579E+02  0.75015098449E+02 -0.11184400759E+03  0.21423418709E+03  0.16500000000E+03 0.  0.
<mgrwt>
<rscale>  0 0.37409802E+03</rscale>
<asrwt>0</asrwt>
<pdfrwt beam="1">  1        2 0.38375716E-01 0.37409802E+03</pdfrwt>
<pdfrwt beam="2">  1       -2 0.18606224E-01 0.37409802E+03</pdfrwt>
<totfact> 0.32001580E+03</totfact>
</mgrwt>
</event>
<event>
 4    1  0.5280257E-005  0.5294040E+03  0.7818608E-02  0.1006377E+00
         -2   -1    0    0    0  501 -0.00000000000E+00  0.00000000000E+00  0.66928964901E+03  0.66928964901E+03  0.25500000000E-02 0. -1.
          2   -1    0    0  501    0  0.00000000000E+00 -0.00000000000E+00 -0.10468884019E+03  0.10468884022E+03  0.25500000000E-02 0.  1.
    5000001    1    1    2    0    0  0.10302977796E+03  0.15827403879E+03  0.15845112867E+03  0.29664383810E+03  0.16500000000E+03 0.  0.
   -5000001    1    1    2    0    0 -0.10302977796E+03 -0.15827403879E+03  0.40614968014E+03  0.47733465114E+03  0.16500000000E+03 0.  0.
<mgrwt>
<rscale>  0 0.52940403E+03</rscale>
<asrwt>0</asrwt>
<pdfrwt beam="1">  1        2 0.14955548E-01 0.52940403E+03</pdfrwt>
<pdfrwt beam="2">  1       -2 0.95612809E-01 0.52940403E+03</pdfrwt>
<totfact> 0.37347090E+02</totfact>
</mgrwt>
</event>
<event>
 4    1  0.5280257E-005  0.4757943E+03  0.7818608E-02  0.1020297E+00
         -2   -1    0    0    0  501 -0.00000000000E+00  0.00000000000E+00  0.34984376032E+02  0.34984376125E+02  0.25500000000E-02 0. -1.
          2   -1    0    0  501    0  0.00000000000E+00 -0.00000000000E+00 -0.16177236706E+04  0.16177236706E+04  0.25500000000E-02 0.  1.
    5000001    1    1    2    0    0 -0.16468436223E+03  0.37993389258E+02 -0.88996151286E+03  0.92077192136E+03  0.16500000000E+03 0.  0.
   -5000001    1    1    2    0    0  0.16468436223E+03 -0.37993389258E+02 -0.69277778170E+03  0.73193612536E+03  0.16500000000E+03 0.  0.
<mgrwt>
<rscale>  0 0.47579430E+03</rscale>
<asrwt>0</asrwt>
<pdfrwt beam="1">  1        2 0.23110333E+00 0.47579430E+03</pdfrwt>
<pdfrwt beam="2">  1       -2 0.49977690E-02 0.47579430E+03</pdfrwt>
<totfact> 0.26603497E+03</totfact>
</mgrwt>
</event>
<event>
 4    1  0.5280257E-005  0.3842308E+03  0.7818608E-02  0.1049381E+00
         -2   -1    0    0    0  501 -0.00000000000E+00  0.00000000000E+00  0.26164311745E+02  0.26164311869E+02  0.25500000000E-02 0. -1.
          2   -1    0    0  501    0  0.00000000000E+00 -0.00000000000E+00 -0.14106361951E+04  0.14106361951E+04  0.25500000000E-02 0.  1.
    5000001    1    1    2    0    0  0.68494571388E+01 -0.96235041599E+02 -0.61980046423E+03  0.64860289373E+03  0.16500000000E+03 0.  0.
   -5000001    1    1    2    0    0 -0.68494571388E+01  0.96235041599E+02 -0.76467141917E+03  0.78819761329E+03  0.16500000000E+03 0.  0.
<mgrwt>
<rscale>  0 0.38423079E+03</rscale>
<asrwt>0</asrwt>
<pdfrwt beam="1">  1        2 0.20151941E+00 0.38423079E+03</pdfrwt>
<pdfrwt beam="2">  1       -2 0.37377597E-02 0.38423079E+03</pdfrwt>
<totfact> 0.52995472E+03</totfact>
</mgrwt>
</event>
<event>
 4    1  0.5280257E-005  0.5460359E+03  0.7818608E-02  0.1002416E+00
          2   -1    0    0  501    0  0.00000000000E+00  0.00000000000E+00  0.14397536163E+04  0.14397536163E+04  0.25500000000E-02 0.  1.
         -2   -1    0    0    0  501 -0.00000000000E+00 -0.00000000000E+00 -0.51771922642E+02  0.51771922705E+02  0.25500000000E-02 0. -1.
    5000001    1    1    2    0    0 -0.15184701474E+03 -0.14311569033E+03  0.86180233868E+03  0.90192454654E+03  0.16500000000E+03 0.  0.
   -5000001    1    1    2    0    0  0.15184701474E+03  0.14311569033E+03  0.52617935496E+03  0.58960099245E+03  0.16500000000E+03 0.  0.
<mgrwt>
<rscale>  0 0.54603594E+03</rscale>
<asrwt>0</asrwt>
<pdfrwt beam="1">  1        2 0.20567910E+00 0.54603594E+03</pdfrwt>
<pdfrwt beam="2">  1       -2 0.73959885E-02 0.54603594E+03</pdfrwt>
<totfact> 0.17792435E+03</totfact>
</mgrwt>
</event>
<event>
 4    1  0.5280257E-005  0.6753696E+03  0.7818608E-02  0.9760306E-01
          2   -1    0    0  501    0  0.00000000000E+00  0.00000000000E+00  0.17071321714E+04  0.17071321714E+04  0.25500000000E-02 0.  1.
         -2   -1    0    0    0  501 -0.00000000000E+00 -0.00000000000E+00 -0.66796837827E+02  0.66796837876E+02  0.25500000000E-02 0. -1.
    5000001    1    1    2    0    0 -0.10945957438E+03 -0.25562792768E+03  0.10758942420E+04  0.11234324438E+04  0.16500000000E+03 0.  0.
   -5000001    1    1    2    0    0  0.10945957438E+03  0.25562792768E+03  0.56444109156E+03  0.65049656546E+03  0.16500000000E+03 0.  0.
<mgrwt>
<rscale>  0 0.67536962E+03</rscale>
<asrwt>0</asrwt>
<pdfrwt beam="1">  1        2 0.24387600E+00 0.67536962E+03</pdfrwt>
<pdfrwt beam="2">  1       -2 0.95424063E-02 0.67536962E+03</pdfrwt>
<totfact> 0.85674659E+02</totfact>
</mgrwt>
</event>
<event>
 4    1  0.5280257E-005  0.3816473E+03  0.7818608E-02  0.1050327E+00
          2   -1    0    0  501    0  0.00000000000E+00  0.00000000000E+00  0.51471561983E+03  0.51471561984E+03  0.25500000000E-02 0.  1.
         -2   -1    0    0    0  501 -0.00000000000E+00 -0.00000000000E+00 -0.70745213600E+02  0.70745213646E+02  0.25500000000E-02 0. -1.
    5000001    1    1    2    0    0  0.94606365773E+02 -0.14943120262E+02  0.22792752916E+03  0.29723663946E+03  0.16500000000E+03 0.  0.
   -5000001    1    1    2    0    0 -0.94606365773E+02  0.14943120262E+02  0.21604287707E+03  0.28822419402E+03  0.16500000000E+03 0.  0.
<mgrwt>
<rscale>  0 0.38164731E+03</rscale>
<asrwt>0</asrwt>
<pdfrwt beam="1">  1        2 0.73530800E-01 0.38164731E+03</pdfrwt>
<pdfrwt beam="2">  1       -2 0.10106459E-01 0.38164731E+03</pdfrwt>
<totfact> 0.43000101E+03</totfact>
</mgrwt>
</event>
<event>
 4    1  0.5280257E-005  0.3597431E+03  0.7818608E-02  0.1058686E+00
          2   -1    0    0  501    0  0.00000000000E+00  0.00000000000E+00  0.14253589665E+04  0.14253589665E+04  0.25500000000E-02 0.  1.
         -2   -1    0    0    0  501 -0.00000000000E+00 -0.00000000000E+00 -0.22698682049E+02  0.22698682192E+02  0.25500000000E-02 0. -1.
    5000001    1    1    2    0    0 -0.68084399341E+02 -0.24292807292E+01  0.61246555872E+03  0.63795019199E+03  0.16500000000E+03 0.  0.
   -5000001    1    1    2    0    0  0.68084399341E+02  0.24292807292E+01  0.79019472572E+03  0.81010745670E+03  0.16500000000E+03 0.  0.
<mgrwt>
<rscale>  0 0.35974308E+03</rscale>
<asrwt>0</asrwt>
<pdfrwt beam="1">  1        2 0.20362277E+00 0.35974308E+03</pdfrwt>
<pdfrwt beam="2">  1       -2 0.32426679E-02 0.35974308E+03</pdfrwt>
<totfact> 0.64483427E+03</totfact>
</mgrwt>
</event>
<event>
 4    1  0.5280257E-005  0.9733058E+03  0.7818608E-02  0.9338317E-01
          2   -1    0    0  501    0  0.00000000000E+00  0.00000000000E+00  0.12981547225E+04  0.12981547225E+04  0.25500000000E-02 0.  1.
         -2   -1    0    0    0  501 -0.00000000000E+00 -0.00000000000E+00 -0.18243667583E+03  0.18243667585E+03  0.25500000000E-02 0. -1.
    5000001    1    1    2    0    0  0.24362647277E+03  0.30315006171E+03  0.19039519761E+03  0.46338876705E+03  0.16500000000E+03 0.  0.
   -5000001    1    1    2    0    0 -0.24362647277E+03 -0.30315006171E+03  0.92532284904E+03  0.10172026313E+04  0.16500000000E+03 0.  0.
<mgrwt>
<rscale>  0 0.97330577E+03</rscale>
<asrwt>0</asrwt>
<pdfrwt beam="1">  1        2 0.18545068E+00 0.97330577E+03</pdfrwt>
<pdfrwt beam="2">  1       -2 0.26062381E-01 0.97330577E+03</pdfrwt>
<totfact> 0.24939619E+02</totfact>
</mgrwt>
</event>
<event>
 4    1  0.5280257E-005  0.8780559E+03  0.7818608E-02  0.9453436E-01
         -2   -1    0    0    0  501 -0.00000000000E+00  0.00000000000E+00  0.13155404951E+03  0.13155404954E+03  0.25500000000E-02 0. -1.
          2   -1    0    0  501    0  0.00000000000E+00 -0.00000000000E+00 -0.14651432896E+04  0.14651432896E+04  0.25500000000E-02 0.  1.
    5000001    1    1    2    0    0 -0.14562532888E+03 -0.31986855807E+03 -0.29413336418E+03  0.48709554173E+03  0.16500000000E+03 0.  0.
   -5000001    1    1    2    0    0  0.14562532888E+03  0.31986855807E+03 -0.10394558759E+04  0.11096017974E+04  0.16500000000E+03 0.  0.
<mgrwt>
<rscale>  0 0.87805588E+03</rscale>
<asrwt>0</asrwt>
<pdfrwt beam="1">  1        2 0.20930617E+00 0.87805588E+03</pdfrwt>
<pdfrwt beam="2">  1       -2 0.18793437E-01 0.87805588E+03</pdfrwt>
<totfact> 0.36415862E+02</totfact>
</mgrwt>
</event>
<event>
 4    1  0.5280257E-005  0.6179644E+03  0.7818608E-02  0.9868821E-01
          2   -1    0    0  501    0  0.00000000000E+00  0.00000000000E+00  0.65223722880E+03  0.65223722880E+03  0.25500000000E-02 0.  1.
         -2   -1    0    0    0  501 -0.00000000000E+00 -0.00000000000E+00 -0.14637310328E+03  0.14637310330E+03  0.25500000000E-02 0. -1.
    5000001    1    1    2    0    0  0.19339717164E+03 -0.17419985765E+03  0.28174048548E+03  0.41755329907E+03  0.16500000000E+03 0.  0.
   -5000001    1    1    2    0    0 -0.19339717164E+03  0.17419985765E+03  0.22412364004E+03  0.38105703304E+03  0.16500000000E+03 0.  0.
<mgrwt>
<rscale>  0 0.61796436E+03</rscale>
<asrwt>0</asrwt>
<pdfrwt beam="1">  1        2 0.93176746E-01 0.61796436E+03</pdfrwt>
<pdfrwt beam="2">  1       -2 0.20910443E-01 0.61796436E+03</pdfrwt>
<totfact> 0.97066088E+02</totfact>
</mgrwt>
</event>
<event>
 4    1  0.5280257E-005  0.6455775E+03  0.7818608E-02  0.9815113E-01
          2   -1    0    0  501    0  0.00000000000E+00  0.00000000000E+00  0.29250052283E+03  0.29250052284E+03  0.25500000000E-02 0.  1.
         -2   -1    0    0    0  501 -0.00000000000E+00 -0.00000000000E+00 -0.35621332467E+03  0.35621332468E+03  0.25500000000E-02 0. -1.
    5000001    1    1    2    0    0 -0.21779892524E+02  0.26484308126E+03 -0.11193900975E+03  0.33222215958E+03  0.16500000000E+03 0.  0.
   -5000001    1    1    2    0    0  0.21779892524E+02 -0.26484308126E+03  0.48226207906E+02  0.31649168795E+03  0.16500000000E+03 0.  0.
<mgrwt>
<rscale>  0 0.64557752E+03</rscale>
<asrwt>0</asrwt>
<pdfrwt beam="1">  1        2 0.41785789E-01 0.64557752E+03</pdfrwt>
<pdfrwt beam="2">  1       -2 0.50887618E-01 0.64557752E+03</pdfrwt>
<totfact> 0.45149235E+02</totfact>
</mgrwt>
</event>
<event>
 4    1  0.5280257E-005  0.4081566E+03  0.7818608E-02  0.1040991E+00
          2   -1    0    0  501    0  0.00000000000E+00  0.00000000000E+00  0.14455019360E+04  0.14455019360E+04  0.25500000000E-02 0.  1.
         -2   -1    0    0    0  501 -0.00000000000E+00 -0.00000000000E+00 -0.28812102933E+02  0.28812103046E+02  0.25500000000E-02 0. -1.
    5000001    1    1    2    0    0 -0.80029238488E+02  0.46922147403E+02  0.43286040972E+03  0.47243994458E+03  0.16500000000E+03 0.  0.
   -5000001    1    1    2    0    0  0.80029238488E+02 -0.46922147403E+02  0.98382942338E+03  0.10018740945E+04  0.16500000000E+03 0.  0.
<mgrwt>
<rscale>  0 0.40815659E+03</rscale>
<asrwt>0</asrwt>
<pdfrwt beam="1">  1        2 0.20650030E+00 0.40815659E+03</pdfrwt>
<pdfrwt beam="2">  1       -2 0.41160143E-02 0.40815659E+03</pdfrwt>
<totfact> 0.43923329E+03</totfact>
</mgrwt>
</event>
<event>
 4    1  0.5280257E-005  0.7868336E+03  0.7818608E-02  0.9579273E-01
         -2   -1    0    0    0  501 -0.00000000000E+00  0.00000000000E+00  0.18956476728E+03  0.18956476730E+03  0.25500000000E-02 0. -1.
          2   -1    0    0  501    0  0.00000000000E+00 -0.00000000000E+00 -0.81648492631E+03  0.81648492632E+03  0.25500000000E-02 0.  1.
    5000001    1    1    2    0    0  0.16932290407E+03 -0.29323825867E+03 -0.45864150422E+03  0.59349469382E+03  0.16500000000E+03 0.  0.
   -5000001    1    1    2    0    0 -0.16932290407E+03  0.29323825867E+03 -0.16827865481E+03  0.41255499980E+03  0.16500000000E+03 0.  0.
<mgrwt>
<rscale>  0 0.78683359E+03</rscale>
<asrwt>0</asrwt>
<pdfrwt beam="1">  1        2 0.11664070E+00 0.78683359E+03</pdfrwt>
<pdfrwt beam="2">  1       -2 0.27080682E-01 0.78683359E+03</pdfrwt>
<totfact> 0.45987952E+02</totfact>
</mgrwt>
</event>
<event>
 4    1  0.5280257E-005  0.6959135E+03  0.7818608E-02  0.9724246E-01
         -2   -1    0    0    0  501 -0.00000000000E+00  0.00000000000E+00  0.43591910614E+03  0.43591910614E+03  0.25500000000E-02 0. -1.
          2   -1    0    0  501    0  0.00000000000E+00 -0.00000000000E+00 -0.27774397748E+03  0.27774397749E+03  0.25500000000E-02 0.  1.
    5000001    1    1    2    0    0 -0.11236402092E+03  0.25012937840E+03  0.21916772776E+03  0.38787868210E+03  0.16500000000E+03 0.  0.
   -5000001    1    1    2    0    0  0.11236402092E+03 -0.25012937840E+03 -0.60992599101E+02  0.32578440153E+03  0.16500000000E+03 0.  0.
<mgrwt>
<rscale>  0 0.69591352E+03</rscale>
<asrwt>0</asrwt>
<pdfrwt beam="1">  1        2 0.39677711E-01 0.69591352E+03</pdfrwt>
<pdfrwt beam="2">  1       -2 0.62274158E-01 0.69591352E+03</pdfrwt>
<totfact> 0.31382142E+02</totfact>
</mgrwt>
</event>
<event>
 4    1  0.5280257E-005  0.4448513E+03  0.7818608E-02  0.1029269E+00
          2   -1    0    0  501    0  0.00000000000E+00  0.00000000000E+00  0.10910635013E+04  0.10910635013E+04  0.25500000000E-02 0.  1.
         -2   -1    0    0    0  501 -0.00000000000E+00 -0.00000000000E+00 -0.45343993705E+02  0.45343993776E+02  0.25500000000E-02 0. -1.
    5000001    1    1    2    0    0  0.74758187600E+02  0.32004443495E+02  0.20343423827E+03  0.27426913847E+03  0.16500000000E+03 0.  0.
   -5000001    1    1    2    0    0 -0.74758187600E+02 -0.32004443495E+02  0.84228526937E+03  0.86213835665E+03  0.16500000000E+03 0.  0.
<mgrwt>
<rscale>  0 0.44485133E+03</rscale>
<asrwt>0</asrwt>
<pdfrwt beam="1">  1        2 0.15586624E+00 0.44485133E+03</pdfrwt>
<pdfrwt beam="2">  1       -2 0.64777125E-02 0.44485133E+03</pdfrwt>
<totfact> 0.34035593E+03</totfact>
</mgrwt>
</event>
<event>
 4    1  0.5280257E-005  0.3992292E+03  0.7818608E-02  0.1044047E+00
         -2   -1    0    0    0  501 -0.00000000000E+00  0.00000000000E+00  0.66627996532E+03  0.66627996532E+03  0.25500000000E-02 0. -1.
          2   -1    0    0  501    0  0.00000000000E+00 -0.00000000000E+00 -0.59803666285E+02  0.59803666340E+02  0.25500000000E-02 0.  1.
    5000001    1    1    2    0    0  0.10424033914E+03 -0.74542034093E+01  0.37821177359E+03  0.42566507860E+03  0.16500000000E+03 0.  0.
   -5000001    1    1    2    0    0 -0.10424033914E+03  0.74542034093E+01  0.22826452544E+03  0.30041855307E+03  0.16500000000E+03 0.  0.
<mgrwt>
<rscale>  0 0.39922918E+03</rscale>
<asrwt>0</asrwt>
<pdfrwt beam="1">  1        2 0.85433816E-02 0.39922918E+03</pdfrwt>
<pdfrwt beam="2">  1       -2 0.95182844E-01 0.39922918E+03</pdfrwt>
<totfact> 0.75742508E+02</totfact>
</mgrwt>
</event>
<event>
 4    1  0.5280257E-005  0.4652234E+03  0.7818608E-02  0.1023277E+00
          2   -1    0    0  501    0  0.00000000000E+00  0.00000000000E+00  0.23004767782E+04  0.23004767782E+04  0.25500000000E-02 0.  1.
         -2   -1    0    0    0  501 -0.00000000000E+00 -0.00000000000E+00 -0.23520424853E+02  0.23520424991E+02  0.25500000000E-02 0. -1.
    5000001    1    1    2    0    0  0.52820672033E+01  0.73669172566E+02  0.40722733963E+03  0.44554927153E+03  0.16500000000E+03 0.  0.
   -5000001    1    1    2    0    0 -0.52820672033E+01 -0.73669172566E+02  0.18697290137E+04  0.18784479316E+04  0.16500000000E+03 0.  0.
<mgrwt>
<rscale>  0 0.46522335E+03</rscale>
<asrwt>0</asrwt>
<pdfrwt beam="1">  1        2 0.32863965E+00 0.46522335E+03</pdfrwt>
<pdfrwt beam="2">  1       -2 0.33600596E-02 0.46522335E+03</pdfrwt>
<totfact> 0.22243949E+03</totfact>
</mgrwt>
</event>
<event>
 4    1  0.5280257E-005  0.6729820E+03  0.7818608E-02  0.9764586E-01
         -2   -1    0    0    0  501 -0.00000000000E+00  0.00000000000E+00  0.18743040910E+03  0.18743040911E+03  0.25500000000E-02 0. -1.
          2   -1    0    0  501    0  0.00000000000E+00 -0.00000000000E+00 -0.60409724864E+03  0.60409724865E+03  0.25500000000E-02 0.  1.
    5000001    1    1    2    0    0 -0.14112529273E+03 -0.22348261880E+03 -0.58909775731E+02  0.31710596152E+03  0.16500000000E+03 0.  0.
   -5000001    1    1    2    0    0  0.14112529273E+03  0.22348261880E+03 -0.35775706382E+03  0.47442169624E+03  0.16500000000E+03 0.  0.
<mgrwt>
<rscale>  0 0.67298200E+03</rscale>
<asrwt>0</asrwt>
<pdfrwt beam="1">  1        2 0.86299606E-01 0.67298200E+03</pdfrwt>
<pdfrwt beam="2">  1       -2 0.26775773E-01 0.67298200E+03</pdfrwt>
<totfact> 0.68340423E+02</totfact>
</mgrwt>
</event>
<event>
 4    1  0.5280257E-005  0.4530165E+03  0.7818608E-02  0.1026826E+00
          2   -1    0    0  501    0  0.00000000000E+00  0.00000000000E+00  0.59560027775E+03  0.59560027775E+03  0.25500000000E-02 0.  1.
         -2   -1    0    0    0  501 -0.00000000000E+00 -0.00000000000E+00 -0.86141638222E+02  0.86141638260E+02  0.25500000000E-02 0. -1.
    5000001    1    1    2    0    0  0.60973165452E+02  0.12712778822E+03  0.15718033327E+03  0.26797361551E+03  0.16500000000E+03 0.  0.
   -5000001    1    1    2    0    0 -0.60973165452E+02 -0.12712778822E+03  0.35227830625E+03  0.41376830050E+03  0.16500000000E+03 0.  0.
<mgrwt>
<rscale>  0 0.45301648E+03</rscale>
<asrwt>0</asrwt>
<pdfrwt beam="1">  1        2 0.85085750E-01 0.45301648E+03</pdfrwt>
<pdfrwt beam="2">  1       -2 0.12305949E-01 0.45301648E+03</pdfrwt>
<totfact> 0.26513550E+03</totfact>
</mgrwt>
</event>
<event>
 4    1  0.5280257E-005  0.1421719E+04  0.7818608E-02  0.8938246E-01
          2   -1    0    0  501    0  0.00000000000E+00  0.00000000000E+00  0.34754289720E+04  0.34754289720E+04  0.25500000000E-02 0.  1.
         -2   -1    0    0    0  501 -0.00000000000E+00 -0.00000000000E+00 -0.14539821794E+03  0.14539821796E+03  0.25500000000E-02 0. -1.
    5000001    1    1    2    0    0  0.47492259704E+03  0.14012125152E+03  0.43591087292E+03  0.68002112279E+03  0.16500000000E+03 0.  0.
   -5000001    1    1    2    0    0 -0.47492259704E+03 -0.14012125152E+03  0.28941198811E+04  0.29408060672E+04  0.16500000000E+03 0.  0.
<mgrwt>
<rscale>  0 0.14217189E+04</rscale>
<asrwt>0</asrwt>
<pdfrwt beam="1">  1        2 0.49648990E+00 0.14217189E+04</pdfrwt>
<pdfrwt beam="2">  1       -2 0.20771172E-01 0.14217189E+04</pdfrwt>
<totfact> 0.24504618E+01</totfact>
</mgrwt>
</event>
<event>
 4    1  0.5280257E-005  0.4367273E+03  0.7818608E-02  0.1031756E+00
          2   -1    0    0  501    0  0.00000000000E+00  0.00000000000E+00  0.12348514137E+04  0.12348514137E+04  0.25500000000E-02 0.  1.
         -2   -1    0    0    0  501 -0.00000000000E+00 -0.00000000000E+00 -0.38614100253E+02  0.38614100337E+02  0.25500000000E-02 0. -1.
    5000001    1    1    2    0    0  0.99587004615E+02 -0.98082284047E+02  0.68656172707E+03  0.71981227484E+03  0.16500000000E+03 0.  0.
   -5000001    1    1    2    0    0 -0.99587004615E+02  0.98082284047E+02  0.50967558642E+03  0.55365323924E+03  0.16500000000E+03 0.  0.
<mgrwt>
<rscale>  0 0.43672727E+03</rscale>
<asrwt>0</asrwt>
<pdfrwt beam="1">  1        2 0.17640731E+00 0.43672727E+03</pdfrwt>
<pdfrwt beam="2">  1       -2 0.55163013E-02 0.43672727E+03</pdfrwt>
<totfact> 0.36275204E+03</totfact>
</mgrwt>
</event>
<event>
 4    1  0.5280257E-005  0.5798218E+03  0.7818608E-02  0.9948177E-01
          2   -1    0    0  501    0  0.00000000000E+00  0.00000000000E+00  0.30338640046E+04  0.30338640046E+04  0.25500000000E-02 0.  1.
         -2   -1    0    0    0  501 -0.00000000000E+00 -0.00000000000E+00 -0.27703395727E+02  0.27703395844E+02  0.25500000000E-02 0. -1.
    5000001    1    1    2    0    0  0.23081431142E+03 -0.22173733257E+02  0.17949946213E+04  0.18174150905E+04  0.16500000000E+03 0.  0.
   -5000001    1    1    2    0    0 -0.23081431142E+03  0.22173733257E+02  0.12111659876E+04  0.12441523100E+04  0.16500000000E+03 0.  0.
<mgrwt>
<rscale>  0 0.57982182E+03</rscale>
<asrwt>0</asrwt>
<pdfrwt beam="1">  1        2 0.43340915E+00 0.57982182E+03</pdfrwt>
<pdfrwt beam="2">  1       -2 0.39576279E-02 0.57982182E+03</pdfrwt>
<totfact> 0.71304175E+02</totfact>
</mgrwt>
</event>
<event>
 4    1  0.5280257E-005  0.3885777E+03  0.7818608E-02  0.1047808E+00
         -2   -1    0    0    0  501 -0.00000000000E+00  0.00000000000E+00  0.48993221272E+02  0.48993221338E+02  0.25500000000E-02 0. -1.
          2   -1    0    0  501    0  0.00000000000E+00 -0.00000000000E+00 -0.77047723099E+03  0.77047723099E+03  0.25500000000E-02 0.  1.
    5000001    1    1    2    0    0 -0.68281439524E+01 -0.84329281152E+02 -0.48307822329E+03  0.51744335055E+03  0.16500000000E+03 0.  0.
   -5000001    1    1    2    0    0  0.68281439524E+01  0.84329281152E+02 -0.23840578642E+03  0.30202710178E+03  0.16500000000E+03 0.  0.
<mgrwt>
<rscale>  0 0.38857772E+03</rscale>
<asrwt>0</asrwt>
<pdfrwt beam="1">  1        2 0.11006817E+00 0.38857772E+03</pdfrwt>
<pdfrwt beam="2">  1       -2 0.69990321E-02 0.38857772E+03</pdfrwt>
<totfact> 0.47906606E+03</totfact>
</mgrwt>
</event>
<event>
 4    1  0.5280257E-005  0.4786616E+03  0.7818608E-02  0.1019504E+00
          2   -1    0    0  501    0  0.00000000000E+00  0.00000000000E+00  0.36285296307E+04  0.36285296307E+04  0.25500000000E-02 0.  1.
         -2   -1    0    0    0  501 -0.00000000000E+00 -0.00000000000E+00 -0.15785794826E+02  0.15785795032E+02  0.25500000000E-02 0. -1.
    5000001    1    1    2    0    0 -0.36687321740E+01  0.11220796301E+03  0.80062934906E+03  0.82512813619E+03  0.16500000000E+03 0.  0.
   -5000001    1    1    2    0    0  0.36687321740E+01 -0.11220796301E+03  0.28121144868E+04  0.28191872896E+04  0.16500000000E+03 0.  0.
<mgrwt>
<rscale>  0 0.47866157E+03</rscale>
<asrwt>0</asrwt>
<pdfrwt beam="1">  1        2 0.51836088E+00 0.47866157E+03</pdfrwt>
<pdfrwt beam="2">  1       -2 0.22551157E-02 0.47866157E+03</pdfrwt>
<totfact> 0.77110359E+02</totfact>
</mgrwt>
</event>
<event>
 4    1  0.5280257E-005  0.3947168E+03  0.7818608E-02  0.1045625E+00
         -2   -1    0    0    0  501 -0.00000000000E+00  0.00000000000E+00  0.23461603789E+02  0.23461603927E+02  0.25500000000E-02 0. -1.
          2   -1    0    0  501    0  0.00000000000E+00 -0.00000000000E+00 -0.16601740570E+04  0.16601740570E+04  0.25500000000E-02 0.  1.
    5000001    1    1    2    0    0  0.53542565115E+02 -0.57055249859E+02 -0.49906866189E+03  0.53142886362E+03  0.16500000000E+03 0.  0.
   -5000001    1    1    2    0    0 -0.53542565115E+02  0.57055249859E+02 -0.11376437913E+04  0.11522067973E+04  0.16500000000E+03 0.  0.
<mgrwt>
<rscale>  0 0.39471684E+03</rscale>
<asrwt>0</asrwt>
<pdfrwt beam="1">  1        2 0.23716765E+00 0.39471684E+03</pdfrwt>
<pdfrwt beam="2">  1       -2 0.33516587E-02 0.39471684E+03</pdfrwt>
<totfact> 0.46617776E+03</totfact>
</mgrwt>
</event>
<event>
 4    1  0.5280257E-005  0.5314819E+03  0.7818608E-02  0.1005873E+00
         -2   -1    0    0    0  501 -0.00000000000E+00  0.00000000000E+00  0.61021609307E+02  0.61021609360E+02  0.25500000000E-02 0. -1.
          2   -1    0    0  501    0  0.00000000000E+00 -0.00000000000E+00 -0.11572664374E+04  0.11572664374E+04  0.25500000000E-02 0.  1.
    5000001    1    1    2    0    0  0.19984552552E+03 -0.32022843321E+01 -0.68265940342E+03  0.73020363582E+03  0.16500000000E+03 0.  0.
   -5000001    1    1    2    0    0 -0.19984552552E+03  0.32022843321E+01 -0.41358542466E+03  0.48808441093E+03  0.16500000000E+03 0.  0.
<mgrwt>
<rscale>  0 0.53148193E+03</rscale>
<asrwt>0</asrwt>
<pdfrwt beam="1">  1        2 0.16532376E+00 0.53148193E+03</pdfrwt>
<pdfrwt beam="2">  1       -2 0.87173735E-02 0.53148193E+03</pdfrwt>
<totfact> 0.19509679E+03</totfact>
</mgrwt>
</event>
<event>
 4    1  0.5280257E-005  0.4388393E+03  0.7818608E-02  0.1031104E+00
         -2   -1    0    0    0  501 -0.00000000000E+00  0.00000000000E+00  0.19916396643E+02  0.19916396806E+02  0.25500000000E-02 0. -1.
          2   -1    0    0  501    0  0.00000000000E+00 -0.00000000000E+00 -0.24173544005E+04  0.24173544005E+04  0.25500000000E-02 0.  1.
    5000001    1    1    2    0    0 -0.33699301477E+01 -0.12284192609E+03 -0.16223654199E+04  0.16353580804E+04  0.16500000000E+03 0.  0.
   -5000001    1    1    2    0    0  0.33699301477E+01  0.12284192609E+03 -0.77507258390E+03  0.80191271692E+03  0.16500000000E+03 0.  0.
<mgrwt>
<rscale>  0 0.43883933E+03</rscale>
<asrwt>0</asrwt>
<pdfrwt beam="1">  1        2 0.34533616E+00 0.43883933E+03</pdfrwt>
<pdfrwt beam="2">  1       -2 0.28452011E-02 0.43883933E+03</pdfrwt>
<totfact> 0.25014715E+03</totfact>
</mgrwt>
</event>
<event>
 4    1  0.5280257E-005  0.4129080E+03  0.7818608E-02  0.1039400E+00
         -2   -1    0    0    0  501 -0.00000000000E+00  0.00000000000E+00  0.57646812923E+02  0.57646812979E+02  0.25500000000E-02 0. -1.
          2   -1    0    0  501    0  0.00000000000E+00 -0.00000000000E+00 -0.73938616120E+03  0.73938616120E+03  0.25500000000E-02 0.  1.
    5000001    1    1    2    0    0  0.65044582889E+02 -0.94925065563E+02 -0.25122658051E+03  0.32184058257E+03  0.16500000000E+03 0.  0.
   -5000001    1    1    2    0    0 -0.65044582889E+02  0.94925065563E+02 -0.43051276777E+03  0.47519239161E+03  0.16500000000E+03 0.  0.
<mgrwt>
<rscale>  0 0.41290801E+03</rscale>
<asrwt>0</asrwt>
<pdfrwt beam="1">  1        2 0.10562659E+00 0.41290801E+03</pdfrwt>
<pdfrwt beam="2">  1       -2 0.82352595E-02 0.41290801E+03</pdfrwt>
<totfact> 0.39065644E+03</totfact>
</mgrwt>
</event>
<event>
 4    1  0.5280257E-005  0.3773440E+03  0.7818608E-02  0.1051920E+00
          2   -1    0    0  501    0  0.00000000000E+00  0.00000000000E+00  0.29897666704E+04  0.29897666704E+04  0.25500000000E-02 0.  1.
         -2   -1    0    0    0  501 -0.00000000000E+00 -0.00000000000E+00 -0.11906320077E+02  0.11906320350E+02  0.25500000000E-02 0. -1.
    5000001    1    1    2    0    0 -0.51318475676E+02  0.75606496132E+02  0.15264029440E+04  0.15380119881E+04  0.16500000000E+03 0.  0.
   -5000001    1    1    2    0    0  0.51318475676E+02 -0.75606496132E+02  0.14514574063E+04  0.14636610026E+04  0.16500000000E+03 0.  0.
<mgrwt>
<rscale>  0 0.37734398E+03</rscale>
<asrwt>0</asrwt>
<pdfrwt beam="1">  1        2 0.42710973E+00 0.37734398E+03</pdfrwt>
<pdfrwt beam="2">  1       -2 0.17009021E-02 0.37734398E+03</pdfrwt>
<totfact> 0.27347251E+03</totfact>
</mgrwt>
</event>
<event>
 4    1  0.5280257E-005  0.3698083E+03  0.7818608E-02  0.1054766E+00
          2   -1    0    0  501    0  0.00000000000E+00  0.00000000000E+00  0.65775414334E+02  0.65775414383E+02  0.25500000000E-02 0.  1.
         -2   -1    0    0    0  501 -0.00000000000E+00 -0.00000000000E+00 -0.51979203080E+03  0.51979203081E+03  0.25500000000E-02 0. -1.
    5000001    1    1    2    0    0  0.21839595553E+02  0.75324580128E+02 -0.27217858346E+03  0.32780625620E+03  0.16500000000E+03 0.  0.
   -5000001    1    1    2    0    0 -0.21839595553E+02 -0.75324580128E+02 -0.18183803301E+03  0.25776118900E+03  0.16500000000E+03 0.  0.
<mgrwt>
<rscale>  0 0.36980825E+03</rscale>
<asrwt>0</asrwt>
<pdfrwt beam="1">  1        2 0.93964880E-02 0.36980825E+03</pdfrwt>
<pdfrwt beam="2">  1       -2 0.74256002E-01 0.36980825E+03</pdfrwt>
<totfact> 0.11710483E+03</totfact>
</mgrwt>
</event>
<event>
 4    1  0.5280257E-005  0.1049991E+04  0.7818608E-02  0.9255353E-01
         -2   -1    0    0    0  501 -0.00000000000E+00  0.00000000000E+00  0.35254376482E+03  0.35254376483E+03  0.25500000000E-02 0. -1.
          2   -1    0    0  501    0  0.00000000000E+00 -0.00000000000E+00 -0.78180490098E+03  0.78180490098E+03  0.25500000000E-02 0.  1.
    5000001    1    1    2    0    0 -0.10635583684E+03 -0.48457330382E+03 -0.26613227528E+03  0.58666365044E+03  0.16500000000E+03 0.  0.
   -5000001    1    1    2    0    0  0.10635583684E+03  0.48457330382E+03 -0.16312886088E+03  0.54768501537E+03  0.16500000000E+03 0.  0.
<mgrwt>
<rscale>  0 0.10499913E+04</rscale>
<asrwt>0</asrwt>
<pdfrwt beam="1">  1        2 0.11168641E+00 0.10499913E+04</pdfrwt>
<pdfrwt beam="2">  1       -2 0.50363395E-01 0.10499913E+04</pdfrwt>
<totfact> 0.14534370E+02</totfact>
</mgrwt>
</event>
<event>
 4    1  0.5280257E-005  0.4989068E+03  0.7818608E-02  0.1014065E+00
         -2   -1    0    0    0  501 -0.00000000000E+00  0.00000000000E+00  0.45926565588E+02  0.45926565659E+02  0.25500000000E-02 0. -1.
          2   -1    0    0  501    0  0.00000000000E+00 -0.00000000000E+00 -0.13549241123E+04  0.13549241123E+04  0.25500000000E-02 0.  1.
    5000001    1    1    2    0    0  0.10227647276E+03 -0.71100096873E+02 -0.10464546564E+04  0.10666808560E+04  0.16500000000E+03 0.  0.
   -5000001    1    1    2    0    0 -0.10227647276E+03  0.71100096873E+02 -0.26254289031E+03  0.33416982196E+03  0.16500000000E+03 0.  0.
<mgrwt>
<rscale>  0 0.49890685E+03</rscale>
<asrwt>0</asrwt>
<pdfrwt beam="1">  1        2 0.19356056E+00 0.49890685E+03</pdfrwt>
<pdfrwt beam="2">  1       -2 0.65609388E-02 0.49890685E+03</pdfrwt>
<totfact> 0.23847771E+03</totfact>
</mgrwt>
</event>
<event>
 4    1  0.5280257E-005  0.5091934E+03  0.7818608E-02  0.1011407E+00
         -2   -1    0    0    0  501 -0.00000000000E+00  0.00000000000E+00  0.68700293529E+02  0.68700293577E+02  0.25500000000E-02 0. -1.
          2   -1    0    0  501    0  0.00000000000E+00 -0.00000000000E+00 -0.94351097470E+03  0.94351097471E+03  0.25500000000E-02 0.  1.
    5000001    1    1    2    0    0 -0.14662826659E+03 -0.10477512584E+03 -0.57960149348E+03  0.62899965565E+03  0.16500000000E+03 0.  0.
   -5000001    1    1    2    0    0  0.14662826659E+03  0.10477512584E+03 -0.29520918769E+03  0.38321161263E+03  0.16500000000E+03 0.  0.
<mgrwt>
<rscale>  0 0.50919341E+03</rscale>
<asrwt>0</asrwt>
<pdfrwt beam="1">  1        2 0.13478727E+00 0.50919341E+03</pdfrwt>
<pdfrwt beam="2">  1       -2 0.98143282E-02 0.50919341E+03</pdfrwt>
<totfact> 0.21596641E+03</totfact>
</mgrwt>
</event>
<event>
 4    1  0.5280257E-005  0.4469895E+03  0.7818608E-02  0.1028624E+00
         -2   -1    0    0    0  501 -0.00000000000E+00  0.00000000000E+00  0.31687559064E+02  0.31687559167E+02  0.25500000000E-02 0. -1.
          2   -1    0    0  501    0  0.00000000000E+00 -0.00000000000E+00 -0.15763253186E+04  0.15763253186E+04  0.25500000000E-02 0.  1.
    5000001    1    1    2    0    0 -0.92105791070E+02 -0.86564475492E+02 -0.47680337120E+03  0.52013780862E+03  0.16500000000E+03 0.  0.
   -5000001    1    1    2    0    0  0.92105791070E+02  0.86564475492E+02 -0.10678343883E+04  0.10878750691E+04  0.16500000000E+03 0.  0.
<mgrwt>
<rscale>  0 0.44698949E+03</rscale>
<asrwt>0</asrwt>
<pdfrwt beam="1">  1        2 0.22518928E+00 0.44698949E+03</pdfrwt>
<pdfrwt beam="2">  1       -2 0.45267952E-02 0.44698949E+03</pdfrwt>
<totfact> 0.32532629E+03</totfact>
</mgrwt>
</event>
<event>
 4    1  0.5280257E-005  0.5582879E+03  0.7818608E-02  0.9995936E-01
          2   -1    0    0  501    0  0.00000000000E+00  0.00000000000E+00  0.64212971701E+03  0.64212971701E+03  0.25500000000E-02 0.  1.
         -2   -1    0    0    0  501 -0.00000000000E+00 -0.00000000000E+00 -0.12134827715E+03  0.12134827718E+03  0.25500000000E-02 0. -1.
    5000001    1    1    2    0    0  0.20656410562E+03 -0.64448505537E+02  0.34550802798E+03  0.43979897339E+03  0.16500000000E+03 0.  0.
   -5000001    1    1    2    0    0 -0.20656410562E+03  0.64448505537E+02  0.17527341187E+03  0.32367902080E+03  0.16500000000E+03 0.  0.
<mgrwt>
<rscale>  0 0.55828786E+03</rscale>
<asrwt>0</asrwt>
<pdfrwt beam="1">  1        2 0.91732815E-01 0.55828786E+03</pdfrwt>
<pdfrwt beam="2">  1       -2 0.17335468E-01 0.55828786E+03</pdfrwt>
<totfact> 0.13688483E+03</totfact>
</mgrwt>
</event>
<event>
 4    1  0.5280257E-005  0.4673692E+03  0.7818608E-02  0.1022665E+00
         -2   -1    0    0    0  501 -0.00000000000E+00  0.00000000000E+00  0.70089039771E+02  0.70089039818E+02  0.25500000000E-02 0. -1.
          2   -1    0    0  501    0  0.00000000000E+00 -0.00000000000E+00 -0.77913033656E+03  0.77913033656E+03  0.25500000000E-02 0.  1.
    5000001    1    1    2    0    0  0.16094696920E+03  0.28488896048E+02 -0.30756014286E+03  0.38540081158E+03  0.16500000000E+03 0.  0.
   -5000001    1    1    2    0    0 -0.16094696920E+03 -0.28488896048E+02 -0.40148115392E+03  0.46381856479E+03  0.16500000000E+03 0.  0.
<mgrwt>
<rscale>  0 0.46736922E+03</rscale>
<asrwt>0</asrwt>
<pdfrwt beam="1">  1        2 0.11130433E+00 0.46736922E+03</pdfrwt>
<pdfrwt beam="2">  1       -2 0.10012720E-01 0.46736922E+03</pdfrwt>
<totfact> 0.26828309E+03</totfact>
</mgrwt>
</event>
<event>
 4    1  0.5280257E-005  0.8375168E+03  0.7818608E-02  0.9507246E-01
          2   -1    0    0  501    0  0.00000000000E+00  0.00000000000E+00  0.31253174392E+03  0.31253174393E+03  0.25500000000E-02 0.  1.
         -2   -1    0    0    0  501 -0.00000000000E+00 -0.00000000000E+00 -0.56109057720E+03  0.56109057720E+03  0.25500000000E-02 0. -1.
    5000001    1    1    2    0    0 -0.89289501342E+02  0.31977061282E+03 -0.32737206980E+03  0.49459410829E+03  0.16500000000E+03 0.  0.
   -5000001    1    1    2    0    0  0.89289501342E+02 -0.31977061282E+03  0.78813236520E+02  0.37902821283E+03  0.16500000000E+03 0.  0.
<mgrwt>
<rscale>  0 0.83751685E+03</rscale>
<asrwt>0</asrwt>
<pdfrwt beam="1">  1        2 0.44647392E-01 0.83751685E+03</pdfrwt>
<pdfrwt beam="2">  1       -2 0.80155796E-01 0.83751685E+03</pdfrwt>
<totfact> 0.15778159E+02</totfact>
</mgrwt>
</event>
<event>
 4    1  0.5280257E-005  0.4123237E+03  0.7818608E-02  0.1039594E+00
         -2   -1    0    0    0  501 -0.00000000000E+00  0.00000000000E+00  0.91200617624E+01  0.91200621189E+01  0.25500000000E-02 0. -1.
          2   -1    0    0  501    0  0.00000000000E+00 -0.00000000000E+00 -0.46603530291E+04  0.46603530291E+04  0.25500000000E-02 0.  1.
    5000001    1    1    2    0    0  0.11689189578E+03  0.29991972228E+02 -0.20229091275E+04  0.20332116397E+04  0.16500000000E+03 0.  0.
   -5000001    1    1    2    0    0 -0.11689189578E+03 -0.29991972228E+02 -0.26283238399E+04  0.26362614516E+04  0.16500000000E+03 0.  0.
<mgrwt>
<rscale>  0 0.41232370E+03</rscale>
<asrwt>0</asrwt>
<pdfrwt beam="1">  1        2 0.66576319E+00 0.41232370E+03</pdfrwt>
<pdfrwt beam="2">  1       -2 0.13028690E-02 0.41232370E+03</pdfrwt>
<totfact> 0.33827206E+02</totfact>
</mgrwt>
</event>
<event>
 4    1  0.5280257E-005  0.6495609E+03  0.7818608E-02  0.9807603E-01
          2   -1    0    0  501    0  0.00000000000E+00  0.00000000000E+00  0.14048806790E+04  0.14048806790E+04  0.25500000000E-02 0.  1.
         -2   -1    0    0    0  501 -0.00000000000E+00 -0.00000000000E+00 -0.75082774393E+02  0.75082774436E+02  0.25500000000E-02 0. -1.
    5000001    1    1    2    0    0 -0.27838850865E+03 -0.16219833057E+02  0.61425401079E+03  0.69447551037E+03  0.16500000000E+03 0.  0.
   -5000001    1    1    2    0    0  0.27838850865E+03  0.16219833057E+02  0.71554389385E+03  0.78548794310E+03  0.16500000000E+03 0.  0.
<mgrwt>
<rscale>  0 0.64956090E+03</rscale>
<asrwt>0</asrwt>
<pdfrwt beam="1">  1        2 0.20069722E+00 0.64956090E+03</pdfrwt>
<pdfrwt beam="2">  1       -2 0.10726112E-01 0.64956090E+03</pdfrwt>
<totfact> 0.10181592E+03</totfact>
</mgrwt>
</event>
<event>
 4    1  0.5280257E-005  0.8668331E+03  0.7818608E-02  0.9468019E-01
          2   -1    0    0  501    0  0.00000000000E+00  0.00000000000E+00  0.13423840356E+04  0.13423840356E+04  0.25500000000E-02 0.  1.
         -2   -1    0    0    0  501 -0.00000000000E+00 -0.00000000000E+00 -0.13993753275E+03  0.13993753278E+03  0.25500000000E-02 0. -1.
    5000001    1    1    2    0    0  0.26676851298E+02 -0.32149430979E+03  0.10078923295E+04  0.10710472415E+04  0.16500000000E+03 0.  0.
   -5000001    1    1    2    0    0 -0.26676851298E+02  0.32149430979E+03  0.19455417341E+03  0.41127432696E+03  0.16500000000E+03 0.  0.
<mgrwt>
<rscale>  0 0.86683311E+03</rscale>
<asrwt>0</asrwt>
<pdfrwt beam="1">  1        2 0.19176914E+00 0.86683311E+03</pdfrwt>
<pdfrwt beam="2">  1       -2 0.19991077E-01 0.86683311E+03</pdfrwt>
<totfact> 0.38078315E+02</totfact>
</mgrwt>
</event>
<event>
 4    1  0.5280257E-005  0.6588605E+03  0.7818608E-02  0.9790294E-01
         -2   -1    0    0    0  501 -0.00000000000E+00  0.00000000000E+00  0.13822562906E+04  0.13822562906E+04  0.25500000000E-02 0. -1.
          2   -1    0    0  501    0  0.00000000000E+00 -0.00000000000E+00 -0.78512433287E+02  0.78512433328E+02  0.25500000000E-02 0.  1.
    5000001    1    1    2    0    0  0.19785956724E+03 -0.15005348292E+02  0.19790072295E+03  0.32521264577E+03  0.16500000000E+03 0.  0.
   -5000001    1    1    2    0    0 -0.19785956724E+03  0.15005348292E+02  0.11058431344E+04  0.11355560782E+04  0.16500000000E+03 0.  0.
<mgrwt>
<rscale>  0 0.65886055E+03</rscale>
<asrwt>0</asrwt>
<pdfrwt beam="1">  1        2 0.11216061E-01 0.65886055E+03</pdfrwt>
<pdfrwt beam="2">  1       -2 0.19746519E+00 0.65886055E+03</pdfrwt>
<totfact> 0.81208055E+01</totfact>
</mgrwt>
</event>
<event>
 4    1  0.5280257E-005  0.4189108E+03  0.7818608E-02  0.1037421E+00
          2   -1    0    0  501    0  0.00000000000E+00  0.00000000000E+00  0.32583358149E+03  0.32583358150E+03  0.25500000000E-02 0.  1.
         -2   -1    0    0    0  501 -0.00000000000E+00 -0.00000000000E+00 -0.13464406647E+03  0.13464406649E+03  0.25500000000E-02 0. -1.
    5000001    1    1    2    0    0 -0.98923190024E+02 -0.80577952023E+02  0.11668026741E+03  0.23899349087E+03  0.16500000000E+03 0.  0.
   -5000001    1    1    2    0    0  0.98923190024E+02  0.80577952023E+02  0.74509247611E+02  0.22148415712E+03  0.16500000000E+03 0.  0.
<mgrwt>
<rscale>  0 0.41891077E+03</rscale>
<asrwt>0</asrwt>
<pdfrwt beam="1">  1        2 0.46547655E-01 0.41891077E+03</pdfrwt>
<pdfrwt beam="2">  1       -2 0.19234866E-01 0.41891077E+03</pdfrwt>
<totfact> 0.24540657E+03</totfact>
</mgrwt>
</event>
<event>
 4    1  0.5280257E-005  0.5156108E+03  0.7818608E-02  0.1009783E+00
         -2   -1    0    0    0  501 -0.00000000000E+00  0.00000000000E+00  0.39759412212E+02  0.39759412294E+02  0.25500000000E-02 0. -1.
          2   -1    0    0  501    0  0.00000000000E+00 -0.00000000000E+00 -0.16716449062E+04  0.16716449062E+04  0.25500000000E-02 0.  1.
    5000001    1    1    2    0    0  0.72029056417E+02  0.17891393286E+03 -0.96586673231E+03  0.99866006475E+03  0.16500000000E+03 0.  0.
   -5000001    1    1    2    0    0 -0.72029056417E+02 -0.17891393286E+03 -0.66601876165E+03  0.71274425372E+03  0.16500000000E+03 0.  0.
<mgrwt>
<rscale>  0 0.51561078E+03</rscale>
<asrwt>0</asrwt>
<pdfrwt beam="1">  1        2 0.23880637E+00 0.51561078E+03</pdfrwt>
<pdfrwt beam="2">  1       -2 0.56799171E-02 0.51561078E+03</pdfrwt>
<totfact> 0.20466295E+03</totfact>
</mgrwt>
</event>
<event>
 4    1  0.5280257E-005  0.8497153E+03  0.7818608E-02  0.9490719E-01
          2   -1    0    0  501    0  0.00000000000E+00  0.00000000000E+00  0.16416985413E+04  0.16416985413E+04  0.25500000000E-02 0.  1.
         -2   -1    0    0    0  501 -0.00000000000E+00 -0.00000000000E+00 -0.10994954275E+03  0.10994954278E+03  0.25500000000E-02 0. -1.
    5000001    1    1    2    0    0 -0.26586042766E+03  0.69746427438E+02  0.13406195542E+04  0.13784165264E+04  0.16500000000E+03 0.  0.
   -5000001    1    1    2    0    0  0.26586042766E+03 -0.69746427438E+02  0.19112944431E+03  0.37323155764E+03  0.16500000000E+03 0.  0.
<mgrwt>
<rscale>  0 0.84971526E+03</rscale>
<asrwt>0</asrwt>
<pdfrwt beam="1">  1        2 0.23452837E+00 0.84971526E+03</pdfrwt>
<pdfrwt beam="2">  1       -2 0.15707077E-01 0.84971526E+03</pdfrwt>
<totfact> 0.40135106E+02</totfact>
</mgrwt>
</event>
<event>
 4    1  0.5280257E-005  0.7544871E+03  0.7818608E-02  0.9628337E-01
          2   -1    0    0  501    0  0.00000000000E+00  0.00000000000E+00  0.33258181259E+03  0.33258181260E+03  0.25500000000E-02 0.  1.
         -2   -1    0    0    0  501 -0.00000000000E+00 -0.00000000000E+00 -0.42790285162E+03  0.42790285163E+03  0.25500000000E-02 0. -1.
    5000001    1    1    2    0    0  0.72544993610E+02 -0.32298418784E+03 -0.12245377237E+03  0.38961710443E+03  0.16500000000E+03 0.  0.
   -5000001    1    1    2    0    0 -0.72544993610E+02  0.32298418784E+03  0.27132733340E+02  0.37086755980E+03  0.16500000000E+03 0.  0.
<mgrwt>
<rscale>  0 0.75448713E+03</rscale>
<asrwt>0</asrwt>
<pdfrwt beam="1">  1        2 0.47511687E-01 0.75448713E+03</pdfrwt>
<pdfrwt beam="2">  1       -2 0.61128979E-01 0.75448713E+03</pdfrwt>
<totfact> 0.26682224E+02</totfact>
</mgrwt>
</event>
<event>
 4    1  0.5280257E-005  0.5050660E+03  0.7818608E-02  0.1012465E+00
          2   -1    0    0  501    0  0.00000000000E+00  0.00000000000E+00  0.44678778221E+03  0.44678778222E+03  0.25500000000E-02 0.  1.
         -2   -1    0    0    0  501 -0.00000000000E+00 -0.00000000000E+00 -0.14273649366E+03  0.14273649368E+03  0.25500000000E-02 0. -1.
    5000001    1    1    2    0    0 -0.24993166063E+02  0.14202763070E+03  0.29851744974E+03  0.37031631618E+03  0.16500000000E+03 0.  0.
   -5000001    1    1    2    0    0  0.24993166063E+02 -0.14202763070E+03  0.55338388110E+01  0.21920795972E+03  0.16500000000E+03 0.  0.
<mgrwt>
<rscale>  0 0.50506602E+03</rscale>
<asrwt>0</asrwt>
<pdfrwt beam="1">  1        2 0.63826828E-01 0.50506602E+03</pdfrwt>
<pdfrwt beam="2">  1       -2 0.20390927E-01 0.50506602E+03</pdfrwt>
<totfact> 0.15696644E+03</totfact>
</mgrwt>
</event>
<event>
 4    1  0.5280257E-005  0.6376527E+03  0.7818608E-02  0.9830228E-01
         -2   -1    0    0    0  501 -0.00000000000E+00  0.00000000000E+00  0.80761701710E+02  0.80761701750E+02  0.25500000000E-02 0. -1.
          2   -1    0    0  501    0  0.00000000000E+00 -0.00000000000E+00 -0.12586439421E+04  0.12586439421E+04  0.25500000000E-02 0.  1.
    5000001    1    1    2    0    0  0.97950498126E+02  0.25275151635E+03 -0.52428049245E+03  0.61283983540E+03  0.16500000000E+03 0.  0.
   -5000001    1    1    2    0    0 -0.97950498126E+02 -0.25275151635E+03 -0.65360174799E+03  0.72656580849E+03  0.16500000000E+03 0.  0.
<mgrwt>
<rscale>  0 0.63765265E+03</rscale>
<asrwt>0</asrwt>
<pdfrwt beam="1">  1        2 0.17980627E+00 0.63765265E+03</pdfrwt>
<pdfrwt beam="2">  1       -2 0.11537387E-01 0.63765265E+03</pdfrwt>
<totfact> 0.10846096E+03</totfact>
</mgrwt>
</event>
<event>
 4    1  0.5280257E-005  0.6017975E+03  0.7818608E-02  0.9901684E-01
          2   -1    0    0  501    0  0.00000000000E+00  0.00000000000E+00  0.25916720275E+04  0.25916720275E+04  0.25500000000E-02 0.  1.
         -2   -1    0    0    0  501 -0.00000000000E+00 -0.00000000000E+00 -0.34934994162E+02  0.34934994255E+02  0.25500000000E-02 0. -1.
    5000001    1    1    2    0    0 -0.14358474490E+03  0.14835942079E+03  0.19061427433E+04  0.19243784073E+04  0.16500000000E+03 0.  0.
   -5000001    1    1    2    0    0  0.14358474490E+03 -0.14835942079E+03  0.65059429001E+03  0.70222861442E+03  0.16500000000E+03 0.  0.
<mgrwt>
<rscale>  0 0.60179747E+03</rscale>
<asrwt>0</asrwt>
<pdfrwt beam="1">  1        2 0.37023893E+00 0.60179747E+03</pdfrwt>
<pdfrwt beam="2">  1       -2 0.49907126E-02 0.60179747E+03</pdfrwt>
<totfact> 0.85417280E+02</totfact>
</mgrwt>
</event>
<event>
 4    1  0.5280257E-005  0.3532264E+03  0.7818608E-02  0.1061299E+00
         -2   -1    0    0    0  501 -0.00000000000E+00  0.00000000000E+00  0.17419969380E+02  0.17419969567E+02  0.25500000000E-02 0. -1.
          2   -1    0    0  501    0  0.00000000000E+00 -0.00000000000E+00 -0.17906009958E+04  0.17906009958E+04  0.25500000000E-02 0.  1.
    5000001    1    1    2    0    0  0.60572431009E+02  0.15633804526E+02 -0.92412742390E+03  0.94082407008E+03  0.16500000000E+03 0.  0.
   -5000001    1    1    2    0    0 -0.60572431009E+02 -0.15633804526E+02 -0.84905360255E+03  0.86719689532E+03  0.16500000000E+03 0.  0.
<mgrwt>
<rscale>  0 0.35322636E+03</rscale>
<asrwt>0</asrwt>
<pdfrwt beam="1">  1        2 0.25580003E+00 0.35322636E+03</pdfrwt>
<pdfrwt beam="2">  1       -2 0.24885682E-02 0.35322636E+03</pdfrwt>
<totfact> 0.62710490E+03</totfact>
</mgrwt>
</event>
<event>
 4    1  0.5280257E-005  0.5342509E+03  0.7818608E-02  0.1005206E+00
         -2   -1    0    0    0  501 -0.00000000000E+00  0.00000000000E+00  0.72264503608E+03  0.72264503608E+03  0.25500000000E-02 0. -1.
          2   -1    0    0  501    0  0.00000000000E+00 -0.00000000000E+00 -0.98742830709E+02  0.98742830742E+02  0.25500000000E-02 0.  1.
    5000001    1    1    2    0    0  0.20851360868E+03 -0.21135179347E+02  0.28986326135E+03  0.39391665500E+03  0.16500000000E+03 0.  0.
   -5000001    1    1    2    0    0 -0.20851360868E+03  0.21135179347E+02  0.33403894402E+03  0.42747121182E+03  0.16500000000E+03 0.  0.
<mgrwt>
<rscale>  0 0.53425094E+03</rscale>
<asrwt>0</asrwt>
<pdfrwt beam="1">  1        2 0.14106119E-01 0.53425094E+03</pdfrwt>
<pdfrwt beam="2">  1       -2 0.10323501E+00 0.53425094E+03</pdfrwt>
<totfact> 0.33476558E+02</totfact>
</mgrwt>
</event>
<event>
 4    1  0.5280257E-005  0.4763989E+03  0.7818608E-02  0.1020130E+00
          2   -1    0    0  501    0  0.00000000000E+00  0.00000000000E+00  0.13331006942E+04  0.13331006942E+04  0.25500000000E-02 0.  1.
         -2   -1    0    0    0  501 -0.00000000000E+00 -0.00000000000E+00 -0.42561657002E+02  0.42561657079E+02  0.25500000000E-02 0. -1.
    5000001    1    1    2    0    0 -0.11876998040E+03 -0.84006761134E+02  0.38139457995E+03  0.44028430562E+03  0.16500000000E+03 0.  0.
   -5000001    1    1    2    0    0  0.11876998040E+03  0.84006761134E+02  0.90914445729E+03  0.93537804570E+03  0.16500000000E+03 0.  0.
<mgrwt>
<rscale>  0 0.47639889E+03</rscale>
<asrwt>0</asrwt>
<pdfrwt beam="1">  1        2 0.19044295E+00 0.47639889E+03</pdfrwt>
<pdfrwt beam="2">  1       -2 0.60802370E-02 0.47639889E+03</pdfrwt>
<totfact> 0.27596383E+03</totfact>
</mgrwt>
</event>
<event>
 4    1  0.5280257E-005  0.8817990E+03  0.7818608E-02  0.9448624E-01
         -2   -1    0    0    0  501 -0.00000000000E+00  0.00000000000E+00  0.83779715438E+03  0.83779715438E+03  0.25500000000E-02 0. -1.
          2   -1    0    0  501    0  0.00000000000E+00 -0.00000000000E+00 -0.23202798872E+03  0.23202798873E+03  0.25500000000E-02 0.  1.
    5000001    1    1    2    0    0 -0.39165354308E+03  0.15866995615E+02  0.16179927909E+03  0.45502556639E+03  0.16500000000E+03 0.  0.
   -5000001    1    1    2    0    0  0.39165354308E+03 -0.15866995615E+02  0.44396988657E+03  0.61479957672E+03  0.16500000000E+03 0.  0.
<mgrwt>
<rscale>  0 0.88179904E+03</rscale>
<asrwt>0</asrwt>
<pdfrwt beam="1">  1        2 0.33146855E-01 0.88179904E+03</pdfrwt>
<pdfrwt beam="2">  1       -2 0.11968531E+00 0.88179904E+03</pdfrwt>
<totfact> 0.85329155E+01</totfact>
</mgrwt>
</event>
<event>
 4    1  0.5280257E-005  0.4903877E+03  0.7818608E-02  0.1016319E+00
          2   -1    0    0  501    0  0.00000000000E+00  0.00000000000E+00  0.10215961524E+03  0.10215961527E+03  0.25500000000E-02 0.  1.
         -2   -1    0    0    0  501 -0.00000000000E+00 -0.00000000000E+00 -0.58849102433E+03  0.58849102434E+03  0.25500000000E-02 0. -1.
    5000001    1    1    2    0    0  0.85982662686E+02 -0.16478730492E+02 -0.46687363138E+03  0.50285241823E+03  0.16500000000E+03 0.  0.
   -5000001    1    1    2    0    0 -0.85982662686E+02  0.16478730492E+02 -0.19457777713E+02  0.18779822138E+03  0.16500000000E+03 0.  0.
<mgrwt>
<rscale>  0 0.49038767E+03</rscale>
<asrwt>0</asrwt>
<pdfrwt beam="1">  1        2 0.14594231E-01 0.49038767E+03</pdfrwt>
<pdfrwt beam="2">  1       -2 0.84070145E-01 0.49038767E+03</pdfrwt>
<totfact> 0.51662705E+02</totfact>
</mgrwt>
</event>
<event>
 4    1  0.5280257E-005  0.5416380E+03  0.7818608E-02  0.1003448E+00
          2   -1    0    0  501    0  0.00000000000E+00  0.00000000000E+00  0.57952341655E+03  0.57952341656E+03  0.25500000000E-02 0.  1.
         -2   -1    0    0    0  501 -0.00000000000E+00 -0.00000000000E+00 -0.12655731491E+03  0.12655731494E+03  0.25500000000E-02 0. -1.
    5000001    1    1    2    0    0 -0.60333533992E+02 -0.20597515236E+03  0.21708003319E+03  0.34700812602E+03  0.16500000000E+03 0.  0.
   -5000001    1    1    2    0    0  0.60333533992E+02  0.20597515236E+03  0.23588606845E+03  0.35907260548E+03  0.16500000000E+03 0.  0.
<mgrwt>
<rscale>  0 0.54163799E+03</rscale>
<asrwt>0</asrwt>
<pdfrwt beam="1">  1        2 0.82789060E-01 0.54163799E+03</pdfrwt>
<pdfrwt beam="2">  1       -2 0.18079616E-01 0.54163799E+03</pdfrwt>
<totfact> 0.14375028E+03</totfact>
</mgrwt>
</event>
<event>
 4    1  0.5280257E-005  0.4311059E+03  0.7818608E-02  0.1033511E+00
          2   -1    0    0  501    0  0.00000000000E+00  0.00000000000E+00  0.76134039294E+03  0.76134039295E+03  0.25500000000E-02 0.  1.
         -2   -1    0    0    0  501 -0.00000000000E+00 -0.00000000000E+00 -0.61027991782E+02  0.61027991836E+02  0.25500000000E-02 0. -1.
    5000001    1    1    2    0    0  0.11000555730E+03  0.76273367772E+02  0.41944164956E+03  0.47018628931E+03  0.16500000000E+03 0.  0.
   -5000001    1    1    2    0    0 -0.11000555730E+03 -0.76273367772E+02  0.28087075160E+03  0.35218209547E+03  0.16500000000E+03 0.  0.
<mgrwt>
<rscale>  0 0.43110590E+03</rscale>
<asrwt>0</asrwt>
<pdfrwt beam="1">  1        2 0.10876292E+00 0.43110590E+03</pdfrwt>
<pdfrwt beam="2">  1       -2 0.87182843E-02 0.43110590E+03</pdfrwt>
<totfact> 0.34440550E+03</totfact>
</mgrwt>
</event>
<event>
 4    1  0.5280257E-005  0.6822378E+03  0.7818608E-02  0.9748100E-01
         -2   -1    0    0    0  501 -0.00000000000E+00  0.00000000000E+00  0.58207456301E+03  0.58207456301E+03  0.25500000000E-02 0. -1.
          2   -1    0    0  501    0  0.00000000000E+00 -0.00000000000E+00 -0.19990925928E+03  0.19990925929E+03  0.25500000000E-02 0.  1.
    5000001    1    1    2    0    0 -0.54806442945E+02  0.28583664147E+03  0.11478674051E+03  0.35370514216E+03  0.16500000000E+03 0.  0.
   -5000001    1    1    2    0    0  0.54806442945E+02 -0.28583664147E+03  0.26737856322E+03  0.42827868014E+03  0.16500000000E+03 0.  0.
<mgrwt>
<rscale>  0 0.68223777E+03</rscale>
<asrwt>0</asrwt>
<pdfrwt beam="1">  1        2 0.28558466E-01 0.68223777E+03</pdfrwt>
<pdfrwt beam="2">  1       -2 0.83153509E-01 0.68223777E+03</pdfrwt>
<totfact> 0.24072249E+02</totfact>
</mgrwt>
</event>
<event>
 4    1  0.5280257E-005  0.4179444E+03  0.7818608E-02  0.1037737E+00
         -2   -1    0    0    0  501 -0.00000000000E+00  0.00000000000E+00  0.92321412198E+02  0.92321412233E+02  0.25500000000E-02 0. -1.
          2   -1    0    0  501    0  0.00000000000E+00 -0.00000000000E+00 -0.47301455455E+03  0.47301455456E+03  0.25500000000E-02 0.  1.
    5000001    1    1    2    0    0  0.91857696482E+02  0.87662222739E+02 -0.16607888416E+03  0.26632629885E+03  0.16500000000E+03 0.  0.
   -5000001    1    1    2    0    0 -0.91857696482E+02 -0.87662222739E+02 -0.21461425819E+03  0.29900966794E+03  0.16500000000E+03 0.  0.
<mgrwt>
<rscale>  0 0.41794436E+03</rscale>
<asrwt>0</asrwt>
<pdfrwt beam="1">  1        2 0.67573507E-01 0.41794436E+03</pdfrwt>
<pdfrwt beam="2">  1       -2 0.13188773E-01 0.41794436E+03</pdfrwt>
<totfact> 0.30719982E+03</totfact>
</mgrwt>
</event>
<event>
 4    1  0.5280257E-005  0.4391533E+03  0.7818608E-02  0.1031007E+00
         -2   -1    0    0    0  501 -0.00000000000E+00  0.00000000000E+00  0.45627893258E+02  0.45627893329E+02  0.25500000000E-02 0. -1.
          2   -1    0    0  501    0  0.00000000000E+00 -0.00000000000E+00 -0.10566758791E+04  0.10566758791E+04  0.25500000000E-02 0.  1.
    5000001    1    1    2    0    0  0.79817825246E+02  0.93413233368E+02 -0.69819470787E+03  0.72787208182E+03  0.16500000000E+03 0.  0.
   -5000001    1    1    2    0    0 -0.79817825246E+02 -0.93413233368E+02 -0.31285327796E+03  0.37443169060E+03  0.16500000000E+03 0.  0.
<mgrwt>
<rscale>  0 0.43915325E+03</rscale>
<asrwt>0</asrwt>
<pdfrwt beam="1">  1        2 0.15095368E+00 0.43915325E+03</pdfrwt>
<pdfrwt beam="2">  1       -2 0.65182712E-02 0.43915325E+03</pdfrwt>
<totfact> 0.35291009E+03</totfact>
</mgrwt>
</event>
<event>
 4    1  0.5280257E-005  0.4600069E+03  0.7818608E-02  0.1024779E+00
         -2   -1    0    0    0  501 -0.00000000000E+00  0.00000000000E+00  0.91487466148E+02  0.91487466183E+02  0.25500000000E-02 0. -1.
          2   -1    0    0  501    0  0.00000000000E+00 -0.00000000000E+00 -0.57823870250E+03  0.57823870250E+03  0.25500000000E-02 0.  1.
    5000001    1    1    2    0    0  0.13800490322E+03  0.62713553011E+02 -0.31900212547E+03  0.38982778133E+03  0.16500000000E+03 0.  0.
   -5000001    1    1    2    0    0 -0.13800490322E+03 -0.62713553011E+02 -0.16774911088E+03  0.27989838735E+03  0.16500000000E+03 0.  0.
<mgrwt>
<rscale>  0 0.46000693E+03</rscale>
<asrwt>0</asrwt>
<pdfrwt beam="1">  1        2 0.82605527E-01 0.46000693E+03</pdfrwt>
<pdfrwt beam="2">  1       -2 0.13069638E-01 0.46000693E+03</pdfrwt>
<totfact> 0.24856018E+03</totfact>
</mgrwt>
</event>
<event>
 4    1  0.5280257E-005  0.4369713E+03  0.7818608E-02  0.1031680E+00
         -2   -1    0    0    0  501 -0.00000000000E+00  0.00000000000E+00  0.64691000975E+02  0.64691001025E+02  0.25500000000E-02 0. -1.
          2   -1    0    0  501    0  0.00000000000E+00 -0.00000000000E+00 -0.73790746361E+03  0.73790746362E+03  0.25500000000E-02 0.  1.
    5000001    1    1    2    0    0  0.13141395134E+03 -0.39711281771E+01 -0.23229267428E+03  0.31379974983E+03  0.16500000000E+03 0.  0.
   -5000001    1    1    2    0    0 -0.13141395134E+03  0.39711281771E+01 -0.44092378836E+03  0.48879871482E+03  0.16500000000E+03 0.  0.
<mgrwt>
<rscale>  0 0.43697127E+03</rscale>
<asrwt>0</asrwt>
<pdfrwt beam="1">  1        2 0.10541535E+00 0.43697127E+03</pdfrwt>
<pdfrwt beam="2">  1       -2 0.92415720E-02 0.43697127E+03</pdfrwt>
<totfact> 0.32622871E+03</totfact>
</mgrwt>
</event>
<event>
 4    1  0.5280257E-005  0.1166321E+04  0.7818608E-02  0.9142858E-01
          2   -1    0    0  501    0  0.00000000000E+00  0.00000000000E+00  0.61651112494E+03  0.61651112495E+03  0.25500000000E-02 0.  1.
         -2   -1    0    0    0  501 -0.00000000000E+00 -0.00000000000E+00 -0.55161361498E+03  0.55161361499E+03  0.25500000000E-02 0. -1.
    5000001    1    1    2    0    0 -0.54346599357E+03 -0.11757233516E+03 -0.28245234605E+02  0.58069039379E+03  0.16500000000E+03 0.  0.
   -5000001    1    1    2    0    0  0.54346599357E+03  0.11757233516E+03  0.93142744564E+02  0.58743434614E+03  0.16500000000E+03 0.  0.
<mgrwt>
<rscale>  0 0.11663206E+04</rscale>
<asrwt>0</asrwt>
<pdfrwt beam="1">  1        2 0.88073018E-01 0.11663206E+04</pdfrwt>
<pdfrwt beam="2">  1       -2 0.78801945E-01 0.11663206E+04</pdfrwt>
<totfact> 0.74378330E+01</totfact>
</mgrwt>
</event>
<event>
 4    1  0.5280257E-005  0.3625929E+03  0.7818608E-02  0.1057562E+00
          2   -1    0    0  501    0  0.00000000000E+00  0.00000000000E+00  0.30944109039E+03  0.30944109041E+03  0.25500000000E-02 0. -1.
         -2   -1    0    0    0  501 -0.00000000000E+00 -0.00000000000E+00 -0.10621859315E+03  0.10621859318E+03  0.25500000000E-02 0.  1.
    5000001    1    1    2    0    0 -0.71238576766E+02  0.23825322775E+02  0.10264707868E+03  0.20833627525E+03  0.16500000000E+03 0.  0.
   -5000001    1    1    2    0    0  0.71238576766E+02 -0.23825322775E+02  0.10057541857E+03  0.20732340834E+03  0.16500000000E+03 0.  0.
<mgrwt>
<rscale>  0 0.36259287E+03</rscale>
<asrwt>0</asrwt>
<pdfrwt beam="1">  1        2 0.44205871E-01 0.36259287E+03</pdfrwt>
<pdfrwt beam="2">  1       -2 0.15174085E-01 0.36259287E+03</pdfrwt>
<totfact> 0.38664031E+03</totfact>
</mgrwt>
</event>
<event>
 4    1  0.5280257E-005  0.7244413E+03  0.7818608E-02  0.9676324E-01
          2   -1    0    0  501    0  0.00000000000E+00  0.00000000000E+00  0.18181249717E+04  0.18181249717E+04  0.25500000000E-02 0.  1.
         -2   -1    0    0    0  501 -0.00000000000E+00 -0.00000000000E+00 -0.72164340742E+02  0.72164340787E+02  0.25500000000E-02 0. -1.
    5000001    1    1    2    0    0  0.21057312423E+03  0.21248591710E+03  0.55891383790E+03  0.65505800034E+03  0.16500000000E+03 0.  0.
   -5000001    1    1    2    0    0 -0.21057312423E+03 -0.21248591710E+03  0.11870467931E+04  0.12352313122E+04  0.16500000000E+03 0.  0.
<mgrwt>
<rscale>  0 0.72444127E+03</rscale>
<asrwt>0</asrwt>
<pdfrwt beam="1">  1        2 0.25973213E+00 0.72444127E+03</pdfrwt>
<pdfrwt beam="2">  1       -2 0.10309192E-01 0.72444127E+03</pdfrwt>
<totfact> 0.66172691E+02</totfact>
</mgrwt>
</event>
<event>
 4    1  0.5280257E-005  0.4381533E+03  0.7818608E-02  0.1031315E+00
          2   -1    0    0  501    0  0.00000000000E+00  0.00000000000E+00  0.18782183475E+04  0.18782183475E+04  0.25500000000E-02 0.  1.
         -2   -1    0    0    0  501 -0.00000000000E+00 -0.00000000000E+00 -0.25553248391E+02  0.25553248518E+02  0.25500000000E-02 0. -1.
    5000001    1    1    2    0    0  0.11095493695E+03  0.86275343039E+02  0.10647698967E+04  0.10866068128E+04  0.16500000000E+03 0.  0.
   -5000001    1    1    2    0    0 -0.11095493695E+03 -0.86275343039E+02  0.78789520248E+03  0.81716478322E+03  0.16500000000E+03 0.  0.
<mgrwt>
<rscale>  0 0.43815331E+03</rscale>
<asrwt>0</asrwt>
<pdfrwt beam="1">  1        2 0.26831694E+00 0.43815331E+03</pdfrwt>
<pdfrwt beam="2">  1       -2 0.36504636E-02 0.43815331E+03</pdfrwt>
<totfact> 0.31864532E+03</totfact>
</mgrwt>
</event>
<event>
 4    1  0.5280257E-005  0.3607113E+03  0.7818608E-02  0.1058303E+00
         -2   -1    0    0    0  501 -0.00000000000E+00  0.00000000000E+00  0.59966755616E+02  0.59966755670E+02  0.25500000000E-02 0. -1.
          2   -1    0    0  501    0  0.00000000000E+00 -0.00000000000E+00 -0.54243663988E+03  0.54243663989E+03  0.25500000000E-02 0.  1.
    5000001    1    1    2    0    0  0.15788216634E+02  0.70897049568E+02 -0.24999367913E+03  0.30821664300E+03  0.16500000000E+03 0.  0.
   -5000001    1    1    2    0    0 -0.15788216634E+02 -0.70897049568E+02 -0.23247620514E+03  0.29418675256E+03  0.16500000000E+03 0.  0.
<mgrwt>
<rscale>  0 0.36071133E+03</rscale>
<asrwt>0</asrwt>
<pdfrwt beam="1">  1        2 0.77490946E-01 0.36071133E+03</pdfrwt>
<pdfrwt beam="2">  1       -2 0.85666797E-02 0.36071133E+03</pdfrwt>
<totfact> 0.52668729E+03</totfact>
</mgrwt>
</event>
<event>
 4    1  0.5280257E-005  0.4889636E+03  0.7818608E-02  0.1016700E+00
          2   -1    0    0  501    0  0.00000000000E+00  0.00000000000E+00  0.13372236556E+04  0.13372236556E+04  0.25500000000E-02 0.  1.
         -2   -1    0    0    0  501 -0.00000000000E+00 -0.00000000000E+00 -0.44698093205E+02  0.44698093278E+02  0.25500000000E-02 0. -1.
    5000001    1    1    2    0    0  0.13690360628E+03  0.77901169787E+02  0.39769689411E+03  0.45847465498E+03  0.16500000000E+03 0.  0.
   -5000001    1    1    2    0    0 -0.13690360628E+03 -0.77901169787E+02  0.89482866832E+03  0.92344709395E+03  0.16500000000E+03 0.  0.
<mgrwt>
<rscale>  0 0.48896359E+03</rscale>
<asrwt>0</asrwt>
<pdfrwt beam="1">  1        2 0.19103195E+00 0.48896359E+03</pdfrwt>
<pdfrwt beam="2">  1       -2 0.63854419E-02 0.48896359E+03</pdfrwt>
<totfact> 0.25432295E+03</totfact>
</mgrwt>
</event>
<event>
 4    1  0.5280257E-005  0.4557605E+03  0.7818608E-02  0.1026018E+00
         -2   -1    0    0    0  501 -0.00000000000E+00  0.00000000000E+00  0.34308045871E+02  0.34308045966E+02  0.25500000000E-02 0.  1.
          2   -1    0    0  501    0  0.00000000000E+00 -0.00000000000E+00 -0.15136220842E+04  0.15136220842E+04  0.25500000000E-02 0. -1.
    5000001    1    1    2    0    0 -0.14252183060E+03  0.25195203130E+02 -0.53147479375E+03  0.57501106672E+03  0.16500000000E+03 0.  0.
   -5000001    1    1    2    0    0  0.14252183060E+03 -0.25195203130E+02 -0.94783924454E+03  0.97291906341E+03  0.16500000000E+03 0.  0.
<mgrwt>
<rscale>  0 0.45576053E+03</rscale>
<asrwt>0</asrwt>
<pdfrwt beam="1">  1        2 0.21623168E+00 0.45576053E+03</pdfrwt>
<pdfrwt beam="2">  1       -2 0.49011504E-02 0.45576053E+03</pdfrwt>
<totfact> 0.31000720E+03</totfact>
</mgrwt>
</event>
<event>
 4    1  0.5280257E-005  0.6310118E+03  0.7818608E-02  0.9843076E-01
          2   -1    0    0  501    0  0.00000000000E+00  0.00000000000E+00  0.47902040575E+02  0.47902040643E+02  0.25500000000E-02 0.  1.
         -2   -1    0    0    0  501 -0.00000000000E+00 -0.00000000000E+00 -0.20780738432E+04  0.20780738432E+04  0.25500000000E-02 0. -1.
    5000001    1    1    2    0    0 -0.26141422359E+03  0.17939611960E+02 -0.12189058325E+04  0.12576230176E+04  0.16500000000E+03 0.  0.
   -5000001    1    1    2    0    0  0.26141422359E+03 -0.17939611960E+02 -0.81126597009E+03  0.86835286618E+03  0.16500000000E+03 0.  0.
<mgrwt>
<rscale>  0 0.63101181E+03</rscale>
<asrwt>0</asrwt>
<pdfrwt beam="1">  1        2 0.68431499E-02 0.63101181E+03</pdfrwt>
<pdfrwt beam="2">  1       -2 0.29686764E+00 0.63101181E+03</pdfrwt>
<totfact> 0.38013022E+01</totfact>
</mgrwt>
</event>
<event>
 4    1  0.5280257E-005  0.9070873E+03  0.7818608E-02  0.9416765E-01
         -2   -1    0    0    0  501 -0.00000000000E+00  0.00000000000E+00  0.53006042742E+03  0.53006042743E+03  0.25500000000E-02 0.  1.
          2   -1    0    0  501    0  0.00000000000E+00 -0.00000000000E+00 -0.38807243541E+03  0.38807243541E+03  0.25500000000E-02 0. -1.
    5000001    1    1    2    0    0  0.39579520406E+03 -0.14584986328E+03  0.94749226701E+02  0.46274014537E+03  0.16500000000E+03 0.  0.
   -5000001    1    1    2    0    0 -0.39579520406E+03  0.14584986328E+03  0.47238765315E+02  0.45539271747E+03  0.16500000000E+03 0.  0.
<mgrwt>
<rscale>  0 0.90708730E+03</rscale>
<asrwt>0</asrwt>
<pdfrwt beam="1">  1        2 0.55438920E-01 0.90708730E+03</pdfrwt>
<pdfrwt beam="2">  1       -2 0.75722918E-01 0.90708730E+03</pdfrwt>
<totfact> 0.14035908E+02</totfact>
</mgrwt>
</event>
<event>
 4    1  0.5280257E-005  0.4390751E+03  0.7818608E-02  0.1031031E+00
         -2   -1    0    0    0  501 -0.00000000000E+00  0.00000000000E+00  0.33374249865E+02  0.33374249963E+02  0.25500000000E-02 0. -1.
          2   -1    0    0  501    0  0.00000000000E+00 -0.00000000000E+00 -0.14441293044E+04  0.14441293044E+04  0.25500000000E-02 0.  1.
    5000001    1    1    2    0    0 -0.13460942054E+03  0.52270646315E+02 -0.66854371244E+03  0.70358198670E+03  0.16500000000E+03 0.  0.
   -5000001    1    1    2    0    0  0.13460942054E+03 -0.52270646315E+02 -0.74221134207E+03  0.77392156765E+03  0.16500000000E+03 0.  0.
<mgrwt>
<rscale>  0 0.43907508E+03</rscale>
<asrwt>0</asrwt>
<pdfrwt beam="1">  1        2 0.20630415E+00 0.43907508E+03</pdfrwt>
<pdfrwt beam="2">  1       -2 0.47677509E-02 0.43907508E+03</pdfrwt>
<totfact> 0.35139676E+03</totfact>
</mgrwt>
</event>
<event>
 4    1  0.5280257E-005  0.5391717E+03  0.7818608E-02  0.1004032E+00
         -2   -1    0    0    0  501 -0.00000000000E+00  0.00000000000E+00  0.11900182019E+03  0.11900182022E+03  0.25500000000E-02 0. -1.
          2   -1    0    0  501    0  0.00000000000E+00 -0.00000000000E+00 -0.61071788802E+03  0.61071788802E+03  0.25500000000E-02 0.  1.
    5000001    1    1    2    0    0 -0.11867753389E+03 -0.16990997505E+03 -0.31349846483E+03  0.41043884334E+03  0.16500000000E+03 0.  0.
   -5000001    1    1    2    0    0  0.11867753389E+03  0.16990997505E+03 -0.17821760300E+03  0.31928086490E+03  0.16500000000E+03 0.  0.
<mgrwt>
<rscale>  0 0.53917174E+03</rscale>
<asrwt>0</asrwt>
<pdfrwt beam="1">  1        2 0.87245411E-01 0.53917174E+03</pdfrwt>
<pdfrwt beam="2">  1       -2 0.17000260E-01 0.53917174E+03</pdfrwt>
<totfact> 0.15019503E+03</totfact>
</mgrwt>
</event>
<event>
 4    1  0.5280257E-005  0.4071443E+03  0.7818608E-02  0.1041334E+00
          2   -1    0    0  501    0  0.00000000000E+00  0.00000000000E+00  0.96771776830E+03  0.96771776830E+03  0.25500000000E-02 0.  1.
         -2   -1    0    0    0  501 -0.00000000000E+00 -0.00000000000E+00 -0.42824075625E+02  0.42824075701E+02  0.25500000000E-02 0. -1.
    5000001    1    1    2    0    0 -0.11616590087E+03 -0.18595054917E+02  0.41429773696E+03  0.46120267501E+03  0.16500000000E+03 0.  0.
   -5000001    1    1    2    0    0  0.11616590087E+03  0.18595054917E+02  0.51059595572E+03  0.54933916899E+03  0.16500000000E+03 0.  0.
<mgrwt>
<rscale>  0 0.40714429E+03</rscale>
<asrwt>0</asrwt>
<pdfrwt beam="1">  1        2 0.13824538E+00 0.40714429E+03</pdfrwt>
<pdfrwt beam="2">  1       -2 0.61177257E-02 0.40714429E+03</pdfrwt>
<totfact> 0.43998513E+03</totfact>
</mgrwt>
</event>
<event>
 4    1  0.5280257E-005  0.4282832E+03  0.7818608E-02  0.1034404E+00
         -2   -1    0    0    0  501 -0.00000000000E+00  0.00000000000E+00  0.20309315631E+02  0.20309315791E+02  0.25500000000E-02 0. -1.
          2   -1    0    0  501    0  0.00000000000E+00 -0.00000000000E+00 -0.22579107324E+04  0.22579107324E+04  0.25500000000E-02 0.  1.
    5000001    1    1    2    0    0 -0.40491493640E+02  0.82704163812E+02 -0.16547728365E+04  0.16655262472E+04  0.16500000000E+03 0.  0.
   -5000001    1    1    2    0    0  0.40491493640E+02 -0.82704163812E+02 -0.58282858029E+03  0.61269380099E+03  0.16500000000E+03 0.  0.
<mgrwt>
<rscale>  0 0.42828319E+03</rscale>
<asrwt>0</asrwt>
<pdfrwt beam="1">  1        2 0.32255852E+00 0.42828319E+03</pdfrwt>
<pdfrwt beam="2">  1       -2 0.29013322E-02 0.42828319E+03</pdfrwt>
<totfact> 0.29214252E+03</totfact>
</mgrwt>
</event>
<event>
 4    1  0.5280257E-005  0.8660384E+03  0.7818608E-02  0.9469060E-01
         -2   -1    0    0    0  501 -0.00000000000E+00  0.00000000000E+00  0.11229859574E+03  0.11229859577E+03  0.25500000000E-02 0.  1.
          2   -1    0    0  501    0  0.00000000000E+00 -0.00000000000E+00 -0.16697057480E+04  0.16697057480E+04  0.25500000000E-02 0. -1.
    5000001    1    1    2    0    0  0.35197626458E+03  0.11645761865E+03 -0.46779438982E+03  0.61927882162E+03  0.16500000000E+03 0.  0.
   -5000001    1    1    2    0    0 -0.35197626458E+03 -0.11645761865E+03 -0.10896127624E+04  0.11627255221E+04  0.16500000000E+03 0.  0.
<mgrwt>
<rscale>  0 0.86603836E+03</rscale>
<asrwt>0</asrwt>
<pdfrwt beam="1">  1        2 0.23852938E+00 0.86603836E+03</pdfrwt>
<pdfrwt beam="2">  1       -2 0.16042658E-01 0.86603836E+03</pdfrwt>
<totfact> 0.37410258E+02</totfact>
</mgrwt>
</event>
<event>
 4    1  0.5280257E-005  0.4831714E+03  0.7818608E-02  0.1018267E+00
          2   -1    0    0  501    0  0.00000000000E+00  0.00000000000E+00  0.15195840234E+03  0.15195840236E+03  0.25500000000E-02 0.  1.
         -2   -1    0    0    0  501 -0.00000000000E+00 -0.00000000000E+00 -0.38407646331E+03  0.38407646332E+03  0.25500000000E-02 0. -1.
    5000001    1    1    2    0    0 -0.16448690965E+03 -0.60690723611E+02 -0.13822886014E+03  0.27761758798E+03  0.16500000000E+03 0.  0.
   -5000001    1    1    2    0    0  0.16448690965E+03  0.60690723611E+02 -0.93889200842E+02  0.25841727770E+03  0.16500000000E+03 0.  0.
<mgrwt>
<rscale>  0 0.48317138E+03</rscale>
<asrwt>0</asrwt>
<pdfrwt beam="1">  1        2 0.21708343E-01 0.48317138E+03</pdfrwt>
<pdfrwt beam="2">  1       -2 0.54868066E-01 0.48317138E+03</pdfrwt>
<totfact> 0.80984371E+02</totfact>
</mgrwt>
</event>
<event>
 4    1  0.5280257E-005  0.3817946E+03  0.7818608E-02  0.1050272E+00
          2   -1    0    0  501    0  0.00000000000E+00  0.00000000000E+00  0.42780763513E+04  0.42780763513E+04  0.25500000000E-02 0. -1.
         -2   -1    0    0    0  501 -0.00000000000E+00 -0.00000000000E+00 -0.85182648521E+01  0.85182652338E+01  0.25500000000E-02 0.  1.
    5000001    1    1    2    0    0  0.81258934144E+02 -0.32717020294E+01  0.15619493956E+04  0.15727442999E+04  0.16500000000E+03 0.  0.
   -5000001    1    1    2    0    0 -0.81258934144E+02  0.32717020294E+01  0.27076086908E+04  0.27138503166E+04  0.16500000000E+03 0.  0.
<mgrwt>
<rscale>  0 0.38179465E+03</rscale>
<asrwt>0</asrwt>
<pdfrwt beam="1">  1        2 0.61115409E+00 0.38179465E+03</pdfrwt>
<pdfrwt beam="2">  1       -2 0.12168944E-02 0.38179465E+03</pdfrwt>
<totfact> 0.73439499E+02</totfact>
</mgrwt>
</event>
<event>
 4    1  0.5280257E-005  0.7186651E+03  0.7818608E-02  0.9685834E-01
         -2   -1    0    0    0  501 -0.00000000000E+00  0.00000000000E+00  0.30233837056E+03  0.30233837058E+03  0.25500000000E-02 0. -1.
          2   -1    0    0  501    0  0.00000000000E+00 -0.00000000000E+00 -0.42707078582E+03  0.42707078583E+03  0.25500000000E-02 0.  1.
    5000001    1    1    2    0    0 -0.22644369848E+03 -0.31325553756E+02 -0.28849024999E+03  0.40337285883E+03  0.16500000000E+03 0.  0.
   -5000001    1    1    2    0    0  0.22644369848E+03  0.31325553756E+02  0.16375783474E+03  0.32603629757E+03  0.16500000000E+03 0.  0.
<mgrwt>
<rscale>  0 0.71866511E+03</rscale>
<asrwt>0</asrwt>
<pdfrwt beam="1">  1        2 0.61010112E-01 0.71866511E+03</pdfrwt>
<pdfrwt beam="2">  1       -2 0.43191196E-01 0.71866511E+03</pdfrwt>
<totfact> 0.41119026E+02</totfact>
</mgrwt>
</event>
<event>
 4    1  0.5280257E-005  0.6781351E+03  0.7818608E-02  0.9755372E-01
         -2   -1    0    0    0  501 -0.00000000000E+00  0.00000000000E+00  0.78671651185E+02  0.78671651226E+02  0.25500000000E-02 0. -1.
          2   -1    0    0  501    0  0.00000000000E+00 -0.00000000000E+00 -0.14613498043E+04  0.14613498043E+04  0.25500000000E-02 0.  1.
    5000001    1    1    2    0    0 -0.25005940009E+03 -0.15812720132E+03 -0.72408248813E+03  0.79940875964E+03  0.16500000000E+03 0.  0.
   -5000001    1    1    2    0    0  0.25005940009E+03  0.15812720132E+03 -0.65859566494E+03  0.74061269585E+03  0.16500000000E+03 0.  0.
<mgrwt>
<rscale>  0 0.67813510E+03</rscale>
<asrwt>0</asrwt>
<pdfrwt beam="1">  1        2 0.20876424E+00 0.67813510E+03</pdfrwt>
<pdfrwt beam="2">  1       -2 0.11238808E-01 0.67813510E+03</pdfrwt>
<totfact> 0.87947916E+02</totfact>
</mgrwt>
</event>
<event>
 4    1  0.5280257E-005  0.3441016E+03  0.7818608E-02  0.1065062E+00
         -2   -1    0    0    0  501 -0.00000000000E+00  0.00000000000E+00  0.47183637597E+02  0.47183637666E+02  0.25500000000E-02 0. -1.
          2   -1    0    0  501    0  0.00000000000E+00 -0.00000000000E+00 -0.62736732629E+03  0.62736732629E+03  0.25500000000E-02 0.  1.
    5000001    1    1    2    0    0 -0.28303010411E+00 -0.47385561908E+02 -0.26765481132E+03  0.31797730989E+03  0.16500000000E+03 0.  0.
   -5000001    1    1    2    0    0  0.28303010411E+00  0.47385561908E+02 -0.31252887737E+03  0.35657365406E+03  0.16500000000E+03 0.  0.
<mgrwt>
<rscale>  0 0.34410157E+03</rscale>
<asrwt>0</asrwt>
<pdfrwt beam="1">  1        2 0.89623899E-01 0.34410157E+03</pdfrwt>
<pdfrwt beam="2">  1       -2 0.67405200E-02 0.34410157E+03</pdfrwt>
<totfact> 0.64830126E+03</totfact>
</mgrwt>
</event>
<event>
 4    1  0.5280257E-005  0.6619294E+03  0.7818608E-02  0.9784648E-01
          2   -1    0    0  501    0  0.00000000000E+00  0.00000000000E+00  0.10290157883E+04  0.10290157883E+04  0.25500000000E-02 0.  1.
         -2   -1    0    0    0  501 -0.00000000000E+00 -0.00000000000E+00 -0.10644894346E+03  0.10644894349E+03  0.25500000000E-02 0. -1.
    5000001    1    1    2    0    0 -0.23614452380E+03 -0.14814097488E+03  0.34490663792E+03  0.47317604910E+03  0.16500000000E+03 0.  0.
   -5000001    1    1    2    0    0  0.23614452380E+03  0.14814097488E+03  0.57766020687E+03  0.66228868265E+03  0.16500000000E+03 0.  0.
<mgrwt>
<rscale>  0 0.66192943E+03</rscale>
<asrwt>0</asrwt>
<pdfrwt beam="1">  1        2 0.14700226E+00 0.66192943E+03</pdfrwt>
<pdfrwt beam="2">  1       -2 0.15206992E-01 0.66192943E+03</pdfrwt>
<totfact> 0.92722679E+02</totfact>
</mgrwt>
</event>
<event>
 4    1  0.5280257E-005  0.5062210E+03  0.7818608E-02  0.1012168E+00
         -2   -1    0    0    0  501 -0.00000000000E+00  0.00000000000E+00  0.26909696785E+03  0.26909696786E+03  0.25500000000E-02 0. -1.
          2   -1    0    0  501    0  0.00000000000E+00 -0.00000000000E+00 -0.23807375916E+03  0.23807375917E+03  0.25500000000E-02 0.  1.
    5000001    1    1    2    0    0 -0.38802579839E+02  0.15060472321E+03  0.12820598360E+03  0.26047878433E+03  0.16500000000E+03 0.  0.
   -5000001    1    1    2    0    0  0.38802579839E+02 -0.15060472321E+03 -0.97182774909E+02  0.24669194270E+03  0.16500000000E+03 0.  0.
<mgrwt>
<rscale>  0 0.50622101E+03</rscale>
<asrwt>0</asrwt>
<pdfrwt beam="1">  1        2 0.34010537E-01 0.50622101E+03</pdfrwt>
<pdfrwt beam="2">  1       -2 0.38442424E-01 0.50622101E+03</pdfrwt>
<totfact> 0.98891443E+02</totfact>
</mgrwt>
</event>
<event>
 4    1  0.5280257E-005  0.5517475E+03  0.7818608E-02  0.1001090E+00
          2   -1    0    0  501    0  0.00000000000E+00  0.00000000000E+00  0.12128420914E+04  0.12128420914E+04  0.25500000000E-02 0.  1.
         -2   -1    0    0    0  501 -0.00000000000E+00 -0.00000000000E+00 -0.62750396082E+02  0.62750396133E+02  0.25500000000E-02 0. -1.
    5000001    1    1    2    0    0  0.16442066400E+03 -0.12078065823E+03  0.37806864885E+03  0.46019889764E+03  0.16500000000E+03 0.  0.
   -5000001    1    1    2    0    0 -0.16442066400E+03  0.12078065823E+03  0.77202304643E+03  0.81539358985E+03  0.16500000000E+03 0.  0.
<mgrwt>
<rscale>  0 0.55174748E+03</rscale>
<asrwt>0</asrwt>
<pdfrwt beam="1">  1        2 0.17326315E+00 0.55174748E+03</pdfrwt>
<pdfrwt beam="2">  1       -2 0.89643424E-02 0.55174748E+03</pdfrwt>
<totfact> 0.17357287E+03</totfact>
</mgrwt>
</event>
<event>
 4    1  0.5280257E-005  0.4784150E+03  0.7818608E-02  0.1019572E+00
         -2   -1    0    0    0  501 -0.00000000000E+00  0.00000000000E+00  0.44743469306E+03  0.44743469307E+03  0.25500000000E-02 0. -1.
          2   -1    0    0  501    0  0.00000000000E+00 -0.00000000000E+00 -0.12788511016E+03  0.12788511018E+03  0.25500000000E-02 0.  1.
    5000001    1    1    2    0    0  0.20366058413E+02  0.15318726457E+03  0.65743692563E+02  0.23543225666E+03  0.16500000000E+03 0.  0.
   -5000001    1    1    2    0    0 -0.20366058413E+02 -0.15318726457E+03  0.25380589034E+03  0.33988754660E+03  0.16500000000E+03 0.  0.
<mgrwt>
<rscale>  0 0.47841503E+03</rscale>
<asrwt>0</asrwt>
<pdfrwt beam="1">  1        2 0.18269302E-01 0.47841503E+03</pdfrwt>
<pdfrwt beam="2">  1       -2 0.63919241E-01 0.47841503E+03</pdfrwt>
<totfact> 0.71970446E+02</totfact>
</mgrwt>
</event>
<event>
 4    1  0.5280257E-005  0.3690529E+03  0.7818608E-02  0.1055056E+00
         -2   -1    0    0    0  501 -0.00000000000E+00  0.00000000000E+00  0.81654798097E+02  0.81654798137E+02  0.25500000000E-02 0. -1.
          2   -1    0    0  501    0  0.00000000000E+00 -0.00000000000E+00 -0.41699961870E+03  0.41699961871E+03  0.25500000000E-02 0.  1.
    5000001    1    1    2    0    0 -0.81958965490E+02  0.61708180326E+01 -0.15639447156E+03  0.24174280083E+03  0.16500000000E+03 0.  0.
   -5000001    1    1    2    0    0  0.81958965490E+02 -0.61708180326E+01 -0.17895034904E+03  0.25691161601E+03  0.16500000000E+03 0.  0.
<mgrwt>
<rscale>  0 0.36905295E+03</rscale>
<asrwt>0</asrwt>
<pdfrwt beam="1">  1        2 0.59571373E-01 0.36905295E+03</pdfrwt>
<pdfrwt beam="2">  1       -2 0.11664971E-01 0.36905295E+03</pdfrwt>
<totfact> 0.43058480E+03</totfact>
</mgrwt>
</event>
<event>
 4    1  0.5280257E-005  0.5399986E+03  0.7818608E-02  0.1003836E+00
          2   -1    0    0  501    0  0.00000000000E+00  0.00000000000E+00  0.87461169684E+03  0.87461169684E+03  0.25500000000E-02 0.  1.
         -2   -1    0    0    0  501 -0.00000000000E+00 -0.00000000000E+00 -0.83350840029E+02  0.83350840068E+02  0.25500000000E-02 0. -1.
    5000001    1    1    2    0    0 -0.38632794641E+02  0.16269388919E+03  0.15952834600E+03  0.28396494076E+03  0.16500000000E+03 0.  0.
   -5000001    1    1    2    0    0  0.38632794641E+02 -0.16269388919E+03  0.63173251082E+03  0.67399759616E+03  0.16500000000E+03 0.  0.
<mgrwt>
<rscale>  0 0.53999859E+03</rscale>
<asrwt>0</asrwt>
<pdfrwt beam="1">  1        2 0.12494453E+00 0.53999859E+03</pdfrwt>
<pdfrwt beam="2">  1       -2 0.11907263E-01 0.53999859E+03</pdfrwt>
<totfact> 0.17449672E+03</totfact>
</mgrwt>
</event>
<event>
 4    1  0.5280257E-005  0.3875560E+03  0.7818608E-02  0.1048176E+00
         -2   -1    0    0    0  501 -0.00000000000E+00  0.00000000000E+00  0.42967196282E+03  0.42967196282E+03  0.25500000000E-02 0. -1.
          2   -1    0    0  501    0  0.00000000000E+00 -0.00000000000E+00 -0.87392070339E+02  0.87392070376E+02  0.25500000000E-02 0.  1.
    5000001    1    1    2    0    0  0.46883657900E+02  0.39118527909E+02  0.62779840598E+02  0.18680108402E+03  0.16500000000E+03 0.  0.
   -5000001    1    1    2    0    0 -0.46883657900E+02 -0.39118527909E+02  0.27950005188E+03  0.33026294919E+03  0.16500000000E+03 0.  0.
<mgrwt>
<rscale>  0 0.38755605E+03</rscale>
<asrwt>0</asrwt>
<pdfrwt beam="1">  1        2 0.12484582E-01 0.38755605E+03</pdfrwt>
<pdfrwt beam="2">  1       -2 0.61381708E-01 0.38755605E+03</pdfrwt>
<totfact> 0.12365802E+03</totfact>
</mgrwt>
</event>
<event>
 4    1  0.5280257E-005  0.1222881E+04  0.7818608E-02  0.9093061E-01
         -2   -1    0    0    0  501 -0.00000000000E+00  0.00000000000E+00  0.19279473578E+03  0.19279473579E+03  0.25500000000E-02 0. -1.
          2   -1    0    0  501    0  0.00000000000E+00 -0.00000000000E+00 -0.19391592044E+04  0.19391592044E+04  0.25500000000E-02 0.  1.
    5000001    1    1    2    0    0  0.44699257810E+03  0.25640955481E+03 -0.37674119227E+03  0.65932325200E+03  0.16500000000E+03 0.  0.
   -5000001    1    1    2    0    0 -0.44699257810E+03 -0.25640955481E+03 -0.13696232763E+04  0.14726306882E+04  0.16500000000E+03 0.  0.
<mgrwt>
<rscale>  0 0.12228813E+04</rscale>
<asrwt>0</asrwt>
<pdfrwt beam="1">  1        2 0.27702273E+00 0.12228813E+04</pdfrwt>
<pdfrwt beam="2">  1       -2 0.27542106E-01 0.12228813E+04</pdfrwt>
<totfact> 0.10213662E+02</totfact>
</mgrwt>
</event>
<event>
 4    1  0.5280257E-005  0.3977460E+03  0.7818608E-02  0.1044563E+00
         -2   -1    0    0    0  501 -0.00000000000E+00  0.00000000000E+00  0.43863741435E+02  0.43863741509E+02  0.25500000000E-02 0. -1.
          2   -1    0    0  501    0  0.00000000000E+00 -0.00000000000E+00 -0.90166680075E+03  0.90166680076E+03  0.25500000000E-02 0.  1.
    5000001    1    1    2    0    0  0.25951403330E+02 -0.93357316643E+02 -0.30008296766E+03  0.35589865325E+03  0.16500000000E+03 0.  0.
   -5000001    1    1    2    0    0 -0.25951403330E+02  0.93357316643E+02 -0.55772009166E+03  0.58963188902E+03  0.16500000000E+03 0.  0.
<mgrwt>
<rscale>  0 0.39774605E+03</rscale>
<asrwt>0</asrwt>
<pdfrwt beam="1">  1        2 0.12880953E+00 0.39774605E+03</pdfrwt>
<pdfrwt beam="2">  1       -2 0.62662494E-02 0.39774605E+03</pdfrwt>
<totfact> 0.46581808E+03</totfact>
</mgrwt>
</event>
<event>
 4    1  0.5280257E-005  0.4868096E+03  0.7818608E-02  0.1017280E+00
          2   -1    0    0  501    0  0.00000000000E+00  0.00000000000E+00  0.69444824033E+03  0.69444824034E+03  0.25500000000E-02 0.  1.
         -2   -1    0    0    0  501 -0.00000000000E+00 -0.00000000000E+00 -0.85313632352E+02  0.85313632390E+02  0.25500000000E-02 0. -1.
    5000001    1    1    2    0    0 -0.56808907327E+01  0.15847891242E+03  0.43736117372E+03  0.49361689039E+03  0.16500000000E+03 0.  0.
   -5000001    1    1    2    0    0  0.56808907327E+01 -0.15847891242E+03  0.17177343427E+03  0.28614498234E+03  0.16500000000E+03 0.  0.
<mgrwt>
<rscale>  0 0.48680962E+03</rscale>
<asrwt>0</asrwt>
<pdfrwt beam="1">  1        2 0.99206888E-01 0.48680962E+03</pdfrwt>
<pdfrwt beam="2">  1       -2 0.12187662E-01 0.48680962E+03</pdfrwt>
<totfact> 0.22463763E+03</totfact>
</mgrwt>
</event>
<event>
 4    1  0.5280257E-005  0.4135878E+03  0.7818608E-02  0.1039174E+00
         -2   -1    0    0    0  501 -0.00000000000E+00  0.00000000000E+00  0.62667300377E+02  0.62667300429E+02  0.25500000000E-02 0. -1.
          2   -1    0    0  501    0  0.00000000000E+00 -0.00000000000E+00 -0.68239293296E+03  0.68239293296E+03  0.25500000000E-02 0.  1.
    5000001    1    1    2    0    0  0.30304415606E+02  0.15296184949E+02 -0.93790274641E+02  0.19280546283E+03  0.16500000000E+03 0.  0.
   -5000001    1    1    2    0    0 -0.30304415606E+02 -0.15296184949E+02 -0.52593535794E+03  0.55225477056E+03  0.16500000000E+03 0.  0.
<mgrwt>
<rscale>  0 0.41358783E+03</rscale>
<asrwt>0</asrwt>
<pdfrwt beam="1">  1        2 0.97484700E-01 0.41358783E+03</pdfrwt>
<pdfrwt beam="2">  1       -2 0.89524719E-02 0.41358783E+03</pdfrwt>
<totfact> 0.37711144E+03</totfact>
</mgrwt>
</event>
<event>
 4    1  0.5280257E-005  0.4837191E+03  0.7818608E-02  0.1018118E+00
         -2   -1    0    0    0  501 -0.00000000000E+00  0.00000000000E+00  0.36771959941E+03  0.36771959942E+03  0.25500000000E-02 0. -1.
          2   -1    0    0  501    0  0.00000000000E+00 -0.00000000000E+00 -0.15907786174E+03  0.15907786176E+03  0.25500000000E-02 0.  1.
    5000001    1    1    2    0    0  0.26869526308E+02  0.17927680768E+02 -0.85023670191E+02  0.18840753083E+03  0.16500000000E+03 0.  0.
   -5000001    1    1    2    0    0 -0.26869526308E+02 -0.17927680768E+02  0.29366540787E+03  0.33838993035E+03  0.16500000000E+03 0.  0.
<mgrwt>
<rscale>  0 0.48371912E+03</rscale>
<asrwt>0</asrwt>
<pdfrwt beam="1">  1        2 0.22725409E-01 0.48371912E+03</pdfrwt>
<pdfrwt beam="2">  1       -2 0.52531371E-01 0.48371912E+03</pdfrwt>
<totfact> 0.83987425E+02</totfact>
</mgrwt>
</event>
<event>
 4    1  0.5280257E-005  0.4235886E+03  0.7818608E-02  0.1035905E+00
         -2   -1    0    0    0  501 -0.00000000000E+00  0.00000000000E+00  0.25427324902E+02  0.25427325030E+02  0.25500000000E-02 0. -1.
          2   -1    0    0  501    0  0.00000000000E+00 -0.00000000000E+00 -0.17641190656E+04  0.17641190656E+04  0.25500000000E-02 0.  1.
    5000001    1    1    2    0    0 -0.97416915280E+00  0.13267916647E+03 -0.84734540587E+03  0.87339793169E+03  0.16500000000E+03 0.  0.
   -5000001    1    1    2    0    0  0.97416915280E+00 -0.13267916647E+03 -0.89134633480E+03  0.91614845892E+03  0.16500000000E+03 0.  0.
<mgrwt>
<rscale>  0 0.42358862E+03</rscale>
<asrwt>0</asrwt>
<pdfrwt beam="1">  1        2 0.25201693E+00 0.42358862E+03</pdfrwt>
<pdfrwt beam="2">  1       -2 0.36324761E-02 0.42358862E+03</pdfrwt>
<totfact> 0.36605107E+03</totfact>
</mgrwt>
</event>
<event>
 4    1  0.5280257E-005  0.4445860E+03  0.7818608E-02  0.1029349E+00
          2   -1    0    0  501    0  0.00000000000E+00  0.00000000000E+00  0.94325900352E+03  0.94325900352E+03  0.25500000000E-02 0. -1.
         -2   -1    0    0    0  501 -0.00000000000E+00 -0.00000000000E+00 -0.52386648885E+02  0.52386648947E+02  0.25500000000E-02 0.  1.
    5000001    1    1    2    0    0  0.14609495463E+03 -0.20433803811E+02  0.39911055611E+03  0.45637212021E+03  0.16500000000E+03 0.  0.
   -5000001    1    1    2    0    0 -0.14609495463E+03  0.20433803811E+02  0.49176179852E+03  0.53927353226E+03  0.16500000000E+03 0.  0.
<mgrwt>
<rscale>  0 0.44458600E+03</rscale>
<asrwt>0</asrwt>
<pdfrwt beam="1">  1        2 0.13475129E+00 0.44458600E+03</pdfrwt>
<pdfrwt beam="2">  1       -2 0.74838068E-02 0.44458600E+03</pdfrwt>
<totfact> 0.33263036E+03</totfact>
</mgrwt>
</event>
<event>
 4    1  0.5280257E-005  0.4098042E+03  0.7818608E-02  0.1040437E+00
         -2   -1    0    0    0  501 -0.00000000000E+00  0.00000000000E+00  0.10497296144E+02  0.10497296453E+02  0.25500000000E-02 0. -1.
          2   -1    0    0  501    0  0.00000000000E+00 -0.00000000000E+00 -0.39995896746E+04  0.39995896746E+04  0.25500000000E-02 0.  1.
    5000001    1    1    2    0    0  0.11441145681E+03 -0.40373412400E+02 -0.20563445236E+04  0.20665182781E+04  0.16500000000E+03 0.  0.
   -5000001    1    1    2    0    0 -0.11441145681E+03  0.40373412400E+02 -0.19327478549E+04  0.19435686930E+04  0.16500000000E+03 0.  0.
<mgrwt>
<rscale>  0 0.40980424E+03</rscale>
<asrwt>0</asrwt>
<pdfrwt beam="1">  1        2 0.57136898E+00 0.40980424E+03</pdfrwt>
<pdfrwt beam="2">  1       -2 0.14996163E-02 0.40980424E+03</pdfrwt>
<totfact> 0.83326042E+02</totfact>
</mgrwt>
</event>
<event>
 4    1  0.5280257E-005  0.4246034E+03  0.7818608E-02  0.1035578E+00
          2   -1    0    0  501    0  0.00000000000E+00  0.00000000000E+00  0.84984729156E+03  0.84984729156E+03  0.25500000000E-02 0.  1.
         -2   -1    0    0    0  501 -0.00000000000E+00 -0.00000000000E+00 -0.53035428157E+02  0.53035428218E+02  0.25500000000E-02 0. -1.
    5000001    1    1    2    0    0 -0.64709885819E+02 -0.54498440990E+02  0.61825664906E+03  0.64546396763E+03  0.16500000000E+03 0.  0.
   -5000001    1    1    2    0    0  0.64709885819E+02  0.54498440990E+02  0.17855521434E+03  0.25741875215E+03  0.16500000000E+03 0.  0.
<mgrwt>
<rscale>  0 0.42460341E+03</rscale>
<asrwt>0</asrwt>
<pdfrwt beam="1">  1        2 0.12140675E+00 0.42460341E+03</pdfrwt>
<pdfrwt beam="2">  1       -2 0.75764900E-02 0.42460341E+03</pdfrwt>
<totfact> 0.37419613E+03</totfact>
</mgrwt>
</event>
<event>
 4    1  0.5280257E-005  0.8215816E+03  0.7818608E-02  0.9529294E-01
         -2   -1    0    0    0  501 -0.00000000000E+00  0.00000000000E+00  0.39148902751E+03  0.39148902752E+03  0.25500000000E-02 0. -1.
          2   -1    0    0  501    0  0.00000000000E+00 -0.00000000000E+00 -0.43104420561E+03  0.43104420561E+03  0.25500000000E-02 0.  1.
    5000001    1    1    2    0    0 -0.27792962440E+03 -0.94510198241E+02  0.21575439429E+03  0.39994001094E+03  0.16500000000E+03 0.  0.
   -5000001    1    1    2    0    0  0.27792962440E+03  0.94510198241E+02 -0.25530957239E+03  0.42259322219E+03  0.16500000000E+03 0.  0.
<mgrwt>
<rscale>  0 0.82158159E+03</rscale>
<asrwt>0</asrwt>
<pdfrwt beam="1">  1        2 0.61577744E-01 0.82158159E+03</pdfrwt>
<pdfrwt beam="2">  1       -2 0.55927004E-01 0.82158159E+03</pdfrwt>
<totfact> 0.24017510E+02</totfact>
</mgrwt>
</event>
<event>
 4    1  0.5280257E-005  0.5364035E+03  0.7818608E-02  0.1004691E+00
         -2   -1    0    0    0  501 -0.00000000000E+00  0.00000000000E+00  0.21096399335E+03  0.21096399337E+03  0.25500000000E-02 0. -1.
          2   -1    0    0  501    0  0.00000000000E+00 -0.00000000000E+00 -0.34096892943E+03  0.34096892944E+03  0.25500000000E-02 0.  1.
    5000001    1    1    2    0    0 -0.16586212459E+03 -0.82119175996E+02 -0.17020416854E+03  0.30074617608E+03  0.16500000000E+03 0.  0.
   -5000001    1    1    2    0    0  0.16586212459E+03  0.82119175996E+02  0.40199232464E+02  0.25118674672E+03  0.16500000000E+03 0.  0.
<mgrwt>
<rscale>  0 0.53640346E+03</rscale>
<asrwt>0</asrwt>
<pdfrwt beam="1">  1        2 0.48709847E-01 0.53640346E+03</pdfrwt>
<pdfrwt beam="2">  1       -2 0.30137713E-01 0.53640346E+03</pdfrwt>
<totfact> 0.10521426E+03</totfact>
</mgrwt>
</event>
<event>
 4    1  0.5280257E-005  0.4517596E+03  0.7818608E-02  0.1027199E+00
         -2   -1    0    0    0  501 -0.00000000000E+00  0.00000000000E+00  0.32124217603E+02  0.32124217704E+02  0.25500000000E-02 0. -1.
          2   -1    0    0  501    0  0.00000000000E+00 -0.00000000000E+00 -0.15882623857E+04  0.15882623857E+04  0.25500000000E-02 0.  1.
    5000001    1    1    2    0    0  0.12217672371E+03  0.11092737089E+02 -0.11135192756E+04  0.11323428712E+04  0.16500000000E+03 0.  0.
   -5000001    1    1    2    0    0 -0.12217672371E+03 -0.11092737089E+02 -0.44261889249E+03  0.48804373228E+03  0.16500000000E+03 0.  0.
<mgrwt>
<rscale>  0 0.45175961E+03</rscale>
<asrwt>0</asrwt>
<pdfrwt beam="1">  1        2 0.22689458E+00 0.45175961E+03</pdfrwt>
<pdfrwt beam="2">  1       -2 0.45891749E-02 0.45175961E+03</pdfrwt>
<totfact> 0.31412009E+03</totfact>
</mgrwt>
</event>
<event>
 4    1  0.5280257E-005  0.6211749E+03  0.7818608E-02  0.9862423E-01
         -2   -1    0    0    0  501 -0.00000000000E+00  0.00000000000E+00  0.98339431070E+02  0.98339431103E+02  0.25500000000E-02 0. -1.
          2   -1    0    0  501    0  0.00000000000E+00 -0.00000000000E+00 -0.98093468661E+03  0.98093468661E+03  0.25500000000E-02 0.  1.
    5000001    1    1    2    0    0 -0.20402481566E+03 -0.15130250470E+03 -0.56067835408E+03  0.63726273237E+03  0.16500000000E+03 0.  0.
   -5000001    1    1    2    0    0  0.20402481566E+03  0.15130250470E+03 -0.32191690146E+03  0.44201138535E+03  0.16500000000E+03 0.  0.
<mgrwt>
<rscale>  0 0.62117488E+03</rscale>
<asrwt>0</asrwt>
<pdfrwt beam="1">  1        2 0.14013352E+00 0.62117488E+03</pdfrwt>
<pdfrwt beam="2">  1       -2 0.14048491E-01 0.62117488E+03</pdfrwt>
<totfact> 0.11345085E+03</totfact>
</mgrwt>
</event>
<event>
 4    1  0.5280257E-005  0.3886167E+03  0.7818608E-02  0.1047794E+00
          2   -1    0    0  501    0  0.00000000000E+00  0.00000000000E+00  0.63348081267E+03  0.63348081268E+03  0.25500000000E-02 0.  1.
         -2   -1    0    0    0  501 -0.00000000000E+00 -0.00000000000E+00 -0.59600434769E+02  0.59600434823E+02  0.25500000000E-02 0. -1.
    5000001    1    1    2    0    0 -0.65519889662E+02  0.78961708791E+02  0.28999009750E+03  0.34906598810E+03  0.16500000000E+03 0.  0.
   -5000001    1    1    2    0    0  0.65519889662E+02 -0.78961708791E+02  0.28389028040E+03  0.34401525940E+03  0.16500000000E+03 0.  0.
<mgrwt>
<rscale>  0 0.38861668E+03</rscale>
<asrwt>0</asrwt>
<pdfrwt beam="1">  1        2 0.90497256E-01 0.38861668E+03</pdfrwt>
<pdfrwt beam="2">  1       -2 0.85143482E-02 0.38861668E+03</pdfrwt>
<totfact> 0.44554135E+03</totfact>
</mgrwt>
</event>
<event>
 4    1  0.5280257E-005  0.5957394E+03  0.7818608E-02  0.9914285E-01
         -2   -1    0    0    0  501 -0.00000000000E+00  0.00000000000E+00  0.34723281349E+02  0.34723281442E+02  0.25500000000E-02 0. -1.
          2   -1    0    0  501    0  0.00000000000E+00 -0.00000000000E+00 -0.25552407880E+04  0.25552407880E+04  0.25500000000E-02 0.  1.
    5000001    1    1    2    0    0 -0.21123154549E+03 -0.10603224712E+03 -0.93377088077E+03  0.97724851549E+03  0.16500000000E+03 0.  0.
   -5000001    1    1    2    0    0  0.21123154549E+03  0.10603224712E+03 -0.15867466259E+04  0.16127155539E+04  0.16500000000E+03 0.  0.
<mgrwt>
<rscale>  0 0.59573936E+03</rscale>
<asrwt>0</asrwt>
<pdfrwt beam="1">  1        2 0.36503428E+00 0.59573936E+03</pdfrwt>
<pdfrwt beam="2">  1       -2 0.49604704E-02 0.59573936E+03</pdfrwt>
<totfact> 0.90086042E+02</totfact>
</mgrwt>
</event>
<event>
 4    1  0.5280257E-005  0.6650757E+03  0.7818608E-02  0.9778895E-01
         -2   -1    0    0    0  501 -0.00000000000E+00  0.00000000000E+00  0.73316517321E+02  0.73316517365E+02  0.25500000000E-02 0. -1.
          2   -1    0    0  501    0  0.00000000000E+00 -0.00000000000E+00 -0.15082742855E+04  0.15082742855E+04  0.25500000000E-02 0.  1.
    5000001    1    1    2    0    0 -0.21057692662E+03 -0.52527199775E+02 -0.26468033050E+03  0.37997687574E+03  0.16500000000E+03 0.  0.
   -5000001    1    1    2    0    0  0.21057692662E+03  0.52527199775E+02 -0.11702774377E+04  0.12016139271E+04  0.16500000000E+03 0.  0.
<mgrwt>
<rscale>  0 0.66507569E+03</rscale>
<asrwt>0</asrwt>
<pdfrwt beam="1">  1        2 0.21546774E+00 0.66507569E+03</pdfrwt>
<pdfrwt beam="2">  1       -2 0.10473789E-01 0.66507569E+03</pdfrwt>
<totfact> 0.93308432E+02</totfact>
</mgrwt>
</event>
<event>
 4    1  0.5280257E-005  0.5801129E+03  0.7818608E-02  0.9947547E-01
          2   -1    0    0  501    0  0.00000000000E+00  0.00000000000E+00  0.16954505231E+04  0.16954505231E+04  0.25500000000E-02 0.  1.
         -2   -1    0    0    0  501 -0.00000000000E+00 -0.00000000000E+00 -0.49622648222E+02  0.49622648287E+02  0.25500000000E-02 0. -1.
    5000001    1    1    2    0    0  0.16262623115E+03  0.13846854251E+03  0.11425006947E+04  0.11739478974E+04  0.16500000000E+03 0.  0.
   -5000001    1    1    2    0    0 -0.16262623115E+03 -0.13846854251E+03  0.50332718013E+03  0.57112527398E+03  0.16500000000E+03 0.  0.
<mgrwt>
<rscale>  0 0.58011290E+03</rscale>
<asrwt>0</asrwt>
<pdfrwt beam="1">  1        2 0.24220721E+00 0.58011290E+03</pdfrwt>
<pdfrwt beam="2">  1       -2 0.70889501E-02 0.58011290E+03</pdfrwt>
<totfact> 0.14030019E+03</totfact>
</mgrwt>
</event>
<event>
 4    1  0.5280257E-005  0.4943116E+03  0.7818608E-02  0.1015274E+00
         -2   -1    0    0    0  501 -0.00000000000E+00  0.00000000000E+00  0.46719910724E+02  0.46719910793E+02  0.25500000000E-02 0. -1.
          2   -1    0    0  501    0  0.00000000000E+00 -0.00000000000E+00 -0.13074934504E+04  0.13074934504E+04  0.25500000000E-02 0.  1.
    5000001    1    1    2    0    0 -0.16745272243E+03  0.44549555600E+02 -0.80006260030E+03  0.83507499157E+03  0.16500000000E+03 0.  0.
   -5000001    1    1    2    0    0  0.16745272243E+03 -0.44549555600E+02 -0.46071093938E+03  0.51913836963E+03  0.16500000000E+03 0.  0.
<mgrwt>
<rscale>  0 0.49431155E+03</rscale>
<asrwt>0</asrwt>
<pdfrwt beam="1">  1        2 0.18678476E+00 0.49431155E+03</pdfrwt>
<pdfrwt beam="2">  1       -2 0.66742738E-02 0.49431155E+03</pdfrwt>
<totfact> 0.24616162E+03</totfact>
</mgrwt>
</event>
<event>
 4    1  0.5280257E-005  0.5636681E+03  0.7818608E-02  0.9983789E-01
         -2   -1    0    0    0  501 -0.00000000000E+00  0.00000000000E+00  0.15046944219E+03  0.15046944221E+03  0.25500000000E-02 0. -1.
          2   -1    0    0  501    0  0.00000000000E+00 -0.00000000000E+00 -0.52788422639E+03  0.52788422639E+03  0.25500000000E-02 0.  1.
    5000001    1    1    2    0    0 -0.12941084324E+03  0.11566548170E+03 -0.98816619705E+01  0.23968378595E+03  0.16500000000E+03 0.  0.
   -5000001    1    1    2    0    0  0.12941084324E+03 -0.11566548170E+03 -0.36753312223E+03  0.43866988265E+03  0.16500000000E+03 0.  0.
<mgrwt>
<rscale>  0 0.56366815E+03</rscale>
<asrwt>0</asrwt>
<pdfrwt beam="1">  1        2 0.75412031E-01 0.56366815E+03</pdfrwt>
<pdfrwt beam="2">  1       -2 0.21495635E-01 0.56366815E+03</pdfrwt>
<totfact> 0.11855561E+03</totfact>
</mgrwt>
</event>
<event>
 4    1  0.5280257E-005  0.3615286E+03  0.7818608E-02  0.1057980E+00
          2   -1    0    0  501    0  0.00000000000E+00  0.00000000000E+00  0.23301119324E+03  0.23301119325E+03  0.25500000000E-02 0.  1.
         -2   -1    0    0    0  501 -0.00000000000E+00 -0.00000000000E+00 -0.14023243127E+03  0.14023243129E+03  0.25500000000E-02 0. -1.
    5000001    1    1    2    0    0 -0.16821443459E+02 -0.60302996933E+02  0.86789427906E+02  0.19666422449E+03  0.16500000000E+03 0.  0.
   -5000001    1    1    2    0    0  0.16821443459E+02  0.60302996933E+02  0.59893340624E+01  0.17657940005E+03  0.16500000000E+03 0.  0.
<mgrwt>
<rscale>  0 0.36152857E+03</rscale>
<asrwt>0</asrwt>
<pdfrwt beam="1">  1        2 0.33287313E-01 0.36152857E+03</pdfrwt>
<pdfrwt beam="2">  1       -2 0.20033204E-01 0.36152857E+03</pdfrwt>
<totfact> 0.32923394E+03</totfact>
</mgrwt>
</event>
<event>
 4    1  0.5280257E-005  0.5047929E+03  0.7818608E-02  0.1012535E+00
          2   -1    0    0  501    0  0.00000000000E+00  0.00000000000E+00  0.11918793677E+04  0.11918793677E+04  0.25500000000E-02 0.  1.
         -2   -1    0    0    0  501 -0.00000000000E+00 -0.00000000000E+00 -0.53448328734E+02  0.53448328794E+02  0.25500000000E-02 0. -1.
    5000001    1    1    2    0    0  0.11815563883E+03  0.12959693876E+03  0.38258778212E+03  0.45205589538E+03  0.16500000000E+03 0.  0.
   -5000001    1    1    2    0    0 -0.11815563883E+03 -0.12959693876E+03  0.75584325681E+03  0.79327180108E+03  0.16500000000E+03 0.  0.
<mgrwt>
<rscale>  0 0.50479287E+03</rscale>
<asrwt>0</asrwt>
<pdfrwt beam="1">  1        2 0.17026847E+00 0.50479287E+03</pdfrwt>
<pdfrwt beam="2">  1       -2 0.76354759E-02 0.50479287E+03</pdfrwt>
<totfact> 0.23039613E+03</totfact>
</mgrwt>
</event>
<event>
 4    1  0.5280257E-005  0.5047429E+03  0.7818608E-02  0.1012548E+00
          2   -1    0    0  501    0  0.00000000000E+00  0.00000000000E+00  0.11483907931E+04  0.11483907931E+04  0.25500000000E-02 0.  1.
         -2   -1    0    0    0  501 -0.00000000000E+00 -0.00000000000E+00 -0.55461383032E+02  0.55461383091E+02  0.25500000000E-02 0. -1.
    5000001    1    1    2    0    0  0.12095968997E+03 -0.10890264261E+03  0.78467808857E+03  0.81819052478E+03  0.16500000000E+03 0.  0.
   -5000001    1    1    2    0    0 -0.12095968997E+03  0.10890264261E+03  0.30825132151E+03  0.38566165142E+03  0.16500000000E+03 0.  0.
<mgrwt>
<rscale>  0 0.50474287E+03</rscale>
<asrwt>0</asrwt>
<pdfrwt beam="1">  1        2 0.16405584E+00 0.50474287E+03</pdfrwt>
<pdfrwt beam="2">  1       -2 0.79230544E-02 0.50474287E+03</pdfrwt>
<totfact> 0.22987924E+03</totfact>
</mgrwt>
</event>
<event>
 4    1  0.5280257E-005  0.5615361E+03  0.7818608E-02  0.9988585E-01
          2   -1    0    0  501    0  0.00000000000E+00  0.00000000000E+00  0.99917133730E+03  0.99917133731E+03  0.25500000000E-02 0.  1.
         -2   -1    0    0    0  501 -0.00000000000E+00 -0.00000000000E+00 -0.78896077648E+02  0.78896077689E+02  0.25500000000E-02 0. -1.
    5000001    1    1    2    0    0 -0.63745956202E+02 -0.12658627586E+03  0.80097564135E+03  0.82998470481E+03  0.16500000000E+03 0.  0.
   -5000001    1    1    2    0    0  0.63745956202E+02  0.12658627586E+03  0.11929961830E+03  0.24808271019E+03  0.16500000000E+03 0.  0.
<mgrwt>
<rscale>  0 0.56153611E+03</rscale>
<asrwt>0</asrwt>
<pdfrwt beam="1">  1        2 0.14273875E+00 0.56153611E+03</pdfrwt>
<pdfrwt beam="2">  1       -2 0.11270870E-01 0.56153611E+03</pdfrwt>
<totfact> 0.15933721E+03</totfact>
</mgrwt>
</event>
<event>
 4    1  0.5280257E-005  0.6478729E+03  0.7818608E-02  0.9810779E-01
          2   -1    0    0  501    0  0.00000000000E+00  0.00000000000E+00  0.12205731376E+04  0.12205731376E+04  0.25500000000E-02 0.  1.
         -2   -1    0    0    0  501 -0.00000000000E+00 -0.00000000000E+00 -0.85971750292E+02  0.85971750330E+02  0.25500000000E-02 0. -1.
    5000001    1    1    2    0    0 -0.13431097133E+03  0.20466583565E+03  0.83622380266E+03  0.88680482037E+03  0.16500000000E+03 0.  0.
   -5000001    1    1    2    0    0  0.13431097133E+03 -0.20466583565E+03  0.29837758467E+03  0.41974006759E+03  0.16500000000E+03 0.  0.
<mgrwt>
<rscale>  0 0.64787285E+03</rscale>
<asrwt>0</asrwt>
<pdfrwt beam="1">  1        2 0.17436758E+00 0.64787285E+03</pdfrwt>
<pdfrwt beam="2">  1       -2 0.12281679E-01 0.64787285E+03</pdfrwt>
<totfact> 0.10268862E+03</totfact>
</mgrwt>
</event>
<event>
 4    1  0.5280257E-005  0.3571458E+03  0.7818608E-02  0.1059720E+00
         -2   -1    0    0    0  501 -0.00000000000E+00  0.00000000000E+00  0.65662632866E+02  0.65662632916E+02  0.25500000000E-02 0. -1.
          2   -1    0    0  501    0  0.00000000000E+00 -0.00000000000E+00 -0.48563828239E+03  0.48563828240E+03  0.25500000000E-02 0.  1.
    5000001    1    1    2    0    0  0.59325282017E+02  0.31964222241E+02 -0.19293175304E+03  0.26265730890E+03  0.16500000000E+03 0.  0.
   -5000001    1    1    2    0    0 -0.59325282017E+02 -0.31964222241E+02 -0.22704389648E+03  0.28864360641E+03  0.16500000000E+03 0.  0.
<mgrwt>
<rscale>  0 0.35714584E+03</rscale>
<asrwt>0</asrwt>
<pdfrwt beam="1">  1        2 0.69376896E-01 0.35714584E+03</pdfrwt>
<pdfrwt beam="2">  1       -2 0.93803764E-02 0.35714584E+03</pdfrwt>
<totfact> 0.51620301E+03</totfact>
</mgrwt>
</event>
<event>
 4    1  0.5280257E-005  0.4021422E+03  0.7818608E-02  0.1043040E+00
         -2   -1    0    0    0  501 -0.00000000000E+00  0.00000000000E+00  0.20260904421E+03  0.20260904422E+03  0.25500000000E-02 0. -1.
          2   -1    0    0  501    0  0.00000000000E+00 -0.00000000000E+00 -0.19954482235E+03  0.19954482237E+03  0.25500000000E-02 0.  1.
    5000001    1    1    2    0    0 -0.83122262670E+02  0.30256703525E+02  0.74881408368E+02  0.20163582018E+03  0.16500000000E+03 0.  0.
   -5000001    1    1    2    0    0  0.83122262670E+02 -0.30256703525E+02 -0.71817186514E+02  0.20051804642E+03  0.16500000000E+03 0.  0.
<mgrwt>
<rscale>  0 0.40214219E+03</rscale>
<asrwt>0</asrwt>
<pdfrwt beam="1">  1        2 0.28506403E-01 0.40214219E+03</pdfrwt>
<pdfrwt beam="2">  1       -2 0.28944149E-01 0.40214219E+03</pdfrwt>
<totfact> 0.20423650E+03</totfact>
</mgrwt>
</event>
<event>
 4    1  0.5280257E-005  0.5929497E+03  0.7818608E-02  0.9920142E-01
          2   -1    0    0  501    0  0.00000000000E+00  0.00000000000E+00  0.13844824297E+04  0.13844824297E+04  0.25500000000E-02 0.  1.
         -2   -1    0    0    0  501 -0.00000000000E+00 -0.00000000000E+00 -0.63487516115E+02  0.63487516167E+02  0.25500000000E-02 0. -1.
    5000001    1    1    2    0    0 -0.12358421748E+03  0.21213990436E+03  0.70908929806E+03  0.76831571014E+03  0.16500000000E+03 0.  0.
   -5000001    1    1    2    0    0  0.12358421748E+03 -0.21213990436E+03  0.61190561557E+03  0.67965423577E+03  0.16500000000E+03 0.  0.
<mgrwt>
<rscale>  0 0.59294975E+03</rscale>
<asrwt>0</asrwt>
<pdfrwt beam="1">  1        2 0.19778320E+00 0.59294975E+03</pdfrwt>
<pdfrwt beam="2">  1       -2 0.90696455E-02 0.59294975E+03</pdfrwt>
<totfact> 0.13727255E+03</totfact>
</mgrwt>
</event>
<event>
 4    1  0.5280257E-005  0.5984872E+03  0.7818608E-02  0.9908550E-01
         -2   -1    0    0    0  501 -0.00000000000E+00  0.00000000000E+00  0.10048878922E+03  0.10048878926E+03  0.25500000000E-02 0. -1.
          2   -1    0    0  501    0  0.00000000000E+00 -0.00000000000E+00 -0.89111169601E+03  0.89111169602E+03  0.25500000000E-02 0.  1.
    5000001    1    1    2    0    0  0.24118034093E+03 -0.63839399022E+02 -0.38064957499E+03  0.48411003363E+03  0.16500000000E+03 0.  0.
   -5000001    1    1    2    0    0 -0.24118034093E+03  0.63839399022E+02 -0.40997333180E+03  0.50749045164E+03  0.16500000000E+03 0.  0.
<mgrwt>
<rscale>  0 0.59848721E+03</rscale>
<asrwt>0</asrwt>
<pdfrwt beam="1">  1        2 0.12730167E+00 0.59848721E+03</pdfrwt>
<pdfrwt beam="2">  1       -2 0.14355542E-01 0.59848721E+03</pdfrwt>
<totfact> 0.12475810E+03</totfact>
</mgrwt>
</event>
<event>
 4    1  0.5280257E-005  0.6825093E+03  0.7818608E-02  0.9747620E-01
         -2   -1    0    0    0  501 -0.00000000000E+00  0.00000000000E+00  0.12961570540E+03  0.12961570542E+03  0.25500000000E-02 0. -1.
          2   -1    0    0  501    0  0.00000000000E+00 -0.00000000000E+00 -0.89846159754E+03  0.89846159754E+03  0.25500000000E-02 0.  1.
    5000001    1    1    2    0    0 -0.26048279744E+03  0.14481999748E+03 -0.35408586157E+03  0.49135111356E+03  0.16500000000E+03 0.  0.
   -5000001    1    1    2    0    0  0.26048279744E+03 -0.14481999748E+03 -0.41476003057E+03  0.53672618940E+03  0.16500000000E+03 0.  0.
<mgrwt>
<rscale>  0 0.68250929E+03</rscale>
<asrwt>0</asrwt>
<pdfrwt beam="1">  1        2 0.12835165E+00 0.68250929E+03</pdfrwt>
<pdfrwt beam="2">  1       -2 0.18516530E-01 0.68250929E+03</pdfrwt>
<totfact> 0.79868516E+02</totfact>
</mgrwt>
</event>
<event>
 4    1  0.5280257E-005  0.4776255E+03  0.7818608E-02  0.1019790E+00
          2   -1    0    0  501    0  0.00000000000E+00  0.00000000000E+00  0.58779780730E+03  0.58779780731E+03  0.25500000000E-02 0.  1.
         -2   -1    0    0    0  501 -0.00000000000E+00 -0.00000000000E+00 -0.97025756260E+02  0.97025756293E+02  0.25500000000E-02 0. -1.
    5000001    1    1    2    0    0  0.53281391819E+02 -0.13890141317E+03  0.11978227919E+03  0.25239909608E+03  0.16500000000E+03 0.  0.
   -5000001    1    1    2    0    0 -0.53281391819E+02  0.13890141317E+03  0.37098977185E+03  0.43242446752E+03  0.16500000000E+03 0.  0.
<mgrwt>
<rscale>  0 0.47762549E+03</rscale>
<asrwt>0</asrwt>
<pdfrwt beam="1">  1        2 0.83971118E-01 0.47762549E+03</pdfrwt>
<pdfrwt beam="2">  1       -2 0.13860822E-01 0.47762549E+03</pdfrwt>
<totfact> 0.22133411E+03</totfact>
</mgrwt>
</event>
<event>
 4    1  0.5280257E-005  0.6825846E+03  0.7818608E-02  0.9747487E-01
          2   -1    0    0  501    0  0.00000000000E+00  0.00000000000E+00  0.77661554120E+03  0.77661554121E+03  0.25500000000E-02 0. -1.
         -2   -1    0    0    0  501 -0.00000000000E+00 -0.00000000000E+00 -0.14998467802E+03  0.14998467804E+03  0.25500000000E-02 0.  1.
    5000001    1    1    2    0    0  0.30789032270E+02  0.29615783296E+03  0.34651163827E+03  0.48574967009E+03  0.16500000000E+03 0.  0.
   -5000001    1    1    2    0    0 -0.30789032270E+02 -0.29615783296E+03  0.28011922491E+03  0.44085054916E+03  0.16500000000E+03 0.  0.
<mgrwt>
<rscale>  0 0.68258459E+03</rscale>
<asrwt>0</asrwt>
<pdfrwt beam="1">  1        2 0.11094507E+00 0.68258459E+03</pdfrwt>
<pdfrwt beam="2">  1       -2 0.21426383E-01 0.68258459E+03</pdfrwt>
<totfact> 0.74873556E+02</totfact>
</mgrwt>
</event>
<event>
 4    1  0.5280257E-005  0.5021925E+03  0.7818608E-02  0.1013208E+00
         -2   -1    0    0    0  501 -0.00000000000E+00  0.00000000000E+00  0.80049602072E+02  0.80049602113E+02  0.25500000000E-02 0. -1.
          2   -1    0    0  501    0  0.00000000000E+00 -0.00000000000E+00 -0.78762815413E+03  0.78762815413E+03  0.25500000000E-02 0.  1.
    5000001    1    1    2    0    0 -0.14246156685E+03 -0.40399331316E+02 -0.55746885342E+03  0.59993660210E+03  0.16500000000E+03 0.  0.
   -5000001    1    1    2    0    0  0.14246156685E+03  0.40399331316E+02 -0.15010969864E+03  0.26774115415E+03  0.16500000000E+03 0.  0.
<mgrwt>
<rscale>  0 0.50219247E+03</rscale>
<asrwt>0</asrwt>
<pdfrwt beam="1">  1        2 0.11251830E+00 0.50219247E+03</pdfrwt>
<pdfrwt beam="2">  1       -2 0.11435658E-01 0.50219247E+03</pdfrwt>
<totfact> 0.21340016E+03</totfact>
</mgrwt>
</event>
<event>
 4    1  0.5280257E-005  0.7945330E+03  0.7818608E-02  0.9567964E-01
         -2   -1    0    0    0  501 -0.00000000000E+00  0.00000000000E+00  0.86090739818E+02  0.86090739855E+02  0.25500000000E-02 0. -1.
          2   -1    0    0  501    0  0.00000000000E+00 -0.00000000000E+00 -0.18331898682E+04  0.18331898682E+04  0.25500000000E-02 0.  1.
    5000001    1    1    2    0    0  0.25610822979E+03  0.11095811327E+03 -0.31905011651E+03  0.45488581546E+03  0.16500000000E+03 0.  0.
   -5000001    1    1    2    0    0 -0.25610822979E+03 -0.11095811327E+03 -0.14280490119E+04  0.14643947926E+04  0.16500000000E+03 0.  0.
<mgrwt>
<rscale>  0 0.79453300E+03</rscale>
<asrwt>0</asrwt>
<pdfrwt beam="1">  1        2 0.26188424E+00 0.79453300E+03</pdfrwt>
<pdfrwt beam="2">  1       -2 0.12298678E-01 0.79453300E+03</pdfrwt>
<totfact> 0.48442905E+02</totfact>
</mgrwt>
</event>
<event>
 4    1  0.5280257E-005  0.7993322E+03  0.7818608E-02  0.9560984E-01
          2   -1    0    0  501    0  0.00000000000E+00  0.00000000000E+00  0.26326216328E+04  0.26326216328E+04  0.25500000000E-02 0.  1.
         -2   -1    0    0    0  501 -0.00000000000E+00 -0.00000000000E+00 -0.60674497487E+02  0.60674497541E+02  0.25500000000E-02 0. -1.
    5000001    1    1    2    0    0 -0.11424675061E+03  0.10881297828E+03  0.23913088366E+04  0.24021814120E+04  0.16500000000E+03 0.  0.
   -5000001    1    1    2    0    0  0.11424675061E+03 -0.10881297828E+03  0.18063829874E+03  0.29111471835E+03  0.16500000000E+03 0.  0.
<mgrwt>
<rscale>  0 0.79933221E+03</rscale>
<asrwt>0</asrwt>
<pdfrwt beam="1">  1        2 0.37608885E+00 0.79933221E+03</pdfrwt>
<pdfrwt beam="2">  1       -2 0.86677844E-02 0.79933221E+03</pdfrwt>
<totfact> 0.33457566E+02</totfact>
</mgrwt>
</event>
<event>
 4    1  0.5280257E-005  0.4961068E+03  0.7818608E-02  0.1014800E+00
         -2   -1    0    0    0  501 -0.00000000000E+00  0.00000000000E+00  0.52608073676E+02  0.52608073738E+02  0.25500000000E-02 0. -1.
          2   -1    0    0  501    0  0.00000000000E+00 -0.00000000000E+00 -0.11696018706E+04  0.11696018706E+04  0.25500000000E-02 0.  1.
    5000001    1    1    2    0    0 -0.14516227435E+03  0.83489154876E+02 -0.36352995518E+03  0.43292210984E+03  0.16500000000E+03 0.  0.
   -5000001    1    1    2    0    0  0.14516227435E+03 -0.83489154876E+02 -0.75346384172E+03  0.78928783448E+03  0.16500000000E+03 0.  0.
<mgrwt>
<rscale>  0 0.49610685E+03</rscale>
<asrwt>0</asrwt>
<pdfrwt beam="1">  1        2 0.16708597E+00 0.49610685E+03</pdfrwt>
<pdfrwt beam="2">  1       -2 0.75154398E-02 0.49610685E+03</pdfrwt>
<totfact> 0.24314988E+03</totfact>
</mgrwt>
</event>
<event>
 4    1  0.5280257E-005  0.4159832E+03  0.7818608E-02  0.1038382E+00
          2   -1    0    0  501    0  0.00000000000E+00  0.00000000000E+00  0.42864084609E+04  0.42864084609E+04  0.25500000000E-02 0.  1.
         -2   -1    0    0    0  501 -0.00000000000E+00 -0.00000000000E+00 -0.10092483345E+02  0.10092483667E+02  0.25500000000E-02 0. -1.
    5000001    1    1    2    0    0 -0.38308885240E+02 -0.11517759342E+03  0.17654623793E+04  0.17773057873E+04  0.16500000000E+03 0.  0.
   -5000001    1    1    2    0    0  0.38308885240E+02  0.11517759342E+03  0.25108535982E+04  0.25191951573E+04  0.16500000000E+03 0.  0.
<mgrwt>
<rscale>  0 0.41598320E+03</rscale>
<asrwt>0</asrwt>
<pdfrwt beam="1">  1        2 0.61234257E+00 0.41598320E+03</pdfrwt>
<pdfrwt beam="2">  1       -2 0.14417869E-02 0.41598320E+03</pdfrwt>
<totfact> 0.56054212E+02</totfact>
</mgrwt>
</event>
<event>
 4    1  0.5280257E-005  0.4499341E+03  0.7818608E-02  0.1027742E+00
         -2   -1    0    0    0  501 -0.00000000000E+00  0.00000000000E+00  0.51531596033E+02  0.51531596096E+02  0.25500000000E-02 0. -1.
          2   -1    0    0  501    0  0.00000000000E+00 -0.00000000000E+00 -0.98211928839E+03  0.98211928839E+03  0.25500000000E-02 0.  1.
    5000001    1    1    2    0    0 -0.19879719224E+02  0.14643365604E+03 -0.37493057067E+03  0.43547210207E+03  0.16500000000E+03 0.  0.
   -5000001    1    1    2    0    0  0.19879719224E+02 -0.14643365604E+03 -0.55565712169E+03  0.59817878242E+03  0.16500000000E+03 0.  0.
<mgrwt>
<rscale>  0 0.44993410E+03</rscale>
<asrwt>0</asrwt>
<pdfrwt beam="1">  1        2 0.14030274E+00 0.44993410E+03</pdfrwt>
<pdfrwt beam="2">  1       -2 0.73616572E-02 0.44993410E+03</pdfrwt>
<totfact> 0.32311606E+03</totfact>
</mgrwt>
</event>
<event>
 4    1  0.5280257E-005  0.6032480E+03  0.7818608E-02  0.9898690E-01
         -2   -1    0    0    0  501 -0.00000000000E+00  0.00000000000E+00  0.35594330286E+03  0.35594330287E+03  0.25500000000E-02 0. -1.
          2   -1    0    0  501    0  0.00000000000E+00 -0.00000000000E+00 -0.25559415538E+03  0.25559415540E+03  0.25500000000E-02 0.  1.
    5000001    1    1    2    0    0  0.79217353509E+02 -0.23973919044E+03  0.48829947154E+02  0.30554808503E+03  0.16500000000E+03 0.  0.
   -5000001    1    1    2    0    0 -0.79217353509E+02  0.23973919044E+03  0.51519200322E+02  0.30598937323E+03  0.16500000000E+03 0.  0.
<mgrwt>
<rscale>  0 0.60324797E+03</rscale>
<asrwt>0</asrwt>
<pdfrwt beam="1">  1        2 0.36513451E-01 0.60324797E+03</pdfrwt>
<pdfrwt beam="2">  1       -2 0.50849043E-01 0.60324797E+03</pdfrwt>
<totfact> 0.52552356E+02</totfact>
</mgrwt>
</event>
<event>
 4    1  0.5280257E-005  0.4783631E+03  0.7818608E-02  0.1019586E+00
          2   -1    0    0  501    0  0.00000000000E+00  0.00000000000E+00  0.32121733170E+03  0.32121733171E+03  0.25500000000E-02 0.  1.
         -2   -1    0    0    0  501 -0.00000000000E+00 -0.00000000000E+00 -0.17809691034E+03  0.17809691036E+03  0.25500000000E-02 0. -1.
    5000001    1    1    2    0    0 -0.16800461724E+03  0.41781985886E+02  0.75104294905E+02  0.25067297595E+03  0.16500000000E+03 0.  0.
   -5000001    1    1    2    0    0  0.16800461724E+03 -0.41781985886E+02  0.68016126447E+02  0.24864126612E+03  0.16500000000E+03 0.  0.
<mgrwt>
<rscale>  0 0.47836310E+03</rscale>
<asrwt>0</asrwt>
<pdfrwt beam="1">  1        2 0.45888191E-01 0.47836310E+03</pdfrwt>
<pdfrwt beam="2">  1       -2 0.25442416E-01 0.47836310E+03</pdfrwt>
<totfact> 0.15280217E+03</totfact>
</mgrwt>
</event>
<event>
 4    1  0.5280257E-005  0.6248271E+03  0.7818608E-02  0.9855196E-01
          2   -1    0    0  501    0  0.00000000000E+00  0.00000000000E+00  0.39662829355E+03  0.39662829355E+03  0.25500000000E-02 0.  1.
         -2   -1    0    0    0  501 -0.00000000000E+00 -0.00000000000E+00 -0.24607984778E+03  0.24607984779E+03  0.25500000000E-02 0. -1.
    5000001    1    1    2    0    0 -0.13670406549E+03 -0.21694208531E+03  0.53179416520E+01  0.30496745794E+03  0.16500000000E+03 0.  0.
   -5000001    1    1    2    0    0  0.13670406549E+03  0.21694208531E+03  0.14523050412E+03  0.33774068340E+03  0.16500000000E+03 0.  0.
<mgrwt>
<rscale>  0 0.62482711E+03</rscale>
<asrwt>0</asrwt>
<pdfrwt beam="1">  1        2 0.56661185E-01 0.62482711E+03</pdfrwt>
<pdfrwt beam="2">  1       -2 0.35154264E-01 0.62482711E+03</pdfrwt>
<totfact> 0.66668796E+02</totfact>
</mgrwt>
</event>
<event>
 4    1  0.5280257E-005  0.1351624E+04  0.7818608E-02  0.8989600E-01
         -2   -1    0    0    0  501 -0.00000000000E+00  0.00000000000E+00  0.12068478315E+03  0.12068478317E+03  0.25500000000E-02 0. -1.
          2   -1    0    0  501    0  0.00000000000E+00 -0.00000000000E+00 -0.37844195327E+04  0.37844195327E+04  0.25500000000E-02 0.  1.
    5000001    1    1    2    0    0 -0.58867543490E+03 -0.28639872678E+03 -0.17435764930E+04  0.18697184241E+04  0.16500000000E+03 0.  0.
   -5000001    1    1    2    0    0  0.58867543490E+03  0.28639872678E+03 -0.19201582565E+04  0.20353858918E+04  0.16500000000E+03 0.  0.
<mgrwt>
<rscale>  0 0.13516240E+04</rscale>
<asrwt>0</asrwt>
<pdfrwt beam="1">  1        2 0.54063129E+00 0.13516240E+04</pdfrwt>
<pdfrwt beam="2">  1       -2 0.17240686E-01 0.13516240E+04</pdfrwt>
<totfact> 0.21930245E+01</totfact>
</mgrwt>
</event>
<event>
 4    1  0.5280257E-005  0.3741279E+03  0.7818608E-02  0.1053126E+00
          2   -1    0    0  501    0  0.00000000000E+00  0.00000000000E+00  0.16607139179E+03  0.16607139181E+03  0.25500000000E-02 0. -1.
         -2   -1    0    0    0  501 -0.00000000000E+00 -0.00000000000E+00 -0.21071015144E+03  0.21071015145E+03  0.25500000000E-02 0.  1.
    5000001    1    1    2    0    0 -0.58076561219E+02 -0.25396001334E+02 -0.83991658682E+02  0.19569732388E+03  0.16500000000E+03 0.  0.
   -5000001    1    1    2    0    0  0.58076561219E+02  0.25396001334E+02  0.39352899039E+02  0.18108421938E+03  0.16500000000E+03 0.  0.
<mgrwt>
<rscale>  0 0.37412794E+03</rscale>
<asrwt>0</asrwt>
<pdfrwt beam="1">  1        2 0.23724485E-01 0.37412794E+03</pdfrwt>
<pdfrwt beam="2">  1       -2 0.30101450E-01 0.37412794E+03</pdfrwt>
<totfact> 0.23348320E+03</totfact>
</mgrwt>
</event>
