<event>
 4    1  0.1804641E-005  0.7742325E+03  0.7818608E-02  0.9598082E-01
          2   -1    0    0  501    0  0.00000000000E+00  0.00000000000E+00  0.27437196538E+04  0.27437196538E+04  0.25500000000E-02 0.  1.
         -2   -1    0    0    0  501 -0.00000000000E+00 -0.00000000000E+00 -0.54618915132E+02  0.54618915192E+02  0.25500000000E-02 0. -1.
   -5000001    1    1    2    0    0  0.50513515230E+02  0.26007818701E+03  0.87099318844E+03  0.94409820087E+03  0.25000000000E+03 0.  0.
    5000001    1    1    2    0    0 -0.50513515230E+02 -0.26007818701E+03  0.18181075502E+04  0.18542403681E+04  0.25000000000E+03 0.  0.
<mgrwt>
<rscale>  0 0.77423250E+03</rscale>
<asrwt>0</asrwt>
<pdfrwt beam="1">  1        2 0.42211061E+00 0.77423250E+03</pdfrwt>
<pdfrwt beam="2">  1       -2 0.84029122E-02 0.77423250E+03</pdfrwt>
<totfact> 0.23726093E+02</totfact>
</mgrwt>
</event>
<event>
 4    1  0.1804641E-005  0.5718303E+03  0.7818608E-02  0.9965636E-01
         -2   -1    0    0    0  501 -0.00000000000E+00  0.00000000000E+00  0.89439190780E+02  0.89439190817E+02  0.25500000000E-02 0. -1.
          2   -1    0    0  501    0  0.00000000000E+00 -0.00000000000E+00 -0.91400071991E+03  0.91400071991E+03  0.25500000000E-02 0.  1.
   -5000001    1    1    2    0    0  0.13776333410E+03  0.41535479857E+01 -0.44010929252E+03  0.52458762618E+03  0.25000000000E+03 0.  0.
    5000001    1    1    2    0    0 -0.13776333410E+03 -0.41535479857E+01 -0.38445223661E+03  0.47885228455E+03  0.25000000000E+03 0.  0.
<mgrwt>
<rscale>  0 0.57183034E+03</rscale>
<asrwt>0</asrwt>
<pdfrwt beam="1">  1        2 0.14061549E+00 0.57183034E+03</pdfrwt>
<pdfrwt beam="2">  1       -2 0.13759876E-01 0.57183034E+03</pdfrwt>
<totfact> 0.11700400E+03</totfact>
</mgrwt>
</event>
<event>
 4    1  0.1804641E-005  0.8733942E+03  0.7818608E-02  0.9459465E-01
          2   -1    0    0  501    0  0.00000000000E+00  0.00000000000E+00  0.83849894287E+03  0.83849894288E+03  0.25500000000E-02 0.  1.
         -2   -1    0    0    0  501 -0.00000000000E+00 -0.00000000000E+00 -0.22743539353E+03  0.22743539354E+03  0.25500000000E-02 0. -1.
   -5000001    1    1    2    0    0 -0.87567457045E+02 -0.34473689166E+03  0.35574486774E+03  0.56175261007E+03  0.25000000000E+03 0.  0.
    5000001    1    1    2    0    0  0.87567457045E+02  0.34473689166E+03  0.25531868161E+03  0.50418172634E+03  0.25000000000E+03 0.  0.
<mgrwt>
<rscale>  0 0.87339415E+03</rscale>
<asrwt>0</asrwt>
<pdfrwt beam="1">  1        2 0.12899984E+00 0.87339415E+03</pdfrwt>
<pdfrwt beam="2">  1       -2 0.34990060E-01 0.87339415E+03</pdfrwt>
<totfact> 0.24850424E+02</totfact>
</mgrwt>
</event>
<event>
 4    1  0.1804641E-005  0.8531574E+03  0.7818608E-02  0.9486109E-01
          2   -1    0    0  501    0  0.00000000000E+00  0.00000000000E+00  0.20983488362E+04  0.20983488362E+04  0.25500000000E-02 0.  1.
         -2   -1    0    0    0  501 -0.00000000000E+00 -0.00000000000E+00 -0.86720273477E+02  0.86720273515E+02  0.25500000000E-02 0. -1.
   -5000001    1    1    2    0    0  0.14154808262E+03 -0.31086088514E+03  0.11413145671E+04  0.12172794628E+04  0.25000000000E+03 0.  0.
    5000001    1    1    2    0    0 -0.14154808262E+03  0.31086088514E+03  0.87031399566E+03  0.96778964690E+03  0.25000000000E+03 0.  0.
<mgrwt>
<rscale>  0 0.85315739E+03</rscale>
<asrwt>0</asrwt>
<pdfrwt beam="1">  1        2 0.32282289E+00 0.85315739E+03</pdfrwt>
<pdfrwt beam="2">  1       -2 0.13341581E-01 0.85315739E+03</pdfrwt>
<totfact> 0.25569387E+02</totfact>
</mgrwt>
</event>
<event>
 4    1  0.1804641E-005  0.8791680E+03  0.7818608E-02  0.9452004E-01
         -2   -1    0    0    0  501 -0.00000000000E+00  0.00000000000E+00  0.53754668537E+03  0.53754668537E+03  0.25500000000E-02 0. -1.
          2   -1    0    0  501    0  0.00000000000E+00 -0.00000000000E+00 -0.35947407798E+03  0.35947407799E+03  0.25500000000E-02 0.  1.
   -5000001    1    1    2    0    0  0.10097553096E+02 -0.35711706095E+03  0.14584037591E+03  0.45978687568E+03  0.25000000000E+03 0.  0.
    5000001    1    1    2    0    0 -0.10097553096E+02  0.35711706095E+03  0.32232231470E+02  0.43723388769E+03  0.25000000000E+03 0.  0.
<mgrwt>
<rscale>  0 0.87916801E+03</rscale>
<asrwt>0</asrwt>
<pdfrwt beam="1">  1        2 0.55303704E-01 0.87916801E+03</pdfrwt>
<pdfrwt beam="2">  1       -2 0.82699490E-01 0.87916801E+03</pdfrwt>
<totfact> 0.11555782E+02</totfact>
</mgrwt>
</event>
<event>
 4    1  0.1804641E-005  0.6317302E+03  0.7818608E-02  0.9841678E-01
          2   -1    0    0  501    0  0.00000000000E+00  0.00000000000E+00  0.13685912217E+04  0.13685912217E+04  0.25500000000E-02 0.  1.
         -2   -1    0    0    0  501 -0.00000000000E+00 -0.00000000000E+00 -0.72900347756E+02  0.72900347800E+02  0.25500000000E-02 0. -1.
   -5000001    1    1    2    0    0  0.18283109321E+03 -0.53967841928E+02  0.57822055502E+03  0.65816316127E+03  0.25000000000E+03 0.  0.
    5000001    1    1    2    0    0 -0.18283109321E+03  0.53967841928E+02  0.71747031896E+03  0.78332840827E+03  0.25000000000E+03 0.  0.
<mgrwt>
<rscale>  0 0.63173025E+03</rscale>
<asrwt>0</asrwt>
<pdfrwt beam="1">  1        2 0.21055251E+00 0.63173025E+03</pdfrwt>
<pdfrwt beam="2">  1       -2 0.11215438E-01 0.63173025E+03</pdfrwt>
<totfact> 0.87088301E+02</totfact>
</mgrwt>
</event>
<event>
 4    1  0.1804641E-005  0.5587460E+03  0.7818608E-02  0.9994896E-01
          2   -1    0    0  501    0  0.00000000000E+00  0.00000000000E+00  0.30280340862E+03  0.30280340863E+03  0.25500000000E-02 0.  1.
         -2   -1    0    0    0  501 -0.00000000000E+00 -0.00000000000E+00 -0.25775557724E+03  0.25775557725E+03  0.25500000000E-02 0. -1.
   -5000001    1    1    2    0    0 -0.68931937734E+02  0.75240273398E+01 -0.81451379679E+02  0.27192379498E+03  0.25000000000E+03 0.  0.
    5000001    1    1    2    0    0  0.68931937734E+02 -0.75240273398E+01  0.12649921106E+03  0.28863519090E+03  0.25000000000E+03 0.  0.
<mgrwt>
<rscale>  0 0.55874598E+03</rscale>
<asrwt>0</asrwt>
<pdfrwt beam="1">  1        2 0.46585140E-01 0.55874598E+03</pdfrwt>
<pdfrwt beam="2">  1       -2 0.39654704E-01 0.55874598E+03</pdfrwt>
<totfact> 0.65773068E+02</totfact>
</mgrwt>
</event>
<event>
 4    1  0.1804641E-005  0.1171039E+04  0.7818608E-02  0.9138591E-01
          2   -1    0    0  501    0  0.00000000000E+00  0.00000000000E+00  0.23645511589E+04  0.23645511589E+04  0.25500000000E-02 0.  1.
         -2   -1    0    0    0  501 -0.00000000000E+00 -0.00000000000E+00 -0.14498868285E+03  0.14498868287E+03  0.25500000000E-02 0. -1.
   -5000001    1    1    2    0    0  0.47599836556E+03 -0.86661708162E+02  0.64891877237E+03  0.84716011994E+03  0.25000000000E+03 0.  0.
    5000001    1    1    2    0    0 -0.47599836556E+03  0.86661708162E+02  0.15706437037E+04  0.16623797218E+04  0.25000000000E+03 0.  0.
<mgrwt>
<rscale>  0 0.11710391E+04</rscale>
<asrwt>0</asrwt>
<pdfrwt beam="1">  1        2 0.36377710E+00 0.11710391E+04</pdfrwt>
<pdfrwt beam="2">  1       -2 0.22305951E-01 0.11710391E+04</pdfrwt>
<totfact> 0.72921855E+01</totfact>
</mgrwt>
</event>
<event>
 4    1  0.1804641E-005  0.1175187E+04  0.7818608E-02  0.9134857E-01
          2   -1    0    0  501    0  0.00000000000E+00  0.00000000000E+00  0.10691291761E+04  0.10691291761E+04  0.25500000000E-02 0.  1.
         -2   -1    0    0    0  501 -0.00000000000E+00 -0.00000000000E+00 -0.32294132050E+03  0.32294132051E+03  0.25500000000E-02 0. -1.
   -5000001    1    1    2    0    0  0.42174816686E+03 -0.14642889627E+03  0.71529033174E+03  0.87946187898E+03  0.25000000000E+03 0.  0.
    5000001    1    1    2    0    0 -0.42174816686E+03  0.14642889627E+03  0.30897523889E+02  0.51260861765E+03  0.25000000000E+03 0.  0.
<mgrwt>
<rscale>  0 0.11751868E+04</rscale>
<asrwt>0</asrwt>
<pdfrwt beam="1">  1        2 0.16448141E+00 0.11751868E+04</pdfrwt>
<pdfrwt beam="2">  1       -2 0.49683280E-01 0.11751868E+04</pdfrwt>
<totfact> 0.86252436E+01</totfact>
</mgrwt>
</event>
<event>
 4    1  0.1804641E-005  0.7116014E+03  0.7818608E-02  0.9697595E-01
         -2   -1    0    0    0  501 -0.00000000000E+00  0.00000000000E+00  0.59097859120E+02  0.59097859175E+02  0.25500000000E-02 0. -1.
          2   -1    0    0  501    0  0.00000000000E+00 -0.00000000000E+00 -0.21421103336E+04  0.21421103336E+04  0.25500000000E-02 0.  1.
   -5000001    1    1    2    0    0 -0.21601072493E+03  0.10239364657E+03 -0.78364454964E+03  0.85658850817E+03  0.25000000000E+03 0.  0.
    5000001    1    1    2    0    0  0.21601072493E+03 -0.10239364657E+03 -0.12993679249E+04  0.13446196846E+04  0.25000000000E+03 0.  0.
<mgrwt>
<rscale>  0 0.71160139E+03</rscale>
<asrwt>0</asrwt>
<pdfrwt beam="1">  1        2 0.32955538E+00 0.71160139E+03</pdfrwt>
<pdfrwt beam="2">  1       -2 0.90919800E-02 0.71160139E+03</pdfrwt>
<totfact> 0.45931081E+02</totfact>
</mgrwt>
</event>
<event>
 4    1  0.1804641E-005  0.6488726E+03  0.7818608E-02  0.9808897E-01
         -2   -1    0    0    0  501 -0.00000000000E+00  0.00000000000E+00  0.98007916055E+02  0.98007916089E+02  0.25500000000E-02 0. -1.
          2   -1    0    0  501    0  0.00000000000E+00 -0.00000000000E+00 -0.10739837143E+04  0.10739837143E+04  0.25500000000E-02 0.  1.
   -5000001    1    1    2    0    0  0.19514288091E+03  0.67309173939E+02 -0.46604153875E+03  0.56771998794E+03  0.25000000000E+03 0.  0.
    5000001    1    1    2    0    0 -0.19514288091E+03 -0.67309173939E+02 -0.50993425952E+03  0.60427164248E+03  0.25000000000E+03 0.  0.
<mgrwt>
<rscale>  0 0.64887258E+03</rscale>
<asrwt>0</asrwt>
<pdfrwt beam="1">  1        2 0.16522826E+00 0.64887258E+03</pdfrwt>
<pdfrwt beam="2">  1       -2 0.15078142E-01 0.64887258E+03</pdfrwt>
<totfact> 0.79213924E+02</totfact>
</mgrwt>
</event>
<event>
 4    1  0.1804641E-005  0.9782743E+03  0.7818608E-02  0.9332699E-01
          2   -1    0    0  501    0  0.00000000000E+00  0.00000000000E+00  0.30069363654E+04  0.30069363654E+04  0.25500000000E-02 0.  1.
         -2   -1    0    0    0  501 -0.00000000000E+00 -0.00000000000E+00 -0.79567747580E+02  0.79567747621E+02  0.25500000000E-02 0. -1.
   -5000001    1    1    2    0    0 -0.40940440638E+03  0.88240494075E+02  0.13474687450E+04  0.14330283918E+04  0.25000000000E+03 0.  0.
    5000001    1    1    2    0    0  0.40940440638E+03 -0.88240494075E+02  0.15798998728E+04  0.16534757213E+04  0.25000000000E+03 0.  0.
<mgrwt>
<rscale>  0 0.97827430E+03</rscale>
<asrwt>0</asrwt>
<pdfrwt beam="1">  1        2 0.46260556E+00 0.97827430E+03</pdfrwt>
<pdfrwt beam="2">  1       -2 0.12241193E-01 0.97827430E+03</pdfrwt>
<totfact> 0.87278736E+01</totfact>
</mgrwt>
</event>
<event>
 4    1  0.1804641E-005  0.6045775E+03  0.7818608E-02  0.9895954E-01
         -2   -1    0    0    0  501 -0.00000000000E+00  0.00000000000E+00  0.10225483767E+03  0.10225483771E+03  0.25500000000E-02 0. -1.
          2   -1    0    0  501    0  0.00000000000E+00 -0.00000000000E+00 -0.89363498707E+03  0.89363498707E+03  0.25500000000E-02 0.  1.
   -5000001    1    1    2    0    0 -0.92444381005E+02 -0.12575838120E+02 -0.62965967921E+03  0.68386798939E+03  0.25000000000E+03 0.  0.
    5000001    1    1    2    0    0  0.92444381005E+02  0.12575838120E+02 -0.16172047018E+03  0.31202183539E+03  0.25000000000E+03 0.  0.
<mgrwt>
<rscale>  0 0.60457754E+03</rscale>
<asrwt>0</asrwt>
<pdfrwt beam="1">  1        2 0.13748230E+00 0.60457754E+03</pdfrwt>
<pdfrwt beam="2">  1       -2 0.15731514E-01 0.60457754E+03</pdfrwt>
<totfact> 0.96317604E+02</totfact>
</mgrwt>
</event>
<event>
 4    1  0.1804641E-005  0.6595972E+03  0.7818608E-02  0.9788935E-01
          2   -1    0    0  501    0  0.00000000000E+00  0.00000000000E+00  0.40061503338E+03  0.40061503339E+03  0.25500000000E-02 0.  1.
         -2   -1    0    0    0  501 -0.00000000000E+00 -0.00000000000E+00 -0.27150036320E+03  0.27150036321E+03  0.25500000000E-02 0. -1.
   -5000001    1    1    2    0    0  0.25102917369E+02  0.20807409776E+03  0.15243192427E+02  0.32658435593E+03  0.25000000000E+03 0.  0.
    5000001    1    1    2    0    0 -0.25102917369E+02 -0.20807409776E+03  0.11387147775E+03  0.34553104067E+03  0.25000000000E+03 0.  0.
<mgrwt>
<rscale>  0 0.65959723E+03</rscale>
<asrwt>0</asrwt>
<pdfrwt beam="1">  1        2 0.61633082E-01 0.65959723E+03</pdfrwt>
<pdfrwt beam="2">  1       -2 0.41769287E-01 0.65959723E+03</pdfrwt>
<totfact> 0.43477606E+02</totfact>
</mgrwt>
</event>
<event>
 4    1  0.1804641E-005  0.7360877E+03  0.7818608E-02  0.9657433E-01
          2   -1    0    0  501    0  0.00000000000E+00  0.00000000000E+00  0.19237644518E+03  0.19237644519E+03  0.25500000000E-02 0. -1.
         -2   -1    0    0    0  501 -0.00000000000E+00 -0.00000000000E+00 -0.70412094304E+03  0.70412094304E+03  0.25500000000E-02 0.  1.
   -5000001    1    1    2    0    0  0.10785264586E+03 -0.24759852127E+03 -0.25055464870E+03  0.44521326680E+03  0.25000000000E+03 0.  0.
    5000001    1    1    2    0    0 -0.10785264586E+03  0.24759852127E+03 -0.26118984916E+03  0.45128412143E+03  0.25000000000E+03 0.  0.
<mgrwt>
<rscale>  0 0.73608772E+03</rscale>
<asrwt>0</asrwt>
<pdfrwt beam="1">  1        2 0.29596377E-01 0.73608772E+03</pdfrwt>
<pdfrwt beam="2">  1       -2 0.10832630E+00 0.73608772E+03</pdfrwt>
<totfact> 0.12439695E+02</totfact>
</mgrwt>
</event>
<event>
 4    1  0.1804641E-005  0.1163839E+04  0.7818608E-02  0.9145111E-01
          2   -1    0    0  501    0  0.00000000000E+00  0.00000000000E+00  0.18356058986E+03  0.18356058988E+03  0.25500000000E-02 0.  1.
         -2   -1    0    0    0  501 -0.00000000000E+00 -0.00000000000E+00 -0.18447864880E+04  0.18447864880E+04  0.25500000000E-02 0. -1.
   -5000001    1    1    2    0    0  0.14486055078E+03 -0.36093706356E+03 -0.14464679497E+04  0.15185617118E+04  0.25000000000E+03 0.  0.
    5000001    1    1    2    0    0 -0.14486055078E+03  0.36093706356E+03 -0.21475794840E+03  0.50978536604E+03  0.25000000000E+03 0.  0.
<mgrwt>
<rscale>  0 0.11638386E+04</rscale>
<asrwt>0</asrwt>
<pdfrwt beam="1">  1        2 0.28240092E-01 0.11638386E+04</pdfrwt>
<pdfrwt beam="2">  1       -2 0.28381329E+00 0.11638386E+04</pdfrwt>
<totfact> 0.75856275E+00</totfact>
</mgrwt>
</event>
<event>
 4    1  0.1804641E-005  0.6746227E+03  0.7818608E-02  0.9761643E-01
          2   -1    0    0  501    0  0.00000000000E+00  0.00000000000E+00  0.74397397539E+03  0.74397397539E+03  0.25500000000E-02 0.  1.
         -2   -1    0    0    0  501 -0.00000000000E+00 -0.00000000000E+00 -0.15293406374E+03  0.15293406377E+03  0.25500000000E-02 0. -1.
   -5000001    1    1    2    0    0  0.12616801892E+03  0.18195259028E+03  0.35863739495E+03  0.49004682956E+03  0.25000000000E+03 0.  0.
    5000001    1    1    2    0    0 -0.12616801892E+03 -0.18195259028E+03  0.23240251669E+03  0.40686120959E+03  0.25000000000E+03 0.  0.
<mgrwt>
<rscale>  0 0.67462275E+03</rscale>
<asrwt>0</asrwt>
<pdfrwt beam="1">  1        2 0.11445753E+00 0.67462275E+03</pdfrwt>
<pdfrwt beam="2">  1       -2 0.23528318E-01 0.67462275E+03</pdfrwt>
<totfact> 0.60954136E+02</totfact>
</mgrwt>
</event>
<event>
 4    1  0.1804641E-005  0.7735358E+03  0.7818608E-02  0.9599133E-01
         -2   -1    0    0    0  501 -0.00000000000E+00  0.00000000000E+00  0.78277434476E+02  0.78277434517E+02  0.25500000000E-02 0. -1.
          2   -1    0    0  501    0  0.00000000000E+00 -0.00000000000E+00 -0.19110155422E+04  0.19110155422E+04  0.25500000000E-02 0.  1.
   -5000001    1    1    2    0    0  0.21737930235E+03 -0.18045291352E+03 -0.11356781271E+04  0.11966962118E+04  0.25000000000E+03 0.  0.
    5000001    1    1    2    0    0 -0.21737930235E+03  0.18045291352E+03 -0.69705998066E+03  0.79259676490E+03  0.25000000000E+03 0.  0.
<mgrwt>
<rscale>  0 0.77353576E+03</rscale>
<asrwt>0</asrwt>
<pdfrwt beam="1">  1        2 0.29400236E+00 0.77353576E+03</pdfrwt>
<pdfrwt beam="2">  1       -2 0.12042684E-01 0.77353576E+03</pdfrwt>
<totfact> 0.38626270E+02</totfact>
</mgrwt>
</event>
<event>
 4    1  0.1804641E-005  0.1236671E+04  0.7818608E-02  0.9081350E-01
         -2   -1    0    0    0  501 -0.00000000000E+00  0.00000000000E+00  0.22387089353E+03  0.22387089355E+03  0.25500000000E-02 0. -1.
          2   -1    0    0  501    0  0.00000000000E+00 -0.00000000000E+00 -0.17078548365E+04  0.17078548365E+04  0.25500000000E-02 0.  1.
   -5000001    1    1    2    0    0  0.25704399475E+03  0.49710750891E+03 -0.86938653526E+03  0.10637294949E+04  0.25000000000E+03 0.  0.
    5000001    1    1    2    0    0 -0.25704399475E+03 -0.49710750891E+03 -0.61459740773E+03  0.86799623515E+03  0.25000000000E+03 0.  0.
<mgrwt>
<rscale>  0 0.12366713E+04</rscale>
<asrwt>0</asrwt>
<pdfrwt beam="1">  1        2 0.26274689E+00 0.12366713E+04</pdfrwt>
<pdfrwt beam="2">  1       -2 0.34441677E-01 0.12366713E+04</pdfrwt>
<totfact> 0.75490670E+01</totfact>
</mgrwt>
</event>
<event>
 4    1  0.1804641E-005  0.8408997E+03  0.7818608E-02  0.9502633E-01
          2   -1    0    0  501    0  0.00000000000E+00  0.00000000000E+00  0.76771790372E+03  0.76771790372E+03  0.25500000000E-02 0.  1.
         -2   -1    0    0    0  501 -0.00000000000E+00 -0.00000000000E+00 -0.23026435629E+03  0.23026435631E+03  0.25500000000E-02 0. -1.
   -5000001    1    1    2    0    0 -0.33371137267E+03 -0.18252412221E+02  0.32902802386E+03  0.53146577621E+03  0.25000000000E+03 0.  0.
    5000001    1    1    2    0    0  0.33371137267E+03  0.18252412221E+02  0.20842552356E+03  0.46651648382E+03  0.25000000000E+03 0.  0.
<mgrwt>
<rscale>  0 0.84089968E+03</rscale>
<asrwt>0</asrwt>
<pdfrwt beam="1">  1        2 0.11811045E+00 0.84089968E+03</pdfrwt>
<pdfrwt beam="2">  1       -2 0.35425286E-01 0.84089968E+03</pdfrwt>
<totfact> 0.27334324E+02</totfact>
</mgrwt>
</event>
<event>
 4    1  0.1804641E-005  0.9280909E+03  0.7818608E-02  0.9391132E-01
          2   -1    0    0  501    0  0.00000000000E+00  0.00000000000E+00  0.21958426223E+04  0.21958426223E+04  0.25500000000E-02 0.  1.
         -2   -1    0    0    0  501 -0.00000000000E+00 -0.00000000000E+00 -0.98066303722E+02  0.98066303755E+02  0.25500000000E-02 0. -1.
   -5000001    1    1    2    0    0  0.13479929311E+02 -0.32210375349E+03  0.50229384526E+03  0.64709477165E+03  0.25000000000E+03 0.  0.
    5000001    1    1    2    0    0 -0.13479929311E+02  0.32210375349E+03  0.15954824733E+04  0.16468141544E+04  0.25000000000E+03 0.  0.
<mgrwt>
<rscale>  0 0.92809088E+03</rscale>
<asrwt>0</asrwt>
<pdfrwt beam="1">  1        2 0.33782192E+00 0.92809088E+03</pdfrwt>
<pdfrwt beam="2">  1       -2 0.15087124E-01 0.92809088E+03</pdfrwt>
<totfact> 0.18251466E+02</totfact>
</mgrwt>
</event>
<event>
 4    1  0.1804641E-005  0.6119970E+03  0.7818608E-02  0.9880824E-01
          2   -1    0    0  501    0  0.00000000000E+00  0.00000000000E+00  0.12354334756E+03  0.12354334758E+03  0.25500000000E-02 0.  1.
         -2   -1    0    0    0  501 -0.00000000000E+00 -0.00000000000E+00 -0.75791270865E+03  0.75791270865E+03  0.25500000000E-02 0. -1.
   -5000001    1    1    2    0    0  0.11162856086E+03 -0.28718161924E+02 -0.12475889760E+03  0.30224237121E+03  0.25000000000E+03 0.  0.
    5000001    1    1    2    0    0 -0.11162856086E+03  0.28718161924E+02 -0.50961046349E+03  0.57921368503E+03  0.25000000000E+03 0.  0.
<mgrwt>
<rscale>  0 0.61199697E+03</rscale>
<asrwt>0</asrwt>
<pdfrwt beam="1">  1        2 0.19006669E-01 0.61199697E+03</pdfrwt>
<pdfrwt beam="2">  1       -2 0.11660195E+00 0.61199697E+03</pdfrwt>
<totfact> 0.17426174E+02</totfact>
</mgrwt>
</event>
<event>
 4    1  0.1804641E-005  0.9996146E+03  0.7818608E-02  0.9308968E-01
         -2   -1    0    0    0  501 -0.00000000000E+00  0.00000000000E+00  0.24625709224E+03  0.24625709226E+03  0.25500000000E-02 0. -1.
          2   -1    0    0  501    0  0.00000000000E+00 -0.00000000000E+00 -0.10144168439E+04  0.10144168439E+04  0.25500000000E-02 0.  1.
   -5000001    1    1    2    0    0  0.95765106106E+02 -0.41995271520E+03 -0.43723000775E+03  0.66272265559E+03  0.25000000000E+03 0.  0.
    5000001    1    1    2    0    0 -0.95765106106E+02  0.41995271520E+03 -0.33092974393E+03  0.59795128060E+03  0.25000000000E+03 0.  0.
<mgrwt>
<rscale>  0 0.99961461E+03</rscale>
<asrwt>0</asrwt>
<pdfrwt beam="1">  1        2 0.15606413E+00 0.99961461E+03</pdfrwt>
<pdfrwt beam="2">  1       -2 0.37885707E-01 0.99961461E+03</pdfrwt>
<totfact> 0.16170305E+02</totfact>
</mgrwt>
</event>
<event>
 4    1  0.1804641E-005  0.8998493E+03  0.7818608E-02  0.9425770E-01
         -2   -1    0    0    0  501 -0.00000000000E+00  0.00000000000E+00  0.19384042036E+03  0.19384042037E+03  0.25500000000E-02 0. -1.
          2   -1    0    0  501    0  0.00000000000E+00 -0.00000000000E+00 -0.10443238734E+04  0.10443238734E+04  0.25500000000E-02 0.  1.
   -5000001    1    1    2    0    0  0.26261113481E+03  0.20491407803E+03 -0.19101246766E+03  0.45819226346E+03  0.25000000000E+03 0.  0.
    5000001    1    1    2    0    0 -0.26261113481E+03 -0.20491407803E+03 -0.65947098538E+03  0.77997203030E+03  0.25000000000E+03 0.  0.
<mgrwt>
<rscale>  0 0.89984927E+03</rscale>
<asrwt>0</asrwt>
<pdfrwt beam="1">  1        2 0.16066521E+00 0.89984927E+03</pdfrwt>
<pdfrwt beam="2">  1       -2 0.29821604E-01 0.89984927E+03</pdfrwt>
<totfact> 0.24500838E+02</totfact>
</mgrwt>
</event>
<event>
 4    1  0.1804641E-005  0.6702614E+03  0.7818608E-02  0.9769486E-01
         -2   -1    0    0    0  501 -0.00000000000E+00  0.00000000000E+00  0.53173881551E+03  0.53173881552E+03  0.25500000000E-02 0. -1.
          2   -1    0    0  501    0  0.00000000000E+00 -0.00000000000E+00 -0.21121758850E+03  0.21121758851E+03  0.25500000000E-02 0.  1.
   -5000001    1    1    2    0    0  0.72365628163E+02 -0.20612391569E+03  0.21092013138E+03  0.39333338859E+03  0.25000000000E+03 0.  0.
    5000001    1    1    2    0    0 -0.72365628163E+02  0.20612391569E+03  0.10960109564E+03  0.34962301544E+03  0.25000000000E+03 0.  0.
<mgrwt>
<rscale>  0 0.67026141E+03</rscale>
<asrwt>0</asrwt>
<pdfrwt beam="1">  1        2 0.32495014E-01 0.67026141E+03</pdfrwt>
<pdfrwt beam="2">  1       -2 0.81805971E-01 0.67026141E+03</pdfrwt>
<totfact> 0.21597068E+02</totfact>
</mgrwt>
</event>
<event>
 4    1  0.1804641E-005  0.6508917E+03  0.7818608E-02  0.9805107E-01
         -2   -1    0    0    0  501 -0.00000000000E+00  0.00000000000E+00  0.30126718751E+03  0.30126718752E+03  0.25500000000E-02 0. -1.
          2   -1    0    0  501    0  0.00000000000E+00 -0.00000000000E+00 -0.35156505063E+03  0.35156505064E+03  0.25500000000E-02 0.  1.
   -5000001    1    1    2    0    0 -0.15424746708E+03 -0.13874959104E+03 -0.58227567044E+01  0.32492712200E+03  0.25000000000E+03 0.  0.
    5000001    1    1    2    0    0  0.15424746708E+03  0.13874959104E+03 -0.44475106412E+02  0.32790511616E+03  0.25000000000E+03 0.  0.
<mgrwt>
<rscale>  0 0.65089174E+03</rscale>
<asrwt>0</asrwt>
<pdfrwt beam="1">  1        2 0.54086931E-01 0.65089174E+03</pdfrwt>
<pdfrwt beam="2">  1       -2 0.46348798E-01 0.65089174E+03</pdfrwt>
<totfact> 0.40946789E+02</totfact>
</mgrwt>
</event>
<event>
 4    1  0.1804641E-005  0.1044742E+04  0.7818608E-02  0.9260790E-01
          2   -1    0    0  501    0  0.00000000000E+00  0.00000000000E+00  0.63127744142E+03  0.63127744143E+03  0.25500000000E-02 0.  1.
         -2   -1    0    0    0  501 -0.00000000000E+00 -0.00000000000E+00 -0.43225267019E+03  0.43225267019E+03  0.25500000000E-02 0. -1.
   -5000001    1    1    2    0    0  0.34720504309E+03 -0.27738983630E+03 -0.15995780823E+02  0.51014931955E+03  0.25000000000E+03 0.  0.
    5000001    1    1    2    0    0 -0.34720504309E+03  0.27738983630E+03  0.21502055206E+03  0.55338079207E+03  0.25000000000E+03 0.  0.
<mgrwt>
<rscale>  0 0.10447418E+04</rscale>
<asrwt>0</asrwt>
<pdfrwt beam="1">  1        2 0.97119606E-01 0.10447418E+04</pdfrwt>
<pdfrwt beam="2">  1       -2 0.66500411E-01 0.10447418E+04</pdfrwt>
<totfact> 0.96552605E+01</totfact>
</mgrwt>
</event>
<event>
 4    1  0.1804641E-005  0.6862472E+03  0.7818608E-02  0.9741045E-01
          2   -1    0    0  501    0  0.00000000000E+00  0.00000000000E+00  0.21235860007E+04  0.21235860007E+04  0.25500000000E-02 0.  1.
         -2   -1    0    0    0  501 -0.00000000000E+00 -0.00000000000E+00 -0.55441035282E+02  0.55441035341E+02  0.25500000000E-02 0. -1.
   -5000001    1    1    2    0    0  0.22412063182E+03  0.44500445340E+02  0.85947656405E+03  0.92380209536E+03  0.25000000000E+03 0.  0.
    5000001    1    1    2    0    0 -0.22412063182E+03 -0.44500445340E+02  0.12086684013E+04  0.12552249407E+04  0.25000000000E+03 0.  0.
<mgrwt>
<rscale>  0 0.68624720E+03</rscale>
<asrwt>0</asrwt>
<pdfrwt beam="1">  1        2 0.32670554E+00 0.68624720E+03</pdfrwt>
<pdfrwt beam="2">  1       -2 0.85293900E-02 0.68624720E+03</pdfrwt>
<totfact> 0.52211978E+02</totfact>
</mgrwt>
</event>
<event>
 4    1  0.1804641E-005  0.5494713E+03  0.7818608E-02  0.1001616E+00
          2   -1    0    0  501    0  0.00000000000E+00  0.00000000000E+00  0.14042454994E+03  0.14042454996E+03  0.25500000000E-02 0. -1.
         -2   -1    0    0    0  501 -0.00000000000E+00 -0.00000000000E+00 -0.53751053859E+03  0.53751053860E+03  0.25500000000E-02 0.  1.
   -5000001    1    1    2    0    0 -0.68936268698E+02 -0.73701470964E+02 -0.13330847357E+03  0.30075781800E+03  0.25000000000E+03 0.  0.
    5000001    1    1    2    0    0  0.68936268698E+02  0.73701470964E+02 -0.26377751508E+03  0.37717727056E+03  0.25000000000E+03 0.  0.
<mgrwt>
<rscale>  0 0.54947129E+03</rscale>
<asrwt>0</asrwt>
<pdfrwt beam="1">  1        2 0.21603777E-01 0.54947129E+03</pdfrwt>
<pdfrwt beam="2">  1       -2 0.82693928E-01 0.54947129E+03</pdfrwt>
<totfact> 0.33655937E+02</totfact>
</mgrwt>
</event>
<event>
 4    1  0.1804641E-005  0.6483207E+03  0.7818608E-02  0.9809935E-01
         -2   -1    0    0    0  501 -0.00000000000E+00  0.00000000000E+00  0.24590781874E+03  0.24590781875E+03  0.25500000000E-02 0. -1.
          2   -1    0    0  501    0  0.00000000000E+00 -0.00000000000E+00 -0.42731427653E+03  0.42731427654E+03  0.25500000000E-02 0.  1.
   -5000001    1    1    2    0    0 -0.17519948829E+03 -0.10086690207E+03 -0.47751119853E+02  0.32503717030E+03  0.25000000000E+03 0.  0.
    5000001    1    1    2    0    0  0.17519948829E+03  0.10086690207E+03 -0.13365533794E+03  0.34818492499E+03  0.25000000000E+03 0.  0.
<mgrwt>
<rscale>  0 0.64832067E+03</rscale>
<asrwt>0</asrwt>
<pdfrwt beam="1">  1        2 0.65740658E-01 0.64832067E+03</pdfrwt>
<pdfrwt beam="2">  1       -2 0.37831972E-01 0.64832067E+03</pdfrwt>
<totfact> 0.49022288E+02</totfact>
</mgrwt>
</event>
<event>
 4    1  0.1804641E-005  0.7405190E+03  0.7818608E-02  0.9650343E-01
          2   -1    0    0  501    0  0.00000000000E+00  0.00000000000E+00  0.56785869255E+03  0.56785869256E+03  0.25500000000E-02 0.  1.
         -2   -1    0    0    0  501 -0.00000000000E+00 -0.00000000000E+00 -0.24141938914E+03  0.24141938916E+03  0.25500000000E-02 0. -1.
   -5000001    1    1    2    0    0 -0.35439889578E+01 -0.21391007621E+03 -0.22314457554E+02  0.32979996298E+03  0.25000000000E+03 0.  0.
    5000001    1    1    2    0    0  0.35439889578E+01  0.21391007621E+03  0.34875376096E+03  0.47947811874E+03  0.25000000000E+03 0.  0.
<mgrwt>
<rscale>  0 0.74051900E+03</rscale>
<asrwt>0</asrwt>
<pdfrwt beam="1">  1        2 0.87362876E-01 0.74051900E+03</pdfrwt>
<pdfrwt beam="2">  1       -2 0.37141445E-01 0.74051900E+03</pdfrwt>
<totfact> 0.36461955E+02</totfact>
</mgrwt>
</event>
<event>
 4    1  0.1804641E-005  0.9518325E+03  0.7818608E-02  0.9363011E-01
          2   -1    0    0  501    0  0.00000000000E+00  0.00000000000E+00  0.32756016637E+04  0.32756016637E+04  0.25500000000E-02 0.  1.
         -2   -1    0    0    0  501 -0.00000000000E+00 -0.00000000000E+00 -0.69146466598E+02  0.69146466645E+02  0.25500000000E-02 0. -1.
   -5000001    1    1    2    0    0  0.30075699256E+03  0.26617310094E+03  0.14208578752E+04  0.14975446537E+04  0.25000000000E+03 0.  0.
    5000001    1    1    2    0    0 -0.30075699256E+03 -0.26617310094E+03  0.17855973219E+04  0.18472034767E+04  0.25000000000E+03 0.  0.
<mgrwt>
<rscale>  0 0.95183251E+03</rscale>
<asrwt>0</asrwt>
<pdfrwt beam="1">  1        2 0.50393859E+00 0.95183251E+03</pdfrwt>
<pdfrwt beam="2">  1       -2 0.10637921E-01 0.95183251E+03</pdfrwt>
<totfact> 0.74600160E+01</totfact>
</mgrwt>
</event>
<event>
 4    1  0.1804641E-005  0.9134117E+03  0.7818608E-02  0.9408970E-01
         -2   -1    0    0    0  501 -0.00000000000E+00  0.00000000000E+00  0.36944055307E+03  0.36944055308E+03  0.25500000000E-02 0. -1.
          2   -1    0    0  501    0  0.00000000000E+00 -0.00000000000E+00 -0.56458405273E+03  0.56458405274E+03  0.25500000000E-02 0.  1.
   -5000001    1    1    2    0    0  0.28588464193E+03  0.23324819660E+03 -0.19954938509E+03  0.48831824336E+03  0.25000000000E+03 0.  0.
    5000001    1    1    2    0    0 -0.28588464193E+03 -0.23324819660E+03  0.44058854271E+01  0.44570636245E+03  0.25000000000E+03 0.  0.
<mgrwt>
<rscale>  0 0.91341172E+03</rscale>
<asrwt>0</asrwt>
<pdfrwt beam="1">  1        2 0.86859085E-01 0.91341172E+03</pdfrwt>
<pdfrwt beam="2">  1       -2 0.56837008E-01 0.91341172E+03</pdfrwt>
<totfact> 0.15538841E+02</totfact>
</mgrwt>
</event>
<event>
 4    1  0.1804641E-005  0.6579753E+03  0.7818608E-02  0.9791928E-01
          2   -1    0    0  501    0  0.00000000000E+00  0.00000000000E+00  0.82030891765E+03  0.82030891765E+03  0.25500000000E-02 0.  1.
         -2   -1    0    0    0  501 -0.00000000000E+00 -0.00000000000E+00 -0.13194161542E+03  0.13194161544E+03  0.25500000000E-02 0. -1.
   -5000001    1    1    2    0    0 -0.27337614878E+02 -0.20321005707E+03  0.25625587979E+03  0.41256362953E+03  0.25000000000E+03 0.  0.
    5000001    1    1    2    0    0  0.27337614878E+02  0.20321005707E+03  0.43211142244E+03  0.53968690357E+03  0.25000000000E+03 0.  0.
<mgrwt>
<rscale>  0 0.65797533E+03</rscale>
<asrwt>0</asrwt>
<pdfrwt beam="1">  1        2 0.12620137E+00 0.65797533E+03</pdfrwt>
<pdfrwt beam="2">  1       -2 0.20298710E-01 0.65797533E+03</pdfrwt>
<totfact> 0.69668115E+02</totfact>
</mgrwt>
</event>
<event>
 4    1  0.1804641E-005  0.5490153E+03  0.7818608E-02  0.1001722E+00
         -2   -1    0    0    0  501 -0.00000000000E+00  0.00000000000E+00  0.47956420473E+03  0.47956420474E+03  0.25500000000E-02 0. -1.
          2   -1    0    0  501    0  0.00000000000E+00 -0.00000000000E+00 -0.15713109691E+03  0.15713109693E+03  0.25500000000E-02 0.  1.
   -5000001    1    1    2    0    0  0.59600614499E+02 -0.92292608775E+02  0.19369428778E+03  0.33479491633E+03  0.25000000000E+03 0.  0.
    5000001    1    1    2    0    0 -0.59600614499E+02  0.92292608775E+02  0.12873882004E+03  0.30190038534E+03  0.25000000000E+03 0.  0.
<mgrwt>
<rscale>  0 0.54901530E+03</rscale>
<asrwt>0</asrwt>
<pdfrwt beam="1">  1        2 0.24174015E-01 0.54901530E+03</pdfrwt>
<pdfrwt beam="2">  1       -2 0.73779109E-01 0.54901530E+03</pdfrwt>
<totfact> 0.38106867E+02</totfact>
</mgrwt>
</event>
<event>
 4    1  0.1804641E-005  0.7939499E+03  0.7818608E-02  0.9568816E-01
          2   -1    0    0  501    0  0.00000000000E+00  0.00000000000E+00  0.10358573978E+04  0.10358573978E+04  0.25500000000E-02 0.  1.
         -2   -1    0    0    0  501 -0.00000000000E+00 -0.00000000000E+00 -0.15213398675E+03  0.15213398677E+03  0.25500000000E-02 0. -1.
   -5000001    1    1    2    0    0 -0.42633916890E+02  0.27977523649E+03  0.25861909821E+03  0.45768512296E+03  0.25000000000E+03 0.  0.
    5000001    1    1    2    0    0  0.42633916890E+02 -0.27977523649E+03  0.62510431285E+03  0.73030626163E+03  0.25000000000E+03 0.  0.
<mgrwt>
<rscale>  0 0.79394991E+03</rscale>
<asrwt>0</asrwt>
<pdfrwt beam="1">  1        2 0.15936268E+00 0.79394991E+03</pdfrwt>
<pdfrwt beam="2">  1       -2 0.23405229E-01 0.79394991E+03</pdfrwt>
<totfact> 0.38767385E+02</totfact>
</mgrwt>
</event>
<event>
 4    1  0.1804641E-005  0.7455616E+03  0.7818608E-02  0.9642339E-01
         -2   -1    0    0    0  501 -0.00000000000E+00  0.00000000000E+00  0.39261127562E+02  0.39261127645E+02  0.25500000000E-02 0. -1.
          2   -1    0    0  501    0  0.00000000000E+00 -0.00000000000E+00 -0.35395189949E+04  0.35395189949E+04  0.25500000000E-02 0.  1.
   -5000001    1    1    2    0    0  0.11340080673E+03  0.25219205082E+03 -0.17607906469E+04  0.17998178451E+04  0.25000000000E+03 0.  0.
    5000001    1    1    2    0    0 -0.11340080673E+03 -0.25219205082E+03 -0.17394672205E+04  0.17789622774E+04  0.25000000000E+03 0.  0.
<mgrwt>
<rscale>  0 0.74556155E+03</rscale>
<asrwt>0</asrwt>
<pdfrwt beam="1">  1        2 0.54454113E+00 0.74556155E+03</pdfrwt>
<pdfrwt beam="2">  1       -2 0.60401763E-02 0.74556155E+03</pdfrwt>
<totfact> 0.12638097E+02</totfact>
</mgrwt>
</event>
<event>
 4    1  0.1804641E-005  0.8332142E+03  0.7818608E-02  0.9513147E-01
          2   -1    0    0  501    0  0.00000000000E+00  0.00000000000E+00  0.23109931594E+04  0.23109931594E+04  0.25500000000E-02 0.  1.
         -2   -1    0    0    0  501 -0.00000000000E+00 -0.00000000000E+00 -0.75102542710E+02  0.75102542753E+02  0.25500000000E-02 0. -1.
   -5000001    1    1    2    0    0 -0.32192945749E+03 -0.23938281560E+02  0.88093261634E+03  0.97095514390E+03  0.25000000000E+03 0.  0.
    5000001    1    1    2    0    0  0.32192945749E+03  0.23938281560E+02  0.13549580004E+04  0.14151405583E+04  0.25000000000E+03 0.  0.
<mgrwt>
<rscale>  0 0.83321417E+03</rscale>
<asrwt>0</asrwt>
<pdfrwt beam="1">  1        2 0.35553737E+00 0.83321417E+03</pdfrwt>
<pdfrwt beam="2">  1       -2 0.11554238E-01 0.83321417E+03</pdfrwt>
<totfact> 0.24806477E+02</totfact>
</mgrwt>
</event>
<event>
 4    1  0.1804641E-005  0.7996302E+03  0.7818608E-02  0.9560553E-01
          2   -1    0    0  501    0  0.00000000000E+00  0.00000000000E+00  0.25386105379E+04  0.25386105379E+04  0.25500000000E-02 0.  1.
         -2   -1    0    0    0  501 -0.00000000000E+00 -0.00000000000E+00 -0.62968351436E+02  0.62968351488E+02  0.25500000000E-02 0. -1.
   -5000001    1    1    2    0    0 -0.30212288142E+03  0.68753731188E+02  0.13572201501E+04  0.14144086563E+04  0.25000000000E+03 0.  0.
    5000001    1    1    2    0    0  0.30212288142E+03 -0.68753731188E+02  0.11184220363E+04  0.11871702331E+04  0.25000000000E+03 0.  0.
<mgrwt>
<rscale>  0 0.79963022E+03</rscale>
<asrwt>0</asrwt>
<pdfrwt beam="1">  1        2 0.39055545E+00 0.79963022E+03</pdfrwt>
<pdfrwt beam="2">  1       -2 0.96874391E-02 0.79963022E+03</pdfrwt>
<totfact> 0.24711504E+02</totfact>
</mgrwt>
</event>
<event>
 4    1  0.1804641E-005  0.8691045E+03  0.7818608E-02  0.9465048E-01
         -2   -1    0    0    0  501 -0.00000000000E+00  0.00000000000E+00  0.84054768685E+02  0.84054768724E+02  0.25500000000E-02 0. -1.
          2   -1    0    0  501    0  0.00000000000E+00 -0.00000000000E+00 -0.22465787189E+04  0.22465787189E+04  0.25500000000E-02 0.  1.
   -5000001    1    1    2    0    0 -0.34841473751E+03  0.55697433470E+02 -0.11963113324E+04  0.12720675443E+04  0.25000000000E+03 0.  0.
    5000001    1    1    2    0    0  0.34841473751E+03 -0.55697433470E+02 -0.96621261789E+03  0.10585659433E+04  0.25000000000E+03 0.  0.
<mgrwt>
<rscale>  0 0.86910449E+03</rscale>
<asrwt>0</asrwt>
<pdfrwt beam="1">  1        2 0.34562745E+00 0.86910449E+03</pdfrwt>
<pdfrwt beam="2">  1       -2 0.12931505E-01 0.86910449E+03</pdfrwt>
<totfact> 0.22280650E+02</totfact>
</mgrwt>
</event>
<event>
 4    1  0.1804641E-005  0.1061083E+04  0.7818608E-02  0.9243975E-01
         -2   -1    0    0    0  501 -0.00000000000E+00  0.00000000000E+00  0.77742154724E+03  0.77742154725E+03  0.25500000000E-02 0. -1.
          2   -1    0    0  501    0  0.00000000000E+00 -0.00000000000E+00 -0.36206153175E+03  0.36206153176E+03  0.25500000000E-02 0.  1.
   -5000001    1    1    2    0    0  0.26191493194E+02 -0.44925349917E+03  0.69905194703E+02  0.51952039139E+03  0.25000000000E+03 0.  0.
    5000001    1    1    2    0    0 -0.26191493194E+02  0.44925349917E+03  0.34545482079E+03  0.61996268762E+03  0.25000000000E+03 0.  0.
<mgrwt>
<rscale>  0 0.10610833E+04</rscale>
<asrwt>0</asrwt>
<pdfrwt beam="1">  1        2 0.55701775E-01 0.10610833E+04</pdfrwt>
<pdfrwt beam="2">  1       -2 0.11960331E+00 0.10610833E+04</pdfrwt>
<totfact> 0.47377136E+01</totfact>
</mgrwt>
</event>
<event>
 4    1  0.1804641E-005  0.9585586E+03  0.7818608E-02  0.9355202E-01
         -2   -1    0    0    0  501 -0.00000000000E+00  0.00000000000E+00  0.15550514115E+04  0.15550514115E+04  0.25500000000E-02 0. -1.
          2   -1    0    0  501    0  0.00000000000E+00 -0.00000000000E+00 -0.14771772428E+03  0.14771772430E+03  0.25500000000E-02 0.  1.
   -5000001    1    1    2    0    0 -0.36653763016E+03 -0.65825371922E+02  0.40364261479E+03  0.60341542438E+03  0.25000000000E+03 0.  0.
    5000001    1    1    2    0    0  0.36653763016E+03  0.65825371922E+02  0.10036910724E+04  0.10993537114E+04  0.25000000000E+03 0.  0.
<mgrwt>
<rscale>  0 0.95855862E+03</rscale>
<asrwt>0</asrwt>
<pdfrwt beam="1">  1        2 0.22725804E-01 0.95855862E+03</pdfrwt>
<pdfrwt beam="2">  1       -2 0.23923867E+00 0.95855862E+03</pdfrwt>
<totfact> 0.18473666E+01</totfact>
</mgrwt>
</event>
<event>
 4    1  0.1804641E-005  0.6523320E+03  0.7818608E-02  0.9802413E-01
          2   -1    0    0  501    0  0.00000000000E+00  0.00000000000E+00  0.93981001443E+03  0.93981001443E+03  0.25500000000E-02 0.  1.
         -2   -1    0    0    0  501 -0.00000000000E+00 -0.00000000000E+00 -0.11319761644E+03  0.11319761647E+03  0.25500000000E-02 0. -1.
   -5000001    1    1    2    0    0 -0.97471771057E+02 -0.11636464448E+03  0.18026074396E+03  0.34356282170E+03  0.25000000000E+03 0.  0.
    5000001    1    1    2    0    0  0.97471771057E+02  0.11636464448E+03  0.64635165403E+03  0.70944480920E+03  0.25000000000E+03 0.  0.
<mgrwt>
<rscale>  0 0.65233198E+03</rscale>
<asrwt>0</asrwt>
<pdfrwt beam="1">  1        2 0.14458616E+00 0.65233198E+03</pdfrwt>
<pdfrwt beam="2">  1       -2 0.17415017E-01 0.65233198E+03</pdfrwt>
<totfact> 0.75383689E+02</totfact>
</mgrwt>
</event>
<event>
 4    1  0.1804641E-005  0.6841124E+03  0.7818608E-02  0.9744795E-01
          2   -1    0    0  501    0  0.00000000000E+00  0.00000000000E+00  0.14700332638E+04  0.14700332638E+04  0.25500000000E-02 0.  1.
         -2   -1    0    0    0  501 -0.00000000000E+00 -0.00000000000E+00 -0.79591695804E+02  0.79591695845E+02  0.25500000000E-02 0. -1.
   -5000001    1    1    2    0    0 -0.22076346838E+03 -0.73733786212E+02  0.65411823478E+03  0.73793214137E+03  0.25000000000E+03 0.  0.
    5000001    1    1    2    0    0  0.22076346838E+03  0.73733786212E+02  0.73632333322E+03  0.81169281828E+03  0.25000000000E+03 0.  0.
<mgrwt>
<rscale>  0 0.68411239E+03</rscale>
<asrwt>0</asrwt>
<pdfrwt beam="1">  1        2 0.22615897E+00 0.68411239E+03</pdfrwt>
<pdfrwt beam="2">  1       -2 0.12244876E-01 0.68411239E+03</pdfrwt>
<totfact> 0.65943155E+02</totfact>
</mgrwt>
</event>
<event>
 4    1  0.1804641E-005  0.9052983E+03  0.7818608E-02  0.9418982E-01
         -2   -1    0    0    0  501 -0.00000000000E+00  0.00000000000E+00  0.12843887591E+03  0.12843887593E+03  0.25500000000E-02 0. -1.
          2   -1    0    0  501    0  0.00000000000E+00 -0.00000000000E+00 -0.15952433244E+04  0.15952433244E+04  0.25500000000E-02 0.  1.
   -5000001    1    1    2    0    0  0.21623586496E+03 -0.28425244422E+03 -0.50150660476E+03  0.66450453419E+03  0.25000000000E+03 0.  0.
    5000001    1    1    2    0    0 -0.21623586496E+03  0.28425244422E+03 -0.96529784374E+03  0.10591776662E+04  0.25000000000E+03 0.  0.
<mgrwt>
<rscale>  0 0.90529831E+03</rscale>
<asrwt>0</asrwt>
<pdfrwt beam="1">  1        2 0.24542204E+00 0.90529831E+03</pdfrwt>
<pdfrwt beam="2">  1       -2 0.19759828E-01 0.90529831E+03</pdfrwt>
<totfact> 0.24578129E+02</totfact>
</mgrwt>
</event>
<event>
 4    1  0.1804641E-005  0.1179735E+04  0.7818608E-02  0.9130781E-01
         -2   -1    0    0    0  501 -0.00000000000E+00  0.00000000000E+00  0.35029647866E+03  0.35029647867E+03  0.25500000000E-02 0. -1.
          2   -1    0    0  501    0  0.00000000000E+00 -0.00000000000E+00 -0.99328400241E+03  0.99328400241E+03  0.25500000000E-02 0.  1.
   -5000001    1    1    2    0    0 -0.36994398537E+03 -0.28270150146E+03 -0.23060366780E+02  0.52897114454E+03  0.25000000000E+03 0.  0.
    5000001    1    1    2    0    0  0.36994398537E+03  0.28270150146E+03 -0.61992715697E+03  0.81460933654E+03  0.25000000000E+03 0.  0.
<mgrwt>
<rscale>  0 0.11797354E+04</rscale>
<asrwt>0</asrwt>
<pdfrwt beam="1">  1        2 0.15281292E+00 0.11797354E+04</pdfrwt>
<pdfrwt beam="2">  1       -2 0.53891766E-01 0.11797354E+04</pdfrwt>
<totfact> 0.81520346E+01</totfact>
</mgrwt>
</event>
<event>
 4    1  0.1804641E-005  0.7248890E+03  0.7818608E-02  0.9675590E-01
          2   -1    0    0  501    0  0.00000000000E+00  0.00000000000E+00  0.21366854377E+04  0.21366854377E+04  0.25500000000E-02 0.  1.
         -2   -1    0    0    0  501 -0.00000000000E+00 -0.00000000000E+00 -0.61481222002E+02  0.61481222055E+02  0.25500000000E-02 0. -1.
   -5000001    1    1    2    0    0 -0.44502833340E+02 -0.24829219639E+03  0.12570393060E+04  0.13062455105E+04  0.25000000000E+03 0.  0.
    5000001    1    1    2    0    0  0.44502833340E+02  0.24829219639E+03  0.81816490968E+03  0.89192114920E+03  0.25000000000E+03 0.  0.
<mgrwt>
<rscale>  0 0.72488904E+03</rscale>
<asrwt>0</asrwt>
<pdfrwt beam="1">  1        2 0.32872083E+00 0.72488904E+03</pdfrwt>
<pdfrwt beam="2">  1       -2 0.94586497E-02 0.72488904E+03</pdfrwt>
<totfact> 0.43336970E+02</totfact>
</mgrwt>
</event>
<event>
 4    1  0.1804641E-005  0.6138643E+03  0.7818608E-02  0.9877052E-01
          2   -1    0    0  501    0  0.00000000000E+00  0.00000000000E+00  0.25577710622E+04  0.25577710622E+04  0.25500000000E-02 0.  1.
         -2   -1    0    0    0  501 -0.00000000000E+00 -0.00000000000E+00 -0.36831808103E+02  0.36831808192E+02  0.25500000000E-02 0. -1.
   -5000001    1    1    2    0    0  0.16098136611E+03 -0.72515705169E+02  0.13581236172E+04  0.13921829217E+04  0.25000000000E+03 0.  0.
    5000001    1    1    2    0    0 -0.16098136611E+03  0.72515705169E+02  0.11628156369E+04  0.12024199487E+04  0.25000000000E+03 0.  0.
<mgrwt>
<rscale>  0 0.61386426E+03</rscale>
<asrwt>0</asrwt>
<pdfrwt beam="1">  1        2 0.39350331E+00 0.61386426E+03</pdfrwt>
<pdfrwt beam="2">  1       -2 0.56664310E-02 0.61386426E+03</pdfrwt>
<totfact> 0.57577521E+02</totfact>
</mgrwt>
</event>
<event>
 4    1  0.1804641E-005  0.5801641E+03  0.7818608E-02  0.9947436E-01
         -2   -1    0    0    0  501 -0.00000000000E+00  0.00000000000E+00  0.19324745295E+03  0.19324745297E+03  0.25500000000E-02 0. -1.
          2   -1    0    0  501    0  0.00000000000E+00 -0.00000000000E+00 -0.43543959288E+03  0.43543959289E+03  0.25500000000E-02 0.  1.
   -5000001    1    1    2    0    0 -0.14662460433E+03 -0.75688461825E+00 -0.10790216441E+03  0.30926077112E+03  0.25000000000E+03 0.  0.
    5000001    1    1    2    0    0  0.14662460433E+03  0.75688461825E+00 -0.13428997553E+03  0.31942627474E+03  0.25000000000E+03 0.  0.
<mgrwt>
<rscale>  0 0.58016409E+03</rscale>
<asrwt>0</asrwt>
<pdfrwt beam="1">  1        2 0.66990706E-01 0.58016409E+03</pdfrwt>
<pdfrwt beam="2">  1       -2 0.29730377E-01 0.58016409E+03</pdfrwt>
<totfact> 0.75663517E+02</totfact>
</mgrwt>
</event>
<event>
 4    1  0.1804641E-005  0.5821304E+03  0.7818608E-02  0.9943189E-01
         -2   -1    0    0    0  501 -0.00000000000E+00  0.00000000000E+00  0.59524573206E+02  0.59524573260E+02  0.25500000000E-02 0. -1.
          2   -1    0    0  501    0  0.00000000000E+00 -0.00000000000E+00 -0.14232603485E+04  0.14232603485E+04  0.25500000000E-02 0.  1.
   -5000001    1    1    2    0    0  0.84833554795E+02  0.11195853056E+03 -0.80890808471E+03  0.85823291366E+03  0.25000000000E+03 0.  0.
    5000001    1    1    2    0    0 -0.84833554795E+02 -0.11195853056E+03 -0.55482769060E+03  0.62455200811E+03  0.25000000000E+03 0.  0.
<mgrwt>
<rscale>  0 0.58213045E+03</rscale>
<asrwt>0</asrwt>
<pdfrwt beam="1">  1        2 0.21896311E+00 0.58213045E+03</pdfrwt>
<pdfrwt beam="2">  1       -2 0.91576277E-02 0.58213045E+03</pdfrwt>
<totfact> 0.11301548E+03</totfact>
</mgrwt>
</event>
<event>
 4    1  0.1804641E-005  0.6910630E+03  0.7818608E-02  0.9732639E-01
         -2   -1    0    0    0  501 -0.00000000000E+00  0.00000000000E+00  0.10460435080E+03  0.10460435083E+03  0.25500000000E-02 0. -1.
          2   -1    0    0  501    0  0.00000000000E+00 -0.00000000000E+00 -0.11413676732E+04  0.11413676732E+04  0.25500000000E-02 0.  1.
   -5000001    1    1    2    0    0  0.22941653903E+03 -0.18563672964E+02 -0.40556262772E+03  0.52911019962E+03  0.25000000000E+03 0.  0.
    5000001    1    1    2    0    0 -0.22941653903E+03  0.18563672964E+02 -0.63120069466E+03  0.71686182439E+03  0.25000000000E+03 0.  0.
<mgrwt>
<rscale>  0 0.69106302E+03</rscale>
<asrwt>0</asrwt>
<pdfrwt beam="1">  1        2 0.17559502E+00 0.69106302E+03</pdfrwt>
<pdfrwt beam="2">  1       -2 0.16092978E-01 0.69106302E+03</pdfrwt>
<totfact> 0.64446131E+02</totfact>
</mgrwt>
</event>
<event>
 4    1  0.1804641E-005  0.6897960E+03  0.7818608E-02  0.9734843E-01
         -2   -1    0    0    0  501 -0.00000000000E+00  0.00000000000E+00  0.69104305863E+02  0.69104305910E+02  0.25500000000E-02 0. -1.
          2   -1    0    0  501    0  0.00000000000E+00 -0.00000000000E+00 -0.17213778079E+04  0.17213778079E+04  0.25500000000E-02 0.  1.
   -5000001    1    1    2    0    0  0.22771057899E+03 -0.39964956913E+02 -0.96843324292E+03  0.10265535795E+04  0.25000000000E+03 0.  0.
    5000001    1    1    2    0    0 -0.22771057899E+03  0.39964956913E+02 -0.68384025911E+03  0.76392853432E+03  0.25000000000E+03 0.  0.
<mgrwt>
<rscale>  0 0.68979597E+03</rscale>
<asrwt>0</asrwt>
<pdfrwt beam="1">  1        2 0.26482732E+00 0.68979597E+03</pdfrwt>
<pdfrwt beam="2">  1       -2 0.10631433E-01 0.68979597E+03</pdfrwt>
<totfact> 0.60482300E+02</totfact>
</mgrwt>
</event>
<event>
 4    1  0.1804641E-005  0.6620781E+03  0.7818608E-02  0.9784376E-01
          2   -1    0    0  501    0  0.00000000000E+00  0.00000000000E+00  0.56842426715E+03  0.56842426716E+03  0.25500000000E-02 0.  1.
         -2   -1    0    0    0  501 -0.00000000000E+00 -0.00000000000E+00 -0.19279061851E+03  0.19279061853E+03  0.25500000000E-02 0. -1.
   -5000001    1    1    2    0    0 -0.58593612015E+02 -0.18801899782E+03  0.29257857723E+03  0.43230380378E+03  0.25000000000E+03 0.  0.
    5000001    1    1    2    0    0  0.58593612015E+02  0.18801899782E+03  0.83055071413E+02  0.32891108190E+03  0.25000000000E+03 0.  0.
<mgrwt>
<rscale>  0 0.66207814E+03</rscale>
<asrwt>0</asrwt>
<pdfrwt beam="1">  1        2 0.87449885E-01 0.66207814E+03</pdfrwt>
<pdfrwt beam="2">  1       -2 0.29660096E-01 0.66207814E+03</pdfrwt>
<totfact> 0.55776608E+02</totfact>
</mgrwt>
</event>
<event>
 4    1  0.1804641E-005  0.6231838E+03  0.7818608E-02  0.9858441E-01
         -2   -1    0    0    0  501 -0.00000000000E+00  0.00000000000E+00  0.29454049042E+03  0.29454049043E+03  0.25500000000E-02 0. -1.
          2   -1    0    0  501    0  0.00000000000E+00 -0.00000000000E+00 -0.32963042732E+03  0.32963042733E+03  0.25500000000E-02 0.  1.
   -5000001    1    1    2    0    0  0.16665703975E+03 -0.34819859946E+01  0.65064856522E+02  0.30744126053E+03  0.25000000000E+03 0.  0.
    5000001    1    1    2    0    0 -0.16665703975E+03  0.34819859946E+01 -0.10015479342E+03  0.31672965723E+03  0.25000000000E+03 0.  0.
<mgrwt>
<rscale>  0 0.62318379E+03</rscale>
<asrwt>0</asrwt>
<pdfrwt beam="1">  1        2 0.50712373E-01 0.62318379E+03</pdfrwt>
<pdfrwt beam="2">  1       -2 0.45313922E-01 0.62318379E+03</pdfrwt>
<totfact> 0.46038480E+02</totfact>
</mgrwt>
</event>
<event>
 4    1  0.1804641E-005  0.7367166E+03  0.7818608E-02  0.9656423E-01
          2   -1    0    0  501    0  0.00000000000E+00  0.00000000000E+00  0.13266105887E+04  0.13266105887E+04  0.25500000000E-02 0.  1.
         -2   -1    0    0    0  501 -0.00000000000E+00 -0.00000000000E+00 -0.10228159994E+03  0.10228159997E+03  0.25500000000E-02 0. -1.
   -5000001    1    1    2    0    0 -0.24493063245E+03 -0.55214496450E+02  0.80755049828E+03  0.88186022849E+03  0.25000000000E+03 0.  0.
    5000001    1    1    2    0    0  0.24493063245E+03  0.55214496450E+02  0.41677849051E+03  0.54703196020E+03  0.25000000000E+03 0.  0.
<mgrwt>
<rscale>  0 0.73671664E+03</rscale>
<asrwt>0</asrwt>
<pdfrwt beam="1">  1        2 0.20409393E+00 0.73671664E+03</pdfrwt>
<pdfrwt beam="2">  1       -2 0.15735631E-01 0.73671664E+03</pdfrwt>
<totfact> 0.52043400E+02</totfact>
</mgrwt>
</event>
<event>
 4    1  0.1804641E-005  0.2334662E+04  0.7818608E-02  0.8464378E-01
         -2   -1    0    0    0  501 -0.00000000000E+00  0.00000000000E+00  0.45958301617E+03  0.45958301618E+03  0.25500000000E-02 0. -1.
          2   -1    0    0  501    0  0.00000000000E+00 -0.00000000000E+00 -0.29649969360E+04  0.29649969360E+04  0.25500000000E-02 0.  1.
   -5000001    1    1    2    0    0  0.75567485044E+03 -0.67486743995E+03 -0.48534874938E+03  0.11508926751E+04  0.25000000000E+03 0.  0.
    5000001    1    1    2    0    0 -0.75567485044E+03  0.67486743995E+03 -0.20200651704E+04  0.22736872770E+04  0.25000000000E+03 0.  0.
<mgrwt>
<rscale>  0 0.23346625E+04</rscale>
<asrwt>0</asrwt>
<pdfrwt beam="1">  1        2 0.45615336E+00 0.23346625E+04</pdfrwt>
<pdfrwt beam="2">  1       -2 0.70705081E-01 0.23346625E+04</pdfrwt>
<totfact> 0.30123908E+00</totfact>
</mgrwt>
</event>
<event>
 4    1  0.1804641E-005  0.6096961E+03  0.7818608E-02  0.9885491E-01
          2   -1    0    0  501    0  0.00000000000E+00  0.00000000000E+00  0.12166993163E+04  0.12166993163E+04  0.25500000000E-02 0.  1.
         -2   -1    0    0    0  501 -0.00000000000E+00 -0.00000000000E+00 -0.76380694246E+02  0.76380694288E+02  0.25500000000E-02 0. -1.
   -5000001    1    1    2    0    0  0.10691081932E+03  0.11695406432E+03  0.41540683645E+03  0.51006961899E+03  0.25000000000E+03 0.  0.
    5000001    1    1    2    0    0 -0.10691081932E+03 -0.11695406432E+03  0.72491178559E+03  0.78301039159E+03  0.25000000000E+03 0.  0.
<mgrwt>
<rscale>  0 0.60969612E+03</rscale>
<asrwt>0</asrwt>
<pdfrwt beam="1">  1        2 0.18718451E+00 0.60969612E+03</pdfrwt>
<pdfrwt beam="2">  1       -2 0.11750876E-01 0.60969612E+03</pdfrwt>
<totfact> 0.98697192E+02</totfact>
</mgrwt>
</event>
<event>
 4    1  0.1804641E-005  0.6963244E+03  0.7818608E-02  0.9723539E-01
          2   -1    0    0  501    0  0.00000000000E+00  0.00000000000E+00  0.84014295342E+03  0.84014295342E+03  0.25500000000E-02 0.  1.
         -2   -1    0    0    0  501 -0.00000000000E+00 -0.00000000000E+00 -0.14428128843E+03  0.14428128845E+03  0.25500000000E-02 0. -1.
   -5000001    1    1    2    0    0  0.22266937168E+03  0.91341584868E+02  0.30814521970E+03  0.46408879607E+03  0.25000000000E+03 0.  0.
    5000001    1    1    2    0    0 -0.22266937168E+03 -0.91341584868E+02  0.38771644529E+03  0.52033544581E+03  0.25000000000E+03 0.  0.
<mgrwt>
<rscale>  0 0.69632437E+03</rscale>
<asrwt>0</asrwt>
<pdfrwt beam="1">  1        2 0.12925276E+00 0.69632437E+03</pdfrwt>
<pdfrwt beam="2">  1       -2 0.22197121E-01 0.69632437E+03</pdfrwt>
<totfact> 0.57576740E+02</totfact>
</mgrwt>
</event>
<event>
 4    1  0.1804641E-005  0.1053068E+04  0.7818608E-02  0.9252182E-01
         -2   -1    0    0    0  501 -0.00000000000E+00  0.00000000000E+00  0.43200253277E+03  0.43200253277E+03  0.25500000000E-02 0. -1.
          2   -1    0    0  501    0  0.00000000000E+00 -0.00000000000E+00 -0.64175087461E+03  0.64175087462E+03  0.25500000000E-02 0.  1.
   -5000001    1    1    2    0    0  0.74646024876E+01  0.45797097811E+03 -0.33173131933E+02  0.52287053251E+03  0.25000000000E+03 0.  0.
    5000001    1    1    2    0    0 -0.74646024876E+01 -0.45797097811E+03 -0.17657520992E+03  0.55088287488E+03  0.25000000000E+03 0.  0.
<mgrwt>
<rscale>  0 0.10530679E+04</rscale>
<asrwt>0</asrwt>
<pdfrwt beam="1">  1        2 0.98730904E-01 0.10530679E+04</pdfrwt>
<pdfrwt beam="2">  1       -2 0.66461928E-01 0.10530679E+04</pdfrwt>
<totfact> 0.94688408E+01</totfact>
</mgrwt>
</event>
<event>
 4    1  0.1804641E-005  0.5585519E+03  0.7818608E-02  0.9995337E-01
         -2   -1    0    0    0  501 -0.00000000000E+00  0.00000000000E+00  0.11725805601E+03  0.11725805604E+03  0.25500000000E-02 0. -1.
          2   -1    0    0  501    0  0.00000000000E+00 -0.00000000000E+00 -0.66515742278E+03  0.66515742279E+03  0.25500000000E-02 0.  1.
   -5000001    1    1    2    0    0 -0.87285049163E+02  0.88361516309E+02 -0.26234515101E+03  0.38308147388E+03  0.25000000000E+03 0.  0.
    5000001    1    1    2    0    0  0.87285049163E+02 -0.88361516309E+02 -0.28555421576E+03  0.39933400495E+03  0.25000000000E+03 0.  0.
<mgrwt>
<rscale>  0 0.55855194E+03</rscale>
<asrwt>0</asrwt>
<pdfrwt beam="1">  1        2 0.10233191E+00 0.55855194E+03</pdfrwt>
<pdfrwt beam="2">  1       -2 0.18039701E-01 0.55855194E+03</pdfrwt>
<totfact> 0.11198135E+03</totfact>
</mgrwt>
</event>
<event>
 4    1  0.1804641E-005  0.1130489E+04  0.7818608E-02  0.9175974E-01
          2   -1    0    0  501    0  0.00000000000E+00  0.00000000000E+00  0.28020133064E+04  0.28020133064E+04  0.25500000000E-02 0.  1.
         -2   -1    0    0    0  501 -0.00000000000E+00 -0.00000000000E+00 -0.11402560941E+03  0.11402560944E+03  0.25500000000E-02 0. -1.
   -5000001    1    1    2    0    0  0.10559847296E+03 -0.46383947587E+03  0.89201440052E+03  0.10413874340E+04  0.25000000000E+03 0.  0.
    5000001    1    1    2    0    0 -0.10559847296E+03  0.46383947587E+03  0.17959732964E+04  0.18746514818E+04  0.25000000000E+03 0.  0.
<mgrwt>
<rscale>  0 0.11304889E+04</rscale>
<asrwt>0</asrwt>
<pdfrwt beam="1">  1        2 0.43107895E+00 0.11304889E+04</pdfrwt>
<pdfrwt beam="2">  1       -2 0.17542402E-01 0.11304889E+04</pdfrwt>
<totfact> 0.62211154E+01</totfact>
</mgrwt>
</event>
<event>
 4    1  0.1804641E-005  0.5440586E+03  0.7818608E-02  0.1002879E+00
          2   -1    0    0  501    0  0.00000000000E+00  0.00000000000E+00  0.12362550073E+04  0.12362550073E+04  0.25500000000E-02 0.  1.
         -2   -1    0    0    0  501 -0.00000000000E+00 -0.00000000000E+00 -0.59858149031E+02  0.59858149085E+02  0.25500000000E-02 0. -1.
   -5000001    1    1    2    0    0 -0.70886998390E+02  0.61841959901E+02  0.71084759300E+03  0.75937717573E+03  0.25000000000E+03 0.  0.
    5000001    1    1    2    0    0  0.70886998390E+02 -0.61841959901E+02  0.46554926531E+03  0.53673598070E+03  0.25000000000E+03 0.  0.
<mgrwt>
<rscale>  0 0.54405859E+03</rscale>
<asrwt>0</asrwt>
<pdfrwt beam="1">  1        2 0.19019308E+00 0.54405859E+03</pdfrwt>
<pdfrwt beam="2">  1       -2 0.92089457E-02 0.54405859E+03</pdfrwt>
<totfact> 0.14320052E+03</totfact>
</mgrwt>
</event>
<event>
 4    1  0.1804641E-005  0.9709532E+03  0.7818608E-02  0.9340989E-01
         -2   -1    0    0    0  501 -0.00000000000E+00  0.00000000000E+00  0.13374125780E+04  0.13374125780E+04  0.25500000000E-02 0. -1.
          2   -1    0    0  501    0  0.00000000000E+00 -0.00000000000E+00 -0.17622648324E+03  0.17622648325E+03  0.25500000000E-02 0.  1.
   -5000001    1    1    2    0    0 -0.35057413907E+03  0.45608838921E+02  0.92286446661E+03  0.10193925725E+04  0.25000000000E+03 0.  0.
    5000001    1    1    2    0    0  0.35057413907E+03 -0.45608838921E+02  0.23832162814E+03  0.49424648872E+03  0.25000000000E+03 0.  0.
<mgrwt>
<rscale>  0 0.97095317E+03</rscale>
<asrwt>0</asrwt>
<pdfrwt beam="1">  1        2 0.27111768E-01 0.97095317E+03</pdfrwt>
<pdfrwt beam="2">  1       -2 0.20575577E+00 0.97095317E+03</pdfrwt>
<totfact> 0.24421675E+01</totfact>
</mgrwt>
</event>
<event>
 4    1  0.1804641E-005  0.8550971E+03  0.7818608E-02  0.9483521E-01
         -2   -1    0    0    0  501 -0.00000000000E+00  0.00000000000E+00  0.96841737047E+02  0.96841737080E+02  0.25500000000E-02 0. -1.
          2   -1    0    0  501    0  0.00000000000E+00 -0.00000000000E+00 -0.18875926856E+04  0.18875926856E+04  0.25500000000E-02 0.  1.
   -5000001    1    1    2    0    0 -0.11373039995E+02  0.96214731169E+02 -0.12250111272E+03  0.29477642910E+03  0.25000000000E+03 0.  0.
    5000001    1    1    2    0    0  0.11373039995E+02 -0.96214731169E+02 -0.16682498359E+04  0.16896579936E+04  0.25000000000E+03 0.  0.
<mgrwt>
<rscale>  0 0.85509708E+03</rscale>
<asrwt>0</asrwt>
<pdfrwt beam="1">  1        2 0.29039885E+00 0.85509708E+03</pdfrwt>
<pdfrwt beam="2">  1       -2 0.14898730E-01 0.85509708E+03</pdfrwt>
<totfact> 0.27697538E+02</totfact>
</mgrwt>
</event>
<event>
 4    1  0.1804641E-005  0.8232990E+03  0.7818608E-02  0.9526892E-01
          2   -1    0    0  501    0  0.00000000000E+00  0.00000000000E+00  0.59518422161E+03  0.59518422161E+03  0.25500000000E-02 0.  1.
         -2   -1    0    0    0  501 -0.00000000000E+00 -0.00000000000E+00 -0.28471070121E+03  0.28471070122E+03  0.25500000000E-02 0. -1.
   -5000001    1    1    2    0    0  0.71534213379E+02 -0.26519003983E+03 -0.34483655519E+02  0.37300405280E+03  0.25000000000E+03 0.  0.
    5000001    1    1    2    0    0 -0.71534213379E+02  0.26519003983E+03  0.34495717592E+03  0.50689087004E+03  0.25000000000E+03 0.  0.
<mgrwt>
<rscale>  0 0.82329902E+03</rscale>
<asrwt>0</asrwt>
<pdfrwt beam="1">  1        2 0.91566802E-01 0.82329902E+03</pdfrwt>
<pdfrwt beam="2">  1       -2 0.43801647E-01 0.82329902E+03</pdfrwt>
<totfact> 0.24895225E+02</totfact>
</mgrwt>
</event>
<event>
 4    1  0.1804641E-005  0.6357839E+03  0.7818608E-02  0.9833827E-01
          2   -1    0    0  501    0  0.00000000000E+00  0.00000000000E+00  0.19887684695E+04  0.19887684695E+04  0.25500000000E-02 0.  1.
         -2   -1    0    0    0  501 -0.00000000000E+00 -0.00000000000E+00 -0.50812994906E+02  0.50812994970E+02  0.25500000000E-02 0. -1.
   -5000001    1    1    2    0    0  0.18574348313E+03 -0.61684916652E+02  0.10196609375E+04  0.10679485465E+04  0.25000000000E+03 0.  0.
    5000001    1    1    2    0    0 -0.18574348313E+03  0.61684916652E+02  0.91829453706E+03  0.97163291795E+03  0.25000000000E+03 0.  0.
<mgrwt>
<rscale>  0 0.63578387E+03</rscale>
<asrwt>0</asrwt>
<pdfrwt beam="1">  1        2 0.30596441E+00 0.63578387E+03</pdfrwt>
<pdfrwt beam="2">  1       -2 0.78173831E-02 0.63578387E+03</pdfrwt>
<totfact> 0.71343135E+02</totfact>
</mgrwt>
</event>
<event>
 4    1  0.1804641E-005  0.1001416E+04  0.7818608E-02  0.9306993E-01
          2   -1    0    0  501    0  0.00000000000E+00  0.00000000000E+00  0.56798846503E+03  0.56798846504E+03  0.25500000000E-02 0.  1.
         -2   -1    0    0    0  501 -0.00000000000E+00 -0.00000000000E+00 -0.44139746509E+03  0.44139746510E+03  0.25500000000E-02 0. -1.
   -5000001    1    1    2    0    0  0.35105038944E+03  0.22819548026E+03  0.17777363407E+03  0.51905011137E+03  0.25000000000E+03 0.  0.
    5000001    1    1    2    0    0 -0.35105038944E+03 -0.22819548026E+03 -0.51182634128E+02  0.49033581878E+03  0.25000000000E+03 0.  0.
<mgrwt>
<rscale>  0 0.10014163E+04</rscale>
<asrwt>0</asrwt>
<pdfrwt beam="1">  1        2 0.87382841E-01 0.10014163E+04</pdfrwt>
<pdfrwt beam="2">  1       -2 0.67907302E-01 0.10014163E+04</pdfrwt>
<totfact> 0.10512468E+02</totfact>
</mgrwt>
</event>
<event>
 4    1  0.1804641E-005  0.6801380E+03  0.7818608E-02  0.9751815E-01
          2   -1    0    0  501    0  0.00000000000E+00  0.00000000000E+00  0.17284150776E+03  0.17284150778E+03  0.25500000000E-02 0.  1.
         -2   -1    0    0    0  501 -0.00000000000E+00 -0.00000000000E+00 -0.66909229935E+03  0.66909229935E+03  0.25500000000E-02 0. -1.
   -5000001    1    1    2    0    0 -0.23030962867E+03  0.99555983934E+01 -0.24528017761E+03  0.41928988126E+03  0.25000000000E+03 0.  0.
    5000001    1    1    2    0    0  0.23030962867E+03 -0.99555983934E+01 -0.25097061398E+03  0.42264392587E+03  0.25000000000E+03 0.  0.
<mgrwt>
<rscale>  0 0.68013799E+03</rscale>
<asrwt>0</asrwt>
<pdfrwt beam="1">  1        2 0.26591002E-01 0.68013799E+03</pdfrwt>
<pdfrwt beam="2">  1       -2 0.10293728E+00 0.68013799E+03</pdfrwt>
<totfact> 0.15910884E+02</totfact>
</mgrwt>
</event>
<event>
 4    1  0.1804641E-005  0.6063991E+03  0.7818608E-02  0.9892218E-01
         -2   -1    0    0    0  501 -0.00000000000E+00  0.00000000000E+00  0.69183956373E+03  0.69183956374E+03  0.25500000000E-02 0. -1.
          2   -1    0    0  501    0  0.00000000000E+00 -0.00000000000E+00 -0.13287755959E+03  0.13287755962E+03  0.25500000000E-02 0.  1.
   -5000001    1    1    2    0    0 -0.91039854512E+01  0.17119967774E+03  0.28783609461E+03  0.41802132669E+03  0.25000000000E+03 0.  0.
    5000001    1    1    2    0    0  0.91039854512E+01 -0.17119967774E+03  0.27112590953E+03  0.40669579666E+03  0.25000000000E+03 0.  0.
<mgrwt>
<rscale>  0 0.60639905E+03</rscale>
<asrwt>0</asrwt>
<pdfrwt beam="1">  1        2 0.20442702E-01 0.60639905E+03</pdfrwt>
<pdfrwt beam="2">  1       -2 0.10643686E+00 0.60639905E+03</pdfrwt>
<totfact> 0.19947824E+02</totfact>
</mgrwt>
</event>
<event>
 4    1  0.1804641E-005  0.9942860E+03  0.7818608E-02  0.9314834E-01
          2   -1    0    0  501    0  0.00000000000E+00  0.00000000000E+00  0.12915705966E+04  0.12915705966E+04  0.25500000000E-02 0.  1.
         -2   -1    0    0    0  501 -0.00000000000E+00 -0.00000000000E+00 -0.19135707522E+03  0.19135707524E+03  0.25500000000E-02 0. -1.
   -5000001    1    1    2    0    0  0.89446166913E+02 -0.42018477280E+03  0.53554607401E+03  0.73066097299E+03  0.25000000000E+03 0.  0.
    5000001    1    1    2    0    0 -0.89446166913E+02  0.42018477280E+03  0.56466744736E+03  0.75226669884E+03  0.25000000000E+03 0.  0.
<mgrwt>
<rscale>  0 0.99428602E+03</rscale>
<asrwt>0</asrwt>
<pdfrwt beam="1">  1        2 0.19870317E+00 0.99428602E+03</pdfrwt>
<pdfrwt beam="2">  1       -2 0.29439549E-01 0.99428602E+03</pdfrwt>
<totfact> 0.17710609E+02</totfact>
</mgrwt>
</event>
<event>
 4    1  0.1804641E-005  0.8042010E+03  0.7818608E-02  0.9553956E-01
          2   -1    0    0  501    0  0.00000000000E+00  0.00000000000E+00  0.19276650648E+03  0.19276650650E+03  0.25500000000E-02 0.  1.
         -2   -1    0    0    0  501 -0.00000000000E+00 -0.00000000000E+00 -0.83875990114E+03  0.83875990114E+03  0.25500000000E-02 0. -1.
   -5000001    1    1    2    0    0 -0.22987497016E+03 -0.19524872260E+03 -0.20670244292E+03  0.44293392904E+03  0.25000000000E+03 0.  0.
    5000001    1    1    2    0    0  0.22987497016E+03  0.19524872260E+03 -0.43929095174E+03  0.58859247860E+03  0.25000000000E+03 0.  0.
<mgrwt>
<rscale>  0 0.80420101E+03</rscale>
<asrwt>0</asrwt>
<pdfrwt beam="1">  1        2 0.29656386E-01 0.80420101E+03</pdfrwt>
<pdfrwt beam="2">  1       -2 0.12903998E+00 0.80420101E+03</pdfrwt>
<totfact> 0.80372998E+01</totfact>
</mgrwt>
</event>
<event>
 4    1  0.1804641E-005  0.5823453E+03  0.7818608E-02  0.9942726E-01
          2   -1    0    0  501    0  0.00000000000E+00  0.00000000000E+00  0.49259717313E+02  0.49259717379E+02  0.25500000000E-02 0.  1.
         -2   -1    0    0    0  501 -0.00000000000E+00 -0.00000000000E+00 -0.17211126515E+04  0.17211126515E+04  0.25500000000E-02 0. -1.
   -5000001    1    1    2    0    0  0.43868331773E+02  0.84023109073E+02 -0.48536492239E+03  0.55413303572E+03  0.25000000000E+03 0.  0.
    5000001    1    1    2    0    0 -0.43868331773E+02 -0.84023109073E+02 -0.11864880118E+04  0.12162393332E+04  0.25000000000E+03 0.  0.
<mgrwt>
<rscale>  0 0.58234534E+03</rscale>
<asrwt>0</asrwt>
<pdfrwt beam="1">  1        2 0.75784194E-02 0.58234534E+03</pdfrwt>
<pdfrwt beam="2">  1       -2 0.26478652E+00 0.58234534E+03</pdfrwt>
<totfact> 0.51853830E+01</totfact>
</mgrwt>
</event>
<event>
 4    1  0.1804641E-005  0.1281650E+04  0.7818608E-02  0.9044245E-01
         -2   -1    0    0    0  501 -0.00000000000E+00  0.00000000000E+00  0.13828577222E+03  0.13828577225E+03  0.25500000000E-02 0. -1.
          2   -1    0    0  501    0  0.00000000000E+00 -0.00000000000E+00 -0.29696234904E+04  0.29696234904E+04  0.25500000000E-02 0.  1.
   -5000001    1    1    2    0    0 -0.48433347392E+03 -0.75874017710E+02 -0.22119205379E+04  0.22793482065E+04  0.25000000000E+03 0.  0.
    5000001    1    1    2    0    0  0.48433347392E+03  0.75874017710E+02 -0.61941718025E+03  0.82856105611E+03  0.25000000000E+03 0.  0.
<mgrwt>
<rscale>  0 0.12816500E+04</rscale>
<asrwt>0</asrwt>
<pdfrwt beam="1">  1        2 0.45686511E+00 0.12816500E+04</pdfrwt>
<pdfrwt beam="2">  1       -2 0.21274736E-01 0.12816500E+04</pdfrwt>
<totfact> 0.34605129E+01</totfact>
</mgrwt>
</event>
<event>
 4    1  0.1804641E-005  0.9725213E+03  0.7818608E-02  0.9339207E-01
          2   -1    0    0  501    0  0.00000000000E+00  0.00000000000E+00  0.18208629113E+04  0.18208629113E+04  0.25500000000E-02 0.  1.
         -2   -1    0    0    0  501 -0.00000000000E+00 -0.00000000000E+00 -0.12985569205E+03  0.12985569207E+03  0.25500000000E-02 0. -1.
   -5000001    1    1    2    0    0 -0.22310715795E+03 -0.35203455373E+03  0.87685391139E+03  0.10025357414E+04  0.25000000000E+03 0.  0.
    5000001    1    1    2    0    0  0.22310715795E+03  0.35203455373E+03  0.81415330782E+03  0.94818286189E+03  0.25000000000E+03 0.  0.
<mgrwt>
<rscale>  0 0.97252129E+03</rscale>
<asrwt>0</asrwt>
<pdfrwt beam="1">  1        2 0.28013275E+00 0.97252129E+03</pdfrwt>
<pdfrwt beam="2">  1       -2 0.19977799E-01 0.97252129E+03</pdfrwt>
<totfact> 0.18024804E+02</totfact>
</mgrwt>
</event>
<event>
 4    1  0.1804641E-005  0.9564212E+03  0.7818608E-02  0.9357677E-01
          2   -1    0    0  501    0  0.00000000000E+00  0.00000000000E+00  0.49703130379E+03  0.49703130380E+03  0.25500000000E-02 0.  1.
         -2   -1    0    0    0  501 -0.00000000000E+00 -0.00000000000E+00 -0.46010253389E+03  0.46010253390E+03  0.25500000000E-02 0. -1.
   -5000001    1    1    2    0    0  0.40884720767E+02  0.39305519629E+03 -0.81717224714E+02  0.47470164581E+03  0.25000000000E+03 0.  0.
    5000001    1    1    2    0    0 -0.40884720767E+02 -0.39305519629E+03  0.11864599462E+03  0.48243219188E+03  0.25000000000E+03 0.  0.
<mgrwt>
<rscale>  0 0.95642117E+03</rscale>
<asrwt>0</asrwt>
<pdfrwt beam="1">  1        2 0.76466354E-01 0.95642117E+03</pdfrwt>
<pdfrwt beam="2">  1       -2 0.70785005E-01 0.95642117E+03</pdfrwt>
<totfact> 0.11264709E+02</totfact>
</mgrwt>
</event>
<event>
 4    1  0.1804641E-005  0.6063829E+03  0.7818608E-02  0.9892251E-01
          2   -1    0    0  501    0  0.00000000000E+00  0.00000000000E+00  0.19229418008E+03  0.19229418010E+03  0.25500000000E-02 0.  1.
         -2   -1    0    0    0  501 -0.00000000000E+00 -0.00000000000E+00 -0.47804391835E+03  0.47804391836E+03  0.25500000000E-02 0. -1.
   -5000001    1    1    2    0    0 -0.95540770195E+02 -0.14068880413E+03 -0.16768484983E+03  0.34574497428E+03  0.25000000000E+03 0.  0.
    5000001    1    1    2    0    0  0.95540770195E+02  0.14068880413E+03 -0.11806488845E+03  0.32459312417E+03  0.25000000000E+03 0.  0.
<mgrwt>
<rscale>  0 0.60638293E+03</rscale>
<asrwt>0</asrwt>
<pdfrwt beam="1">  1        2 0.29583720E-01 0.60638293E+03</pdfrwt>
<pdfrwt beam="2">  1       -2 0.73545218E-01 0.60638293E+03</pdfrwt>
<totfact> 0.30472894E+02</totfact>
</mgrwt>
</event>
<event>
 4    1  0.1804641E-005  0.6213182E+03  0.7818608E-02  0.9862139E-01
         -2   -1    0    0    0  501 -0.00000000000E+00  0.00000000000E+00  0.20920818293E+03  0.20920818294E+03  0.25500000000E-02 0. -1.
          2   -1    0    0  501    0  0.00000000000E+00 -0.00000000000E+00 -0.46130634376E+03  0.46130634377E+03  0.25500000000E-02 0.  1.
   -5000001    1    1    2    0    0  0.16606247264E+03 -0.77784380812E+02 -0.14713891126E+03  0.34318655848E+03  0.25000000000E+03 0.  0.
    5000001    1    1    2    0    0 -0.16606247264E+03  0.77784380812E+02 -0.10495924958E+03  0.32732796823E+03  0.25000000000E+03 0.  0.
<mgrwt>
<rscale>  0 0.62131815E+03</rscale>
<asrwt>0</asrwt>
<pdfrwt beam="1">  1        2 0.70970207E-01 0.62131815E+03</pdfrwt>
<pdfrwt beam="2">  1       -2 0.32185874E-01 0.62131815E+03</pdfrwt>
<totfact> 0.61115758E+02</totfact>
</mgrwt>
</event>
<event>
 4    1  0.1804641E-005  0.7696691E+03  0.7818608E-02  0.9604988E-01
          2   -1    0    0  501    0  0.00000000000E+00  0.00000000000E+00  0.13877302122E+04  0.13877302122E+04  0.25500000000E-02 0.  1.
         -2   -1    0    0    0  501 -0.00000000000E+00 -0.00000000000E+00 -0.10671933509E+03  0.10671933512E+03  0.25500000000E-02 0. -1.
   -5000001    1    1    2    0    0  0.93409442998E+02  0.24841205940E+03  0.40140477405E+03  0.54227268779E+03  0.25000000000E+03 0.  0.
    5000001    1    1    2    0    0 -0.93409442998E+02 -0.24841205940E+03  0.87960610305E+03  0.95217685952E+03  0.25000000000E+03 0.  0.
<mgrwt>
<rscale>  0 0.76966914E+03</rscale>
<asrwt>0</asrwt>
<pdfrwt beam="1">  1        2 0.21349694E+00 0.76966914E+03</pdfrwt>
<pdfrwt beam="2">  1       -2 0.16418360E-01 0.76966914E+03</pdfrwt>
<totfact> 0.44603064E+02</totfact>
</mgrwt>
</event>
<event>
 4    1  0.1804641E-005  0.6277322E+03  0.7818608E-02  0.9849484E-01
         -2   -1    0    0    0  501 -0.00000000000E+00  0.00000000000E+00  0.53121379742E+02  0.53121379803E+02  0.25500000000E-02 0. -1.
          2   -1    0    0  501    0  0.00000000000E+00 -0.00000000000E+00 -0.18544688035E+04  0.18544688035E+04  0.25500000000E-02 0.  1.
   -5000001    1    1    2    0    0 -0.84968163022E+02  0.16044293388E+03 -0.73283570668E+03  0.79530478230E+03  0.25000000000E+03 0.  0.
    5000001    1    1    2    0    0  0.84968163022E+02 -0.16044293388E+03 -0.10685117171E+04  0.11122854010E+04  0.25000000000E+03 0.  0.
<mgrwt>
<rscale>  0 0.62773224E+03</rscale>
<asrwt>0</asrwt>
<pdfrwt beam="1">  1        2 0.28530284E+00 0.62773224E+03</pdfrwt>
<pdfrwt beam="2">  1       -2 0.81725214E-02 0.62773224E+03</pdfrwt>
<totfact> 0.78627197E+02</totfact>
</mgrwt>
</event>
<event>
 4    1  0.1804641E-005  0.8139289E+03  0.7818608E-02  0.9540072E-01
          2   -1    0    0  501    0  0.00000000000E+00  0.00000000000E+00  0.12962093573E+04  0.12962093573E+04  0.25500000000E-02 0.  1.
         -2   -1    0    0    0  501 -0.00000000000E+00 -0.00000000000E+00 -0.12777262922E+03  0.12777262924E+03  0.25500000000E-02 0. -1.
   -5000001    1    1    2    0    0 -0.19604111729E+03  0.44321001995E+02  0.10223791627E+04  0.10715202393E+04  0.25000000000E+03 0.  0.
    5000001    1    1    2    0    0  0.19604111729E+03 -0.44321001995E+02  0.14605756542E+03  0.35246174729E+03  0.25000000000E+03 0.  0.
<mgrwt>
<rscale>  0 0.81392893E+03</rscale>
<asrwt>0</asrwt>
<pdfrwt beam="1">  1        2 0.19941682E+00 0.81392893E+03</pdfrwt>
<pdfrwt beam="2">  1       -2 0.19657328E-01 0.81392893E+03</pdfrwt>
<totfact> 0.36781594E+02</totfact>
</mgrwt>
</event>
<event>
 4    1  0.1804641E-005  0.6321894E+03  0.7818608E-02  0.9840786E-01
         -2   -1    0    0    0  501 -0.00000000000E+00  0.00000000000E+00  0.45637399688E+02  0.45637399759E+02  0.25500000000E-02 0. -1.
          2   -1    0    0  501    0  0.00000000000E+00 -0.00000000000E+00 -0.21893417687E+04  0.21893417687E+04  0.25500000000E-02 0.  1.
   -5000001    1    1    2    0    0 -0.10941353780E+02  0.82492163922E+02 -0.16891766374E+04  0.17096029897E+04  0.25000000000E+03 0.  0.
    5000001    1    1    2    0    0  0.10941353780E+02 -0.82492163922E+02 -0.45452773171E+03  0.52537617877E+03  0.25000000000E+03 0.  0.
<mgrwt>
<rscale>  0 0.63218942E+03</rscale>
<asrwt>0</asrwt>
<pdfrwt beam="1">  1        2 0.33682173E+00 0.63218942E+03</pdfrwt>
<pdfrwt beam="2">  1       -2 0.70211401E-02 0.63218942E+03</pdfrwt>
<totfact> 0.65807775E+02</totfact>
</mgrwt>
</event>
<event>
 4    1  0.1804641E-005  0.6882386E+03  0.7818608E-02  0.9737560E-01
          2   -1    0    0  501    0  0.00000000000E+00  0.00000000000E+00  0.36472314459E+03  0.36472314459E+03  0.25500000000E-02 0.  1.
         -2   -1    0    0    0  501 -0.00000000000E+00 -0.00000000000E+00 -0.32467942672E+03  0.32467942673E+03  0.25500000000E-02 0. -1.
   -5000001    1    1    2    0    0  0.84257564632E+02  0.16635427768E+03 -0.12563733154E+03  0.33624072028E+03  0.25000000000E+03 0.  0.
    5000001    1    1    2    0    0 -0.84257564632E+02 -0.16635427768E+03  0.16568104940E+03  0.35316185104E+03  0.25000000000E+03 0.  0.
<mgrwt>
<rscale>  0 0.68823863E+03</rscale>
<asrwt>0</asrwt>
<pdfrwt beam="1">  1        2 0.56111253E-01 0.68823863E+03</pdfrwt>
<pdfrwt beam="2">  1       -2 0.49950681E-01 0.68823863E+03</pdfrwt>
<totfact> 0.33767537E+02</totfact>
</mgrwt>
</event>
<event>
 4    1  0.1804641E-005  0.1600501E+04  0.7818608E-02  0.8820240E-01
          2   -1    0    0  501    0  0.00000000000E+00  0.00000000000E+00  0.14417739878E+04  0.14417739878E+04  0.25500000000E-02 0.  1.
         -2   -1    0    0    0  501 -0.00000000000E+00 -0.00000000000E+00 -0.44417561117E+03  0.44417561118E+03  0.25500000000E-02 0. -1.
   -5000001    1    1    2    0    0 -0.11154946309E+03 -0.47926550257E+03  0.11815936660E+04  0.13041481113E+04  0.25000000000E+03 0.  0.
    5000001    1    1    2    0    0  0.11154946309E+03  0.47926550257E+03 -0.18399528931E+03  0.58180148775E+03  0.25000000000E+03 0.  0.
<mgrwt>
<rscale>  0 0.16005010E+04</rscale>
<asrwt>0</asrwt>
<pdfrwt beam="1">  1        2 0.22181138E+00 0.16005010E+04</pdfrwt>
<pdfrwt beam="2">  1       -2 0.68334711E-01 0.16005010E+04</pdfrwt>
<totfact> 0.25729887E+01</totfact>
</mgrwt>
</event>
<event>
 4    1  0.1804641E-005  0.9540680E+03  0.7818608E-02  0.9360408E-01
          2   -1    0    0  501    0  0.00000000000E+00  0.00000000000E+00  0.11141540676E+04  0.11141540676E+04  0.25500000000E-02 0.  1.
         -2   -1    0    0    0  501 -0.00000000000E+00 -0.00000000000E+00 -0.20424594421E+03  0.20424594422E+03  0.25500000000E-02 0. -1.
   -5000001    1    1    2    0    0  0.37904887391E+03  0.11969417149E+03  0.57103712761E+03  0.73931599780E+03  0.25000000000E+03 0.  0.
    5000001    1    1    2    0    0 -0.37904887391E+03 -0.11969417149E+03  0.33887099575E+03  0.57908401399E+03  0.25000000000E+03 0.  0.
<mgrwt>
<rscale>  0 0.95406803E+03</rscale>
<asrwt>0</asrwt>
<pdfrwt beam="1">  1        2 0.17140832E+00 0.95406803E+03</pdfrwt>
<pdfrwt beam="2">  1       -2 0.31422453E-01 0.95406803E+03</pdfrwt>
<totfact> 0.20054782E+02</totfact>
</mgrwt>
</event>
<event>
 4    1  0.1804641E-005  0.5831030E+03  0.7818608E-02  0.9941096E-01
         -2   -1    0    0    0  501 -0.00000000000E+00  0.00000000000E+00  0.49301272932E+02  0.49301272998E+02  0.25500000000E-02 0. -1.
          2   -1    0    0  501    0  0.00000000000E+00 -0.00000000000E+00 -0.17241394984E+04  0.17241394984E+04  0.25500000000E-02 0.  1.
   -5000001    1    1    2    0    0 -0.96788700423E+02 -0.78986634923E+02 -0.10899700506E+04  0.11252295998E+04  0.25000000000E+03 0.  0.
    5000001    1    1    2    0    0  0.96788700423E+02  0.78986634923E+02 -0.58486817480E+03  0.64821117155E+03  0.25000000000E+03 0.  0.
<mgrwt>
<rscale>  0 0.58310298E+03</rscale>
<asrwt>0</asrwt>
<pdfrwt beam="1">  1        2 0.26525218E+00 0.58310298E+03</pdfrwt>
<pdfrwt beam="2">  1       -2 0.75848125E-02 0.58310298E+03</pdfrwt>
<totfact> 0.10445276E+03</totfact>
</mgrwt>
</event>
<event>
 4    1  0.1804641E-005  0.1151284E+04  0.7818608E-02  0.9156600E-01
         -2   -1    0    0    0  501 -0.00000000000E+00  0.00000000000E+00  0.27444186434E+03  0.27444186435E+03  0.25500000000E-02 0. -1.
          2   -1    0    0  501    0  0.00000000000E+00 -0.00000000000E+00 -0.12074085544E+04  0.12074085544E+04  0.25500000000E-02 0.  1.
   -5000001    1    1    2    0    0  0.44221133348E+03  0.22588301628E+03 -0.27431945402E+03  0.61993964493E+03  0.25000000000E+03 0.  0.
    5000001    1    1    2    0    0 -0.44221133348E+03 -0.22588301628E+03 -0.65864723607E+03  0.86191077385E+03  0.25000000000E+03 0.  0.
<mgrwt>
<rscale>  0 0.11512836E+04</rscale>
<asrwt>0</asrwt>
<pdfrwt beam="1">  1        2 0.18575516E+00 0.11512836E+04</pdfrwt>
<pdfrwt beam="2">  1       -2 0.42221826E-01 0.11512836E+04</pdfrwt>
<totfact> 0.98603175E+01</totfact>
</mgrwt>
</event>
<event>
 4    1  0.1804641E-005  0.8637176E+03  0.7818608E-02  0.9472108E-01
          2   -1    0    0  501    0  0.00000000000E+00  0.00000000000E+00  0.19801332511E+03  0.19801332513E+03  0.25500000000E-02 0.  1.
         -2   -1    0    0    0  501 -0.00000000000E+00 -0.00000000000E+00 -0.94186599140E+03  0.94186599140E+03  0.25500000000E-02 0. -1.
   -5000001    1    1    2    0    0  0.11429348430E+03  0.24795340441E+03 -0.66542486787E+03  0.76146841437E+03  0.25000000000E+03 0.  0.
    5000001    1    1    2    0    0 -0.11429348430E+03 -0.24795340441E+03 -0.78427798419E+02  0.37841090216E+03  0.25000000000E+03 0.  0.
<mgrwt>
<rscale>  0 0.86371759E+03</rscale>
<asrwt>0</asrwt>
<pdfrwt beam="1">  1        2 0.30463589E-01 0.86371759E+03</pdfrwt>
<pdfrwt beam="2">  1       -2 0.14490246E+00 0.86371759E+03</pdfrwt>
<totfact> 0.57695668E+01</totfact>
</mgrwt>
</event>
<event>
 4    1  0.1804641E-005  0.9387729E+03  0.7818608E-02  0.9378370E-01
         -2   -1    0    0    0  501 -0.00000000000E+00  0.00000000000E+00  0.20590428026E+03  0.20590428028E+03  0.25500000000E-02 0. -1.
          2   -1    0    0  501    0  0.00000000000E+00 -0.00000000000E+00 -0.10700293179E+04  0.10700293179E+04  0.25500000000E-02 0.  1.
   -5000001    1    1    2    0    0 -0.14145275999E+03  0.26403877787E+03 -0.78674157992E+03  0.87817291754E+03  0.25000000000E+03 0.  0.
    5000001    1    1    2    0    0  0.14145275999E+03 -0.26403877787E+03 -0.77383457710E+02  0.39776068063E+03  0.25000000000E+03 0.  0.
<mgrwt>
<rscale>  0 0.93877285E+03</rscale>
<asrwt>0</asrwt>
<pdfrwt beam="1">  1        2 0.16461989E+00 0.93877285E+03</pdfrwt>
<pdfrwt beam="2">  1       -2 0.31677582E-01 0.93877285E+03</pdfrwt>
<totfact> 0.21049529E+02</totfact>
</mgrwt>
</event>
<event>
 4    1  0.1804641E-005  0.6807120E+03  0.7818608E-02  0.9750798E-01
         -2   -1    0    0    0  501 -0.00000000000E+00  0.00000000000E+00  0.69332753643E+02  0.69332753690E+02  0.25500000000E-02 0. -1.
          2   -1    0    0  501    0  0.00000000000E+00 -0.00000000000E+00 -0.16708148894E+04  0.16708148895E+04  0.25500000000E-02 0.  1.
   -5000001    1    1    2    0    0 -0.40287839836E+02 -0.22735926553E+03 -0.78749439136E+03  0.85788272047E+03  0.25000000000E+03 0.  0.
    5000001    1    1    2    0    0  0.40287839836E+02  0.22735926553E+03 -0.81398774445E+03  0.88226492267E+03  0.25000000000E+03 0.  0.
<mgrwt>
<rscale>  0 0.68071197E+03</rscale>
<asrwt>0</asrwt>
<pdfrwt beam="1">  1        2 0.25704841E+00 0.68071197E+03</pdfrwt>
<pdfrwt beam="2">  1       -2 0.10666579E-01 0.68071197E+03</pdfrwt>
<totfact> 0.64138519E+02</totfact>
</mgrwt>
</event>
<event>
 4    1  0.1804641E-005  0.8988266E+03  0.7818608E-02  0.9427049E-01
          2   -1    0    0  501    0  0.00000000000E+00  0.00000000000E+00  0.29345695959E+03  0.29345695960E+03  0.25500000000E-02 0.  1.
         -2   -1    0    0    0  501 -0.00000000000E+00 -0.00000000000E+00 -0.68825196210E+03  0.68825196210E+03  0.25500000000E-02 0. -1.
   -5000001    1    1    2    0    0 -0.10581373338E+03  0.35713085997E+03 -0.22697468411E+03  0.50274894782E+03  0.25000000000E+03 0.  0.
    5000001    1    1    2    0    0  0.10581373338E+03 -0.35713085997E+03 -0.16782031840E+03  0.47895997388E+03  0.25000000000E+03 0.  0.
<mgrwt>
<rscale>  0 0.89882663E+03</rscale>
<asrwt>0</asrwt>
<pdfrwt beam="1">  1        2 0.45147225E-01 0.89882663E+03</pdfrwt>
<pdfrwt beam="2">  1       -2 0.10588492E+00 0.89882663E+03</pdfrwt>
<totfact> 0.81327711E+01</totfact>
</mgrwt>
</event>
<event>
 4    1  0.1804641E-005  0.5268898E+03  0.7818608E-02  0.1006989E+00
         -2   -1    0    0    0  501 -0.00000000000E+00  0.00000000000E+00  0.28654047832E+03  0.28654047833E+03  0.25500000000E-02 0. -1.
          2   -1    0    0  501    0  0.00000000000E+00 -0.00000000000E+00 -0.24221088807E+03  0.24221088808E+03  0.25500000000E-02 0.  1.
   -5000001    1    1    2    0    0  0.57297283863E+02  0.17313472379E+02 -0.35662474373E+02  0.25952754602E+03  0.25000000000E+03 0.  0.
    5000001    1    1    2    0    0 -0.57297283863E+02 -0.17313472379E+02  0.79992064629E+02  0.26922382039E+03  0.25000000000E+03 0.  0.
<mgrwt>
<rscale>  0 0.52688983E+03</rscale>
<asrwt>0</asrwt>
<pdfrwt beam="1">  1        2 0.37263213E-01 0.52688983E+03</pdfrwt>
<pdfrwt beam="2">  1       -2 0.44083151E-01 0.52688983E+03</pdfrwt>
<totfact> 0.68432009E+02</totfact>
</mgrwt>
</event>
<event>
 4    1  0.1804641E-005  0.7130876E+03  0.7818608E-02  0.9695109E-01
         -2   -1    0    0    0  501 -0.00000000000E+00  0.00000000000E+00  0.96457347078E+02  0.96457347111E+02  0.25500000000E-02 0. -1.
          2   -1    0    0  501    0  0.00000000000E+00 -0.00000000000E+00 -0.13179244428E+04  0.13179244428E+04  0.25500000000E-02 0.  1.
   -5000001    1    1    2    0    0  0.20348099346E+03 -0.15160984286E+03 -0.58042899228E+03  0.68101973116E+03  0.25000000000E+03 0.  0.
    5000001    1    1    2    0    0 -0.20348099346E+03  0.15160984286E+03 -0.64103810343E+03  0.73336205874E+03  0.25000000000E+03 0.  0.
<mgrwt>
<rscale>  0 0.71308764E+03</rscale>
<asrwt>0</asrwt>
<pdfrwt beam="1">  1        2 0.20275759E+00 0.71308764E+03</pdfrwt>
<pdfrwt beam="2">  1       -2 0.14839593E-01 0.71308764E+03</pdfrwt>
<totfact> 0.58207038E+02</totfact>
</mgrwt>
</event>
<event>
 4    1  0.1804641E-005  0.5858590E+03  0.7818608E-02  0.9935186E-01
          2   -1    0    0  501    0  0.00000000000E+00  0.00000000000E+00  0.33832947018E+04  0.33832947018E+04  0.25500000000E-02 0.  1.
         -2   -1    0    0    0  501 -0.00000000000E+00 -0.00000000000E+00 -0.25362169493E+02  0.25362169622E+02  0.25500000000E-02 0. -1.
   -5000001    1    1    2    0    0 -0.14130886804E+03 -0.40191586111E+02  0.14373780778E+04  0.14663353294E+04  0.25000000000E+03 0.  0.
    5000001    1    1    2    0    0  0.14130886804E+03  0.40191586111E+02  0.19205544545E+04  0.19423215420E+04  0.25000000000E+03 0.  0.
<mgrwt>
<rscale>  0 0.58585901E+03</rscale>
<asrwt>0</asrwt>
<pdfrwt beam="1">  1        2 0.52050688E+00 0.58585901E+03</pdfrwt>
<pdfrwt beam="2">  1       -2 0.39018722E-02 0.58585901E+03</pdfrwt>
<totfact> 0.32428700E+02</totfact>
</mgrwt>
</event>
<event>
 4    1  0.1804641E-005  0.7732361E+03  0.7818608E-02  0.9599586E-01
          2   -1    0    0  501    0  0.00000000000E+00  0.00000000000E+00  0.10261066992E+04  0.10261066992E+04  0.25500000000E-02 0.  1.
         -2   -1    0    0    0  501 -0.00000000000E+00 -0.00000000000E+00 -0.14567053810E+03  0.14567053812E+03  0.25500000000E-02 0. -1.
   -5000001    1    1    2    0    0 -0.26682256738E+03  0.12329998810E+03  0.40383710069E+03  0.55855310708E+03  0.25000000000E+03 0.  0.
    5000001    1    1    2    0    0  0.26682256738E+03 -0.12329998810E+03  0.47659906037E+03  0.61322413021E+03  0.25000000000E+03 0.  0.
<mgrwt>
<rscale>  0 0.77323610E+03</rscale>
<asrwt>0</asrwt>
<pdfrwt beam="1">  1        2 0.15786257E+00 0.77323610E+03</pdfrwt>
<pdfrwt beam="2">  1       -2 0.22410852E-01 0.77323610E+03</pdfrwt>
<totfact> 0.42522943E+02</totfact>
</mgrwt>
</event>
<event>
 4    1  0.1804641E-005  0.6872980E+03  0.7818608E-02  0.9739204E-01
          2   -1    0    0  501    0  0.00000000000E+00  0.00000000000E+00  0.20859896926E+04  0.20859896926E+04  0.25500000000E-02 0.  1.
         -2   -1    0    0    0  501 -0.00000000000E+00 -0.00000000000E+00 -0.56613233228E+02  0.56613233285E+02  0.25500000000E-02 0. -1.
   -5000001    1    1    2    0    0  0.10620213444E+03 -0.20944915884E+03  0.94879477057E+03  0.10088901626E+04  0.25000000000E+03 0.  0.
    5000001    1    1    2    0    0 -0.10620213444E+03  0.20944915884E+03  0.10805816888E+04  0.11337127633E+04  0.25000000000E+03 0.  0.
<mgrwt>
<rscale>  0 0.68729796E+03</rscale>
<asrwt>0</asrwt>
<pdfrwt beam="1">  1        2 0.32092142E+00 0.68729796E+03</pdfrwt>
<pdfrwt beam="2">  1       -2 0.87097300E-02 0.68729796E+03</pdfrwt>
<totfact> 0.52927378E+02</totfact>
</mgrwt>
</event>
<event>
 4    1  0.1804641E-005  0.8270775E+03  0.7818608E-02  0.9521630E-01
         -2   -1    0    0    0  501 -0.00000000000E+00  0.00000000000E+00  0.39779305741E+03  0.39779305742E+03  0.25500000000E-02 0. -1.
          2   -1    0    0  501    0  0.00000000000E+00 -0.00000000000E+00 -0.42990770337E+03  0.42990770338E+03  0.25500000000E-02 0.  1.
   -5000001    1    1    2    0    0 -0.29642000833E+03 -0.11997816974E+03  0.63089043927E+02  0.41077951509E+03  0.25000000000E+03 0.  0.
    5000001    1    1    2    0    0  0.29642000833E+03  0.11997816974E+03 -0.95203689886E+02  0.41692124571E+03  0.25000000000E+03 0.  0.
<mgrwt>
<rscale>  0 0.82707750E+03</rscale>
<asrwt>0</asrwt>
<pdfrwt beam="1">  1        2 0.66139647E-01 0.82707750E+03</pdfrwt>
<pdfrwt beam="2">  1       -2 0.61198932E-01 0.82707750E+03</pdfrwt>
<totfact> 0.18320919E+02</totfact>
</mgrwt>
</event>
<event>
 4    1  0.1804641E-005  0.6339781E+03  0.7818608E-02  0.9837316E-01
         -2   -1    0    0    0  501 -0.00000000000E+00  0.00000000000E+00  0.48474265694E+02  0.48474265761E+02  0.25500000000E-02 0. -1.
          2   -1    0    0  501    0  0.00000000000E+00 -0.00000000000E+00 -0.20728950019E+04  0.20728950019E+04  0.25500000000E-02 0.  1.
   -5000001    1    1    2    0    0 -0.28196459853E+02  0.15383307759E+03 -0.62310340041E+03  0.68936021332E+03  0.25000000000E+03 0.  0.
    5000001    1    1    2    0    0  0.28196459853E+02 -0.15383307759E+03 -0.14013173358E+04  0.14320090544E+04  0.25000000000E+03 0.  0.
<mgrwt>
<rscale>  0 0.63397812E+03</rscale>
<asrwt>0</asrwt>
<pdfrwt beam="1">  1        2 0.31890685E+00 0.63397812E+03</pdfrwt>
<pdfrwt beam="2">  1       -2 0.74575810E-02 0.63397812E+03</pdfrwt>
<totfact> 0.69223994E+02</totfact>
</mgrwt>
</event>
<event>
 4    1  0.1804641E-005  0.1344260E+04  0.7818608E-02  0.8995184E-01
          2   -1    0    0  501    0  0.00000000000E+00  0.00000000000E+00  0.12024699811E+04  0.12024699811E+04  0.25500000000E-02 0.  1.
         -2   -1    0    0    0  501 -0.00000000000E+00 -0.00000000000E+00 -0.37569256385E+03  0.37569256385E+03  0.25500000000E-02 0. -1.
   -5000001    1    1    2    0    0 -0.12276757929E+03  0.61141264212E+03  0.39106007216E+03  0.77738361026E+03  0.25000000000E+03 0.  0.
    5000001    1    1    2    0    0  0.12276757929E+03 -0.61141264212E+03  0.43571734513E+03  0.80077893473E+03  0.25000000000E+03 0.  0.
<mgrwt>
<rscale>  0 0.13442604E+04</rscale>
<asrwt>0</asrwt>
<pdfrwt beam="1">  1        2 0.18499538E+00 0.13442604E+04</pdfrwt>
<pdfrwt beam="2">  1       -2 0.57798856E-01 0.13442604E+04</pdfrwt>
<totfact> 0.51688559E+01</totfact>
</mgrwt>
</event>
<event>
 4    1  0.1804641E-005  0.6134674E+03  0.7818608E-02  0.9877853E-01
          2   -1    0    0  501    0  0.00000000000E+00  0.00000000000E+00  0.70349052127E+03  0.70349052128E+03  0.25500000000E-02 0.  1.
         -2   -1    0    0    0  501 -0.00000000000E+00 -0.00000000000E+00 -0.13374105020E+03  0.13374105022E+03  0.25500000000E-02 0. -1.
   -5000001    1    1    2    0    0  0.92845906681E+02  0.89770753633E+02  0.11824954827E+03  0.30522468160E+03  0.25000000000E+03 0.  0.
    5000001    1    1    2    0    0 -0.92845906681E+02 -0.89770753633E+02  0.45149992281E+03  0.53200688989E+03  0.25000000000E+03 0.  0.
<mgrwt>
<rscale>  0 0.61346739E+03</rscale>
<asrwt>0</asrwt>
<pdfrwt beam="1">  1        2 0.10822931E+00 0.61346739E+03</pdfrwt>
<pdfrwt beam="2">  1       -2 0.20575546E-01 0.61346739E+03</pdfrwt>
<totfact> 0.83075680E+02</totfact>
</mgrwt>
</event>
<event>
 4    1  0.1804641E-005  0.7535235E+03  0.7818608E-02  0.9629839E-01
         -2   -1    0    0    0  501 -0.00000000000E+00  0.00000000000E+00  0.12300472819E+03  0.12300472821E+03  0.25500000000E-02 0. -1.
          2   -1    0    0  501    0  0.00000000000E+00 -0.00000000000E+00 -0.11540160749E+04  0.11540160749E+04  0.25500000000E-02 0.  1.
   -5000001    1    1    2    0    0  0.25381851624E+03 -0.95028319465E+02 -0.38428464066E+03  0.53256821698E+03  0.25000000000E+03 0.  0.
    5000001    1    1    2    0    0 -0.25381851624E+03  0.95028319465E+02 -0.64672670605E+03  0.74445258613E+03  0.25000000000E+03 0.  0.
<mgrwt>
<rscale>  0 0.75352355E+03</rscale>
<asrwt>0</asrwt>
<pdfrwt beam="1">  1        2 0.17754093E+00 0.75352355E+03</pdfrwt>
<pdfrwt beam="2">  1       -2 0.18923805E-01 0.75352355E+03</pdfrwt>
<totfact> 0.47800583E+02</totfact>
</mgrwt>
</event>
<event>
 4    1  0.1804641E-005  0.1253747E+04  0.7818608E-02  0.9067071E-01
         -2   -1    0    0    0  501 -0.00000000000E+00  0.00000000000E+00  0.24558199354E+03  0.24558199355E+03  0.25500000000E-02 0. -1.
          2   -1    0    0  501    0  0.00000000000E+00 -0.00000000000E+00 -0.16001587111E+04  0.16001587111E+04  0.25500000000E-02 0.  1.
   -5000001    1    1    2    0    0 -0.66912753057E+02 -0.34231952401E+03 -0.45646223909E+01  0.42916291641E+03  0.25000000000E+03 0.  0.
    5000001    1    1    2    0    0  0.66912753057E+02  0.34231952401E+03 -0.13500120952E+04  0.14165777882E+04  0.25000000000E+03 0.  0.
<mgrwt>
<rscale>  0 0.12537467E+04</rscale>
<asrwt>0</asrwt>
<pdfrwt beam="1">  1        2 0.24617826E+00 0.12537467E+04</pdfrwt>
<pdfrwt beam="2">  1       -2 0.37781846E-01 0.12537467E+04</pdfrwt>
<totfact> 0.72442917E+01</totfact>
</mgrwt>
</event>
<event>
 4    1  0.1804641E-005  0.8890340E+03  0.7818608E-02  0.9439394E-01
          2   -1    0    0  501    0  0.00000000000E+00  0.00000000000E+00  0.14102603896E+04  0.14102603896E+04  0.25500000000E-02 0.  1.
         -2   -1    0    0    0  501 -0.00000000000E+00 -0.00000000000E+00 -0.14011266913E+03  0.14011266915E+03  0.25500000000E-02 0. -1.
   -5000001    1    1    2    0    0 -0.31335479278E+03 -0.19199315538E+03  0.64647592174E+03  0.78452770204E+03  0.25000000000E+03 0.  0.
    5000001    1    1    2    0    0  0.31335479278E+03  0.19199315538E+03  0.62367179868E+03  0.76584535667E+03  0.25000000000E+03 0.  0.
<mgrwt>
<rscale>  0 0.88903396E+03</rscale>
<asrwt>0</asrwt>
<pdfrwt beam="1">  1        2 0.21696313E+00 0.88903396E+03</pdfrwt>
<pdfrwt beam="2">  1       -2 0.21555796E-01 0.88903396E+03</pdfrwt>
<totfact> 0.26794535E+02</totfact>
</mgrwt>
</event>
<event>
 4    1  0.1804641E-005  0.9577214E+03  0.7818608E-02  0.9356171E-01
          2   -1    0    0  501    0  0.00000000000E+00  0.00000000000E+00  0.20126405346E+04  0.20126405346E+04  0.25500000000E-02 0.  1.
         -2   -1    0    0    0  501 -0.00000000000E+00 -0.00000000000E+00 -0.11393369930E+03  0.11393369932E+03  0.25500000000E-02 0. -1.
   -5000001    1    1    2    0    0 -0.29046540870E+03  0.10928162310E+03  0.15389030364E+04  0.15896651163E+04  0.25000000000E+03 0.  0.
    5000001    1    1    2    0    0  0.29046540870E+03 -0.10928162310E+03  0.35980379892E+03  0.53690911756E+03  0.25000000000E+03 0.  0.
<mgrwt>
<rscale>  0 0.95772142E+03</rscale>
<asrwt>0</asrwt>
<pdfrwt beam="1">  1        2 0.30963699E+00 0.95772142E+03</pdfrwt>
<pdfrwt beam="2">  1       -2 0.17528262E-01 0.95772142E+03</pdfrwt>
<totfact> 0.17779144E+02</totfact>
</mgrwt>
</event>
<event>
 4    1  0.1804641E-005  0.5661746E+03  0.7818608E-02  0.9978180E-01
         -2   -1    0    0    0  501 -0.00000000000E+00  0.00000000000E+00  0.51558294291E+03  0.51558294291E+03  0.25500000000E-02 0. -1.
          2   -1    0    0  501    0  0.00000000000E+00 -0.00000000000E+00 -0.15543266277E+03  0.15543266280E+03  0.25500000000E-02 0.  1.
   -5000001    1    1    2    0    0 -0.52076132434E+02  0.11111164984E+03  0.11986750136E+03  0.30319290919E+03  0.25000000000E+03 0.  0.
    5000001    1    1    2    0    0  0.52076132434E+02 -0.11111164984E+03  0.24028277878E+03  0.36782269652E+03  0.25000000000E+03 0.  0.
<mgrwt>
<rscale>  0 0.56617464E+03</rscale>
<asrwt>0</asrwt>
<pdfrwt beam="1">  1        2 0.23912717E-01 0.56617464E+03</pdfrwt>
<pdfrwt beam="2">  1       -2 0.79320453E-01 0.56617464E+03</pdfrwt>
<totfact> 0.32856433E+02</totfact>
</mgrwt>
</event>
<event>
 4    1  0.1804641E-005  0.5132228E+03  0.7818608E-02  0.1010384E+00
          2   -1    0    0  501    0  0.00000000000E+00  0.00000000000E+00  0.17529163982E+04  0.17529163982E+04  0.25500000000E-02 0.  1.
         -2   -1    0    0    0  501 -0.00000000000E+00 -0.00000000000E+00 -0.37565633263E+02  0.37565633350E+02  0.25500000000E-02 0. -1.
   -5000001    1    1    2    0    0 -0.55447001019E+02  0.16486494146E+02  0.85139549915E+03  0.88922464563E+03  0.25000000000E+03 0.  0.
    5000001    1    1    2    0    0  0.55447001019E+02 -0.16486494146E+02  0.86395526581E+03  0.90125738595E+03  0.25000000000E+03 0.  0.
<mgrwt>
<rscale>  0 0.51322282E+03</rscale>
<asrwt>0</asrwt>
<pdfrwt beam="1">  1        2 0.26967942E+00 0.51322282E+03</pdfrwt>
<pdfrwt beam="2">  1       -2 0.57793287E-02 0.51322282E+03</pdfrwt>
<totfact> 0.15508120E+03</totfact>
</mgrwt>
</event>
<event>
 4    1  0.1804641E-005  0.6271570E+03  0.7818608E-02  0.9850613E-01
          2   -1    0    0  501    0  0.00000000000E+00  0.00000000000E+00  0.66497808308E+03  0.66497808308E+03  0.25500000000E-02 0. -1.
         -2   -1    0    0    0  501 -0.00000000000E+00 -0.00000000000E+00 -0.14787174327E+03  0.14787174329E+03  0.25500000000E-02 0.  1.
   -5000001    1    1    2    0    0  0.10933255732E+03  0.15406873662E+03  0.24318021017E+03  0.39664517937E+03  0.25000000000E+03 0.  0.
    5000001    1    1    2    0    0 -0.10933255732E+03 -0.15406873662E+03  0.27392612964E+03  0.41620464701E+03  0.25000000000E+03 0.  0.
<mgrwt>
<rscale>  0 0.62715698E+03</rscale>
<asrwt>0</asrwt>
<pdfrwt beam="1">  1        2 0.10230432E+00 0.62715698E+03</pdfrwt>
<pdfrwt beam="2">  1       -2 0.22749499E-01 0.62715698E+03</pdfrwt>
<totfact> 0.74632342E+02</totfact>
</mgrwt>
</event>
<event>
 4    1  0.1804641E-005  0.7219274E+03  0.7818608E-02  0.9680451E-01
         -2   -1    0    0    0  501 -0.00000000000E+00  0.00000000000E+00  0.49204696791E+02  0.49204696857E+02  0.25500000000E-02 0. -1.
          2   -1    0    0  501    0  0.00000000000E+00 -0.00000000000E+00 -0.26480156096E+04  0.26480156096E+04  0.25500000000E-02 0.  1.
   -5000001    1    1    2    0    0  0.25907657125E+03 -0.15776960057E+02 -0.13764481144E+04  0.14228418724E+04  0.25000000000E+03 0.  0.
    5000001    1    1    2    0    0 -0.25907657125E+03  0.15776960057E+02 -0.12223627984E+04  0.12743784341E+04  0.25000000000E+03 0.  0.
<mgrwt>
<rscale>  0 0.72192743E+03</rscale>
<asrwt>0</asrwt>
<pdfrwt beam="1">  1        2 0.40738690E+00 0.72192743E+03</pdfrwt>
<pdfrwt beam="2">  1       -2 0.75699555E-02 0.72192743E+03</pdfrwt>
<totfact> 0.32038958E+02</totfact>
</mgrwt>
</event>
<event>
 4    1  0.1804641E-005  0.9642270E+03  0.7818608E-02  0.9348674E-01
          2   -1    0    0  501    0  0.00000000000E+00  0.00000000000E+00  0.83856439246E+03  0.83856439246E+03  0.25500000000E-02 0.  1.
         -2   -1    0    0    0  501 -0.00000000000E+00 -0.00000000000E+00 -0.27718015339E+03  0.27718015340E+03  0.25500000000E-02 0. -1.
   -5000001    1    1    2    0    0 -0.19312461370E+03  0.27583695252E+03  0.55210134844E+01  0.41942057935E+03  0.25000000000E+03 0.  0.
    5000001    1    1    2    0    0  0.19312461370E+03 -0.27583695252E+03  0.55586322558E+03  0.69632396652E+03  0.25000000000E+03 0.  0.
<mgrwt>
<rscale>  0 0.96422696E+03</rscale>
<asrwt>0</asrwt>
<pdfrwt beam="1">  1        2 0.12900990E+00 0.96422696E+03</pdfrwt>
<pdfrwt beam="2">  1       -2 0.42643101E-01 0.96422696E+03</pdfrwt>
<totfact> 0.16847841E+02</totfact>
</mgrwt>
</event>
<event>
 4    1  0.1804641E-005  0.7362390E+03  0.7818608E-02  0.9657190E-01
         -2   -1    0    0    0  501 -0.00000000000E+00  0.00000000000E+00  0.72858193309E+03  0.72858193309E+03  0.25500000000E-02 0. -1.
          2   -1    0    0  501    0  0.00000000000E+00 -0.00000000000E+00 -0.18599414657E+03  0.18599414659E+03  0.25500000000E-02 0.  1.
   -5000001    1    1    2    0    0  0.13010014992E+03  0.23426482045E+03  0.22815587295E+03  0.43169567692E+03  0.25000000000E+03 0.  0.
    5000001    1    1    2    0    0 -0.13010014992E+03 -0.23426482045E+03  0.31443191356E+03  0.48288040277E+03  0.25000000000E+03 0.  0.
<mgrwt>
<rscale>  0 0.73623902E+03</rscale>
<asrwt>0</asrwt>
<pdfrwt beam="1">  1        2 0.28614484E-01 0.73623902E+03</pdfrwt>
<pdfrwt beam="2">  1       -2 0.11208953E+00 0.73623902E+03</pdfrwt>
<totfact> 0.11899185E+02</totfact>
</mgrwt>
</event>
<event>
 4    1  0.1804641E-005  0.7442290E+03  0.7818608E-02  0.9644448E-01
          2   -1    0    0  501    0  0.00000000000E+00  0.00000000000E+00  0.43283856778E+03  0.43283856779E+03  0.25500000000E-02 0.  1.
         -2   -1    0    0    0  501 -0.00000000000E+00 -0.00000000000E+00 -0.31990954787E+03  0.31990954788E+03  0.25500000000E-02 0. -1.
   -5000001    1    1    2    0    0 -0.26954422335E+03  0.48604600378E+02  0.87683586283E+02  0.38105761614E+03  0.25000000000E+03 0.  0.
    5000001    1    1    2    0    0  0.26954422335E+03 -0.48604600378E+02  0.25245433633E+02  0.37169049953E+03  0.25000000000E+03 0.  0.
<mgrwt>
<rscale>  0 0.74422897E+03</rscale>
<asrwt>0</asrwt>
<pdfrwt beam="1">  1        2 0.66590548E-01 0.74422897E+03</pdfrwt>
<pdfrwt beam="2">  1       -2 0.49216854E-01 0.74422897E+03</pdfrwt>
<totfact> 0.28655150E+02</totfact>
</mgrwt>
</event>
<event>
 4    1  0.1804641E-005  0.7150199E+03  0.7818608E-02  0.9691885E-01
          2   -1    0    0  501    0  0.00000000000E+00  0.00000000000E+00  0.27903474292E+04  0.27903474292E+04  0.25500000000E-02 0.  1.
         -2   -1    0    0    0  501 -0.00000000000E+00 -0.00000000000E+00 -0.45805535400E+02  0.45805535471E+02  0.25500000000E-02 0. -1.
   -5000001    1    1    2    0    0  0.20431495221E+03  0.13606283155E+03  0.10902374819E+04  0.11451530294E+04  0.25000000000E+03 0.  0.
    5000001    1    1    2    0    0 -0.20431495221E+03 -0.13606283155E+03  0.16543044119E+04  0.16909999352E+04  0.25000000000E+03 0.  0.
<mgrwt>
<rscale>  0 0.71501988E+03</rscale>
<asrwt>0</asrwt>
<pdfrwt beam="1">  1        2 0.42928417E+00 0.71501988E+03</pdfrwt>
<pdfrwt beam="2">  1       -2 0.70470062E-02 0.71501988E+03</pdfrwt>
<totfact> 0.29677496E+02</totfact>
</mgrwt>
</event>
<event>
 4    1  0.1804641E-005  0.7938023E+03  0.7818608E-02  0.9569032E-01
          2   -1    0    0  501    0  0.00000000000E+00  0.00000000000E+00  0.11018634720E+03  0.11018634723E+03  0.25500000000E-02 0.  1.
         -2   -1    0    0    0  501 -0.00000000000E+00 -0.00000000000E+00 -0.14296738500E+04  0.14296738500E+04  0.25500000000E-02 0. -1.
   -5000001    1    1    2    0    0  0.24194588543E+03 -0.19088083423E+03 -0.67441946915E+03  0.78250554293E+03  0.25000000000E+03 0.  0.
    5000001    1    1    2    0    0 -0.24194588543E+03  0.19088083423E+03 -0.64506803364E+03  0.75735465429E+03  0.25000000000E+03 0.  0.
<mgrwt>
<rscale>  0 0.79380234E+03</rscale>
<asrwt>0</asrwt>
<pdfrwt beam="1">  1        2 0.16951747E-01 0.79380234E+03</pdfrwt>
<pdfrwt beam="2">  1       -2 0.21994981E+00 0.79380234E+03</pdfrwt>
<totfact> 0.34818291E+01</totfact>
</mgrwt>
</event>
<event>
 4    1  0.1804641E-005  0.7767816E+03  0.7818608E-02  0.9594246E-01
          2   -1    0    0  501    0  0.00000000000E+00  0.00000000000E+00  0.63846363561E+03  0.63846363562E+03  0.25500000000E-02 0.  1.
         -2   -1    0    0    0  501 -0.00000000000E+00 -0.00000000000E+00 -0.23626626933E+03  0.23626626935E+03  0.25500000000E-02 0. -1.
   -5000001    1    1    2    0    0  0.21546570958E+03  0.12934213882E+03  0.37983433470E+03  0.51954690134E+03  0.25000000000E+03 0.  0.
    5000001    1    1    2    0    0 -0.21546570958E+03 -0.12934213882E+03  0.22363031583E+02  0.35518300362E+03  0.25000000000E+03 0.  0.
<mgrwt>
<rscale>  0 0.77678162E+03</rscale>
<asrwt>0</asrwt>
<pdfrwt beam="1">  1        2 0.98225173E-01 0.77678162E+03</pdfrwt>
<pdfrwt beam="2">  1       -2 0.36348658E-01 0.77678162E+03</pdfrwt>
<totfact> 0.32943427E+02</totfact>
</mgrwt>
</event>
<event>
 4    1  0.1804641E-005  0.6728426E+03  0.7818608E-02  0.9764836E-01
          2   -1    0    0  501    0  0.00000000000E+00  0.00000000000E+00  0.25888163345E+04  0.25888163345E+04  0.25500000000E-02 0.  1.
         -2   -1    0    0    0  501 -0.00000000000E+00 -0.00000000000E+00 -0.43718541888E+02  0.43718541963E+02  0.25500000000E-02 0. -1.
   -5000001    1    1    2    0    0 -0.14013509531E+03  0.17534230063E+03  0.12051769666E+04  0.12511332016E+04  0.25000000000E+03 0.  0.
    5000001    1    1    2    0    0  0.14013509531E+03 -0.17534230063E+03  0.13399208260E+04  0.13814016749E+04  0.25000000000E+03 0.  0.
<mgrwt>
<rscale>  0 0.67284255E+03</rscale>
<asrwt>0</asrwt>
<pdfrwt beam="1">  1        2 0.39827956E+00 0.67284255E+03</pdfrwt>
<pdfrwt beam="2">  1       -2 0.67259274E-02 0.67284255E+03</pdfrwt>
<totfact> 0.41997963E+02</totfact>
</mgrwt>
</event>
<event>
 4    1  0.1804641E-005  0.8376570E+03  0.7818608E-02  0.9507055E-01
         -2   -1    0    0    0  501 -0.00000000000E+00  0.00000000000E+00  0.13680566036E+03  0.13680566039E+03  0.25500000000E-02 0. -1.
          2   -1    0    0  501    0  0.00000000000E+00 -0.00000000000E+00 -0.12822371104E+04  0.12822371104E+04  0.25500000000E-02 0.  1.
   -5000001    1    1    2    0    0  0.30675272323E+03  0.10469487166E+03 -0.42253500536E+03  0.58829761185E+03  0.25000000000E+03 0.  0.
    5000001    1    1    2    0    0 -0.30675272323E+03 -0.10469487166E+03 -0.72289644464E+03  0.83074515890E+03  0.25000000000E+03 0.  0.
<mgrwt>
<rscale>  0 0.83765696E+03</rscale>
<asrwt>0</asrwt>
<pdfrwt beam="1">  1        2 0.19726724E+00 0.83765696E+03</pdfrwt>
<pdfrwt beam="2">  1       -2 0.21047026E-01 0.83765696E+03</pdfrwt>
<totfact> 0.33195602E+02</totfact>
</mgrwt>
</event>
<event>
 4    1  0.1804641E-005  0.9245738E+03  0.7818608E-02  0.9395374E-01
          2   -1    0    0  501    0  0.00000000000E+00  0.00000000000E+00  0.45725303267E+03  0.45725303268E+03  0.25500000000E-02 0.  1.
         -2   -1    0    0    0  501 -0.00000000000E+00 -0.00000000000E+00 -0.46737617016E+03  0.46737617017E+03  0.25500000000E-02 0. -1.
   -5000001    1    1    2    0    0  0.12248602127E+03 -0.20242795637E+03 -0.31367246353E+03  0.46569337262E+03  0.25000000000E+03 0.  0.
    5000001    1    1    2    0    0 -0.12248602127E+03  0.20242795637E+03  0.30354932603E+03  0.45893583022E+03  0.25000000000E+03 0.  0.
<mgrwt>
<rscale>  0 0.92457379E+03</rscale>
<asrwt>0</asrwt>
<pdfrwt beam="1">  1        2 0.70346621E-01 0.92457379E+03</pdfrwt>
<pdfrwt beam="2">  1       -2 0.71904026E-01 0.92457379E+03</pdfrwt>
<totfact> 0.12003170E+02</totfact>
</mgrwt>
</event>
<event>
 4    1  0.1804641E-005  0.8111980E+03  0.7818608E-02  0.9543948E-01
         -2   -1    0    0    0  501 -0.00000000000E+00  0.00000000000E+00  0.72223353870E+02  0.72223353915E+02  0.25500000000E-02 0. -1.
          2   -1    0    0  501    0  0.00000000000E+00 -0.00000000000E+00 -0.22778025232E+04  0.22778025233E+04  0.25500000000E-02 0.  1.
   -5000001    1    1    2    0    0 -0.46837849880E+02 -0.84505951785E+02 -0.22087149405E+03  0.34730283177E+03  0.25000000000E+03 0.  0.
    5000001    1    1    2    0    0  0.46837849880E+02  0.84505951785E+02 -0.19847076753E+04  0.20027230454E+04  0.25000000000E+03 0.  0.
<mgrwt>
<rscale>  0 0.81119797E+03</rscale>
<asrwt>0</asrwt>
<pdfrwt beam="1">  1        2 0.35043110E+00 0.81119797E+03</pdfrwt>
<pdfrwt beam="2">  1       -2 0.11111287E-01 0.81119797E+03</pdfrwt>
<totfact> 0.27658068E+02</totfact>
</mgrwt>
</event>
<event>
 4    1  0.1804641E-005  0.7070668E+03  0.7818608E-02  0.9705223E-01
         -2   -1    0    0    0  501 -0.00000000000E+00  0.00000000000E+00  0.66349479889E+02  0.66349479938E+02  0.25500000000E-02 0. -1.
          2   -1    0    0  501    0  0.00000000000E+00 -0.00000000000E+00 -0.18837502554E+04  0.18837502554E+04  0.25500000000E-02 0.  1.
   -5000001    1    1    2    0    0  0.21810115508E+03  0.10887134050E+03 -0.10613849550E+04  0.11173446672E+04  0.25000000000E+03 0.  0.
    5000001    1    1    2    0    0 -0.21810115508E+03 -0.10887134050E+03 -0.75601582044E+03  0.83275506807E+03  0.25000000000E+03 0.  0.
<mgrwt>
<rscale>  0 0.70706676E+03</rscale>
<asrwt>0</asrwt>
<pdfrwt beam="1">  1        2 0.28980769E+00 0.70706676E+03</pdfrwt>
<pdfrwt beam="2">  1       -2 0.10207614E-01 0.70706676E+03</pdfrwt>
<totfact> 0.52676311E+02</totfact>
</mgrwt>
</event>
<event>
 4    1  0.1804641E-005  0.6451685E+03  0.7818608E-02  0.9815888E-01
          2   -1    0    0  501    0  0.00000000000E+00  0.00000000000E+00  0.11640620039E+03  0.11640620042E+03  0.25500000000E-02 0.  1.
         -2   -1    0    0    0  501 -0.00000000000E+00 -0.00000000000E+00 -0.89394379603E+03  0.89394379604E+03  0.25500000000E-02 0. -1.
   -5000001    1    1    2    0    0  0.17603879901E+03  0.10035799016E+03 -0.35377888862E+03  0.47824772554E+03  0.25000000000E+03 0.  0.
    5000001    1    1    2    0    0 -0.17603879901E+03 -0.10035799016E+03 -0.42375870702E+03  0.53210227092E+03  0.25000000000E+03 0.  0.
<mgrwt>
<rscale>  0 0.64516851E+03</rscale>
<asrwt>0</asrwt>
<pdfrwt beam="1">  1        2 0.17908647E-01 0.64516851E+03</pdfrwt>
<pdfrwt beam="2">  1       -2 0.13752981E+00 0.64516851E+03</pdfrwt>
<totfact> 0.12352648E+02</totfact>
</mgrwt>
</event>
<event>
 4    1  0.1804641E-005  0.1251959E+04  0.7818608E-02  0.9068555E-01
          2   -1    0    0  501    0  0.00000000000E+00  0.00000000000E+00  0.37339259056E+04  0.37339259056E+04  0.25500000000E-02 0.  1.
         -2   -1    0    0    0  501 -0.00000000000E+00 -0.00000000000E+00 -0.10494317911E+03  0.10494317914E+03  0.25500000000E-02 0. -1.
   -5000001    1    1    2    0    0 -0.31063211084E+03 -0.26418679206E+03  0.57629028368E+03  0.74893087829E+03  0.25000000000E+03 0.  0.
    5000001    1    1    2    0    0  0.31063211084E+03  0.26418679206E+03  0.30526924428E+04  0.30899382064E+04  0.25000000000E+03 0.  0.
<mgrwt>
<rscale>  0 0.12519586E+04</rscale>
<asrwt>0</asrwt>
<pdfrwt beam="1">  1        2 0.57445002E+00 0.12519586E+04</pdfrwt>
<pdfrwt beam="2">  1       -2 0.16145108E-01 0.12519586E+04</pdfrwt>
<totfact> 0.17273624E+01</totfact>
</mgrwt>
</event>
<event>
 4    1  0.1804641E-005  0.1131572E+04  0.7818608E-02  0.9174955E-01
         -2   -1    0    0    0  501 -0.00000000000E+00  0.00000000000E+00  0.18242620707E+03  0.18242620709E+03  0.25500000000E-02 0. -1.
          2   -1    0    0  501    0  0.00000000000E+00 -0.00000000000E+00 -0.17547572756E+04  0.17547572756E+04  0.25500000000E-02 0.  1.
   -5000001    1    1    2    0    0  0.37848876998E+03  0.30299422519E+03 -0.52906387288E+03  0.75991304179E+03  0.25000000000E+03 0.  0.
    5000001    1    1    2    0    0 -0.37848876998E+03 -0.30299422519E+03 -0.10432671957E+04  0.11772704409E+04  0.25000000000E+03 0.  0.
<mgrwt>
<rscale>  0 0.11315719E+04</rscale>
<asrwt>0</asrwt>
<pdfrwt beam="1">  1        2 0.26996265E+00 0.11315719E+04</pdfrwt>
<pdfrwt beam="2">  1       -2 0.28065572E-01 0.11315719E+04</pdfrwt>
<totfact> 0.10518064E+02</totfact>
</mgrwt>
</event>
<event>
 4    1  0.1804641E-005  0.6147112E+03  0.7818608E-02  0.9875346E-01
          2   -1    0    0  501    0  0.00000000000E+00  0.00000000000E+00  0.47494828101E+03  0.47494828101E+03  0.25500000000E-02 0.  1.
         -2   -1    0    0    0  501 -0.00000000000E+00 -0.00000000000E+00 -0.19890052001E+03  0.19890052002E+03  0.25500000000E-02 0. -1.
   -5000001    1    1    2    0    0  0.15391256538E+03  0.65687520153E+02  0.20703713829E+03  0.36519625507E+03  0.25000000000E+03 0.  0.
    5000001    1    1    2    0    0 -0.15391256538E+03 -0.65687520153E+02  0.69010622714E+02  0.30865254597E+03  0.25000000000E+03 0.  0.
<mgrwt>
<rscale>  0 0.61471118E+03</rscale>
<asrwt>0</asrwt>
<pdfrwt beam="1">  1        2 0.73068967E-01 0.61471118E+03</pdfrwt>
<pdfrwt beam="2">  1       -2 0.30600080E-01 0.61471118E+03</pdfrwt>
<totfact> 0.64959268E+02</totfact>
</mgrwt>
</event>
<event>
 4    1  0.1804641E-005  0.7008484E+03  0.7818608E-02  0.9715782E-01
         -2   -1    0    0    0  501 -0.00000000000E+00  0.00000000000E+00  0.14487626111E+03  0.14487626113E+03  0.25500000000E-02 0. -1.
          2   -1    0    0  501    0  0.00000000000E+00 -0.00000000000E+00 -0.84760006986E+03  0.84760006986E+03  0.25500000000E-02 0.  1.
   -5000001    1    1    2    0    0  0.11348604843E+03  0.20495150122E+03 -0.45554858014E+03  0.57000764022E+03  0.25000000000E+03 0.  0.
    5000001    1    1    2    0    0 -0.11348604843E+03 -0.20495150122E+03 -0.24717522861E+03  0.42246869077E+03  0.25000000000E+03 0.  0.
<mgrwt>
<rscale>  0 0.70084843E+03</rscale>
<asrwt>0</asrwt>
<pdfrwt beam="1">  1        2 0.13040001E+00 0.70084843E+03</pdfrwt>
<pdfrwt beam="2">  1       -2 0.22288656E-01 0.70084843E+03</pdfrwt>
<totfact> 0.56471262E+02</totfact>
</mgrwt>
</event>
<event>
 4    1  0.1804641E-005  0.1604335E+04  0.7818608E-02  0.8817889E-01
          2   -1    0    0  501    0  0.00000000000E+00  0.00000000000E+00  0.48288957350E+03  0.48288957350E+03  0.25500000000E-02 0.  1.
         -2   -1    0    0    0  501 -0.00000000000E+00 -0.00000000000E+00 -0.13325466016E+04  0.13325466016E+04  0.25500000000E-02 0. -1.
   -5000001    1    1    2    0    0  0.51121537799E+03  0.32798527649E+03  0.96261251164E+02  0.66383863458E+03  0.25000000000E+03 0.  0.
    5000001    1    1    2    0    0 -0.51121537799E+03 -0.32798527649E+03 -0.94591827922E+03  0.11515975405E+04  0.25000000000E+03 0.  0.
<mgrwt>
<rscale>  0 0.16043352E+04</rscale>
<asrwt>0</asrwt>
<pdfrwt beam="1">  1        2 0.74290704E-01 0.16043352E+04</pdfrwt>
<pdfrwt beam="2">  1       -2 0.20500717E+00 0.16043352E+04</pdfrwt>
<totfact> 0.75747400E+00</totfact>
</mgrwt>
</event>
<event>
 4    1  0.1804641E-005  0.7478349E+03  0.7818608E-02  0.9638753E-01
          2   -1    0    0  501    0  0.00000000000E+00  0.00000000000E+00  0.15873853820E+04  0.15873853820E+04  0.25500000000E-02 0.  1.
         -2   -1    0    0    0  501 -0.00000000000E+00 -0.00000000000E+00 -0.88078339190E+02  0.88078339227E+02  0.25500000000E-02 0. -1.
   -5000001    1    1    2    0    0 -0.11584168673E+03  0.20307913444E+03  0.41244373449E+03  0.53597599326E+03  0.25000000000E+03 0.  0.
    5000001    1    1    2    0    0  0.11584168673E+03 -0.20307913444E+03  0.10868633084E+04  0.11394877280E+04  0.25000000000E+03 0.  0.
<mgrwt>
<rscale>  0 0.74783492E+03</rscale>
<asrwt>0</asrwt>
<pdfrwt beam="1">  1        2 0.24421313E+00 0.74783492E+03</pdfrwt>
<pdfrwt beam="2">  1       -2 0.13550514E-01 0.74783492E+03</pdfrwt>
<totfact> 0.47795276E+02</totfact>
</mgrwt>
</event>
<event>
 4    1  0.1804641E-005  0.1273987E+04  0.7818608E-02  0.9050452E-01
          2   -1    0    0  501    0  0.00000000000E+00  0.00000000000E+00  0.13920996861E+04  0.13920996861E+04  0.25500000000E-02 0.  1.
         -2   -1    0    0    0  501 -0.00000000000E+00 -0.00000000000E+00 -0.29147387070E+03  0.29147387071E+03  0.25500000000E-02 0. -1.
   -5000001    1    1    2    0    0 -0.15920748571E+03 -0.35184913602E+03 -0.31921159102E+02  0.46115485298E+03  0.25000000000E+03 0.  0.
    5000001    1    1    2    0    0  0.15920748571E+03  0.35184913602E+03  0.11325469745E+04  0.12224187039E+04  0.25000000000E+03 0.  0.
<mgrwt>
<rscale>  0 0.12739869E+04</rscale>
<asrwt>0</asrwt>
<pdfrwt beam="1">  1        2 0.21416918E+00 0.12739869E+04</pdfrwt>
<pdfrwt beam="2">  1       -2 0.44842135E-01 0.12739869E+04</pdfrwt>
<totfact> 0.67687418E+01</totfact>
</mgrwt>
</event>
<event>
 4    1  0.1804641E-005  0.5940055E+03  0.7818608E-02  0.9917921E-01
         -2   -1    0    0    0  501 -0.00000000000E+00  0.00000000000E+00  0.99445686777E+02  0.99445686810E+02  0.25500000000E-02 0. -1.
          2   -1    0    0  501    0  0.00000000000E+00 -0.00000000000E+00 -0.88702317141E+03  0.88702317142E+03  0.25500000000E-02 0.  1.
   -5000001    1    1    2    0    0 -0.19300913639E+02 -0.68364430723E+02 -0.63251731857E+03  0.68383066540E+03  0.25000000000E+03 0.  0.
    5000001    1    1    2    0    0  0.19300913639E+02  0.68364430723E+02 -0.15506016607E+03  0.30263819283E+03  0.25000000000E+03 0.  0.
<mgrwt>
<rscale>  0 0.59400548E+03</rscale>
<asrwt>0</asrwt>
<pdfrwt beam="1">  1        2 0.13646510E+00 0.59400548E+03</pdfrwt>
<pdfrwt beam="2">  1       -2 0.15299337E-01 0.59400548E+03</pdfrwt>
<totfact> 0.10202568E+03</totfact>
</mgrwt>
</event>
<event>
 4    1  0.1804641E-005  0.7809750E+03  0.7818608E-02  0.9587971E-01
          2   -1    0    0  501    0  0.00000000000E+00  0.00000000000E+00  0.14962311985E+04  0.14962311985E+04  0.25500000000E-02 0. -1.
         -2   -1    0    0    0  501 -0.00000000000E+00 -0.00000000000E+00 -0.10190972202E+03  0.10190972205E+03  0.25500000000E-02 0.  1.
   -5000001    1    1    2    0    0 -0.22445082376E+03 -0.19857520270E+03  0.67046229548E+03  0.77577701247E+03  0.25000000000E+03 0.  0.
    5000001    1    1    2    0    0  0.22445082376E+03  0.19857520270E+03  0.72385918101E+03  0.82236390810E+03  0.25000000000E+03 0.  0.
<mgrwt>
<rscale>  0 0.78097505E+03</rscale>
<asrwt>0</asrwt>
<pdfrwt beam="1">  1        2 0.23018938E+00 0.78097505E+03</pdfrwt>
<pdfrwt beam="2">  1       -2 0.15678421E-01 0.78097505E+03</pdfrwt>
<totfact> 0.41902729E+02</totfact>
</mgrwt>
</event>
<event>
 4    1  0.1804641E-005  0.1476198E+04  0.7818608E-02  0.8900437E-01
          2   -1    0    0  501    0  0.00000000000E+00  0.00000000000E+00  0.17949909049E+04  0.17949909049E+04  0.25500000000E-02 0.  1.
         -2   -1    0    0    0  501 -0.00000000000E+00 -0.00000000000E+00 -0.30350595889E+03  0.30350595890E+03  0.25500000000E-02 0. -1.
   -5000001    1    1    2    0    0 -0.54938895181E+03  0.24695698530E+03  0.25438096176E+03  0.70001831881E+03  0.25000000000E+03 0.  0.
    5000001    1    1    2    0    0  0.54938895181E+03 -0.24695698530E+03  0.12371039842E+04  0.13984785450E+04  0.25000000000E+03 0.  0.
<mgrwt>
<rscale>  0 0.14761984E+04</rscale>
<asrwt>0</asrwt>
<pdfrwt beam="1">  1        2 0.27615245E+00 0.14761984E+04</pdfrwt>
<pdfrwt beam="2">  1       -2 0.46693224E-01 0.14761984E+04</pdfrwt>
<totfact> 0.36547484E+01</totfact>
</mgrwt>
</event>
<event>
 4    1  0.1804641E-005  0.6559189E+03  0.7818608E-02  0.9795736E-01
         -2   -1    0    0    0  501 -0.00000000000E+00  0.00000000000E+00  0.17027737689E+03  0.17027737690E+03  0.25500000000E-02 0. -1.
          2   -1    0    0  501    0  0.00000000000E+00 -0.00000000000E+00 -0.63165995594E+03  0.63165995595E+03  0.25500000000E-02 0.  1.
   -5000001    1    1    2    0    0  0.15932670449E+03  0.12481740706E+03 -0.30891024939E+03  0.44597076815E+03  0.25000000000E+03 0.  0.
    5000001    1    1    2    0    0 -0.15932670449E+03 -0.12481740706E+03 -0.15247232967E+03  0.35596656470E+03  0.25000000000E+03 0.  0.
<mgrwt>
<rscale>  0 0.65591890E+03</rscale>
<asrwt>0</asrwt>
<pdfrwt beam="1">  1        2 0.97178454E-01 0.65591890E+03</pdfrwt>
<pdfrwt beam="2">  1       -2 0.26196520E-01 0.65591890E+03</pdfrwt>
<totfact> 0.61681205E+02</totfact>
</mgrwt>
</event>
<event>
 4    1  0.1804641E-005  0.1129348E+04  0.7818608E-02  0.9177051E-01
         -2   -1    0    0    0  501 -0.00000000000E+00  0.00000000000E+00  0.16171076728E+03  0.16171076730E+03  0.25500000000E-02 0. -1.
          2   -1    0    0  501    0  0.00000000000E+00 -0.00000000000E+00 -0.19717702523E+04  0.19717702523E+04  0.25500000000E-02 0.  1.
   -5000001    1    1    2    0    0 -0.49299458181E+03  0.54682848163E+02 -0.71309398138E+03  0.90390093365E+03  0.25000000000E+03 0.  0.
    5000001    1    1    2    0    0  0.49299458181E+03 -0.54682848163E+02 -0.10969655036E+04  0.12295800859E+04  0.25000000000E+03 0.  0.
<mgrwt>
<rscale>  0 0.11293476E+04</rscale>
<asrwt>0</asrwt>
<pdfrwt beam="1">  1        2 0.30334925E+00 0.11293476E+04</pdfrwt>
<pdfrwt beam="2">  1       -2 0.24878581E-01 0.11293476E+04</pdfrwt>
<totfact> 0.99535784E+01</totfact>
</mgrwt>
</event>
<event>
 4    1  0.1804641E-005  0.9712029E+03  0.7818608E-02  0.9340705E-01
         -2   -1    0    0    0  501 -0.00000000000E+00  0.00000000000E+00  0.24600608053E+03  0.24600608054E+03  0.25500000000E-02 0. -1.
          2   -1    0    0  501    0  0.00000000000E+00 -0.00000000000E+00 -0.95854843857E+03  0.95854843858E+03  0.25500000000E-02 0.  1.
   -5000001    1    1    2    0    0 -0.35801065507E+03  0.16679152504E+03 -0.51948677266E+03  0.69882583591E+03  0.25000000000E+03 0.  0.
    5000001    1    1    2    0    0  0.35801065507E+03 -0.16679152504E+03 -0.19305558538E+03  0.50572868321E+03  0.25000000000E+03 0.  0.
<mgrwt>
<rscale>  0 0.97120285E+03</rscale>
<asrwt>0</asrwt>
<pdfrwt beam="1">  1        2 0.14746899E+00 0.97120285E+03</pdfrwt>
<pdfrwt beam="2">  1       -2 0.37847090E-01 0.97120285E+03</pdfrwt>
<totfact> 0.17635174E+02</totfact>
</mgrwt>
</event>
<event>
 4    1  0.1804641E-005  0.6213262E+03  0.7818608E-02  0.9862123E-01
         -2   -1    0    0    0  501 -0.00000000000E+00  0.00000000000E+00  0.28687729321E+03  0.28687729323E+03  0.25500000000E-02 0. -1.
          2   -1    0    0  501    0  0.00000000000E+00 -0.00000000000E+00 -0.33642104679E+03  0.33642104680E+03  0.25500000000E-02 0.  1.
   -5000001    1    1    2    0    0 -0.15408054990E+03  0.73084222747E+02  0.45660945784E+02  0.30605071711E+03  0.25000000000E+03 0.  0.
    5000001    1    1    2    0    0  0.15408054990E+03 -0.73084222747E+02 -0.95204699364E+02  0.31724762293E+03  0.25000000000E+03 0.  0.
<mgrwt>
<rscale>  0 0.62132619E+03</rscale>
<asrwt>0</asrwt>
<pdfrwt beam="1">  1        2 0.51757084E-01 0.62132619E+03</pdfrwt>
<pdfrwt beam="2">  1       -2 0.44134968E-01 0.62132619E+03</pdfrwt>
<totfact> 0.47429001E+02</totfact>
</mgrwt>
</event>
<event>
 4    1  0.1804641E-005  0.8997410E+03  0.7818608E-02  0.9425905E-01
         -2   -1    0    0    0  501 -0.00000000000E+00  0.00000000000E+00  0.51256988662E+03  0.51256988663E+03  0.25500000000E-02 0. -1.
          2   -1    0    0  501    0  0.00000000000E+00 -0.00000000000E+00 -0.39484075516E+03  0.39484075516E+03  0.25500000000E-02 0.  1.
   -5000001    1    1    2    0    0  0.15386785992E+03  0.33995701040E+03  0.84326435128E+02  0.45700879083E+03  0.25000000000E+03 0.  0.
    5000001    1    1    2    0    0 -0.15386785992E+03 -0.33995701040E+03  0.33402696340E+02  0.45040185097E+03  0.25000000000E+03 0.  0.
<mgrwt>
<rscale>  0 0.89974103E+03</rscale>
<asrwt>0</asrwt>
<pdfrwt beam="1">  1        2 0.60744732E-01 0.89974103E+03</pdfrwt>
<pdfrwt beam="2">  1       -2 0.78856905E-01 0.89974103E+03</pdfrwt>
<totfact> 0.11566743E+02</totfact>
</mgrwt>
</event>
<event>
 4    1  0.1804641E-005  0.6313403E+03  0.7818608E-02  0.9842437E-01
          2   -1    0    0  501    0  0.00000000000E+00  0.00000000000E+00  0.28022243618E+04  0.28022243618E+04  0.25500000000E-02 0.  1.
         -2   -1    0    0    0  501 -0.00000000000E+00 -0.00000000000E+00 -0.35560198514E+02  0.35560198606E+02  0.25500000000E-02 0. -1.
   -5000001    1    1    2    0    0  0.11760370231E+03  0.10409713835E+02  0.69856805859E+03  0.75128977460E+03  0.25000000000E+03 0.  0.
    5000001    1    1    2    0    0 -0.11760370231E+03 -0.10409713835E+02  0.20680961047E+04  0.20864947858E+04  0.25000000000E+03 0.  0.
<mgrwt>
<rscale>  0 0.63134034E+03</rscale>
<asrwt>0</asrwt>
<pdfrwt beam="1">  1        2 0.43111143E+00 0.63134034E+03</pdfrwt>
<pdfrwt beam="2">  1       -2 0.54707999E-02 0.63134034E+03</pdfrwt>
<totfact> 0.43871090E+02</totfact>
</mgrwt>
</event>
<event>
 4    1  0.1804641E-005  0.8149880E+03  0.7818608E-02  0.9538572E-01
         -2   -1    0    0    0  501 -0.00000000000E+00  0.00000000000E+00  0.15345845268E+03  0.15345845270E+03  0.25500000000E-02 0. -1.
          2   -1    0    0  501    0  0.00000000000E+00 -0.00000000000E+00 -0.10820608193E+04  0.10820608193E+04  0.25500000000E-02 0.  1.
   -5000001    1    1    2    0    0  0.16529868735E+03 -0.26961839729E+03 -0.55441878207E+03  0.68549100804E+03  0.25000000000E+03 0.  0.
    5000001    1    1    2    0    0 -0.16529868735E+03  0.26961839729E+03 -0.37418358451E+03  0.55002826392E+03  0.25000000000E+03 0.  0.
<mgrwt>
<rscale>  0 0.81498805E+03</rscale>
<asrwt>0</asrwt>
<pdfrwt beam="1">  1        2 0.16647089E+00 0.81498805E+03</pdfrwt>
<pdfrwt beam="2">  1       -2 0.23608993E-01 0.81498805E+03</pdfrwt>
<totfact> 0.35687618E+02</totfact>
</mgrwt>
</event>
<event>
 4    1  0.1804641E-005  0.1002021E+04  0.7818608E-02  0.9306331E-01
          2   -1    0    0  501    0  0.00000000000E+00  0.00000000000E+00  0.66349154023E+03  0.66349154024E+03  0.25500000000E-02 0.  1.
         -2   -1    0    0    0  501 -0.00000000000E+00 -0.00000000000E+00 -0.37831907487E+03  0.37831907488E+03  0.25500000000E-02 0. -1.
   -5000001    1    1    2    0    0 -0.32051980964E+03 -0.27893608992E+03  0.23542485934E+03  0.54631781503E+03  0.25000000000E+03 0.  0.
    5000001    1    1    2    0    0  0.32051980964E+03  0.27893608992E+03  0.49747606021E+02  0.49549280008E+03  0.25000000000E+03 0.  0.
<mgrwt>
<rscale>  0 0.10020210E+04</rscale>
<asrwt>0</asrwt>
<pdfrwt beam="1">  1        2 0.10207562E+00 0.10020210E+04</pdfrwt>
<pdfrwt beam="2">  1       -2 0.58202936E-01 0.10020210E+04</pdfrwt>
<totfact> 0.12089078E+02</totfact>
</mgrwt>
</event>
<event>
 4    1  0.1804641E-005  0.7236332E+03  0.7818608E-02  0.9677649E-01
          2   -1    0    0  501    0  0.00000000000E+00  0.00000000000E+00  0.63403148790E+03  0.63403148790E+03  0.25500000000E-02 0.  1.
         -2   -1    0    0    0  501 -0.00000000000E+00 -0.00000000000E+00 -0.20647434699E+03  0.20647434701E+03  0.25500000000E-02 0. -1.
   -5000001    1    1    2    0    0  0.23727259180E+03 -0.10869631642E+03  0.23383151112E+03  0.43045365327E+03  0.25000000000E+03 0.  0.
    5000001    1    1    2    0    0 -0.23727259180E+03  0.10869631642E+03  0.19372562979E+03  0.41005218163E+03  0.25000000000E+03 0.  0.
<mgrwt>
<rscale>  0 0.72363316E+03</rscale>
<asrwt>0</asrwt>
<pdfrwt beam="1">  1        2 0.97543305E-01 0.72363316E+03</pdfrwt>
<pdfrwt beam="2">  1       -2 0.31765284E-01 0.72363316E+03</pdfrwt>
<totfact> 0.42969298E+02</totfact>
</mgrwt>
</event>
<event>
 4    1  0.1804641E-005  0.9631497E+03  0.7818608E-02  0.9349911E-01
          2   -1    0    0  501    0  0.00000000000E+00  0.00000000000E+00  0.19660011432E+04  0.19660011432E+04  0.25500000000E-02 0.  1.
         -2   -1    0    0    0  501 -0.00000000000E+00 -0.00000000000E+00 -0.11796245274E+03  0.11796245277E+03  0.25500000000E-02 0. -1.
   -5000001    1    1    2    0    0  0.39935574415E+03 -0.27381056589E+02  0.11313234303E+04  0.12258170486E+04  0.25000000000E+03 0.  0.
    5000001    1    1    2    0    0 -0.39935574415E+03  0.27381056589E+02  0.71671526010E+03  0.85814654733E+03  0.25000000000E+03 0.  0.
<mgrwt>
<rscale>  0 0.96314966E+03</rscale>
<asrwt>0</asrwt>
<pdfrwt beam="1">  1        2 0.30246172E+00 0.96314966E+03</pdfrwt>
<pdfrwt beam="2">  1       -2 0.18148069E-01 0.96314966E+03</pdfrwt>
<totfact> 0.17752369E+02</totfact>
</mgrwt>
</event>
<event>
 4    1  0.1804641E-005  0.1355794E+04  0.7818608E-02  0.8986454E-01
          2   -1    0    0  501    0  0.00000000000E+00  0.00000000000E+00  0.68278818202E+03  0.68278818203E+03  0.25500000000E-02 0.  1.
         -2   -1    0    0    0  501 -0.00000000000E+00 -0.00000000000E+00 -0.67304101924E+03  0.67304101924E+03  0.25500000000E-02 0. -1.
   -5000001    1    1    2    0    0  0.29641353815E+03 -0.20831420768E+02  0.56054027839E+03  0.68190933223E+03  0.25000000000E+03 0.  0.
    5000001    1    1    2    0    0 -0.29641353815E+03  0.20831420768E+02 -0.55079311560E+03  0.67391986904E+03  0.25000000000E+03 0.  0.
<mgrwt>
<rscale>  0 0.13557942E+04</rscale>
<asrwt>0</asrwt>
<pdfrwt beam="1">  1        2 0.10504434E+00 0.13557942E+04</pdfrwt>
<pdfrwt beam="2">  1       -2 0.10354477E+00 0.13557942E+04</pdfrwt>
<totfact> 0.31385761E+01</totfact>
</mgrwt>
</event>
<event>
 4    1  0.1804641E-005  0.9743301E+03  0.7818608E-02  0.9337156E-01
         -2   -1    0    0    0  501 -0.00000000000E+00  0.00000000000E+00  0.42017398945E+03  0.42017398945E+03  0.25500000000E-02 0. -1.
          2   -1    0    0  501    0  0.00000000000E+00 -0.00000000000E+00 -0.56483697982E+03  0.56483697983E+03  0.25500000000E-02 0.  1.
   -5000001    1    1    2    0    0  0.40640428778E+03  0.92701439610E+02 -0.10542881704E+03  0.49736630112E+03  0.25000000000E+03 0.  0.
    5000001    1    1    2    0    0 -0.40640428778E+03 -0.92701439610E+02 -0.39234173341E+02  0.48764466816E+03  0.25000000000E+03 0.  0.
<mgrwt>
<rscale>  0 0.97433014E+03</rscale>
<asrwt>0</asrwt>
<pdfrwt beam="1">  1        2 0.86897997E-01 0.97433014E+03</pdfrwt>
<pdfrwt beam="2">  1       -2 0.64642152E-01 0.97433014E+03</pdfrwt>
<totfact> 0.11787922E+02</totfact>
</mgrwt>
</event>
<event>
 4    1  0.1804641E-005  0.6962351E+03  0.7818608E-02  0.9723692E-01
         -2   -1    0    0    0  501 -0.00000000000E+00  0.00000000000E+00  0.13788125555E+03  0.13788125557E+03  0.25500000000E-02 0. -1.
          2   -1    0    0  501    0  0.00000000000E+00 -0.00000000000E+00 -0.87891454828E+03  0.87891454828E+03  0.25500000000E-02 0.  1.
   -5000001    1    1    2    0    0  0.19322345980E+03 -0.57900859776E+02 -0.17459146775E+03  0.36560907482E+03  0.25000000000E+03 0.  0.
    5000001    1    1    2    0    0 -0.19322345980E+03  0.57900859776E+02 -0.56644182499E+03  0.65118672904E+03  0.25000000000E+03 0.  0.
<mgrwt>
<rscale>  0 0.69623514E+03</rscale>
<asrwt>0</asrwt>
<pdfrwt beam="1">  1        2 0.13521762E+00 0.69623514E+03</pdfrwt>
<pdfrwt beam="2">  1       -2 0.21212501E-01 0.69623514E+03</pdfrwt>
<totfact> 0.58664060E+02</totfact>
</mgrwt>
</event>
<event>
 4    1  0.1804641E-005  0.7263481E+03  0.7818608E-02  0.9673205E-01
         -2   -1    0    0    0  501 -0.00000000000E+00  0.00000000000E+00  0.21662484181E+03  0.21662484182E+03  0.25500000000E-02 0. -1.
          2   -1    0    0  501    0  0.00000000000E+00 -0.00000000000E+00 -0.60886547104E+03  0.60886547104E+03  0.25500000000E-02 0.  1.
   -5000001    1    1    2    0    0  0.17408501796E+03 -0.66261151624E+02 -0.40782342750E+03  0.51333817481E+03  0.25000000000E+03 0.  0.
    5000001    1    1    2    0    0 -0.17408501796E+03  0.66261151624E+02  0.15582798273E+02  0.31215213806E+03  0.25000000000E+03 0.  0.
<mgrwt>
<rscale>  0 0.72634809E+03</rscale>
<asrwt>0</asrwt>
<pdfrwt beam="1">  1        2 0.93671610E-01 0.72634809E+03</pdfrwt>
<pdfrwt beam="2">  1       -2 0.33326899E-01 0.72634809E+03</pdfrwt>
<totfact> 0.41243213E+02</totfact>
</mgrwt>
</event>
<event>
 4    1  0.1804641E-005  0.5483282E+03  0.7818608E-02  0.1001882E+00
         -2   -1    0    0    0  501 -0.00000000000E+00  0.00000000000E+00  0.32058403372E+02  0.32058403473E+02  0.25500000000E-02 0. -1.
          2   -1    0    0  501    0  0.00000000000E+00 -0.00000000000E+00 -0.23446572158E+04  0.23446572158E+04  0.25500000000E-02 0.  1.
   -5000001    1    1    2    0    0 -0.15492265999E+02  0.84902379983E+02 -0.14693896951E+04  0.14930018421E+04  0.25000000000E+03 0.  0.
    5000001    1    1    2    0    0  0.15492265999E+02 -0.84902379983E+02 -0.84320911734E+03  0.88371377719E+03  0.25000000000E+03 0.  0.
<mgrwt>
<rscale>  0 0.54832825E+03</rscale>
<asrwt>0</asrwt>
<pdfrwt beam="1">  1        2 0.36071636E+00 0.54832825E+03</pdfrwt>
<pdfrwt beam="2">  1       -2 0.49320639E-02 0.54832825E+03</pdfrwt>
<totfact> 0.94556484E+02</totfact>
</mgrwt>
</event>
<event>
 4    1  0.1804641E-005  0.1105683E+04  0.7818608E-02  0.9199670E-01
          2   -1    0    0  501    0  0.00000000000E+00  0.00000000000E+00  0.10828032182E+04  0.10828032182E+04  0.25500000000E-02 0.  1.
         -2   -1    0    0    0  501 -0.00000000000E+00 -0.00000000000E+00 -0.28226175059E+03  0.28226175060E+03  0.25500000000E-02 0. -1.
   -5000001    1    1    2    0    0  0.10234561616E+03 -0.36394469157E+03  0.79107935457E+03  0.91172194714E+03  0.25000000000E+03 0.  0.
    5000001    1    1    2    0    0 -0.10234561616E+03  0.36394469157E+03  0.94621129992E+01  0.45334302162E+03  0.25000000000E+03 0.  0.
<mgrwt>
<rscale>  0 0.11056834E+04</rscale>
<asrwt>0</asrwt>
<pdfrwt beam="1">  1        2 0.16658511E+00 0.11056834E+04</pdfrwt>
<pdfrwt beam="2">  1       -2 0.43424885E-01 0.11056834E+04</pdfrwt>
<totfact> 0.11136925E+02</totfact>
</mgrwt>
</event>
<event>
 4    1  0.1804641E-005  0.7962828E+03  0.7818608E-02  0.9565413E-01
         -2   -1    0    0    0  501 -0.00000000000E+00  0.00000000000E+00  0.21113126650E+03  0.21113126652E+03  0.25500000000E-02 0. -1.
          2   -1    0    0  501    0  0.00000000000E+00 -0.00000000000E+00 -0.75079624561E+03  0.75079624561E+03  0.25500000000E-02 0.  1.
   -5000001    1    1    2    0    0 -0.13069711883E+03  0.26692111908E+03 -0.37575299981E+03  0.54038776591E+03  0.25000000000E+03 0.  0.
    5000001    1    1    2    0    0  0.13069711883E+03 -0.26692111908E+03 -0.16391197929E+03  0.42153974622E+03  0.25000000000E+03 0.  0.
<mgrwt>
<rscale>  0 0.79628277E+03</rscale>
<asrwt>0</asrwt>
<pdfrwt beam="1">  1        2 0.11550711E+00 0.79628277E+03</pdfrwt>
<pdfrwt beam="2">  1       -2 0.32481734E-01 0.79628277E+03</pdfrwt>
<totfact> 0.33229638E+02</totfact>
</mgrwt>
</event>
<event>
 4    1  0.1804641E-005  0.6584828E+03  0.7818608E-02  0.9790991E-01
         -2   -1    0    0    0  501 -0.00000000000E+00  0.00000000000E+00  0.28476805787E+03  0.28476805788E+03  0.25500000000E-02 0. -1.
          2   -1    0    0  501    0  0.00000000000E+00 -0.00000000000E+00 -0.38066034584E+03  0.38066034585E+03  0.25500000000E-02 0.  1.
   -5000001    1    1    2    0    0 -0.15476964430E+03  0.13755675949E+02 -0.19700467890E+03  0.35419444508E+03  0.25000000000E+03 0.  0.
    5000001    1    1    2    0    0  0.15476964430E+03 -0.13755675949E+02  0.10111239092E+03  0.31123395865E+03  0.25000000000E+03 0.  0.
<mgrwt>
<rscale>  0 0.65848282E+03</rscale>
<asrwt>0</asrwt>
<pdfrwt beam="1">  1        2 0.58563130E-01 0.65848282E+03</pdfrwt>
<pdfrwt beam="2">  1       -2 0.43810471E-01 0.65848282E+03</pdfrwt>
<totfact> 0.41908078E+02</totfact>
</mgrwt>
</event>
<event>
 4    1  0.1804641E-005  0.6362494E+03  0.7818608E-02  0.9832929E-01
          2   -1    0    0  501    0  0.00000000000E+00  0.00000000000E+00  0.71108442302E+03  0.71108442303E+03  0.25500000000E-02 0.  1.
         -2   -1    0    0    0  501 -0.00000000000E+00 -0.00000000000E+00 -0.14232249633E+03  0.14232249635E+03  0.25500000000E-02 0. -1.
   -5000001    1    1    2    0    0 -0.14910520565E+03 -0.11537525317E+03  0.35977515730E+03  0.47695070522E+03  0.25000000000E+03 0.  0.
    5000001    1    1    2    0    0  0.14910520565E+03  0.11537525317E+03  0.20898676940E+03  0.37645621416E+03  0.25000000000E+03 0.  0.
<mgrwt>
<rscale>  0 0.63624935E+03</rscale>
<asrwt>0</asrwt>
<pdfrwt beam="1">  1        2 0.10939760E+00 0.63624935E+03</pdfrwt>
<pdfrwt beam="2">  1       -2 0.21895768E-01 0.63624935E+03</pdfrwt>
<totfact> 0.73433690E+02</totfact>
</mgrwt>
</event>
<event>
 4    1  0.1804641E-005  0.8901123E+03  0.7818608E-02  0.9438027E-01
          2   -1    0    0  501    0  0.00000000000E+00  0.00000000000E+00  0.23497810221E+04  0.23497810221E+04  0.25500000000E-02 0.  1.
         -2   -1    0    0    0  501 -0.00000000000E+00 -0.00000000000E+00 -0.84295070061E+02  0.84295070099E+02  0.25500000000E-02 0. -1.
   -5000001    1    1    2    0    0  0.14070287848E+03 -0.32086019660E+03  0.14424432532E+04  0.15052877149E+04  0.25000000000E+03 0.  0.
    5000001    1    1    2    0    0 -0.14070287848E+03  0.32086019660E+03  0.82304269878E+03  0.92878837729E+03  0.25000000000E+03 0.  0.
<mgrwt>
<rscale>  0 0.89011225E+03</rscale>
<asrwt>0</asrwt>
<pdfrwt beam="1">  1        2 0.36150475E+00 0.89011225E+03</pdfrwt>
<pdfrwt beam="2">  1       -2 0.12968473E-01 0.89011225E+03</pdfrwt>
<totfact> 0.19387025E+02</totfact>
</mgrwt>
</event>
<event>
 4    1  0.1804641E-005  0.6030906E+03  0.7818608E-02  0.9899015E-01
          2   -1    0    0  501    0  0.00000000000E+00  0.00000000000E+00  0.18293142148E+04  0.18293142148E+04  0.25500000000E-02 0.  1.
         -2   -1    0    0    0  501 -0.00000000000E+00 -0.00000000000E+00 -0.49706922760E+02  0.49706922825E+02  0.25500000000E-02 0. -1.
   -5000001    1    1    2    0    0 -0.19443798449E+02 -0.97214532730E+02  0.46487548320E+03  0.53706418755E+03  0.25000000000E+03 0.  0.
    5000001    1    1    2    0    0  0.19443798449E+02  0.97214532730E+02  0.13147318088E+04  0.13419569501E+04  0.25000000000E+03 0.  0.
<mgrwt>
<rscale>  0 0.60309064E+03</rscale>
<asrwt>0</asrwt>
<pdfrwt beam="1">  1        2 0.28143301E+00 0.60309064E+03</pdfrwt>
<pdfrwt beam="2">  1       -2 0.76472174E-02 0.60309064E+03</pdfrwt>
<totfact> 0.90329981E+02</totfact>
</mgrwt>
</event>
<event>
 4    1  0.1804641E-005  0.1793575E+04  0.7818608E-02  0.8709724E-01
         -2   -1    0    0    0  501 -0.00000000000E+00  0.00000000000E+00  0.18116950818E+04  0.18116950818E+04  0.25500000000E-02 0. -1.
          2   -1    0    0  501    0  0.00000000000E+00 -0.00000000000E+00 -0.44390913525E+03  0.44390913525E+03  0.25500000000E-02 0.  1.
   -5000001    1    1    2    0    0 -0.77231002519E+03 -0.24268909743E+03  0.31430503537E+03  0.90368602307E+03  0.25000000000E+03 0.  0.
    5000001    1    1    2    0    0  0.77231002519E+03  0.24268909743E+03  0.10534809112E+04  0.13519181940E+04  0.25000000000E+03 0.  0.
<mgrwt>
<rscale>  0 0.17935752E+04</rscale>
<asrwt>0</asrwt>
<pdfrwt beam="1">  1        2 0.68293712E-01 0.17935752E+04</pdfrwt>
<pdfrwt beam="2">  1       -2 0.27872233E+00 0.17935752E+04</pdfrwt>
<totfact> 0.28633807E+00</totfact>
</mgrwt>
</event>
<event>
 4    1  0.1804641E-005  0.9930975E+03  0.7818608E-02  0.9316148E-01
         -2   -1    0    0    0  501 -0.00000000000E+00  0.00000000000E+00  0.14667018064E+04  0.14667018064E+04  0.25500000000E-02 0. -1.
          2   -1    0    0  501    0  0.00000000000E+00 -0.00000000000E+00 -0.16810551452E+03  0.16810551454E+03  0.25500000000E-02 0.  1.
   -5000001    1    1    2    0    0 -0.26856646069E+03 -0.32230443652E+03  0.79701902759E+03  0.93474457685E+03  0.25000000000E+03 0.  0.
    5000001    1    1    2    0    0  0.26856646069E+03  0.32230443652E+03  0.50157726426E+03  0.70006274407E+03  0.25000000000E+03 0.  0.
<mgrwt>
<rscale>  0 0.99309750E+03</rscale>
<asrwt>0</asrwt>
<pdfrwt beam="1">  1        2 0.25862386E-01 0.99309750E+03</pdfrwt>
<pdfrwt beam="2">  1       -2 0.22564644E+00 0.99309750E+03</pdfrwt>
<totfact> 0.19255748E+01</totfact>
</mgrwt>
</event>
<event>
 4    1  0.1804641E-005  0.7349308E+03  0.7818608E-02  0.9659293E-01
         -2   -1    0    0    0  501 -0.00000000000E+00  0.00000000000E+00  0.41542392442E+02  0.41542392521E+02  0.25500000000E-02 0. -1.
          2   -1    0    0  501    0  0.00000000000E+00 -0.00000000000E+00 -0.32504339393E+04  0.32504339393E+04  0.25500000000E-02 0.  1.
   -5000001    1    1    2    0    0 -0.21419235299E+03  0.71545858400E+02 -0.22617537347E+04  0.22867066122E+04  0.25000000000E+03 0.  0.
    5000001    1    1    2    0    0  0.21419235299E+03 -0.71545858400E+02 -0.94713781214E+03  0.10052697196E+04  0.25000000000E+03 0.  0.
<mgrwt>
<rscale>  0 0.73493075E+03</rscale>
<asrwt>0</asrwt>
<pdfrwt beam="1">  1        2 0.50006656E+00 0.73493075E+03</pdfrwt>
<pdfrwt beam="2">  1       -2 0.63911398E-02 0.73493075E+03</pdfrwt>
<totfact> 0.18026356E+02</totfact>
</mgrwt>
</event>
<event>
 4    1  0.1804641E-005  0.6904026E+03  0.7818608E-02  0.9733787E-01
          2   -1    0    0  501    0  0.00000000000E+00  0.00000000000E+00  0.23208646406E+03  0.23208646407E+03  0.25500000000E-02 0.  1.
         -2   -1    0    0    0  501 -0.00000000000E+00 -0.00000000000E+00 -0.51344630324E+03  0.51344630324E+03  0.25500000000E-02 0. -1.
   -5000001    1    1    2    0    0  0.17728213440E+03  0.10590999788E+02  0.30478570989E+02  0.30817213979E+03  0.25000000000E+03 0.  0.
    5000001    1    1    2    0    0 -0.17728213440E+03 -0.10590999788E+02 -0.31183841017E+03  0.43736062753E+03  0.25000000000E+03 0.  0.
<mgrwt>
<rscale>  0 0.69040260E+03</rscale>
<asrwt>0</asrwt>
<pdfrwt beam="1">  1        2 0.35705610E-01 0.69040260E+03</pdfrwt>
<pdfrwt beam="2">  1       -2 0.78991739E-01 0.69040260E+03</pdfrwt>
<totfact> 0.21013271E+02</totfact>
</mgrwt>
</event>
<event>
 4    1  0.1804641E-005  0.8225751E+03  0.7818608E-02  0.9527903E-01
          2   -1    0    0  501    0  0.00000000000E+00  0.00000000000E+00  0.58325143763E+03  0.58325143764E+03  0.25500000000E-02 0.  1.
         -2   -1    0    0    0  501 -0.00000000000E+00 -0.00000000000E+00 -0.29002494008E+03  0.29002494010E+03  0.25500000000E-02 0. -1.
   -5000001    1    1    2    0    0 -0.13519603806E+03  0.28781294722E+03  0.67571509811E+02  0.41009775692E+03  0.25000000000E+03 0.  0.
    5000001    1    1    2    0    0  0.13519603806E+03 -0.28781294722E+03  0.22565498774E+03  0.46317862082E+03  0.25000000000E+03 0.  0.
<mgrwt>
<rscale>  0 0.82257514E+03</rscale>
<asrwt>0</asrwt>
<pdfrwt beam="1">  1        2 0.89730990E-01 0.82257514E+03</pdfrwt>
<pdfrwt beam="2">  1       -2 0.44619222E-01 0.82257514E+03</pdfrwt>
<totfact> 0.24589342E+02</totfact>
</mgrwt>
</event>
<event>
 4    1  0.1804641E-005  0.7657033E+03  0.7818608E-02  0.9611031E-01
         -2   -1    0    0    0  501 -0.00000000000E+00  0.00000000000E+00  0.83603361697E+02  0.83603361736E+02  0.25500000000E-02 0. -1.
          2   -1    0    0  501    0  0.00000000000E+00 -0.00000000000E+00 -0.17532236579E+04  0.17532236579E+04  0.25500000000E-02 0.  1.
   -5000001    1    1    2    0    0  0.12913308656E+03  0.23708238525E+03 -0.58102792434E+03  0.68773313160E+03  0.25000000000E+03 0.  0.
    5000001    1    1    2    0    0 -0.12913308656E+03 -0.23708238525E+03 -0.10885923719E+04  0.11490938881E+04  0.25000000000E+03 0.  0.
<mgrwt>
<rscale>  0 0.76570331E+03</rscale>
<asrwt>0</asrwt>
<pdfrwt beam="1">  1        2 0.26972669E+00 0.76570331E+03</pdfrwt>
<pdfrwt beam="2">  1       -2 0.12862057E-01 0.76570331E+03</pdfrwt>
<totfact> 0.42242049E+02</totfact>
</mgrwt>
</event>
<event>
 4    1  0.1804641E-005  0.7250475E+03  0.7818608E-02  0.9675331E-01
         -2   -1    0    0    0  501 -0.00000000000E+00  0.00000000000E+00  0.12577066499E+03  0.12577066501E+03  0.25500000000E-02 0. -1.
          2   -1    0    0  501    0  0.00000000000E+00 -0.00000000000E+00 -0.10449454313E+04  0.10449454313E+04  0.25500000000E-02 0.  1.
   -5000001    1    1    2    0    0  0.19821412353E+03 -0.17040811463E+03 -0.42017748731E+03  0.55441580527E+03  0.25000000000E+03 0.  0.
    5000001    1    1    2    0    0 -0.19821412353E+03  0.17040811463E+03 -0.49899727905E+03  0.61630029109E+03  0.25000000000E+03 0.  0.
<mgrwt>
<rscale>  0 0.72504753E+03</rscale>
<asrwt>0</asrwt>
<pdfrwt beam="1">  1        2 0.16076083E+00 0.72504753E+03</pdfrwt>
<pdfrwt beam="2">  1       -2 0.19349334E-01 0.72504753E+03</pdfrwt>
<totfact> 0.53691777E+02</totfact>
</mgrwt>
</event>
<event>
 4    1  0.1804641E-005  0.6040050E+03  0.7818608E-02  0.9897132E-01
         -2   -1    0    0    0  501 -0.00000000000E+00  0.00000000000E+00  0.17127673919E+03  0.17127673921E+03  0.25500000000E-02 0.  1.
          2   -1    0    0  501    0  0.00000000000E+00 -0.00000000000E+00 -0.53250378504E+03  0.53250378505E+03  0.25500000000E-02 0. -1.
   -5000001    1    1    2    0    0  0.11869977984E+03 -0.57941863390E+02 -0.56979163367E+02  0.28843287317E+03  0.25000000000E+03 0.  0.
    5000001    1    1    2    0    0 -0.11869977984E+03  0.57941863390E+02 -0.30424788248E+03  0.41534765109E+03  0.25000000000E+03 0.  0.
<mgrwt>
<rscale>  0 0.60400501E+03</rscale>
<asrwt>0</asrwt>
<pdfrwt beam="1">  1        2 0.81923658E-01 0.60400501E+03</pdfrwt>
<pdfrwt beam="2">  1       -2 0.26350268E-01 0.60400501E+03</pdfrwt>
<totfact> 0.74882307E+02</totfact>
</mgrwt>
</event>
<event>
 4    1  0.1804641E-005  0.6441752E+03  0.7818608E-02  0.9817771E-01
         -2   -1    0    0    0  501 -0.00000000000E+00  0.00000000000E+00  0.65769646695E+02  0.65769646745E+02  0.25500000000E-02 0. -1.
          2   -1    0    0  501    0  0.00000000000E+00 -0.00000000000E+00 -0.15773297062E+04  0.15773297062E+04  0.25500000000E-02 0.  1.
   -5000001    1    1    2    0    0 -0.13333960387E+03  0.15054487059E+03 -0.68376119819E+03  0.75529635519E+03  0.25000000000E+03 0.  0.
    5000001    1    1    2    0    0  0.13333960387E+03 -0.15054487059E+03 -0.82779886129E+03  0.88780299772E+03  0.25000000000E+03 0.  0.
<mgrwt>
<rscale>  0 0.64417519E+03</rscale>
<asrwt>0</asrwt>
<pdfrwt beam="1">  1        2 0.24266608E+00 0.64417519E+03</pdfrwt>
<pdfrwt beam="2">  1       -2 0.10118408E-01 0.64417519E+03</pdfrwt>
<totfact> 0.78804543E+02</totfact>
</mgrwt>
</event>
<event>
 4    1  0.1804641E-005  0.6473322E+03  0.7818608E-02  0.9811798E-01
         -2   -1    0    0    0  501 -0.00000000000E+00  0.00000000000E+00  0.59973774424E+02  0.59973774479E+02  0.25500000000E-02 0. -1.
          2   -1    0    0  501    0  0.00000000000E+00 -0.00000000000E+00 -0.17467590387E+04  0.17467590387E+04  0.25500000000E-02 0.  1.
   -5000001    1    1    2    0    0  0.27887239873E+02  0.20199857608E+03 -0.77068553848E+03  0.83548627883E+03  0.25000000000E+03 0.  0.
    5000001    1    1    2    0    0 -0.27887239873E+02 -0.20199857608E+03 -0.91609972576E+03  0.97124653432E+03  0.25000000000E+03 0.  0.
<mgrwt>
<rscale>  0 0.64733216E+03</rscale>
<asrwt>0</asrwt>
<pdfrwt beam="1">  1        2 0.26873212E+00 0.64733216E+03</pdfrwt>
<pdfrwt beam="2">  1       -2 0.92267359E-02 0.64733216E+03</pdfrwt>
<totfact> 0.73937496E+02</totfact>
</mgrwt>
</event>
<event>
 4    1  0.1804641E-005  0.1333496E+04  0.7818608E-02  0.9003416E-01
         -2   -1    0    0    0  501 -0.00000000000E+00  0.00000000000E+00  0.13894932363E+03  0.13894932365E+03  0.25500000000E-02 0. -1.
          2   -1    0    0  501    0  0.00000000000E+00 -0.00000000000E+00 -0.31993876243E+04  0.31993876243E+04  0.25500000000E-02 0.  1.
   -5000001    1    1    2    0    0  0.52772512540E+03  0.31404174479E+03 -0.17061159014E+04  0.18304227639E+04  0.25000000000E+03 0.  0.
    5000001    1    1    2    0    0 -0.52772512540E+03 -0.31404174479E+03 -0.13543223993E+04  0.15079141841E+04  0.25000000000E+03 0.  0.
<mgrwt>
<rscale>  0 0.13334958E+04</rscale>
<asrwt>0</asrwt>
<pdfrwt beam="1">  1        2 0.49221342E+00 0.13334958E+04</pdfrwt>
<pdfrwt beam="2">  1       -2 0.21376821E-01 0.13334958E+04</pdfrwt>
<totfact> 0.24455727E+01</totfact>
</mgrwt>
</event>
<event>
 4    1  0.1804641E-005  0.6855998E+03  0.7818608E-02  0.9742180E-01
          2   -1    0    0  501    0  0.00000000000E+00  0.00000000000E+00  0.11652985582E+04  0.11652985582E+04  0.25500000000E-02 0.  1.
         -2   -1    0    0    0  501 -0.00000000000E+00 -0.00000000000E+00 -0.10084264258E+03  0.10084264262E+03  0.25500000000E-02 0. -1.
   -5000001    1    1    2    0    0  0.10646348627E+03  0.12134773119E+03  0.84646039871E+03  0.89724854548E+03  0.25000000000E+03 0.  0.
    5000001    1    1    2    0    0 -0.10646348627E+03 -0.12134773119E+03  0.21799551690E+03  0.36889265534E+03  0.25000000000E+03 0.  0.
<mgrwt>
<rscale>  0 0.68559984E+03</rscale>
<asrwt>0</asrwt>
<pdfrwt beam="1">  1        2 0.17927670E+00 0.68559984E+03</pdfrwt>
<pdfrwt beam="2">  1       -2 0.15514253E-01 0.68559984E+03</pdfrwt>
<totfact> 0.66371490E+02</totfact>
</mgrwt>
</event>
<event>
 4    1  0.1804641E-005  0.5925737E+03  0.7818608E-02  0.9920934E-01
          2   -1    0    0  501    0  0.00000000000E+00  0.00000000000E+00  0.52865314821E+03  0.52865314821E+03  0.25500000000E-02 0.  1.
         -2   -1    0    0    0  501 -0.00000000000E+00 -0.00000000000E+00 -0.16605574427E+03  0.16605574429E+03  0.25500000000E-02 0. -1.
   -5000001    1    1    2    0    0 -0.14296904941E+03 -0.25392561335E+02  0.10531248728E+03  0.30769408710E+03  0.25000000000E+03 0.  0.
    5000001    1    1    2    0    0  0.14296904941E+03  0.25392561335E+02  0.25728491665E+03  0.38701480540E+03  0.25000000000E+03 0.  0.
<mgrwt>
<rscale>  0 0.59257368E+03</rscale>
<asrwt>0</asrwt>
<pdfrwt beam="1">  1        2 0.81331253E-01 0.59257368E+03</pdfrwt>
<pdfrwt beam="2">  1       -2 0.25547038E-01 0.59257368E+03</pdfrwt>
<totfact> 0.79877313E+02</totfact>
</mgrwt>
</event>
<event>
 4    1  0.1804641E-005  0.1492770E+04  0.7818608E-02  0.8889275E-01
          2   -1    0    0  501    0  0.00000000000E+00  0.00000000000E+00  0.33756109735E+03  0.33756109736E+03  0.25500000000E-02 0.  1.
         -2   -1    0    0    0  501 -0.00000000000E+00 -0.00000000000E+00 -0.16503397887E+04  0.16503397888E+04  0.25500000000E-02 0. -1.
   -5000001    1    1    2    0    0 -0.46380090431E+03 -0.52650426023E+03 -0.71987174618E+03  0.10358732286E+04  0.25000000000E+03 0.  0.
    5000001    1    1    2    0    0  0.46380090431E+03  0.52650426023E+03 -0.59290694523E+03  0.95202765746E+03  0.25000000000E+03 0.  0.
<mgrwt>
<rscale>  0 0.14927699E+04</rscale>
<asrwt>0</asrwt>
<pdfrwt beam="1">  1        2 0.51932477E-01 0.14927699E+04</pdfrwt>
<pdfrwt beam="2">  1       -2 0.25389842E+00 0.14927699E+04</pdfrwt>
<totfact> 0.56620716E+00</totfact>
</mgrwt>
</event>
<event>
 4    1  0.1804641E-005  0.7208543E+03  0.7818608E-02  0.9682219E-01
          2   -1    0    0  501    0  0.00000000000E+00  0.00000000000E+00  0.88777183749E+03  0.88777183749E+03  0.25500000000E-02 0.  1.
         -2   -1    0    0    0  501 -0.00000000000E+00 -0.00000000000E+00 -0.14633006827E+03  0.14633006829E+03  0.25500000000E-02 0. -1.
   -5000001    1    1    2    0    0  0.10162704364E+03 -0.23801143794E+03  0.34096604287E+03  0.49571699888E+03  0.25000000000E+03 0.  0.
    5000001    1    1    2    0    0 -0.10162704364E+03  0.23801143794E+03  0.40047572635E+03  0.53838490691E+03  0.25000000000E+03 0.  0.
<mgrwt>
<rscale>  0 0.72085425E+03</rscale>
<asrwt>0</asrwt>
<pdfrwt beam="1">  1        2 0.13658028E+00 0.72085425E+03</pdfrwt>
<pdfrwt beam="2">  1       -2 0.22512319E-01 0.72085425E+03</pdfrwt>
<totfact> 0.52036252E+02</totfact>
</mgrwt>
</event>
<event>
 4    1  0.1804641E-005  0.5824851E+03  0.7818608E-02  0.9942425E-01
          2   -1    0    0  501    0  0.00000000000E+00  0.00000000000E+00  0.33649939219E+03  0.33649939220E+03  0.25500000000E-02 0.  1.
         -2   -1    0    0    0  501 -0.00000000000E+00 -0.00000000000E+00 -0.25207242886E+03  0.25207242888E+03  0.25500000000E-02 0. -1.
   -5000001    1    1    2    0    0 -0.15450035469E+01  0.14869166964E+03  0.27549095329E+02  0.29218239562E+03  0.25000000000E+03 0.  0.
    5000001    1    1    2    0    0  0.15450035469E+01 -0.14869166964E+03  0.56877867996E+02  0.29638942546E+03  0.25000000000E+03 0.  0.
<mgrwt>
<rscale>  0 0.58248509E+03</rscale>
<asrwt>0</asrwt>
<pdfrwt beam="1">  1        2 0.51769137E-01 0.58248509E+03</pdfrwt>
<pdfrwt beam="2">  1       -2 0.38780374E-01 0.58248509E+03</pdfrwt>
<totfact> 0.61098462E+02</totfact>
</mgrwt>
</event>
<event>
 4    1  0.1804641E-005  0.6062851E+03  0.7818608E-02  0.9892452E-01
         -2   -1    0    0    0  501 -0.00000000000E+00  0.00000000000E+00  0.53024954558E+02  0.53024954619E+02  0.25500000000E-02 0. -1.
          2   -1    0    0  501    0  0.00000000000E+00 -0.00000000000E+00 -0.17330595713E+04  0.17330595713E+04  0.25500000000E-02 0.  1.
   -5000001    1    1    2    0    0 -0.16403054306E+03 -0.30521166169E+02 -0.72374209184E+03  0.78367096165E+03  0.25000000000E+03 0.  0.
    5000001    1    1    2    0    0  0.16403054306E+03  0.30521166169E+02 -0.95629252491E+03  0.10024135643E+04  0.25000000000E+03 0.  0.
<mgrwt>
<rscale>  0 0.60628510E+03</rscale>
<asrwt>0</asrwt>
<pdfrwt beam="1">  1        2 0.26662451E+00 0.60628510E+03</pdfrwt>
<pdfrwt beam="2">  1       -2 0.81576866E-02 0.60628510E+03</pdfrwt>
<totfact> 0.91870466E+02</totfact>
</mgrwt>
</event>
<event>
 4    1  0.1804641E-005  0.9622311E+03  0.7818608E-02  0.9350967E-01
          2   -1    0    0  501    0  0.00000000000E+00  0.00000000000E+00  0.87429298590E+03  0.87429298590E+03  0.25500000000E-02 0.  1.
         -2   -1    0    0    0  501 -0.00000000000E+00 -0.00000000000E+00 -0.26475354835E+03  0.26475354836E+03  0.25500000000E-02 0. -1.
   -5000001    1    1    2    0    0 -0.20721375870E+03  0.35199324053E+03  0.25006807317E+03  0.54025070513E+03  0.25000000000E+03 0.  0.
    5000001    1    1    2    0    0  0.20721375870E+03 -0.35199324053E+03  0.35947136438E+03  0.59879582913E+03  0.25000000000E+03 0.  0.
<mgrwt>
<rscale>  0 0.96223110E+03</rscale>
<asrwt>0</asrwt>
<pdfrwt beam="1">  1        2 0.13450661E+00 0.96223110E+03</pdfrwt>
<pdfrwt beam="2">  1       -2 0.40731315E-01 0.96223110E+03</pdfrwt>
<totfact> 0.17416969E+02</totfact>
</mgrwt>
</event>
<event>
 4    1  0.1804641E-005  0.6821940E+03  0.7818608E-02  0.9748177E-01
         -2   -1    0    0    0  501 -0.00000000000E+00  0.00000000000E+00  0.22151111041E+03  0.22151111043E+03  0.25500000000E-02 0. -1.
          2   -1    0    0  501    0  0.00000000000E+00 -0.00000000000E+00 -0.52524307919E+03  0.52524307920E+03  0.25500000000E-02 0.  1.
   -5000001    1    1    2    0    0  0.10693974397E+03 -0.17699488944E+03 -0.36622703469E+02  0.32650347952E+03  0.25000000000E+03 0.  0.
    5000001    1    1    2    0    0 -0.10693974397E+03  0.17699488944E+03 -0.26710926531E+03  0.42025071010E+03  0.25000000000E+03 0.  0.
<mgrwt>
<rscale>  0 0.68219404E+03</rscale>
<asrwt>0</asrwt>
<pdfrwt beam="1">  1        2 0.80806627E-01 0.68219404E+03</pdfrwt>
<pdfrwt beam="2">  1       -2 0.34078633E-01 0.68219404E+03</pdfrwt>
<totfact> 0.47188576E+02</totfact>
</mgrwt>
</event>
<event>
 4    1  0.1804641E-005  0.1073395E+04  0.7818608E-02  0.9231518E-01
          2   -1    0    0  501    0  0.00000000000E+00  0.00000000000E+00  0.74014425656E+03  0.74014425656E+03  0.25500000000E-02 0.  1.
         -2   -1    0    0    0  501 -0.00000000000E+00 -0.00000000000E+00 -0.38917277550E+03  0.38917277551E+03  0.25500000000E-02 0. -1.
   -5000001    1    1    2    0    0 -0.72264826584E+02  0.45576033952E+03  0.29360368382E+03  0.60136745455E+03  0.25000000000E+03 0.  0.
    5000001    1    1    2    0    0  0.72264826584E+02 -0.45576033952E+03  0.57367797233E+02  0.52794957752E+03  0.25000000000E+03 0.  0.
<mgrwt>
<rscale>  0 0.10733946E+04</rscale>
<asrwt>0</asrwt>
<pdfrwt beam="1">  1        2 0.11386834E+00 0.10733946E+04</pdfrwt>
<pdfrwt beam="2">  1       -2 0.59872736E-01 0.10733946E+04</pdfrwt>
<totfact> 0.98733795E+01</totfact>
</mgrwt>
</event>
<event>
 4    1  0.1804641E-005  0.1027357E+04  0.7818608E-02  0.9279039E-01
          2   -1    0    0  501    0  0.00000000000E+00  0.00000000000E+00  0.23136120796E+04  0.23136120796E+04  0.25500000000E-02 0.  1.
         -2   -1    0    0    0  501 -0.00000000000E+00 -0.00000000000E+00 -0.11404917388E+03  0.11404917391E+03  0.25500000000E-02 0. -1.
   -5000001    1    1    2    0    0 -0.30818621420E+03  0.28706158168E+03  0.14657245341E+04  0.15453904051E+04  0.25000000000E+03 0.  0.
    5000001    1    1    2    0    0  0.30818621420E+03 -0.28706158168E+03  0.73383837161E+03  0.88227084841E+03  0.25000000000E+03 0.  0.
<mgrwt>
<rscale>  0 0.10273569E+04</rscale>
<asrwt>0</asrwt>
<pdfrwt beam="1">  1        2 0.35594029E+00 0.10273569E+04</pdfrwt>
<pdfrwt beam="2">  1       -2 0.17546028E-01 0.10273569E+04</pdfrwt>
<totfact> 0.12016305E+02</totfact>
</mgrwt>
</event>
<event>
 4    1  0.1804641E-005  0.6635824E+03  0.7818608E-02  0.9781621E-01
         -2   -1    0    0    0  501 -0.00000000000E+00  0.00000000000E+00  0.95079416337E+02  0.95079416371E+02  0.25500000000E-02 0. -1.
          2   -1    0    0  501    0  0.00000000000E+00 -0.00000000000E+00 -0.11578256242E+04  0.11578256242E+04  0.25500000000E-02 0.  1.
   -5000001    1    1    2    0    0  0.25766342539E+02  0.18018146459E+03 -0.75838530588E+03  0.81901009564E+03  0.25000000000E+03 0.  0.
    5000001    1    1    2    0    0 -0.25766342539E+02 -0.18018146459E+03 -0.30436090201E+03  0.43389494496E+03  0.25000000000E+03 0.  0.
<mgrwt>
<rscale>  0 0.66358235E+03</rscale>
<asrwt>0</asrwt>
<pdfrwt beam="1">  1        2 0.17812701E+00 0.66358235E+03</pdfrwt>
<pdfrwt beam="2">  1       -2 0.14627603E-01 0.66358235E+03</pdfrwt>
<totfact> 0.74130270E+02</totfact>
</mgrwt>
</event>
<event>
 4    1  0.1804641E-005  0.5980564E+03  0.7818608E-02  0.9909447E-01
          2   -1    0    0  501    0  0.00000000000E+00  0.00000000000E+00  0.85521676468E+03  0.85521676468E+03  0.25500000000E-02 0.  1.
         -2   -1    0    0    0  501 -0.00000000000E+00 -0.00000000000E+00 -0.10455577953E+03  0.10455577957E+03  0.25500000000E-02 0. -1.
   -5000001    1    1    2    0    0 -0.35853695577E+02 -0.12190788453E+03  0.20877808982E+03  0.34962166779E+03  0.25000000000E+03 0.  0.
    5000001    1    1    2    0    0  0.35853695577E+02  0.12190788453E+03  0.54188289532E+03  0.61015087646E+03  0.25000000000E+03 0.  0.
<mgrwt>
<rscale>  0 0.59805637E+03</rscale>
<asrwt>0</asrwt>
<pdfrwt beam="1">  1        2 0.13157181E+00 0.59805637E+03</pdfrwt>
<pdfrwt beam="2">  1       -2 0.16085504E-01 0.59805637E+03</pdfrwt>
<totfact> 0.98502997E+02</totfact>
</mgrwt>
</event>
<event>
 4    1  0.1804641E-005  0.7531132E+03  0.7818608E-02  0.9630479E-01
         -2   -1    0    0    0  501 -0.00000000000E+00  0.00000000000E+00  0.27168476052E+03  0.27168476053E+03  0.25500000000E-02 0. -1.
          2   -1    0    0  501    0  0.00000000000E+00 -0.00000000000E+00 -0.52190952714E+03  0.52190952714E+03  0.25500000000E-02 0.  1.
   -5000001    1    1    2    0    0 -0.26598682641E+03 -0.75499247528E+02 -0.18132523829E+03  0.41452137489E+03  0.25000000000E+03 0.  0.
    5000001    1    1    2    0    0  0.26598682641E+03  0.75499247528E+02 -0.68899528326E+02  0.37907291278E+03  0.25000000000E+03 0.  0.
<mgrwt>
<rscale>  0 0.75311318E+03</rscale>
<asrwt>0</asrwt>
<pdfrwt beam="1">  1        2 0.80293773E-01 0.75311318E+03</pdfrwt>
<pdfrwt beam="2">  1       -2 0.41797656E-01 0.75311318E+03</pdfrwt>
<totfact> 0.32001614E+02</totfact>
</mgrwt>
</event>
<event>
 4    1  0.1804641E-005  0.5258684E+03  0.7818608E-02  0.1007239E+00
         -2   -1    0    0    0  501 -0.00000000000E+00  0.00000000000E+00  0.15800948070E+03  0.15800948072E+03  0.25500000000E-02 0. -1.
          2   -1    0    0  501    0  0.00000000000E+00 -0.00000000000E+00 -0.43753312062E+03  0.43753312063E+03  0.25500000000E-02 0.  1.
   -5000001    1    1    2    0    0  0.36826061480E+02 -0.58395509728E+02 -0.90812580246E+02  0.27479650487E+03  0.25000000000E+03 0.  0.
    5000001    1    1    2    0    0 -0.36826061480E+02  0.58395509728E+02 -0.18871105968E+03  0.32074609648E+03  0.25000000000E+03 0.  0.
<mgrwt>
<rscale>  0 0.52586835E+03</rscale>
<asrwt>0</asrwt>
<pdfrwt beam="1">  1        2 0.67312787E-01 0.52586835E+03</pdfrwt>
<pdfrwt beam="2">  1       -2 0.24309151E-01 0.52586835E+03</pdfrwt>
<totfact> 0.10847343E+03</totfact>
</mgrwt>
</event>
<event>
 4    1  0.1804641E-005  0.8301397E+03  0.7818608E-02  0.9517387E-01
         -2   -1    0    0    0  501 -0.00000000000E+00  0.00000000000E+00  0.17385341761E+03  0.17385341763E+03  0.25500000000E-02 0.  1.
          2   -1    0    0  501    0  0.00000000000E+00 -0.00000000000E+00 -0.99096685101E+03  0.99096685101E+03  0.25500000000E-02 0. -1.
   -5000001    1    1    2    0    0  0.42756680009E+02  0.23766977071E+03 -0.90227828041E+02  0.35910460113E+03  0.25000000000E+03 0.  0.
    5000001    1    1    2    0    0 -0.42756680009E+02 -0.23766977071E+03 -0.72688560536E+03  0.80571566751E+03  0.25000000000E+03 0.  0.
<mgrwt>
<rscale>  0 0.83013968E+03</rscale>
<asrwt>0</asrwt>
<pdfrwt beam="1">  1        2 0.15245644E+00 0.83013968E+03</pdfrwt>
<pdfrwt beam="2">  1       -2 0.26746680E-01 0.83013968E+03</pdfrwt>
<totfact> 0.32478637E+02</totfact>
</mgrwt>
</event>
<event>
 4    1  0.1804641E-005  0.7613444E+03  0.7818608E-02  0.9617719E-01
         -2   -1    0    0    0  501 -0.00000000000E+00  0.00000000000E+00  0.81226349294E+02  0.81226349334E+02  0.25500000000E-02 0. -1.
          2   -1    0    0  501    0  0.00000000000E+00 -0.00000000000E+00 -0.17840432058E+04  0.17840432058E+04  0.25500000000E-02 0.  1.
   -5000001    1    1    2    0    0 -0.27157961063E+03  0.63980947862E+02 -0.68592635700E+03  0.78156510530E+03  0.25000000000E+03 0.  0.
    5000001    1    1    2    0    0  0.27157961063E+03 -0.63980947862E+02 -0.10168904995E+04  0.10837044498E+04  0.25000000000E+03 0.  0.
<mgrwt>
<rscale>  0 0.76134438E+03</rscale>
<asrwt>0</asrwt>
<pdfrwt beam="1">  1        2 0.27446816E+00 0.76134438E+03</pdfrwt>
<pdfrwt beam="2">  1       -2 0.12496363E-01 0.76134438E+03</pdfrwt>
<totfact> 0.42645016E+02</totfact>
</mgrwt>
</event>
<event>
 4    1  0.1804641E-005  0.9702494E+03  0.7818608E-02  0.9341790E-01
         -2   -1    0    0    0  501 -0.00000000000E+00  0.00000000000E+00  0.14641916770E+03  0.14641916773E+03  0.25500000000E-02 0. -1.
          2   -1    0    0  501    0  0.00000000000E+00 -0.00000000000E+00 -0.16073440501E+04  0.16073440501E+04  0.25500000000E-02 0.  1.
   -5000001    1    1    2    0    0 -0.16599369135E+03 -0.37564957930E+03 -0.61360726022E+03  0.77953856979E+03  0.25000000000E+03 0.  0.
    5000001    1    1    2    0    0  0.16599369135E+03  0.37564957930E+03 -0.84731762220E+03  0.97422464806E+03  0.25000000000E+03 0.  0.
<mgrwt>
<rscale>  0 0.97024941E+03</rscale>
<asrwt>0</asrwt>
<pdfrwt beam="1">  1        2 0.24728369E+00 0.97024941E+03</pdfrwt>
<pdfrwt beam="2">  1       -2 0.22526027E-01 0.97024941E+03</pdfrwt>
<totfact> 0.19117796E+02</totfact>
</mgrwt>
</event>
<event>
 4    1  0.1804641E-005  0.7456102E+03  0.7818608E-02  0.9642262E-01
         -2   -1    0    0    0  501 -0.00000000000E+00  0.00000000000E+00  0.12173179997E+03  0.12173180000E+03  0.25500000000E-02 0. -1.
          2   -1    0    0  501    0  0.00000000000E+00 -0.00000000000E+00 -0.11417201838E+04  0.11417201838E+04  0.25500000000E-02 0.  1.
   -5000001    1    1    2    0    0 -0.25770226928E+03  0.83867295284E+02 -0.60341547621E+03  0.70714526070E+03  0.25000000000E+03 0.  0.
    5000001    1    1    2    0    0  0.25770226928E+03 -0.83867295284E+02 -0.41657290766E+03  0.55630672314E+03  0.25000000000E+03 0.  0.
<mgrwt>
<rscale>  0 0.74561023E+03</rscale>
<asrwt>0</asrwt>
<pdfrwt beam="1">  1        2 0.17564925E+00 0.74561023E+03</pdfrwt>
<pdfrwt beam="2">  1       -2 0.18727970E-01 0.74561023E+03</pdfrwt>
<totfact> 0.49525727E+02</totfact>
</mgrwt>
</event>
<event>
 4    1  0.1804641E-005  0.7427050E+03  0.7818608E-02  0.9646865E-01
          2   -1    0    0  501    0  0.00000000000E+00  0.00000000000E+00  0.26948028194E+03  0.26948028195E+03  0.25500000000E-02 0.  1.
         -2   -1    0    0    0  501 -0.00000000000E+00 -0.00000000000E+00 -0.51173574078E+03  0.51173574079E+03  0.25500000000E-02 0. -1.
   -5000001    1    1    2    0    0  0.21537611460E+03 -0.69200063397E+02  0.42593930007E+02  0.33983784720E+03  0.25000000000E+03 0.  0.
    5000001    1    1    2    0    0 -0.21537611460E+03  0.69200063397E+02 -0.28484938885E+03  0.44137817554E+03  0.25000000000E+03 0.  0.
<mgrwt>
<rscale>  0 0.74270503E+03</rscale>
<asrwt>0</asrwt>
<pdfrwt beam="1">  1        2 0.41458505E-01 0.74270503E+03</pdfrwt>
<pdfrwt beam="2">  1       -2 0.78728575E-01 0.74270503E+03</pdfrwt>
<totfact> 0.17894912E+02</totfact>
</mgrwt>
</event>
<event>
 4    1  0.1804641E-005  0.1177442E+04  0.7818608E-02  0.9132834E-01
          2   -1    0    0  501    0  0.00000000000E+00  0.00000000000E+00  0.83425598413E+03  0.83425598413E+03  0.25500000000E-02 0.  1.
         -2   -1    0    0    0  501 -0.00000000000E+00 -0.00000000000E+00 -0.41545077258E+03  0.41545077258E+03  0.25500000000E-02 0. -1.
   -5000001    1    1    2    0    0  0.47498062020E+03  0.15034523661E+03  0.83512187611E+01  0.55747647716E+03  0.25000000000E+03 0.  0.
    5000001    1    1    2    0    0 -0.47498062020E+03 -0.15034523661E+03  0.41045399279E+03  0.69223027955E+03  0.25000000000E+03 0.  0.
<mgrwt>
<rscale>  0 0.11774418E+04</rscale>
<asrwt>0</asrwt>
<pdfrwt beam="1">  1        2 0.12834707E+00 0.11774418E+04</pdfrwt>
<pdfrwt beam="2">  1       -2 0.63915504E-01 0.11774418E+04</pdfrwt>
<totfact> 0.72848627E+01</totfact>
</mgrwt>
</event>
<event>
 4    1  0.1804641E-005  0.8708031E+03  0.7818608E-02  0.9462833E-01
         -2   -1    0    0    0  501 -0.00000000000E+00  0.00000000000E+00  0.14814693324E+03  0.14814693327E+03  0.25500000000E-02 0. -1.
          2   -1    0    0  501    0  0.00000000000E+00 -0.00000000000E+00 -0.12796383947E+04  0.12796383947E+04  0.25500000000E-02 0.  1.
   -5000001    1    1    2    0    0  0.35112907448E+03 -0.41271417886E+02 -0.49097574068E+03  0.65463893469E+03  0.25000000000E+03 0.  0.
    5000001    1    1    2    0    0 -0.35112907448E+03  0.41271417886E+02 -0.64051572079E+03  0.77314639329E+03  0.25000000000E+03 0.  0.
<mgrwt>
<rscale>  0 0.87080309E+03</rscale>
<asrwt>0</asrwt>
<pdfrwt beam="1">  1        2 0.19686744E+00 0.87080309E+03</pdfrwt>
<pdfrwt beam="2">  1       -2 0.22791837E-01 0.87080309E+03</pdfrwt>
<totfact> 0.28869705E+02</totfact>
</mgrwt>
</event>
<event>
 4    1  0.1804641E-005  0.1351041E+04  0.7818608E-02  0.8990041E-01
          2   -1    0    0  501    0  0.00000000000E+00  0.00000000000E+00  0.12370970953E+04  0.12370970953E+04  0.25500000000E-02 0.  1.
         -2   -1    0    0    0  501 -0.00000000000E+00 -0.00000000000E+00 -0.36886988609E+03  0.36886988610E+03  0.25500000000E-02 0. -1.
   -5000001    1    1    2    0    0 -0.55863305047E+03  0.13240443936E+03  0.13286592655E+03  0.64012121905E+03  0.25000000000E+03 0.  0.
    5000001    1    1    2    0    0  0.55863305047E+03 -0.13240443936E+03  0.73536128267E+03  0.96584576237E+03  0.25000000000E+03 0.  0.
<mgrwt>
<rscale>  0 0.13510409E+04</rscale>
<asrwt>0</asrwt>
<pdfrwt beam="1">  1        2 0.19032263E+00 0.13510409E+04</pdfrwt>
<pdfrwt beam="2">  1       -2 0.56749213E-01 0.13510409E+04</pdfrwt>
<totfact> 0.51198181E+01</totfact>
</mgrwt>
</event>
<event>
 4    1  0.1804641E-005  0.7703263E+03  0.7818608E-02  0.9603990E-01
          2   -1    0    0  501    0  0.00000000000E+00  0.00000000000E+00  0.28660311586E+04  0.28660311586E+04  0.25500000000E-02 0.  1.
         -2   -1    0    0    0  501 -0.00000000000E+00 -0.00000000000E+00 -0.51761705855E+02  0.51761705918E+02  0.25500000000E-02 0. -1.
   -5000001    1    1    2    0    0 -0.35516062198E+02  0.23328346074E+03  0.20650253311E+04  0.20934450511E+04  0.25000000000E+03 0.  0.
    5000001    1    1    2    0    0  0.35516062198E+02 -0.23328346074E+03  0.74924412161E+03  0.82434781342E+03  0.25000000000E+03 0.  0.
<mgrwt>
<rscale>  0 0.77032633E+03</rscale>
<asrwt>0</asrwt>
<pdfrwt beam="1">  1        2 0.44092780E+00 0.77032633E+03</pdfrwt>
<pdfrwt beam="2">  1       -2 0.79633406E-02 0.77032633E+03</pdfrwt>
<totfact> 0.21898709E+02</totfact>
</mgrwt>
</event>
<event>
 4    1  0.1804641E-005  0.8309416E+03  0.7818608E-02  0.9516280E-01
         -2   -1    0    0    0  501 -0.00000000000E+00  0.00000000000E+00  0.59312496327E+02  0.59312496382E+02  0.25500000000E-02 0. -1.
          2   -1    0    0  501    0  0.00000000000E+00 -0.00000000000E+00 -0.29102799536E+04  0.29102799536E+04  0.25500000000E-02 0.  1.
   -5000001    1    1    2    0    0 -0.23250006071E+03 -0.71006925913E+02 -0.61827316165E+03  0.70983094056E+03  0.25000000000E+03 0.  0.
    5000001    1    1    2    0    0  0.23250006071E+03  0.71006925913E+02 -0.22326942956E+04  0.22597615094E+04  0.25000000000E+03 0.  0.
<mgrwt>
<rscale>  0 0.83094156E+03</rscale>
<asrwt>0</asrwt>
<pdfrwt beam="1">  1        2 0.44773527E+00 0.83094156E+03</pdfrwt>
<pdfrwt beam="2">  1       -2 0.91250017E-02 0.83094156E+03</pdfrwt>
<totfact> 0.16438526E+02</totfact>
</mgrwt>
</event>
<event>
 4    1  0.1804641E-005  0.9667415E+03  0.7818608E-02  0.9345794E-01
         -2   -1    0    0    0  501 -0.00000000000E+00  0.00000000000E+00  0.13501601820E+03  0.13501601823E+03  0.25500000000E-02 0.  1.
          2   -1    0    0  501    0  0.00000000000E+00 -0.00000000000E+00 -0.17305154050E+04  0.17305154050E+04  0.25500000000E-02 0. -1.
   -5000001    1    1    2    0    0 -0.39597141736E+03 -0.11266599259E+03 -0.87637942760E+03  0.10000139451E+04  0.25000000000E+03 0.  0.
    5000001    1    1    2    0    0  0.39597141736E+03  0.11266599259E+03 -0.71911995917E+03  0.86551747811E+03  0.25000000000E+03 0.  0.
<mgrwt>
<rscale>  0 0.96674154E+03</rscale>
<asrwt>0</asrwt>
<pdfrwt beam="1">  1        2 0.26623312E+00 0.96674154E+03</pdfrwt>
<pdfrwt beam="2">  1       -2 0.20771696E-01 0.96674154E+03</pdfrwt>
<totfact> 0.18877311E+02</totfact>
</mgrwt>
</event>
<event>
 4    1  0.1804641E-005  0.8407278E+03  0.7818608E-02  0.9502867E-01
         -2   -1    0    0    0  501 -0.00000000000E+00  0.00000000000E+00  0.18732283651E+03  0.18732283652E+03  0.25500000000E-02 0. -1.
          2   -1    0    0  501    0  0.00000000000E+00 -0.00000000000E+00 -0.94332221489E+03  0.94332221489E+03  0.25500000000E-02 0.  1.
   -5000001    1    1    2    0    0  0.15968961082E+03  0.22287101708E+03 -0.11230075236E+03  0.38766444386E+03  0.25000000000E+03 0.  0.
    5000001    1    1    2    0    0 -0.15968961082E+03 -0.22287101708E+03 -0.64369862602E+03  0.74298060755E+03  0.25000000000E+03 0.  0.
<mgrwt>
<rscale>  0 0.84072776E+03</rscale>
<asrwt>0</asrwt>
<pdfrwt beam="1">  1        2 0.14512649E+00 0.84072776E+03</pdfrwt>
<pdfrwt beam="2">  1       -2 0.28818899E-01 0.84072776E+03</pdfrwt>
<totfact> 0.30400738E+02</totfact>
</mgrwt>
</event>
<event>
 4    1  0.1804641E-005  0.7958715E+03  0.7818608E-02  0.9566012E-01
          2   -1    0    0  501    0  0.00000000000E+00  0.00000000000E+00  0.69907527014E+03  0.69907527015E+03  0.25500000000E-02 0.  1.
         -2   -1    0    0    0  501 -0.00000000000E+00 -0.00000000000E+00 -0.22651760849E+03  0.22651760851E+03  0.25500000000E-02 0. -1.
   -5000001    1    1    2    0    0 -0.68789594084E+02 -0.26477054140E+03  0.67675302453E+02  0.37671659694E+03  0.25000000000E+03 0.  0.
    5000001    1    1    2    0    0  0.68789594084E+02  0.26477054140E+03  0.40488235919E+03  0.54887628172E+03  0.25000000000E+03 0.  0.
<mgrwt>
<rscale>  0 0.79587149E+03</rscale>
<asrwt>0</asrwt>
<pdfrwt beam="1">  1        2 0.10755004E+00 0.79587149E+03</pdfrwt>
<pdfrwt beam="2">  1       -2 0.34848863E-01 0.79587149E+03</pdfrwt>
<totfact> 0.31868383E+02</totfact>
</mgrwt>
</event>
<event>
 4    1  0.1804641E-005  0.7401561E+03  0.7818608E-02  0.9650922E-01
          2   -1    0    0  501    0  0.00000000000E+00  0.00000000000E+00  0.25115915497E+04  0.25115915497E+04  0.25500000000E-02 0.  1.
         -2   -1    0    0    0  501 -0.00000000000E+00 -0.00000000000E+00 -0.54530265031E+02  0.54530265091E+02  0.25500000000E-02 0. -1.
   -5000001    1    1    2    0    0 -0.14248531107E+03  0.22942189078E+03  0.10933049335E+04  0.11535823098E+04  0.25000000000E+03 0.  0.
    5000001    1    1    2    0    0  0.14248531107E+03 -0.22942189078E+03  0.13637563511E+04  0.14125395050E+04  0.25000000000E+03 0.  0.
<mgrwt>
<rscale>  0 0.74015607E+03</rscale>
<asrwt>0</asrwt>
<pdfrwt beam="1">  1        2 0.38639867E+00 0.74015607E+03</pdfrwt>
<pdfrwt beam="2">  1       -2 0.83892721E-02 0.74015607E+03</pdfrwt>
<totfact> 0.32478613E+02</totfact>
</mgrwt>
</event>
<event>
 4    1  0.1804641E-005  0.6823888E+03  0.7818608E-02  0.9747833E-01
         -2   -1    0    0    0  501 -0.00000000000E+00  0.00000000000E+00  0.12630722115E+03  0.12630722118E+03  0.25500000000E-02 0. -1.
          2   -1    0    0  501    0  0.00000000000E+00 -0.00000000000E+00 -0.92167045003E+03  0.92167045004E+03  0.25500000000E-02 0.  1.
   -5000001    1    1    2    0    0  0.80805126697E+01  0.22675687528E+03 -0.32198216812E+03  0.46653669926E+03  0.25000000000E+03 0.  0.
    5000001    1    1    2    0    0 -0.80805126697E+01 -0.22675687528E+03 -0.47338106076E+03  0.58144097195E+03  0.25000000000E+03 0.  0.
<mgrwt>
<rscale>  0 0.68238884E+03</rscale>
<asrwt>0</asrwt>
<pdfrwt beam="1">  1        2 0.14179545E+00 0.68238884E+03</pdfrwt>
<pdfrwt beam="2">  1       -2 0.19431881E-01 0.68238884E+03</pdfrwt>
<totfact> 0.64056669E+02</totfact>
</mgrwt>
</event>
<event>
 4    1  0.1804641E-005  0.7378645E+03  0.7818608E-02  0.9654584E-01
          2   -1    0    0  501    0  0.00000000000E+00  0.00000000000E+00  0.11856664545E+04  0.11856664545E+04  0.25500000000E-02 0.  1.
         -2   -1    0    0    0  501 -0.00000000000E+00 -0.00000000000E+00 -0.11479704096E+03  0.11479704098E+03  0.25500000000E-02 0. -1.
   -5000001    1    1    2    0    0  0.58799099217E+02 -0.23176752183E+03  0.76139868186E+03  0.83630226054E+03  0.25000000000E+03 0.  0.
    5000001    1    1    2    0    0 -0.58799099217E+02  0.23176752183E+03  0.30947073164E+03  0.46416123490E+03  0.25000000000E+03 0.  0.
<mgrwt>
<rscale>  0 0.73786449E+03</rscale>
<asrwt>0</asrwt>
<pdfrwt beam="1">  1        2 0.18241024E+00 0.73786449E+03</pdfrwt>
<pdfrwt beam="2">  1       -2 0.17661082E-01 0.73786449E+03</pdfrwt>
<totfact> 0.51608044E+02</totfact>
</mgrwt>
</event>
<event>
 4    1  0.1804641E-005  0.6961708E+03  0.7818608E-02  0.9723803E-01
          2   -1    0    0  501    0  0.00000000000E+00  0.00000000000E+00  0.23962819692E+04  0.23962819692E+04  0.25500000000E-02 0.  1.
         -2   -1    0    0    0  501 -0.00000000000E+00 -0.00000000000E+00 -0.50563096331E+02  0.50563096395E+02  0.25500000000E-02 0. -1.
   -5000001    1    1    2    0    0  0.22963987937E+03  0.74649205861E+02  0.12392176770E+04  0.12870382392E+04  0.25000000000E+03 0.  0.
    5000001    1    1    2    0    0 -0.22963987937E+03 -0.74649205861E+02  0.11065011959E+04  0.11598068264E+04  0.25000000000E+03 0.  0.
<mgrwt>
<rscale>  0 0.69617077E+03</rscale>
<asrwt>0</asrwt>
<pdfrwt beam="1">  1        2 0.36865872E+00 0.69617077E+03</pdfrwt>
<pdfrwt beam="2">  1       -2 0.77789389E-02 0.69617077E+03</pdfrwt>
<totfact> 0.42733844E+02</totfact>
</mgrwt>
</event>
<event>
 4    1  0.1804641E-005  0.8872873E+03  0.7818608E-02  0.9441614E-01
         -2   -1    0    0    0  501 -0.00000000000E+00  0.00000000000E+00  0.23974382454E+03  0.23974382455E+03  0.25500000000E-02 0. -1.
          2   -1    0    0  501    0  0.00000000000E+00 -0.00000000000E+00 -0.82095825193E+03  0.82095825193E+03  0.25500000000E-02 0.  1.
   -5000001    1    1    2    0    0  0.20400000687E+03  0.27693974307E+03 -0.44185824622E+03  0.61322943002E+03  0.25000000000E+03 0.  0.
    5000001    1    1    2    0    0 -0.20400000687E+03 -0.27693974307E+03 -0.13935618117E+03  0.44747264646E+03  0.25000000000E+03 0.  0.
<mgrwt>
<rscale>  0 0.88728726E+03</rscale>
<asrwt>0</asrwt>
<pdfrwt beam="1">  1        2 0.12630127E+00 0.88728726E+03</pdfrwt>
<pdfrwt beam="2">  1       -2 0.36883666E-01 0.88728726E+03</pdfrwt>
<totfact> 0.23099046E+02</totfact>
</mgrwt>
</event>
<event>
 4    1  0.1804641E-005  0.1407689E+04  0.7818608E-02  0.8948272E-01
          2   -1    0    0  501    0  0.00000000000E+00  0.00000000000E+00  0.31160845650E+04  0.31160845650E+04  0.25500000000E-02 0.  1.
         -2   -1    0    0    0  501 -0.00000000000E+00 -0.00000000000E+00 -0.15898052000E+03  0.15898052002E+03  0.25500000000E-02 0. -1.
   -5000001    1    1    2    0    0  0.53691442771E+02 -0.62237764977E+03  0.99801819352E+03  0.12036515378E+04  0.25000000000E+03 0.  0.
    5000001    1    1    2    0    0 -0.53691442771E+02  0.62237764977E+03  0.19590858515E+04  0.20714135472E+04  0.25000000000E+03 0.  0.
<mgrwt>
<rscale>  0 0.14076885E+04</rscale>
<asrwt>0</asrwt>
<pdfrwt beam="1">  1        2 0.47939767E+00 0.14076885E+04</pdfrwt>
<pdfrwt beam="2">  1       -2 0.24458540E-01 0.14076885E+04</pdfrwt>
<totfact> 0.21566544E+01</totfact>
</mgrwt>
</event>
<event>
 4    1  0.1804641E-005  0.8389102E+03  0.7818608E-02  0.9505343E-01
          2   -1    0    0  501    0  0.00000000000E+00  0.00000000000E+00  0.92006729850E+03  0.92006729851E+03  0.25500000000E-02 0.  1.
         -2   -1    0    0    0  501 -0.00000000000E+00 -0.00000000000E+00 -0.19122793882E+03  0.19122793884E+03  0.25500000000E-02 0. -1.
   -5000001    1    1    2    0    0 -0.34072028367E+02 -0.33463618995E+03  0.34146429029E+03  0.54059240125E+03  0.25000000000E+03 0.  0.
    5000001    1    1    2    0    0  0.34072028367E+02  0.33463618995E+03  0.38737506939E+03  0.57070283609E+03  0.25000000000E+03 0.  0.
<mgrwt>
<rscale>  0 0.83891018E+03</rscale>
<asrwt>0</asrwt>
<pdfrwt beam="1">  1        2 0.14154881E+00 0.83891018E+03</pdfrwt>
<pdfrwt beam="2">  1       -2 0.29419683E-01 0.83891018E+03</pdfrwt>
<totfact> 0.30322039E+02</totfact>
</mgrwt>
</event>
<event>
 4    1  0.1804641E-005  0.6557289E+03  0.7818608E-02  0.9796088E-01
          2   -1    0    0  501    0  0.00000000000E+00  0.00000000000E+00  0.13734638391E+04  0.13734638391E+04  0.25500000000E-02 0.  1.
         -2   -1    0    0    0  501 -0.00000000000E+00 -0.00000000000E+00 -0.78265703065E+02  0.78265703107E+02  0.25500000000E-02 0. -1.
   -5000001    1    1    2    0    0 -0.13380560586E+02 -0.20952748583E+03  0.71454238374E+03  0.78558998522E+03  0.25000000000E+03 0.  0.
    5000001    1    1    2    0    0  0.13380560586E+02  0.20952748583E+03  0.58065575233E+03  0.66613955703E+03  0.25000000000E+03 0.  0.
<mgrwt>
<rscale>  0 0.65572895E+03</rscale>
<asrwt>0</asrwt>
<pdfrwt beam="1">  1        2 0.21130209E+00 0.65572895E+03</pdfrwt>
<pdfrwt beam="2">  1       -2 0.12040880E-01 0.65572895E+03</pdfrwt>
<totfact> 0.76915479E+02</totfact>
</mgrwt>
</event>
<event>
 4    1  0.1804641E-005  0.9660922E+03  0.7818608E-02  0.9346537E-01
          2   -1    0    0  501    0  0.00000000000E+00  0.00000000000E+00  0.10457148051E+04  0.10457148051E+04  0.25500000000E-02 0.  1.
         -2   -1    0    0    0  501 -0.00000000000E+00 -0.00000000000E+00 -0.22313306269E+03  0.22313306270E+03  0.25500000000E-02 0. -1.
   -5000001    1    1    2    0    0 -0.37772137954E+03 -0.36543502516E+02  0.19618204321E+03  0.49497097108E+03  0.25000000000E+03 0.  0.
    5000001    1    1    2    0    0  0.37772137954E+03  0.36543502516E+02  0.62639969923E+03  0.77387689675E+03  0.25000000000E+03 0.  0.
<mgrwt>
<rscale>  0 0.96609223E+03</rscale>
<asrwt>0</asrwt>
<pdfrwt beam="1">  1        2 0.16087920E+00 0.96609223E+03</pdfrwt>
<pdfrwt beam="2">  1       -2 0.34328163E-01 0.96609223E+03</pdfrwt>
<totfact> 0.18701285E+02</totfact>
</mgrwt>
</event>
<event>
 4    1  0.1804641E-005  0.1126286E+04  0.7818608E-02  0.9179944E-01
         -2   -1    0    0    0  501 -0.00000000000E+00  0.00000000000E+00  0.40424537405E+03  0.40424537406E+03  0.25500000000E-02 0. -1.
          2   -1    0    0  501    0  0.00000000000E+00 -0.00000000000E+00 -0.78449928920E+03  0.78449928921E+03  0.25500000000E-02 0.  1.
   -5000001    1    1    2    0    0 -0.79150073490E+02  0.46872691995E+03 -0.36880946181E+03  0.65152903139E+03  0.25000000000E+03 0.  0.
    5000001    1    1    2    0    0  0.79150073490E+02 -0.46872691995E+03 -0.11444453343E+02  0.53721563188E+03  0.25000000000E+03 0.  0.
<mgrwt>
<rscale>  0 0.11262863E+04</rscale>
<asrwt>0</asrwt>
<pdfrwt beam="1">  1        2 0.12069220E+00 0.11262863E+04</pdfrwt>
<pdfrwt beam="2">  1       -2 0.62191596E-01 0.11262863E+04</pdfrwt>
<totfact> 0.84137207E+01</totfact>
</mgrwt>
</event>
<event>
 4    1  0.1804641E-005  0.7989382E+03  0.7818608E-02  0.9561555E-01
         -2   -1    0    0    0  501 -0.00000000000E+00  0.00000000000E+00  0.12621362042E+03  0.12621362045E+03  0.25500000000E-02 0. -1.
          2   -1    0    0  501    0  0.00000000000E+00 -0.00000000000E+00 -0.12643290156E+04  0.12643290156E+04  0.25500000000E-02 0.  1.
   -5000001    1    1    2    0    0 -0.20759086917E+03  0.21964517391E+03 -0.43722134198E+03  0.58736740909E+03  0.25000000000E+03 0.  0.
    5000001    1    1    2    0    0  0.20759086917E+03 -0.21964517391E+03 -0.70089405320E+03  0.80317522695E+03  0.25000000000E+03 0.  0.
<mgrwt>
<rscale>  0 0.79893815E+03</rscale>
<asrwt>0</asrwt>
<pdfrwt beam="1">  1        2 0.19451215E+00 0.79893815E+03</pdfrwt>
<pdfrwt beam="2">  1       -2 0.19417481E-01 0.79893815E+03</pdfrwt>
<totfact> 0.39245729E+02</totfact>
</mgrwt>
</event>
<event>
 4    1  0.1804641E-005  0.5699744E+03  0.7818608E-02  0.9969735E-01
         -2   -1    0    0    0  501 -0.00000000000E+00  0.00000000000E+00  0.71588928670E+02  0.71588928715E+02  0.25500000000E-02 0. -1.
          2   -1    0    0  501    0  0.00000000000E+00 -0.00000000000E+00 -0.11345008808E+04  0.11345008808E+04  0.25500000000E-02 0.  1.
   -5000001    1    1    2    0    0  0.37443961656E+02  0.28688654143E+02 -0.80320565707E+03  0.84253451958E+03  0.25000000000E+03 0.  0.
    5000001    1    1    2    0    0 -0.37443961656E+02 -0.28688654143E+02 -0.25970629504E+03  0.36355528991E+03  0.25000000000E+03 0.  0.
<mgrwt>
<rscale>  0 0.56997439E+03</rscale>
<asrwt>0</asrwt>
<pdfrwt beam="1">  1        2 0.17453858E+00 0.56997439E+03</pdfrwt>
<pdfrwt beam="2">  1       -2 0.11013682E-01 0.56997439E+03</pdfrwt>
<totfact> 0.12290527E+03</totfact>
</mgrwt>
</event>
<event>
 4    1  0.1804641E-005  0.5520711E+03  0.7818608E-02  0.1001016E+00
          2   -1    0    0  501    0  0.00000000000E+00  0.00000000000E+00  0.10428551864E+04  0.10428551864E+04  0.25500000000E-02 0.  1.
         -2   -1    0    0    0  501 -0.00000000000E+00 -0.00000000000E+00 -0.73064447182E+02  0.73064447227E+02  0.25500000000E-02 0. -1.
   -5000001    1    1    2    0    0 -0.28331128215E+02  0.29720307472E+02  0.70641067314E+03  0.75046784650E+03  0.25000000000E+03 0.  0.
    5000001    1    1    2    0    0  0.28331128215E+02 -0.29720307472E+02  0.26338006604E+03  0.36545178709E+03  0.25000000000E+03 0.  0.
<mgrwt>
<rscale>  0 0.55207115E+03</rscale>
<asrwt>0</asrwt>
<pdfrwt beam="1">  1        2 0.16043924E+00 0.55207115E+03</pdfrwt>
<pdfrwt beam="2">  1       -2 0.11240685E-01 0.55207115E+03</pdfrwt>
<totfact> 0.13521923E+03</totfact>
</mgrwt>
</event>
<event>
 4    1  0.1804641E-005  0.1362494E+04  0.7818608E-02  0.8981424E-01
          2   -1    0    0  501    0  0.00000000000E+00  0.00000000000E+00  0.10768632612E+04  0.10768632612E+04  0.25500000000E-02 0.  1.
         -2   -1    0    0    0  501 -0.00000000000E+00 -0.00000000000E+00 -0.43097181257E+03  0.43097181258E+03  0.25500000000E-02 0. -1.
   -5000001    1    1    2    0    0 -0.52199913010E+03 -0.33506845654E+03  0.17931792203E+03  0.69239358717E+03  0.25000000000E+03 0.  0.
    5000001    1    1    2    0    0  0.52199913010E+03  0.33506845654E+03  0.46657352664E+03  0.81544148665E+03  0.25000000000E+03 0.  0.
<mgrwt>
<rscale>  0 0.13624943E+04</rscale>
<asrwt>0</asrwt>
<pdfrwt beam="1">  1        2 0.16567127E+00 0.13624943E+04</pdfrwt>
<pdfrwt beam="2">  1       -2 0.66303356E-01 0.13624943E+04</pdfrwt>
<totfact> 0.45972840E+01</totfact>
</mgrwt>
</event>
<event>
 4    1  0.1804641E-005  0.6877962E+03  0.7818608E-02  0.9738333E-01
          2   -1    0    0  501    0  0.00000000000E+00  0.00000000000E+00  0.97771732715E+03  0.97771732715E+03  0.25500000000E-02 0.  1.
         -2   -1    0    0    0  501 -0.00000000000E+00 -0.00000000000E+00 -0.12096125112E+03  0.12096125115E+03  0.25500000000E-02 0. -1.
   -5000001    1    1    2    0    0  0.16529010466E+03 -0.50294953807E+02  0.17122553808E+03  0.34881024349E+03  0.25000000000E+03 0.  0.
    5000001    1    1    2    0    0 -0.16529010466E+03  0.50294953807E+02  0.68553053796E+03  0.74986833481E+03  0.25000000000E+03 0.  0.
<mgrwt>
<rscale>  0 0.68779622E+03</rscale>
<asrwt>0</asrwt>
<pdfrwt beam="1">  1        2 0.15041805E+00 0.68779622E+03</pdfrwt>
<pdfrwt beam="2">  1       -2 0.18609423E-01 0.68779622E+03</pdfrwt>
<totfact> 0.63463610E+02</totfact>
</mgrwt>
</event>
<event>
 4    1  0.1804641E-005  0.1026602E+04  0.7818608E-02  0.9279840E-01
          2   -1    0    0  501    0  0.00000000000E+00  0.00000000000E+00  0.37660877233E+03  0.37660877234E+03  0.25500000000E-02 0.  1.
         -2   -1    0    0    0  501 -0.00000000000E+00 -0.00000000000E+00 -0.69960676193E+03  0.69960676194E+03  0.25500000000E-02 0. -1.
   -5000001    1    1    2    0    0 -0.26333442845E+03  0.35813190257E+03 -0.22239738448E+03  0.55638482857E+03  0.25000000000E+03 0.  0.
    5000001    1    1    2    0    0  0.26333442845E+03 -0.35813190257E+03 -0.10060060512E+03  0.51983070571E+03  0.25000000000E+03 0.  0.
<mgrwt>
<rscale>  0 0.10266022E+04</rscale>
<asrwt>0</asrwt>
<pdfrwt beam="1">  1        2 0.57939812E-01 0.10266022E+04</pdfrwt>
<pdfrwt beam="2">  1       -2 0.10763181E+00 0.10266022E+04</pdfrwt>
<totfact> 0.58764259E+01</totfact>
</mgrwt>
</event>
<event>
 4    1  0.1804641E-005  0.5482795E+03  0.7818608E-02  0.1001893E+00
         -2   -1    0    0    0  501 -0.00000000000E+00  0.00000000000E+00  0.80650492195E+02  0.80650492236E+02  0.25500000000E-02 0. -1.
          2   -1    0    0  501    0  0.00000000000E+00 -0.00000000000E+00 -0.93183051870E+03  0.93183051870E+03  0.25500000000E-02 0.  1.
   -5000001    1    1    2    0    0  0.79752648399E+02 -0.78894180671E+02 -0.41038305192E+03  0.49345620472E+03  0.25000000000E+03 0.  0.
    5000001    1    1    2    0    0 -0.79752648399E+02  0.78894180671E+02 -0.44079697458E+03  0.51902480622E+03  0.25000000000E+03 0.  0.
<mgrwt>
<rscale>  0 0.54827945E+03</rscale>
<asrwt>0</asrwt>
<pdfrwt beam="1">  1        2 0.14335853E+00 0.54827945E+03</pdfrwt>
<pdfrwt beam="2">  1       -2 0.12407769E-01 0.54827945E+03</pdfrwt>
<totfact> 0.13526196E+03</totfact>
</mgrwt>
</event>
<event>
 4    1  0.1804641E-005  0.8519279E+03  0.7818608E-02  0.9487753E-01
         -2   -1    0    0    0  501 -0.00000000000E+00  0.00000000000E+00  0.84448589988E+02  0.84448590026E+02  0.25500000000E-02 0. -1.
          2   -1    0    0  501    0  0.00000000000E+00 -0.00000000000E+00 -0.21485886907E+04  0.21485886907E+04  0.25500000000E-02 0.  1.
   -5000001    1    1    2    0    0 -0.33434818085E+03 -0.31430823568E+02 -0.82620181077E+03  0.92622137463E+03  0.25000000000E+03 0.  0.
    5000001    1    1    2    0    0  0.33434818085E+03  0.31430823568E+02 -0.12379382899E+04  0.13068159061E+04  0.25000000000E+03 0.  0.
<mgrwt>
<rscale>  0 0.85192790E+03</rscale>
<asrwt>0</asrwt>
<pdfrwt beam="1">  1        2 0.33055207E+00 0.85192790E+03</pdfrwt>
<pdfrwt beam="2">  1       -2 0.12992092E-01 0.85192790E+03</pdfrwt>
<totfact> 0.25082656E+02</totfact>
</mgrwt>
</event>
<event>
 4    1  0.1804641E-005  0.1305898E+04  0.7818608E-02  0.9024901E-01
          2   -1    0    0  501    0  0.00000000000E+00  0.00000000000E+00  0.18594114320E+04  0.18594114320E+04  0.25500000000E-02 0.  1.
         -2   -1    0    0    0  501 -0.00000000000E+00 -0.00000000000E+00 -0.22928905558E+03  0.22928905559E+03  0.25500000000E-02 0. -1.
   -5000001    1    1    2    0    0  0.35245461184E+03  0.46450061301E+03  0.10621085977E+04  0.12371579310E+04  0.25000000000E+03 0.  0.
    5000001    1    1    2    0    0 -0.35245461184E+03 -0.46450061301E+03  0.56801377870E+03  0.85154255659E+03  0.25000000000E+03 0.  0.
<mgrwt>
<rscale>  0 0.13058985E+04</rscale>
<asrwt>0</asrwt>
<pdfrwt beam="1">  1        2 0.28606328E+00 0.13058985E+04</pdfrwt>
<pdfrwt beam="2">  1       -2 0.35275241E-01 0.13058985E+04</pdfrwt>
<totfact> 0.59152486E+01</totfact>
</mgrwt>
</event>
<event>
 4    1  0.1804641E-005  0.9212107E+03  0.7818608E-02  0.9399449E-01
          2   -1    0    0  501    0  0.00000000000E+00  0.00000000000E+00  0.12259537674E+04  0.12259537674E+04  0.25500000000E-02 0.  1.
         -2   -1    0    0    0  501 -0.00000000000E+00 -0.00000000000E+00 -0.17305488714E+03  0.17305488716E+03  0.25500000000E-02 0. -1.
   -5000001    1    1    2    0    0 -0.20506698382E+03  0.11954517660E+03  0.99036004623E+03  0.10486450964E+04  0.25000000000E+03 0.  0.
    5000001    1    1    2    0    0  0.20506698382E+03 -0.11954517660E+03  0.62538834031E+02  0.35036355813E+03  0.25000000000E+03 0.  0.
<mgrwt>
<rscale>  0 0.92121071E+03</rscale>
<asrwt>0</asrwt>
<pdfrwt beam="1">  1        2 0.18860826E+00 0.92121071E+03</pdfrwt>
<pdfrwt beam="2">  1       -2 0.26623830E-01 0.92121071E+03</pdfrwt>
<totfact> 0.23384653E+02</totfact>
</mgrwt>
</event>
<event>
 4    1  0.1804641E-005  0.2178126E+04  0.7818608E-02  0.8527588E-01
          2   -1    0    0  501    0  0.00000000000E+00  0.00000000000E+00  0.95412968588E+03  0.95412968588E+03  0.25500000000E-02 0.  1.
         -2   -1    0    0    0  501 -0.00000000000E+00 -0.00000000000E+00 -0.12430787037E+04  0.12430787037E+04  0.25500000000E-02 0. -1.
   -5000001    1    1    2    0    0  0.73523559064E+03 -0.75751099912E+03 -0.47907027001E+02  0.10859048627E+04  0.25000000000E+03 0.  0.
    5000001    1    1    2    0    0 -0.73523559064E+03  0.75751099912E+03 -0.24104199078E+03  0.11113035269E+04  0.25000000000E+03 0.  0.
<mgrwt>
<rscale>  0 0.21781261E+04</rscale>
<asrwt>0</asrwt>
<pdfrwt beam="1">  1        2 0.14678918E+00 0.21781261E+04</pdfrwt>
<pdfrwt beam="2">  1       -2 0.19124288E+00 0.21781261E+04</pdfrwt>
<totfact> 0.37555141E+00</totfact>
</mgrwt>
</event>
<event>
 4    1  0.1804641E-005  0.8372064E+03  0.7818608E-02  0.9507671E-01
          2   -1    0    0  501    0  0.00000000000E+00  0.00000000000E+00  0.10889350315E+04  0.10889350315E+04  0.25500000000E-02 0.  1.
         -2   -1    0    0    0  501 -0.00000000000E+00 -0.00000000000E+00 -0.16091742649E+03  0.16091742651E+03  0.25500000000E-02 0. -1.
   -5000001    1    1    2    0    0 -0.24136686228E+03 -0.23039278623E+03  0.51966406684E+03  0.66625035874E+03  0.25000000000E+03 0.  0.
    5000001    1    1    2    0    0  0.24136686228E+03  0.23039278623E+03  0.40835353817E+03  0.58360209928E+03  0.25000000000E+03 0.  0.
<mgrwt>
<rscale>  0 0.83720636E+03</rscale>
<asrwt>0</asrwt>
<pdfrwt beam="1">  1        2 0.16752846E+00 0.83720636E+03</pdfrwt>
<pdfrwt beam="2">  1       -2 0.24756527E-01 0.83720636E+03</pdfrwt>
<totfact> 0.32415872E+02</totfact>
</mgrwt>
</event>
<event>
 4    1  0.1804641E-005  0.8088467E+03  0.7818608E-02  0.9547299E-01
          2   -1    0    0  501    0  0.00000000000E+00  0.00000000000E+00  0.89139061984E+03  0.89139061985E+03  0.25500000000E-02 0.  1.
         -2   -1    0    0    0  501 -0.00000000000E+00 -0.00000000000E+00 -0.18348659590E+03  0.18348659592E+03  0.25500000000E-02 0. -1.
   -5000001    1    1    2    0    0  0.19870572033E+03  0.77235867500E+02  0.40576710314E+02  0.33105258184E+03  0.25000000000E+03 0.  0.
    5000001    1    1    2    0    0 -0.19870572033E+03 -0.77235867500E+02  0.66732731363E+03  0.74382463393E+03  0.25000000000E+03 0.  0.
<mgrwt>
<rscale>  0 0.80884666E+03</rscale>
<asrwt>0</asrwt>
<pdfrwt beam="1">  1        2 0.13713702E+00 0.80884666E+03</pdfrwt>
<pdfrwt beam="2">  1       -2 0.28228707E-01 0.80884666E+03</pdfrwt>
<totfact> 0.34256912E+02</totfact>
</mgrwt>
</event>
<event>
 4    1  0.1804641E-005  0.1051191E+04  0.7818608E-02  0.9254115E-01
         -2   -1    0    0    0  501 -0.00000000000E+00  0.00000000000E+00  0.22633310518E+03  0.22633310519E+03  0.25500000000E-02 0. -1.
          2   -1    0    0  501    0  0.00000000000E+00 -0.00000000000E+00 -0.12205493613E+04  0.12205493613E+04  0.25500000000E-02 0.  1.
   -5000001    1    1    2    0    0  0.43556932001E+03 -0.72268363893E+02 -0.30834564988E+03  0.59373427453E+03  0.25000000000E+03 0.  0.
    5000001    1    1    2    0    0 -0.43556932001E+03  0.72268363893E+02 -0.68587060629E+03  0.85314819201E+03  0.25000000000E+03 0.  0.
<mgrwt>
<rscale>  0 0.10511912E+04</rscale>
<asrwt>0</asrwt>
<pdfrwt beam="1">  1        2 0.18777682E+00 0.10511912E+04</pdfrwt>
<pdfrwt beam="2">  1       -2 0.34820478E-01 0.10511912E+04</pdfrwt>
<totfact> 0.14167530E+02</totfact>
</mgrwt>
</event>
<event>
 4    1  0.1804641E-005  0.5350462E+03  0.7818608E-02  0.1005016E+00
          2   -1    0    0  501    0  0.00000000000E+00  0.00000000000E+00  0.52705665506E+03  0.52705665506E+03  0.25500000000E-02 0.  1.
         -2   -1    0    0    0  501 -0.00000000000E+00 -0.00000000000E+00 -0.13578919905E+03  0.13578919908E+03  0.25500000000E-02 0. -1.
   -5000001    1    1    2    0    0  0.89818495834E+02  0.28384565687E+02  0.21295804298E+03  0.34164919703E+03  0.25000000000E+03 0.  0.
    5000001    1    1    2    0    0 -0.89818495834E+02 -0.28384565687E+02  0.17830941302E+03  0.32119665711E+03  0.25000000000E+03 0.  0.
<mgrwt>
<rscale>  0 0.53504617E+03</rscale>
<asrwt>0</asrwt>
<pdfrwt beam="1">  1        2 0.81085641E-01 0.53504617E+03</pdfrwt>
<pdfrwt beam="2">  1       -2 0.20890646E-01 0.53504617E+03</pdfrwt>
<totfact> 0.11462912E+03</totfact>
</mgrwt>
</event>
<event>
 4    1  0.1804641E-005  0.6489475E+03  0.7818608E-02  0.9808756E-01
          2   -1    0    0  501    0  0.00000000000E+00  0.00000000000E+00  0.48201245492E+03  0.48201245492E+03  0.25500000000E-02 0.  1.
         -2   -1    0    0    0  501 -0.00000000000E+00 -0.00000000000E+00 -0.21842428535E+03  0.21842428536E+03  0.25500000000E-02 0. -1.
   -5000001    1    1    2    0    0 -0.19285833864E+03  0.54175388573E+02  0.76190499761E+02  0.32929364367E+03  0.25000000000E+03 0.  0.
    5000001    1    1    2    0    0  0.19285833864E+03 -0.54175388573E+02  0.18739766981E+03  0.37114309661E+03  0.25000000000E+03 0.  0.
<mgrwt>
<rscale>  0 0.64894754E+03</rscale>
<asrwt>0</asrwt>
<pdfrwt beam="1">  1        2 0.74155762E-01 0.64894754E+03</pdfrwt>
<pdfrwt beam="2">  1       -2 0.33603736E-01 0.64894754E+03</pdfrwt>
<totfact> 0.53568644E+02</totfact>
</mgrwt>
</event>
<event>
 4    1  0.1804641E-005  0.9008850E+03  0.7818608E-02  0.9424476E-01
          2   -1    0    0  501    0  0.00000000000E+00  0.00000000000E+00  0.51010083463E+03  0.51010083463E+03  0.25500000000E-02 0.  1.
         -2   -1    0    0    0  501 -0.00000000000E+00 -0.00000000000E+00 -0.39776147551E+03  0.39776147551E+03  0.25500000000E-02 0. -1.
   -5000001    1    1    2    0    0 -0.30912413988E+03 -0.12936248066E+03  0.22511677061E+03  0.47483675686E+03  0.25000000000E+03 0.  0.
    5000001    1    1    2    0    0  0.30912413988E+03  0.12936248066E+03 -0.11277741148E+03  0.43302555329E+03  0.25000000000E+03 0.  0.
<mgrwt>
<rscale>  0 0.90088503E+03</rscale>
<asrwt>0</asrwt>
<pdfrwt beam="1">  1        2 0.78477051E-01 0.90088503E+03</pdfrwt>
<pdfrwt beam="2">  1       -2 0.61194073E-01 0.90088503E+03</pdfrwt>
<totfact> 0.15000822E+02</totfact>
</mgrwt>
</event>
<event>
 4    1  0.1804641E-005  0.5881964E+03  0.7818608E-02  0.9930202E-01
         -2   -1    0    0    0  501 -0.00000000000E+00  0.00000000000E+00  0.31061855390E+02  0.31061855495E+02  0.25500000000E-02 0. -1.
          2   -1    0    0  501    0  0.00000000000E+00 -0.00000000000E+00 -0.27845646370E+04  0.27845646370E+04  0.25500000000E-02 0.  1.
   -5000001    1    1    2    0    0  0.42633087855E+02  0.13130701236E+03 -0.10404875973E+04  0.10789687446E+04  0.25000000000E+03 0.  0.
    5000001    1    1    2    0    0 -0.42633087855E+02 -0.13130701236E+03 -0.17130151843E+04  0.17366577479E+04  0.25000000000E+03 0.  0.
<mgrwt>
<rscale>  0 0.58819638E+03</rscale>
<asrwt>0</asrwt>
<pdfrwt beam="1">  1        2 0.42839436E+00 0.58819638E+03</pdfrwt>
<pdfrwt beam="2">  1       -2 0.47787492E-02 0.58819638E+03</pdfrwt>
<totfact> 0.55684513E+02</totfact>
</mgrwt>
</event>
<event>
 4    1  0.1804641E-005  0.8976240E+03  0.7818608E-02  0.9428556E-01
          2   -1    0    0  501    0  0.00000000000E+00  0.00000000000E+00  0.19880524731E+04  0.19880524731E+04  0.25500000000E-02 0. -1.
         -2   -1    0    0    0  501 -0.00000000000E+00 -0.00000000000E+00 -0.10132136571E+03  0.10132136575E+03  0.25500000000E-02 0.  1.
   -5000001    1    1    2    0    0 -0.18944400143E+03  0.31279668036E+03  0.77549218922E+03  0.89309513964E+03  0.25000000000E+03 0.  0.
    5000001    1    1    2    0    0  0.18944400143E+03 -0.31279668036E+03  0.11112389182E+04  0.11962786992E+04  0.25000000000E+03 0.  0.
<mgrwt>
<rscale>  0 0.89762396E+03</rscale>
<asrwt>0</asrwt>
<pdfrwt beam="1">  1        2 0.30585421E+00 0.89762396E+03</pdfrwt>
<pdfrwt beam="2">  1       -2 0.15587903E-01 0.89762396E+03</pdfrwt>
<totfact> 0.22528250E+02</totfact>
</mgrwt>
</event>
<event>
 4    1  0.1804641E-005  0.1186939E+04  0.7818608E-02  0.9124366E-01
          2   -1    0    0  501    0  0.00000000000E+00  0.00000000000E+00  0.72808030685E+03  0.72808030685E+03  0.25500000000E-02 0.  1.
         -2   -1    0    0    0  501 -0.00000000000E+00 -0.00000000000E+00 -0.48374610913E+03  0.48374610914E+03  0.25500000000E-02 0. -1.
   -5000001    1    1    2    0    0  0.38155241716E+03  0.45404222829E+02  0.50698152188E+03  0.68350131969E+03  0.25000000000E+03 0.  0.
    5000001    1    1    2    0    0 -0.38155241716E+03 -0.45404222829E+02 -0.26264732417E+03  0.52832509630E+03  0.25000000000E+03 0.  0.
<mgrwt>
<rscale>  0 0.11869389E+04</rscale>
<asrwt>0</asrwt>
<pdfrwt beam="1">  1        2 0.11201235E+00 0.11869389E+04</pdfrwt>
<pdfrwt beam="2">  1       -2 0.74422479E-01 0.11869389E+04</pdfrwt>
<totfact> 0.62542453E+01</totfact>
</mgrwt>
</event>
<event>
 4    1  0.1804641E-005  0.6734154E+03  0.7818608E-02  0.9763807E-01
         -2   -1    0    0    0  501 -0.00000000000E+00  0.00000000000E+00  0.49414065015E+02  0.49414065081E+02  0.25500000000E-02 0. -1.
          2   -1    0    0  501    0  0.00000000000E+00 -0.00000000000E+00 -0.22943279594E+04  0.22943279594E+04  0.25500000000E-02 0.  1.
   -5000001    1    1    2    0    0  0.18540084911E+03  0.12760556946E+03 -0.11735385560E+04  0.12207986724E+04  0.25000000000E+03 0.  0.
    5000001    1    1    2    0    0 -0.18540084911E+03 -0.12760556946E+03 -0.10713753384E+04  0.11229433521E+04  0.25000000000E+03 0.  0.
<mgrwt>
<rscale>  0 0.67341539E+03</rscale>
<asrwt>0</asrwt>
<pdfrwt beam="1">  1        2 0.35297345E+00 0.67341539E+03</pdfrwt>
<pdfrwt beam="2">  1       -2 0.76021656E-02 0.67341539E+03</pdfrwt>
<totfact> 0.50610331E+02</totfact>
</mgrwt>
</event>
<event>
 4    1  0.1804641E-005  0.7778790E+03  0.7818608E-02  0.9592600E-01
         -2   -1    0    0    0  501 -0.00000000000E+00  0.00000000000E+00  0.23034594743E+03  0.23034594745E+03  0.25500000000E-02 0. -1.
          2   -1    0    0  501    0  0.00000000000E+00 -0.00000000000E+00 -0.65672495217E+03  0.65672495217E+03  0.25500000000E-02 0.  1.
   -5000001    1    1    2    0    0 -0.96008319304E+02  0.27016406512E+03 -0.12077218976E+03  0.39911419579E+03  0.25000000000E+03 0.  0.
    5000001    1    1    2    0    0  0.96008319304E+02 -0.27016406512E+03 -0.30560681497E+03  0.48795670383E+03  0.25000000000E+03 0.  0.
<mgrwt>
<rscale>  0 0.77787899E+03</rscale>
<asrwt>0</asrwt>
<pdfrwt beam="1">  1        2 0.10103461E+00 0.77787899E+03</pdfrwt>
<pdfrwt beam="2">  1       -2 0.35437838E-01 0.77787899E+03</pdfrwt>
<totfact> 0.33398611E+02</totfact>
</mgrwt>
</event>
<event>
 4    1  0.1804641E-005  0.6644933E+03  0.7818608E-02  0.9779957E-01
          2   -1    0    0  501    0  0.00000000000E+00  0.00000000000E+00  0.17217430747E+04  0.17217430747E+04  0.25500000000E-02 0.  1.
         -2   -1    0    0    0  501 -0.00000000000E+00 -0.00000000000E+00 -0.64114010072E+02  0.64114010122E+02  0.25500000000E-02 0. -1.
   -5000001    1    1    2    0    0 -0.21302357897E+03 -0.43409593484E+02  0.76165731646E+03  0.83059334557E+03  0.25000000000E+03 0.  0.
    5000001    1    1    2    0    0  0.21302357897E+03  0.43409593484E+02  0.89597174819E+03  0.95526373927E+03  0.25000000000E+03 0.  0.
<mgrwt>
<rscale>  0 0.66449335E+03</rscale>
<asrwt>0</asrwt>
<pdfrwt beam="1">  1        2 0.26488356E+00 0.66449335E+03</pdfrwt>
<pdfrwt beam="2">  1       -2 0.98636934E-02 0.66449335E+03</pdfrwt>
<totfact> 0.68407947E+02</totfact>
</mgrwt>
</event>
<event>
 4    1  0.1804641E-005  0.5594669E+03  0.7818608E-02  0.9993262E-01
         -2   -1    0    0    0  501 -0.00000000000E+00  0.00000000000E+00  0.35871725149E+02  0.35871725239E+02  0.25500000000E-02 0. -1.
          2   -1    0    0  501    0  0.00000000000E+00 -0.00000000000E+00 -0.21814064859E+04  0.21814064859E+04  0.25500000000E-02 0.  1.
   -5000001    1    1    2    0    0 -0.10962022433E+03 -0.34564685432E+02 -0.12724867201E+04  0.13018962186E+04  0.25000000000E+03 0.  0.
    5000001    1    1    2    0    0  0.10962022433E+03  0.34564685432E+02 -0.87304804060E+03  0.91538199254E+03  0.25000000000E+03 0.  0.
<mgrwt>
<rscale>  0 0.55946694E+03</rscale>
<asrwt>0</asrwt>
<pdfrwt beam="1">  1        2 0.33560090E+00 0.55946694E+03</pdfrwt>
<pdfrwt beam="2">  1       -2 0.55187286E-02 0.55946694E+03</pdfrwt>
<totfact> 0.97521733E+02</totfact>
</mgrwt>
</event>
<event>
 4    1  0.1804641E-005  0.5715680E+03  0.7818608E-02  0.9966215E-01
         -2   -1    0    0    0  501 -0.00000000000E+00  0.00000000000E+00  0.58405263698E+02  0.58405263754E+02  0.25500000000E-02 0. -1.
          2   -1    0    0  501    0  0.00000000000E+00 -0.00000000000E+00 -0.13983755702E+04  0.13983755702E+04  0.25500000000E-02 0.  1.
   -5000001    1    1    2    0    0 -0.97952618566E+02  0.93873486529E+02 -0.74050514402E+03  0.79325583217E+03  0.25000000000E+03 0.  0.
    5000001    1    1    2    0    0  0.97952618566E+02 -0.93873486529E+02 -0.59946516245E+03  0.66352500175E+03  0.25000000000E+03 0.  0.
<mgrwt>
<rscale>  0 0.57156800E+03</rscale>
<asrwt>0</asrwt>
<pdfrwt beam="1">  1        2 0.21513468E+00 0.57156800E+03</pdfrwt>
<pdfrwt beam="2">  1       -2 0.89854262E-02 0.57156800E+03</pdfrwt>
<totfact> 0.12036181E+03</totfact>
</mgrwt>
</event>
<event>
 4    1  0.1804641E-005  0.6790111E+03  0.7818608E-02  0.9753815E-01
         -2   -1    0    0    0  501 -0.00000000000E+00  0.00000000000E+00  0.58108864887E+03  0.58108864887E+03  0.25500000000E-02 0. -1.
          2   -1    0    0  501    0  0.00000000000E+00 -0.00000000000E+00 -0.19835873282E+03  0.19835873284E+03  0.25500000000E-02 0.  1.
   -5000001    1    1    2    0    0 -0.22196803631E+03 -0.15697454650E+02  0.25678394883E+03  0.42184619899E+03  0.25000000000E+03 0.  0.
    5000001    1    1    2    0    0  0.22196803631E+03  0.15697454650E+02  0.12594596722E+03  0.35760118272E+03  0.25000000000E+03 0.  0.
<mgrwt>
<rscale>  0 0.67901107E+03</rscale>
<asrwt>0</asrwt>
<pdfrwt beam="1">  1        2 0.30516729E-01 0.67901107E+03</pdfrwt>
<pdfrwt beam="2">  1       -2 0.89398252E-01 0.67901107E+03</pdfrwt>
<totfact> 0.18933018E+02</totfact>
</mgrwt>
</event>
<event>
 4    1  0.1804641E-005  0.1619006E+04  0.7818608E-02  0.8808956E-01
         -2   -1    0    0    0  501 -0.00000000000E+00  0.00000000000E+00  0.20190809231E+03  0.20190809232E+03  0.25500000000E-02 0. -1.
          2   -1    0    0  501    0  0.00000000000E+00 -0.00000000000E+00 -0.32455121552E+04  0.32455121552E+04  0.25500000000E-02 0.  1.
   -5000001    1    1    2    0    0 -0.57694897067E+03 -0.50725167120E+03 -0.14127930483E+04  0.16274699905E+04  0.25000000000E+03 0.  0.
    5000001    1    1    2    0    0  0.57694897067E+03  0.50725167120E+03 -0.16308110147E+04  0.18199502571E+04  0.25000000000E+03 0.  0.
<mgrwt>
<rscale>  0 0.16190061E+04</rscale>
<asrwt>0</asrwt>
<pdfrwt beam="1">  1        2 0.49930952E+00 0.16190061E+04</pdfrwt>
<pdfrwt beam="2">  1       -2 0.31062786E-01 0.16190061E+04</pdfrwt>
<totfact> 0.11228915E+01</totfact>
</mgrwt>
</event>
<event>
 4    1  0.1804641E-005  0.6498211E+03  0.7818608E-02  0.9807115E-01
         -2   -1    0    0    0  501 -0.00000000000E+00  0.00000000000E+00  0.59228607767E+02  0.59228607822E+02  0.25500000000E-02 0. -1.
          2   -1    0    0  501    0  0.00000000000E+00 -0.00000000000E+00 -0.17823628341E+04  0.17823628341E+04  0.25500000000E-02 0.  1.
   -5000001    1    1    2    0    0 -0.20601899777E+03  0.14387679644E+02 -0.91937208297E+03  0.97488248507E+03  0.25000000000E+03 0.  0.
    5000001    1    1    2    0    0  0.20601899777E+03 -0.14387679644E+02 -0.80376214332E+03  0.86670895680E+03  0.25000000000E+03 0.  0.
<mgrwt>
<rscale>  0 0.64982111E+03</rscale>
<asrwt>0</asrwt>
<pdfrwt beam="1">  1        2 0.27420963E+00 0.64982111E+03</pdfrwt>
<pdfrwt beam="2">  1       -2 0.91120949E-02 0.64982111E+03</pdfrwt>
<totfact> 0.72147342E+02</totfact>
</mgrwt>
</event>
<event>
 4    1  0.1804641E-005  0.1281520E+04  0.7818608E-02  0.9044350E-01
         -2   -1    0    0    0  501 -0.00000000000E+00  0.00000000000E+00  0.33899361734E+03  0.33899361735E+03  0.25500000000E-02 0. -1.
          2   -1    0    0  501    0  0.00000000000E+00 -0.00000000000E+00 -0.12111540757E+04  0.12111540758E+04  0.25500000000E-02 0.  1.
   -5000001    1    1    2    0    0  0.37770916586E+03 -0.44572086648E+03 -0.53540288600E+03  0.83095580817E+03  0.25000000000E+03 0.  0.
    5000001    1    1    2    0    0 -0.37770916586E+03  0.44572086648E+03 -0.33675757240E+03  0.71919188494E+03  0.25000000000E+03 0.  0.
<mgrwt>
<rscale>  0 0.12815202E+04</rscale>
<asrwt>0</asrwt>
<pdfrwt beam="1">  1        2 0.18633139E+00 0.12815202E+04</pdfrwt>
<pdfrwt beam="2">  1       -2 0.52152865E-01 0.12815202E+04</pdfrwt>
<totfact> 0.63521392E+01</totfact>
</mgrwt>
</event>
<event>
 4    1  0.1804641E-005  0.1161413E+04  0.7818608E-02  0.9147319E-01
         -2   -1    0    0    0  501 -0.00000000000E+00  0.00000000000E+00  0.39188627331E+03  0.39188627332E+03  0.25500000000E-02 0. -1.
          2   -1    0    0  501    0  0.00000000000E+00 -0.00000000000E+00 -0.86050476532E+03  0.86050476533E+03  0.25500000000E-02 0.  1.
   -5000001    1    1    2    0    0 -0.45891760721E+03  0.16469259699E+03 -0.44170565472E+03  0.70379891099E+03  0.25000000000E+03 0.  0.
    5000001    1    1    2    0    0  0.45891760721E+03 -0.16469259699E+03 -0.26912837299E+02  0.54859212765E+03  0.25000000000E+03 0.  0.
<mgrwt>
<rscale>  0 0.11614129E+04</rscale>
<asrwt>0</asrwt>
<pdfrwt beam="1">  1        2 0.13238535E+00 0.11614129E+04</pdfrwt>
<pdfrwt beam="2">  1       -2 0.60290196E-01 0.11614129E+04</pdfrwt>
<totfact> 0.79160661E+01</totfact>
</mgrwt>
</event>
<event>
 4    1  0.1804641E-005  0.1172202E+04  0.7818608E-02  0.9137542E-01
          2   -1    0    0  501    0  0.00000000000E+00  0.00000000000E+00  0.94831151751E+03  0.94831151751E+03  0.25500000000E-02 0.  1.
         -2   -1    0    0    0  501 -0.00000000000E+00 -0.00000000000E+00 -0.36223781391E+03  0.36223781392E+03  0.25500000000E-02 0. -1.
   -5000001    1    1    2    0    0 -0.50435409488E+03  0.15062197068E+02  0.47474361263E+03  0.73653338046E+03  0.25000000000E+03 0.  0.
    5000001    1    1    2    0    0  0.50435409488E+03 -0.15062197068E+02  0.11133009097E+03  0.57401595096E+03  0.25000000000E+03 0.  0.
<mgrwt>
<rscale>  0 0.11722018E+04</rscale>
<asrwt>0</asrwt>
<pdfrwt beam="1">  1        2 0.14589408E+00 0.11722018E+04</pdfrwt>
<pdfrwt beam="2">  1       -2 0.55728894E-01 0.11722018E+04</pdfrwt>
<totfact> 0.81392347E+01</totfact>
</mgrwt>
</event>
<event>
 4    1  0.1804641E-005  0.9418028E+03  0.7818608E-02  0.9374783E-01
         -2   -1    0    0    0  501 -0.00000000000E+00  0.00000000000E+00  0.23591196603E+03  0.23591196604E+03  0.25500000000E-02 0. -1.
          2   -1    0    0  501    0  0.00000000000E+00 -0.00000000000E+00 -0.93996139947E+03  0.93996139947E+03  0.25500000000E-02 0.  1.
   -5000001    1    1    2    0    0 -0.35641207594E+03  0.60306968353E+02 -0.56310329564E+03  0.71431913027E+03  0.25000000000E+03 0.  0.
    5000001    1    1    2    0    0  0.35641207594E+03 -0.60306968353E+02 -0.14094613780E+03  0.46155423524E+03  0.25000000000E+03 0.  0.
<mgrwt>
<rscale>  0 0.94180283E+03</rscale>
<asrwt>0</asrwt>
<pdfrwt beam="1">  1        2 0.14460944E+00 0.94180283E+03</pdfrwt>
<pdfrwt beam="2">  1       -2 0.36294149E-01 0.94180283E+03</pdfrwt>
<totfact> 0.19695613E+02</totfact>
</mgrwt>
</event>
<event>
 4    1  0.1804641E-005  0.9285382E+03  0.7818608E-02  0.9390594E-01
         -2   -1    0    0    0  501 -0.00000000000E+00  0.00000000000E+00  0.95372352060E+02  0.95372352094E+02  0.25500000000E-02 0. -1.
          2   -1    0    0  501    0  0.00000000000E+00 -0.00000000000E+00 -0.22600451011E+04  0.22600451011E+04  0.25500000000E-02 0.  1.
   -5000001    1    1    2    0    0 -0.38330756426E+03  0.66103712183E+02 -0.97617557580E+03  0.10801449645E+04  0.25000000000E+03 0.  0.
    5000001    1    1    2    0    0  0.38330756426E+03 -0.66103712183E+02 -0.11884971732E+04  0.12752724887E+04  0.25000000000E+03 0.  0.
<mgrwt>
<rscale>  0 0.92853824E+03</rscale>
<asrwt>0</asrwt>
<pdfrwt beam="1">  1        2 0.34769920E+00 0.92853824E+03</pdfrwt>
<pdfrwt beam="2">  1       -2 0.14672671E-01 0.92853824E+03</pdfrwt>
<totfact> 0.17624126E+02</totfact>
</mgrwt>
</event>
<event>
 4    1  0.1804641E-005  0.8268331E+03  0.7818608E-02  0.9521969E-01
          2   -1    0    0  501    0  0.00000000000E+00  0.00000000000E+00  0.50528919879E+03  0.50528919880E+03  0.25500000000E-02 0. -1.
         -2   -1    0    0    0  501 -0.00000000000E+00 -0.00000000000E+00 -0.33824834017E+03  0.33824834018E+03  0.25500000000E-02 0.  1.
   -5000001    1    1    2    0    0  0.16948488865E+03  0.20335798237E+03 -0.11622487722E+03  0.38221436205E+03  0.25000000000E+03 0.  0.
    5000001    1    1    2    0    0 -0.16948488865E+03 -0.20335798237E+03  0.28326573584E+03  0.46132317693E+03  0.25000000000E+03 0.  0.
<mgrwt>
<rscale>  0 0.82683307E+03</rscale>
<asrwt>0</asrwt>
<pdfrwt beam="1">  1        2 0.77736800E-01 0.82683307E+03</pdfrwt>
<pdfrwt beam="2">  1       -2 0.52038206E-01 0.82683307E+03</pdfrwt>
<totfact> 0.21342847E+02</totfact>
</mgrwt>
</event>
<event>
 4    1  0.1804641E-005  0.6550392E+03  0.7818608E-02  0.9797369E-01
         -2   -1    0    0    0  501 -0.00000000000E+00  0.00000000000E+00  0.10023681821E+03  0.10023681824E+03  0.25500000000E-02 0. -1.
          2   -1    0    0  501    0  0.00000000000E+00 -0.00000000000E+00 -0.10701565671E+04  0.10701565671E+04  0.25500000000E-02 0.  1.
   -5000001    1    1    2    0    0  0.11307786057E+03  0.12023171131E+03 -0.72150617395E+03  0.78122559226E+03  0.25000000000E+03 0.  0.
    5000001    1    1    2    0    0 -0.11307786057E+03 -0.12023171131E+03 -0.24841357493E+03  0.38916779307E+03  0.25000000000E+03 0.  0.
<mgrwt>
<rscale>  0 0.65503920E+03</rscale>
<asrwt>0</asrwt>
<pdfrwt beam="1">  1        2 0.16463946E+00 0.65503920E+03</pdfrwt>
<pdfrwt beam="2">  1       -2 0.15421050E-01 0.65503920E+03</pdfrwt>
<totfact> 0.76657531E+02</totfact>
</mgrwt>
</event>
<event>
 4    1  0.1804641E-005  0.1245988E+04  0.7818608E-02  0.9073529E-01
          2   -1    0    0  501    0  0.00000000000E+00  0.00000000000E+00  0.55137809438E+03  0.55137809439E+03  0.25500000000E-02 0.  1.
         -2   -1    0    0    0  501 -0.00000000000E+00 -0.00000000000E+00 -0.70391177968E+03  0.70391177969E+03  0.25500000000E-02 0. -1.
   -5000001    1    1    2    0    0 -0.50269052040E+03 -0.24399485799E+03  0.40313433731E+02  0.61347895071E+03  0.25000000000E+03 0.  0.
    5000001    1    1    2    0    0  0.50269052040E+03  0.24399485799E+03 -0.19284711903E+03  0.64181092336E+03  0.25000000000E+03 0.  0.
<mgrwt>
<rscale>  0 0.12459880E+04</rscale>
<asrwt>0</asrwt>
<pdfrwt beam="1">  1        2 0.84827399E-01 0.12459880E+04</pdfrwt>
<pdfrwt beam="2">  1       -2 0.10829412E+00 0.12459880E+04</pdfrwt>
<totfact> 0.36846782E+01</totfact>
</mgrwt>
</event>
<event>
 4    1  0.1804641E-005  0.1055364E+04  0.7818608E-02  0.9249824E-01
          2   -1    0    0  501    0  0.00000000000E+00  0.00000000000E+00  0.14720360506E+04  0.14720360506E+04  0.25500000000E-02 0.  1.
         -2   -1    0    0    0  501 -0.00000000000E+00 -0.00000000000E+00 -0.18915858155E+03  0.18915858156E+03  0.25500000000E-02 0. -1.
   -5000001    1    1    2    0    0  0.44574494781E+03 -0.46536800406E+02  0.44805465275E+03  0.68125414065E+03  0.25000000000E+03 0.  0.
    5000001    1    1    2    0    0 -0.44574494781E+03  0.46536800406E+02  0.83482281626E+03  0.97994049148E+03  0.25000000000E+03 0.  0.
<mgrwt>
<rscale>  0 0.10553639E+04</rscale>
<asrwt>0</asrwt>
<pdfrwt beam="1">  1        2 0.22646708E+00 0.10553639E+04</pdfrwt>
<pdfrwt beam="2">  1       -2 0.29101320E-01 0.10553639E+04</pdfrwt>
<totfact> 0.14208913E+02</totfact>
</mgrwt>
</event>
<event>
 4    1  0.1804641E-005  0.7034228E+03  0.7818608E-02  0.9711397E-01
          2   -1    0    0  501    0  0.00000000000E+00  0.00000000000E+00  0.25970114768E+03  0.25970114769E+03  0.25500000000E-02 0.  1.
         -2   -1    0    0    0  501 -0.00000000000E+00 -0.00000000000E+00 -0.47632029113E+03  0.47632029114E+03  0.25500000000E-02 0. -1.
   -5000001    1    1    2    0    0 -0.14903627372E+03  0.13596503871E+03  0.41513505546E+02  0.32391615239E+03  0.25000000000E+03 0.  0.
    5000001    1    1    2    0    0  0.14903627372E+03 -0.13596503871E+03 -0.25813264899E+03  0.41210528644E+03  0.25000000000E+03 0.  0.
<mgrwt>
<rscale>  0 0.70342285E+03</rscale>
<asrwt>0</asrwt>
<pdfrwt beam="1">  1        2 0.39954023E-01 0.70342285E+03</pdfrwt>
<pdfrwt beam="2">  1       -2 0.73280045E-01 0.70342285E+03</pdfrwt>
<totfact> 0.21892362E+02</totfact>
</mgrwt>
</event>
<event>
 4    1  0.1804641E-005  0.5695821E+03  0.7818608E-02  0.9970604E-01
         -2   -1    0    0    0  501 -0.00000000000E+00  0.00000000000E+00  0.28475222627E+03  0.28475222628E+03  0.25500000000E-02 0. -1.
          2   -1    0    0  501    0  0.00000000000E+00 -0.00000000000E+00 -0.28482990972E+03  0.28482990973E+03  0.25500000000E-02 0.  1.
   -5000001    1    1    2    0    0 -0.97138133105E+02  0.57677598559E+02 -0.76481164679E+02  0.28480149373E+03  0.25000000000E+03 0.  0.
    5000001    1    1    2    0    0  0.97138133105E+02 -0.57677598559E+02  0.76403481232E+02  0.28478064229E+03  0.25000000000E+03 0.  0.
<mgrwt>
<rscale>  0 0.56958213E+03</rscale>
<asrwt>0</asrwt>
<pdfrwt beam="1">  1        2 0.43819986E-01 0.56958213E+03</pdfrwt>
<pdfrwt beam="2">  1       -2 0.43808035E-01 0.56958213E+03</pdfrwt>
<totfact> 0.57905607E+02</totfact>
</mgrwt>
</event>
<event>
 4    1  0.1804641E-005  0.8426220E+03  0.7818608E-02  0.9500293E-01
         -2   -1    0    0    0  501 -0.00000000000E+00  0.00000000000E+00  0.72012074716E+02  0.72012074761E+02  0.25500000000E-02 0. -1.
          2   -1    0    0  501    0  0.00000000000E+00 -0.00000000000E+00 -0.24649053897E+04  0.24649053897E+04  0.25500000000E-02 0.  1.
   -5000001    1    1    2    0    0  0.72272088503E+02 -0.28485607636E+03 -0.17059360312E+04  0.17490237224E+04  0.25000000000E+03 0.  0.
    5000001    1    1    2    0    0 -0.72272088503E+02  0.28485607636E+03 -0.68695728380E+03  0.78789374207E+03  0.25000000000E+03 0.  0.
<mgrwt>
<rscale>  0 0.84262198E+03</rscale>
<asrwt>0</asrwt>
<pdfrwt beam="1">  1        2 0.37921615E+00 0.84262198E+03</pdfrwt>
<pdfrwt beam="2">  1       -2 0.11078783E-01 0.84262198E+03</pdfrwt>
<totfact> 0.21766507E+02</totfact>
</mgrwt>
</event>
<event>
 4    1  0.1804641E-005  0.8711191E+03  0.7818608E-02  0.9462422E-01
         -2   -1    0    0    0  501 -0.00000000000E+00  0.00000000000E+00  0.17501220415E+03  0.17501220417E+03  0.25500000000E-02 0.  1.
          2   -1    0    0  501    0  0.00000000000E+00 -0.00000000000E+00 -0.10839937396E+04  0.10839937396E+04  0.25500000000E-02 0. -1.
   -5000001    1    1    2    0    0  0.27062455297E+03  0.22058410084E+03 -0.55987830490E+03  0.70559103631E+03  0.25000000000E+03 0.  0.
    5000001    1    1    2    0    0 -0.27062455297E+03 -0.22058410084E+03 -0.34910323050E+03  0.55341490743E+03  0.25000000000E+03 0.  0.
<mgrwt>
<rscale>  0 0.87111913E+03</rscale>
<asrwt>0</asrwt>
<pdfrwt beam="1">  1        2 0.16676826E+00 0.87111913E+03</pdfrwt>
<pdfrwt beam="2">  1       -2 0.26924955E-01 0.87111913E+03</pdfrwt>
<totfact> 0.27981435E+02</totfact>
</mgrwt>
</event>
<event>
 4    1  0.1804641E-005  0.5831123E+03  0.7818608E-02  0.9941076E-01
         -2   -1    0    0    0  501 -0.00000000000E+00  0.00000000000E+00  0.29851128097E+03  0.29851128098E+03  0.25500000000E-02 0.  1.
          2   -1    0    0  501    0  0.00000000000E+00 -0.00000000000E+00 -0.28476307226E+03  0.28476307227E+03  0.25500000000E-02 0. -1.
   -5000001    1    1    2    0    0  0.14719245146E+03 -0.28744664046E+02  0.10496712847E+02  0.29172256419E+03  0.25000000000E+03 0.  0.
    5000001    1    1    2    0    0 -0.14719245146E+03  0.28744664046E+02  0.32514958639E+01  0.29155178906E+03  0.25000000000E+03 0.  0.
<mgrwt>
<rscale>  0 0.58311230E+03</rscale>
<asrwt>0</asrwt>
<pdfrwt beam="1">  1        2 0.43809703E-01 0.58311230E+03</pdfrwt>
<pdfrwt beam="2">  1       -2 0.45924812E-01 0.58311230E+03</pdfrwt>
<totfact> 0.52736032E+02</totfact>
</mgrwt>
</event>
<event>
 4    1  0.1804641E-005  0.7383915E+03  0.7818608E-02  0.9653740E-01
         -2   -1    0    0    0  501 -0.00000000000E+00  0.00000000000E+00  0.12829255697E+03  0.12829255699E+03  0.25500000000E-02 0. -1.
          2   -1    0    0  501    0  0.00000000000E+00 -0.00000000000E+00 -0.10624585052E+04  0.10624585052E+04  0.25500000000E-02 0.  1.
   -5000001    1    1    2    0    0 -0.23616634432E+03 -0.91747606596E+02 -0.30896847256E+03  0.47133181787E+03  0.25000000000E+03 0.  0.
    5000001    1    1    2    0    0  0.23616634432E+03  0.91747606596E+02 -0.62519747563E+03  0.71941924428E+03  0.25000000000E+03 0.  0.
<mgrwt>
<rscale>  0 0.73839154E+03</rscale>
<asrwt>0</asrwt>
<pdfrwt beam="1">  1        2 0.16345515E+00 0.73839154E+03</pdfrwt>
<pdfrwt beam="2">  1       -2 0.19737317E-01 0.73839154E+03</pdfrwt>
<totfact> 0.50550468E+02</totfact>
</mgrwt>
</event>
<event>
 4    1  0.1804641E-005  0.6942865E+03  0.7818608E-02  0.9727053E-01
          2   -1    0    0  501    0  0.00000000000E+00  0.00000000000E+00  0.25659719605E+04  0.25659719605E+04  0.25500000000E-02 0.  1.
         -2   -1    0    0    0  501 -0.00000000000E+00 -0.00000000000E+00 -0.46964051259E+02  0.46964051329E+02  0.25500000000E-02 0. -1.
   -5000001    1    1    2    0    0 -0.61737680257E+02 -0.18186358257E+03  0.18064734010E+04  0.18337753549E+04  0.25000000000E+03 0.  0.
    5000001    1    1    2    0    0  0.61737680257E+02  0.18186358257E+03  0.71253450826E+03  0.77916065692E+03  0.25000000000E+03 0.  0.
<mgrwt>
<rscale>  0 0.69428651E+03</rscale>
<asrwt>0</asrwt>
<pdfrwt beam="1">  1        2 0.39476493E+00 0.69428651E+03</pdfrwt>
<pdfrwt beam="2">  1       -2 0.72252385E-02 0.69428651E+03</pdfrwt>
<totfact> 0.38557550E+02</totfact>
</mgrwt>
</event>
<event>
 4    1  0.1804641E-005  0.8218848E+03  0.7818608E-02  0.9528869E-01
         -2   -1    0    0    0  501 -0.00000000000E+00  0.00000000000E+00  0.10576630106E+04  0.10576630106E+04  0.25500000000E-02 0. -1.
          2   -1    0    0  501    0  0.00000000000E+00 -0.00000000000E+00 -0.15966677758E+03  0.15966677760E+03  0.25500000000E-02 0.  1.
   -5000001    1    1    2    0    0 -0.15915442837E+03 -0.20682438222E+03  0.73873953886E+03  0.82240048846E+03  0.25000000000E+03 0.  0.
    5000001    1    1    2    0    0  0.15915442837E+03  0.20682438222E+03  0.15925669414E+03  0.39492929973E+03  0.25000000000E+03 0.  0.
<mgrwt>
<rscale>  0 0.82188477E+03</rscale>
<asrwt>0</asrwt>
<pdfrwt beam="1">  1        2 0.24564119E-01 0.82188477E+03</pdfrwt>
<pdfrwt beam="2">  1       -2 0.16271739E+00 0.82188477E+03</pdfrwt>
<totfact> 0.54237839E+01</totfact>
</mgrwt>
</event>
<event>
 4    1  0.1804641E-005  0.6535943E+03  0.7818608E-02  0.9800058E-01
          2   -1    0    0  501    0  0.00000000000E+00  0.00000000000E+00  0.20138498983E+04  0.20138498983E+04  0.25500000000E-02 0.  1.
         -2   -1    0    0    0  501 -0.00000000000E+00 -0.00000000000E+00 -0.53030945797E+02  0.53030945858E+02  0.25500000000E-02 0. -1.
   -5000001    1    1    2    0    0  0.18881452060E+03 -0.80394345749E+02  0.11281343318E+04  0.11735847838E+04  0.25000000000E+03 0.  0.
    5000001    1    1    2    0    0 -0.18881452060E+03  0.80394345749E+02  0.83268462062E+03  0.89329606035E+03  0.25000000000E+03 0.  0.
<mgrwt>
<rscale>  0 0.65359426E+03</rscale>
<asrwt>0</asrwt>
<pdfrwt beam="1">  1        2 0.30982310E+00 0.65359426E+03</pdfrwt>
<pdfrwt beam="2">  1       -2 0.81586059E-02 0.65359426E+03</pdfrwt>
<totfact> 0.64501659E+02</totfact>
</mgrwt>
</event>
<event>
 4    1  0.1804641E-005  0.6709505E+03  0.7818608E-02  0.9768242E-01
         -2   -1    0    0    0  501 -0.00000000000E+00  0.00000000000E+00  0.48708455631E+02  0.48708455698E+02  0.25500000000E-02 0. -1.
          2   -1    0    0  501    0  0.00000000000E+00 -0.00000000000E+00 -0.23105566934E+04  0.23105566934E+04  0.25500000000E-02 0.  1.
   -5000001    1    1    2    0    0 -0.48788664853E+02  0.18646413280E+03 -0.73163494766E+03  0.79683053611E+03  0.25000000000E+03 0.  0.
    5000001    1    1    2    0    0  0.48788664853E+02 -0.18646413280E+03 -0.15302132901E+04  0.15624346130E+04  0.25000000000E+03 0.  0.
<mgrwt>
<rscale>  0 0.67095051E+03</rscale>
<asrwt>0</asrwt>
<pdfrwt beam="1">  1        2 0.35547017E+00 0.67095051E+03</pdfrwt>
<pdfrwt beam="2">  1       -2 0.74936104E-02 0.67095051E+03</pdfrwt>
<totfact> 0.50732350E+02</totfact>
</mgrwt>
</event>
<event>
 4    1  0.1804641E-005  0.1078784E+04  0.7818608E-02  0.9226121E-01
          2   -1    0    0  501    0  0.00000000000E+00  0.00000000000E+00  0.40394080729E+03  0.40394080730E+03  0.25500000000E-02 0.  1.
         -2   -1    0    0    0  501 -0.00000000000E+00 -0.00000000000E+00 -0.72026299499E+03  0.72026299500E+03  0.25500000000E-02 0. -1.
   -5000001    1    1    2    0    0  0.26511471408E+00  0.45616077595E+03 -0.94617551717E+01  0.52026171165E+03  0.25000000000E+03 0.  0.
    5000001    1    1    2    0    0 -0.26511471408E+00 -0.45616077595E+03 -0.30686043253E+03  0.60394209064E+03  0.25000000000E+03 0.  0.
<mgrwt>
<rscale>  0 0.10787838E+04</rscale>
<asrwt>0</asrwt>
<pdfrwt beam="1">  1        2 0.62144740E-01 0.10787838E+04</pdfrwt>
<pdfrwt beam="2">  1       -2 0.11080969E+00 0.10787838E+04</pdfrwt>
<totfact> 0.50454595E+01</totfact>
</mgrwt>
</event>
<event>
 4    1  0.1804641E-005  0.7850559E+03  0.7818608E-02  0.9581904E-01
          2   -1    0    0  501    0  0.00000000000E+00  0.00000000000E+00  0.10930861951E+04  0.10930861951E+04  0.25500000000E-02 0.  1.
         -2   -1    0    0    0  501 -0.00000000000E+00 -0.00000000000E+00 -0.14095703783E+03  0.14095703785E+03  0.25500000000E-02 0. -1.
   -5000001    1    1    2    0    0  0.13040018695E+03 -0.13264378096E+02  0.90482090222E+03  0.94782963532E+03  0.25000000000E+03 0.  0.
    5000001    1    1    2    0    0 -0.13040018695E+03  0.13264378096E+02  0.47308255062E+02  0.28621359765E+03  0.25000000000E+03 0.  0.
<mgrwt>
<rscale>  0 0.78505590E+03</rscale>
<asrwt>0</asrwt>
<pdfrwt beam="1">  1        2 0.16816710E+00 0.78505590E+03</pdfrwt>
<pdfrwt beam="2">  1       -2 0.21685699E-01 0.78505590E+03</pdfrwt>
<totfact> 0.40929985E+02</totfact>
</mgrwt>
</event>
<event>
 4    1  0.1804641E-005  0.1112416E+04  0.7818608E-02  0.9193174E-01
         -2   -1    0    0    0  501 -0.00000000000E+00  0.00000000000E+00  0.20845215013E+04  0.20845215013E+04  0.25500000000E-02 0. -1.
          2   -1    0    0  501    0  0.00000000000E+00 -0.00000000000E+00 -0.14841180661E+03  0.14841180664E+03  0.25500000000E-02 0.  1.
   -5000001    1    1    2    0    0 -0.39443967638E+03  0.55299545133E+02  0.15642780328E+04  0.16334339478E+04  0.25000000000E+03 0.  0.
    5000001    1    1    2    0    0  0.39443967638E+03 -0.55299545133E+02  0.37183166189E+03  0.59949936012E+03  0.25000000000E+03 0.  0.
<mgrwt>
<rscale>  0 0.11124165E+04</rscale>
<asrwt>0</asrwt>
<pdfrwt beam="1">  1        2 0.22832587E-01 0.11124165E+04</pdfrwt>
<pdfrwt beam="2">  1       -2 0.32069560E+00 0.11124165E+04</pdfrwt>
<totfact> 0.58116624E+00</totfact>
</mgrwt>
</event>
<event>
 4    1  0.1804641E-005  0.8532857E+03  0.7818608E-02  0.9485938E-01
         -2   -1    0    0    0  501 -0.00000000000E+00  0.00000000000E+00  0.27793533722E+03  0.27793533723E+03  0.25500000000E-02 0. -1.
          2   -1    0    0  501    0  0.00000000000E+00 -0.00000000000E+00 -0.65491541564E+03  0.65491541564E+03  0.25500000000E-02 0.  1.
   -5000001    1    1    2    0    0  0.12751831949E+03  0.26371554897E+03 -0.38923480588E+03  0.54754958377E+03  0.25000000000E+03 0.  0.
    5000001    1    1    2    0    0 -0.12751831949E+03 -0.26371554897E+03  0.12254727464E+02  0.38530116911E+03  0.25000000000E+03 0.  0.
<mgrwt>
<rscale>  0 0.85328574E+03</rscale>
<asrwt>0</asrwt>
<pdfrwt beam="1">  1        2 0.10075622E+00 0.85328574E+03</pdfrwt>
<pdfrwt beam="2">  1       -2 0.42759283E-01 0.85328574E+03</pdfrwt>
<totfact> 0.23200878E+02</totfact>
</mgrwt>
</event>
<event>
 4    1  0.1804641E-005  0.1103775E+04  0.7818608E-02  0.9201521E-01
         -2   -1    0    0    0  501 -0.00000000000E+00  0.00000000000E+00  0.77145556934E+03  0.77145556935E+03  0.25500000000E-02 0. -1.
          2   -1    0    0  501    0  0.00000000000E+00 -0.00000000000E+00 -0.39481165740E+03  0.39481165741E+03  0.25500000000E-02 0.  1.
   -5000001    1    1    2    0    0  0.40611859330E+03  0.25635602120E+03  0.75363062518E+02  0.54665374106E+03  0.25000000000E+03 0.  0.
    5000001    1    1    2    0    0 -0.40611859330E+03 -0.25635602120E+03  0.30128084943E+03  0.61961348569E+03  0.25000000000E+03 0.  0.
<mgrwt>
<rscale>  0 0.11037747E+04</rscale>
<asrwt>0</asrwt>
<pdfrwt beam="1">  1        2 0.60740255E-01 0.11037747E+04</pdfrwt>
<pdfrwt beam="2">  1       -2 0.11868547E+00 0.11037747E+04</pdfrwt>
<totfact> 0.43701451E+01</totfact>
</mgrwt>
</event>
<event>
 4    1  0.1804641E-005  0.7672339E+03  0.7818608E-02  0.9608694E-01
         -2   -1    0    0    0  501 -0.00000000000E+00  0.00000000000E+00  0.60626936719E+02  0.60626936773E+02  0.25500000000E-02 0. -1.
          2   -1    0    0  501    0  0.00000000000E+00 -0.00000000000E+00 -0.24273362618E+04  0.24273362618E+04  0.25500000000E-02 0.  1.
   -5000001    1    1    2    0    0  0.22749306763E+03 -0.11387481842E+03 -0.16412791903E+04  0.16795886254E+04  0.25000000000E+03 0.  0.
    5000001    1    1    2    0    0 -0.22749306763E+03  0.11387481842E+03 -0.72543013477E+03  0.80837457316E+03  0.25000000000E+03 0.  0.
<mgrwt>
<rscale>  0 0.76723389E+03</rscale>
<asrwt>0</asrwt>
<pdfrwt beam="1">  1        2 0.37343627E+00 0.76723389E+03</pdfrwt>
<pdfrwt beam="2">  1       -2 0.93272229E-02 0.76723389E+03</pdfrwt>
<totfact> 0.30473365E+02</totfact>
</mgrwt>
</event>
<event>
 4    1  0.1804641E-005  0.6268988E+03  0.7818608E-02  0.9851119E-01
          2   -1    0    0  501    0  0.00000000000E+00  0.00000000000E+00  0.23770363578E+04  0.23770363578E+04  0.25500000000E-02 0.  1.
         -2   -1    0    0    0  501 -0.00000000000E+00 -0.00000000000E+00 -0.41333201061E+02  0.41333201140E+02  0.25500000000E-02 0. -1.
   -5000001    1    1    2    0    0 -0.82050080663E+02 -0.14164464392E+03  0.80279474585E+03  0.85660657531E+03  0.25000000000E+03 0.  0.
    5000001    1    1    2    0    0  0.82050080663E+02  0.14164464392E+03  0.15329084109E+04  0.15617629836E+04  0.25000000000E+03 0.  0.
<mgrwt>
<rscale>  0 0.62689879E+03</rscale>
<asrwt>0</asrwt>
<pdfrwt beam="1">  1        2 0.36569782E+00 0.62689879E+03</pdfrwt>
<pdfrwt beam="2">  1       -2 0.63589555E-02 0.62689879E+03</pdfrwt>
<totfact> 0.60642906E+02</totfact>
</mgrwt>
</event>
<event>
 4    1  0.1804641E-005  0.5996935E+03  0.7818608E-02  0.9906042E-01
          2   -1    0    0  501    0  0.00000000000E+00  0.00000000000E+00  0.21731295510E+03  0.21731295511E+03  0.25500000000E-02 0. -1.
         -2   -1    0    0    0  501 -0.00000000000E+00 -0.00000000000E+00 -0.41372630890E+03  0.41372630891E+03  0.25500000000E-02 0.  1.
   -5000001    1    1    2    0    0  0.82180616794E+02 -0.12555100267E+03 -0.24612635154E+02  0.29261320862E+03  0.25000000000E+03 0.  0.
    5000001    1    1    2    0    0 -0.82180616794E+02  0.12555100267E+03 -0.17180071865E+03  0.33842605540E+03  0.25000000000E+03 0.  0.
<mgrwt>
<rscale>  0 0.59969354E+03</rscale>
<asrwt>0</asrwt>
<pdfrwt beam="1">  1        2 0.33432762E-01 0.59969354E+03</pdfrwt>
<pdfrwt beam="2">  1       -2 0.63650201E-01 0.59969354E+03</pdfrwt>
<totfact> 0.36325399E+02</totfact>
</mgrwt>
</event>
<event>
 4    1  0.1804641E-005  0.1073972E+04  0.7818608E-02  0.9230938E-01
         -2   -1    0    0    0  501 -0.00000000000E+00  0.00000000000E+00  0.17940036249E+03  0.17940036251E+03  0.25500000000E-02 0. -1.
          2   -1    0    0  501    0  0.00000000000E+00 -0.00000000000E+00 -0.16073216575E+04  0.16073216575E+04  0.25500000000E-02 0.  1.
   -5000001    1    1    2    0    0 -0.25008917057E+03 -0.21161032318E+03 -0.12867291359E+04  0.13511089487E+04  0.25000000000E+03 0.  0.
    5000001    1    1    2    0    0  0.25008917057E+03  0.21161032318E+03 -0.14119215915E+03  0.43561307134E+03  0.25000000000E+03 0.  0.
<mgrwt>
<rscale>  0 0.10739722E+04</rscale>
<asrwt>0</asrwt>
<pdfrwt beam="1">  1        2 0.24728025E+00 0.10739722E+04</pdfrwt>
<pdfrwt beam="2">  1       -2 0.27600057E-01 0.10739722E+04</pdfrwt>
<totfact> 0.13144145E+02</totfact>
</mgrwt>
</event>
<event>
 4    1  0.1804641E-005  0.6486636E+03  0.7818608E-02  0.9809290E-01
         -2   -1    0    0    0  501 -0.00000000000E+00  0.00000000000E+00  0.10074057806E+04  0.10074057806E+04  0.25500000000E-02 0. -1.
          2   -1    0    0  501    0  0.00000000000E+00 -0.00000000000E+00 -0.10441781923E+03  0.10441781927E+03  0.25500000000E-02 0.  1.
   -5000001    1    1    2    0    0  0.18484876681E+03 -0.30790850724E+02  0.60066285105E+03  0.67706203831E+03  0.25000000000E+03 0.  0.
    5000001    1    1    2    0    0 -0.18484876681E+03  0.30790850724E+02  0.30232511028E+03  0.43476156153E+03  0.25000000000E+03 0.  0.
<mgrwt>
<rscale>  0 0.64866359E+03</rscale>
<asrwt>0</asrwt>
<pdfrwt beam="1">  1        2 0.16064280E-01 0.64866359E+03</pdfrwt>
<pdfrwt beam="2">  1       -2 0.15498550E+00 0.64866359E+03</pdfrwt>
<totfact> 0.10292568E+02</totfact>
</mgrwt>
</event>
<event>
 4    1  0.1804641E-005  0.9214567E+03  0.7818608E-02  0.9399150E-01
         -2   -1    0    0    0  501 -0.00000000000E+00  0.00000000000E+00  0.35523773536E+03  0.35523773537E+03  0.25500000000E-02 0. -1.
          2   -1    0    0  501    0  0.00000000000E+00 -0.00000000000E+00 -0.59754524805E+03  0.59754524806E+03  0.25500000000E-02 0.  1.
   -5000001    1    1    2    0    0 -0.38010405824E+03  0.67850539901E+02 -0.14827187514E+03  0.48328805056E+03  0.25000000000E+03 0.  0.
    5000001    1    1    2    0    0  0.38010405824E+03 -0.67850539901E+02 -0.94035637548E+02  0.46949493287E+03  0.25000000000E+03 0.  0.
<mgrwt>
<rscale>  0 0.92145672E+03</rscale>
<asrwt>0</asrwt>
<pdfrwt beam="1">  1        2 0.91930038E-01 0.92145672E+03</pdfrwt>
<pdfrwt beam="2">  1       -2 0.54651959E-01 0.92145672E+03</pdfrwt>
<totfact> 0.15743970E+02</totfact>
</mgrwt>
</event>
<event>
 4    1  0.1804641E-005  0.7459125E+03  0.7818608E-02  0.9641785E-01
         -2   -1    0    0    0  501 -0.00000000000E+00  0.00000000000E+00  0.18678504939E+03  0.18678504941E+03  0.25500000000E-02 0. -1.
          2   -1    0    0  501    0  0.00000000000E+00 -0.00000000000E+00 -0.74468689244E+03  0.74468689245E+03  0.25500000000E-02 0.  1.
   -5000001    1    1    2    0    0  0.24271801236E+03  0.12002059823E+03 -0.20743889287E+03  0.42290409291E+03  0.25000000000E+03 0.  0.
    5000001    1    1    2    0    0 -0.24271801236E+03 -0.12002059823E+03 -0.35046295019E+03  0.50856784894E+03  0.25000000000E+03 0.  0.
<mgrwt>
<rscale>  0 0.74591254E+03</rscale>
<asrwt>0</asrwt>
<pdfrwt beam="1">  1        2 0.11456721E+00 0.74591254E+03</pdfrwt>
<pdfrwt beam="2">  1       -2 0.28736162E-01 0.74591254E+03</pdfrwt>
<totfact> 0.42267861E+02</totfact>
</mgrwt>
</event>
<event>
 4    1  0.1804641E-005  0.5600506E+03  0.7818608E-02  0.9991940E-01
         -2   -1    0    0    0  501 -0.00000000000E+00  0.00000000000E+00  0.38033360356E+02  0.38033360442E+02  0.25500000000E-02 0. -1.
          2   -1    0    0  501    0  0.00000000000E+00 -0.00000000000E+00 -0.20617207039E+04  0.20617207039E+04  0.25500000000E-02 0.  1.
   -5000001    1    1    2    0    0 -0.89942572433E+02 -0.72107851085E+02 -0.81975473470E+03  0.86474680317E+03  0.25000000000E+03 0.  0.
    5000001    1    1    2    0    0  0.89942572433E+02  0.72107851085E+02 -0.12039326089E+04  0.12350072612E+04  0.25000000000E+03 0.  0.
<mgrwt>
<rscale>  0 0.56005059E+03</rscale>
<asrwt>0</asrwt>
<pdfrwt beam="1">  1        2 0.31718771E+00 0.56005059E+03</pdfrwt>
<pdfrwt beam="2">  1       -2 0.58512878E-02 0.56005059E+03</pdfrwt>
<totfact> 0.10339307E+03</totfact>
</mgrwt>
</event>
<event>
 4    1  0.1804641E-005  0.7077706E+03  0.7818608E-02  0.9704035E-01
         -2   -1    0    0    0  501 -0.00000000000E+00  0.00000000000E+00  0.70489306964E+02  0.70489307011E+02  0.25500000000E-02 0. -1.
          2   -1    0    0  501    0  0.00000000000E+00 -0.00000000000E+00 -0.17766497474E+04  0.17766497474E+04  0.25500000000E-02 0.  1.
   -5000001    1    1    2    0    0 -0.11304280471E+03 -0.15802369236E+03 -0.44056149286E+03  0.54253533713E+03  0.25000000000E+03 0.  0.
    5000001    1    1    2    0    0  0.11304280471E+03  0.15802369236E+03 -0.12655989476E+04  0.13046037173E+04  0.25000000000E+03 0.  0.
<mgrwt>
<rscale>  0 0.70777061E+03</rscale>
<asrwt>0</asrwt>
<pdfrwt beam="1">  1        2 0.27333070E+00 0.70777061E+03</pdfrwt>
<pdfrwt beam="2">  1       -2 0.10844510E-01 0.70777061E+03</pdfrwt>
<totfact> 0.54566550E+02</totfact>
</mgrwt>
</event>
<event>
 4    1  0.1804641E-005  0.9564450E+03  0.7818608E-02  0.9357649E-01
          2   -1    0    0  501    0  0.00000000000E+00  0.00000000000E+00  0.74383406272E+03  0.74383406273E+03  0.25500000000E-02 0.  1.
         -2   -1    0    0    0  501 -0.00000000000E+00 -0.00000000000E+00 -0.30745669988E+03  0.30745669989E+03  0.25500000000E-02 0. -1.
   -5000001    1    1    2    0    0 -0.40100771662E+03 -0.31858000289E+01  0.29880647238E+03  0.55910879626E+03  0.25000000000E+03 0.  0.
    5000001    1    1    2    0    0  0.40100771662E+03  0.31858000289E+01  0.13757089046E+03  0.49218196637E+03  0.25000000000E+03 0.  0.
<mgrwt>
<rscale>  0 0.95644501E+03</rscale>
<asrwt>0</asrwt>
<pdfrwt beam="1">  1        2 0.11443601E+00 0.95644501E+03</pdfrwt>
<pdfrwt beam="2">  1       -2 0.47301032E-01 0.95644501E+03</pdfrwt>
<totfact> 0.16063216E+02</totfact>
</mgrwt>
</event>
<event>
 4    1  0.1804641E-005  0.1288592E+04  0.7818608E-02  0.9038661E-01
         -2   -1    0    0    0  501 -0.00000000000E+00  0.00000000000E+00  0.50168985935E+03  0.50168985936E+03  0.25500000000E-02 0. -1.
          2   -1    0    0  501    0  0.00000000000E+00 -0.00000000000E+00 -0.82743806266E+03  0.82743806267E+03  0.25500000000E-02 0.  1.
   -5000001    1    1    2    0    0  0.24138915549E+03 -0.36475404972E+03 -0.57713377553E+03  0.76609244614E+03  0.25000000000E+03 0.  0.
    5000001    1    1    2    0    0 -0.24138915549E+03  0.36475404972E+03  0.25138557222E+03  0.56303547588E+03  0.25000000000E+03 0.  0.
<mgrwt>
<rscale>  0 0.12885919E+04</rscale>
<asrwt>0</asrwt>
<pdfrwt beam="1">  1        2 0.12729816E+00 0.12885919E+04</pdfrwt>
<pdfrwt beam="2">  1       -2 0.77183055E-01 0.12885919E+04</pdfrwt>
<totfact> 0.48395893E+01</totfact>
</mgrwt>
</event>
<event>
 4    1  0.1804641E-005  0.8294694E+03  0.7818608E-02  0.9518314E-01
         -2   -1    0    0    0  501 -0.00000000000E+00  0.00000000000E+00  0.87201239949E+03  0.87201239949E+03  0.25500000000E-02 0. -1.
          2   -1    0    0  501    0  0.00000000000E+00 -0.00000000000E+00 -0.19725046565E+03  0.19725046567E+03  0.25500000000E-02 0.  1.
   -5000001    1    1    2    0    0 -0.61406880548E+02  0.21262872896E+03  0.20245644475E+02  0.33450211879E+03  0.25000000000E+03 0.  0.
    5000001    1    1    2    0    0  0.61406880548E+02 -0.21262872896E+03  0.65451628936E+03  0.73476074636E+03  0.25000000000E+03 0.  0.
<mgrwt>
<rscale>  0 0.82946935E+03</rscale>
<asrwt>0</asrwt>
<pdfrwt beam="1">  1        2 0.30346226E-01 0.82946935E+03</pdfrwt>
<pdfrwt beam="2">  1       -2 0.13415575E+00 0.82946935E+03</pdfrwt>
<totfact> 0.70865510E+01</totfact>
</mgrwt>
</event>
<event>
 4    1  0.1804641E-005  0.8275796E+03  0.7818608E-02  0.9520933E-01
         -2   -1    0    0    0  501 -0.00000000000E+00  0.00000000000E+00  0.26300193172E+03  0.26300193173E+03  0.25500000000E-02 0. -1.
          2   -1    0    0  501    0  0.00000000000E+00 -0.00000000000E+00 -0.65102939714E+03  0.65102939715E+03  0.25500000000E-02 0.  1.
   -5000001    1    1    2    0    0  0.31914668297E+03  0.38710682239E+02 -0.27494058259E+03  0.49137098625E+03  0.25000000000E+03 0.  0.
    5000001    1    1    2    0    0 -0.31914668297E+03 -0.38710682239E+02 -0.11308688283E+03  0.42266034264E+03  0.25000000000E+03 0.  0.
<mgrwt>
<rscale>  0 0.82757958E+03</rscale>
<asrwt>0</asrwt>
<pdfrwt beam="1">  1        2 0.10015837E+00 0.82757958E+03</pdfrwt>
<pdfrwt beam="2">  1       -2 0.40461836E-01 0.82757958E+03</pdfrwt>
<totfact> 0.26081477E+02</totfact>
</mgrwt>
</event>
<event>
 4    1  0.1804641E-005  0.6031298E+03  0.7818608E-02  0.9898934E-01
          2   -1    0    0  501    0  0.00000000000E+00  0.00000000000E+00  0.29317342741E+04  0.29317342741E+04  0.25500000000E-02 0. -1.
         -2   -1    0    0    0  501 -0.00000000000E+00 -0.00000000000E+00 -0.31019660517E+02  0.31019660622E+02  0.25500000000E-02 0.  1.
   -5000001    1    1    2    0    0  0.11227095329E+03  0.11010950425E+03  0.17496663778E+04  0.17744185818E+04  0.25000000000E+03 0.  0.
    5000001    1    1    2    0    0 -0.11227095329E+03 -0.11010950425E+03  0.11510482358E+04  0.11883353529E+04  0.25000000000E+03 0.  0.
<mgrwt>
<rscale>  0 0.60312984E+03</rscale>
<asrwt>0</asrwt>
<pdfrwt beam="1">  1        2 0.45103586E+00 0.60312984E+03</pdfrwt>
<pdfrwt beam="2">  1       -2 0.47722574E-02 0.60312984E+03</pdfrwt>
<totfact> 0.45573589E+02</totfact>
</mgrwt>
</event>
<event>
 4    1  0.1804641E-005  0.7405015E+03  0.7818608E-02  0.9650371E-01
         -2   -1    0    0    0  501 -0.00000000000E+00  0.00000000000E+00  0.17145674218E+03  0.17145674220E+03  0.25500000000E-02 0. -1.
          2   -1    0    0  501    0  0.00000000000E+00 -0.00000000000E+00 -0.79953461621E+03  0.79953461621E+03  0.25500000000E-02 0.  1.
   -5000001    1    1    2    0    0 -0.11847457072E+03 -0.16191393020E+03 -0.55700574309E+03  0.64265678440E+03  0.25000000000E+03 0.  0.
    5000001    1    1    2    0    0  0.11847457072E+03  0.16191393020E+03 -0.71072130930E+02  0.32833457401E+03  0.25000000000E+03 0.  0.
<mgrwt>
<rscale>  0 0.74050145E+03</rscale>
<asrwt>0</asrwt>
<pdfrwt beam="1">  1        2 0.12300532E+00 0.74050145E+03</pdfrwt>
<pdfrwt beam="2">  1       -2 0.26377961E-01 0.74050145E+03</pdfrwt>
<totfact> 0.45066156E+02</totfact>
</mgrwt>
</event>
<event>
 4    1  0.1804641E-005  0.9356086E+03  0.7818608E-02  0.9382132E-01
         -2   -1    0    0    0  501 -0.00000000000E+00  0.00000000000E+00  0.17659463975E+03  0.17659463976E+03  0.25500000000E-02 0. -1.
          2   -1    0    0  501    0  0.00000000000E+00 -0.00000000000E+00 -0.12392270823E+04  0.12392270823E+04  0.25500000000E-02 0.  1.
   -5000001    1    1    2    0    0  0.24625738192E+03  0.30186165111E+03 -0.63370168448E+03  0.78475536282E+03  0.25000000000E+03 0.  0.
    5000001    1    1    2    0    0 -0.24625738192E+03 -0.30186165111E+03 -0.42893075811E+03  0.63106635928E+03  0.25000000000E+03 0.  0.
<mgrwt>
<rscale>  0 0.93560859E+03</rscale>
<asrwt>0</asrwt>
<pdfrwt beam="1">  1        2 0.19065031E+00 0.93560859E+03</pdfrwt>
<pdfrwt beam="2">  1       -2 0.27168407E-01 0.93560859E+03</pdfrwt>
<totfact> 0.22114140E+02</totfact>
</mgrwt>
</event>
<event>
 4    1  0.1804641E-005  0.9026489E+03  0.7818608E-02  0.9422276E-01
         -2   -1    0    0    0  501 -0.00000000000E+00  0.00000000000E+00  0.24657368060E+03  0.24657368061E+03  0.25500000000E-02 0.  1.
          2   -1    0    0  501    0  0.00000000000E+00 -0.00000000000E+00 -0.82609689300E+03  0.82609689301E+03  0.25500000000E-02 0. -1.
   -5000001    1    1    2    0    0 -0.36325369723E+03 -0.73353247789E+02 -0.36359114240E+03  0.57622258403E+03  0.25000000000E+03 0.  0.
    5000001    1    1    2    0    0  0.36325369723E+03  0.73353247789E+02 -0.21593207001E+03  0.49644798959E+03  0.25000000000E+03 0.  0.
<mgrwt>
<rscale>  0 0.90264888E+03</rscale>
<asrwt>0</asrwt>
<pdfrwt beam="1">  1        2 0.12709183E+00 0.90264888E+03</pdfrwt>
<pdfrwt beam="2">  1       -2 0.37934413E-01 0.90264888E+03</pdfrwt>
<totfact> 0.21681271E+02</totfact>
</mgrwt>
</event>
<event>
 4    1  0.1804641E-005  0.8225052E+03  0.7818608E-02  0.9528001E-01
         -2   -1    0    0    0  501 -0.00000000000E+00  0.00000000000E+00  0.51922442693E+02  0.51922442756E+02  0.25500000000E-02 0. -1.
          2   -1    0    0  501    0  0.00000000000E+00 -0.00000000000E+00 -0.32573331338E+04  0.32573331338E+04  0.25500000000E-02 0.  1.
   -5000001    1    1    2    0    0  0.22923634426E+03 -0.22284249736E+03 -0.13351997250E+04  0.13955165301E+04  0.25000000000E+03 0.  0.
    5000001    1    1    2    0    0 -0.22923634426E+03  0.22284249736E+03 -0.18702109661E+04  0.19137390464E+04  0.25000000000E+03 0.  0.
<mgrwt>
<rscale>  0 0.82250518E+03</rscale>
<asrwt>0</asrwt>
<pdfrwt beam="1">  1        2 0.50112802E+00 0.82250518E+03</pdfrwt>
<pdfrwt beam="2">  1       -2 0.79880706E-02 0.82250518E+03</pdfrwt>
<totfact> 0.12384487E+02</totfact>
</mgrwt>
</event>
<event>
 4    1  0.1804641E-005  0.5295418E+03  0.7818608E-02  0.1006343E+00
          2   -1    0    0  501    0  0.00000000000E+00  0.00000000000E+00  0.68686558461E+02  0.68686558508E+02  0.25500000000E-02 0.  1.
         -2   -1    0    0    0  501 -0.00000000000E+00 -0.00000000000E+00 -0.10206308191E+04  0.10206308191E+04  0.25500000000E-02 0. -1.
   -5000001    1    1    2    0    0 -0.78293272359E+02  0.18122388928E+02 -0.54559075022E+03  0.60549774913E+03  0.25000000000E+03 0.  0.
    5000001    1    1    2    0    0  0.78293272359E+02 -0.18122388928E+02 -0.40635351045E+03  0.48381962851E+03  0.25000000000E+03 0.  0.
<mgrwt>
<rscale>  0 0.52954176E+03</rscale>
<asrwt>0</asrwt>
<pdfrwt beam="1">  1        2 0.10567164E-01 0.52954176E+03</pdfrwt>
<pdfrwt beam="2">  1       -2 0.15702011E+00 0.52954176E+03</pdfrwt>
<totfact> 0.16736849E+02</totfact>
</mgrwt>
</event>
<event>
 4    1  0.1804641E-005  0.7973707E+03  0.7818608E-02  0.9563831E-01
         -2   -1    0    0    0  501 -0.00000000000E+00  0.00000000000E+00  0.16897450288E+03  0.16897450290E+03  0.25500000000E-02 0. -1.
          2   -1    0    0  501    0  0.00000000000E+00 -0.00000000000E+00 -0.94067446338E+03  0.94067446339E+03  0.25500000000E-02 0.  1.
   -5000001    1    1    2    0    0  0.14006179410E+03 -0.25529848462E+03 -0.53609099976E+03  0.65930886725E+03  0.25000000000E+03 0.  0.
    5000001    1    1    2    0    0 -0.14006179410E+03  0.25529848462E+03 -0.23560896074E+03  0.45034009904E+03  0.25000000000E+03 0.  0.
<mgrwt>
<rscale>  0 0.79737068E+03</rscale>
<asrwt>0</asrwt>
<pdfrwt beam="1">  1        2 0.14471915E+00 0.79737068E+03</pdfrwt>
<pdfrwt beam="2">  1       -2 0.25996078E-01 0.79737068E+03</pdfrwt>
<totfact> 0.36935700E+02</totfact>
</mgrwt>
</event>
<event>
 4    1  0.1804641E-005  0.7449639E+03  0.7818608E-02  0.9643284E-01
         -2   -1    0    0    0  501 -0.00000000000E+00  0.00000000000E+00  0.63753253172E+02  0.63753253223E+02  0.25500000000E-02 0. -1.
          2   -1    0    0  501    0  0.00000000000E+00 -0.00000000000E+00 -0.21762469285E+04  0.21762469285E+04  0.25500000000E-02 0.  1.
   -5000001    1    1    2    0    0  0.27259407384E+01 -0.23920075454E+03 -0.14709140225E+04  0.15110633651E+04  0.25000000000E+03 0.  0.
    5000001    1    1    2    0    0 -0.27259407384E+01  0.23920075454E+03 -0.64157965282E+03  0.72893681663E+03  0.25000000000E+03 0.  0.
<mgrwt>
<rscale>  0 0.74496395E+03</rscale>
<asrwt>0</asrwt>
<pdfrwt beam="1">  1        2 0.33480716E+00 0.74496395E+03</pdfrwt>
<pdfrwt beam="2">  1       -2 0.98081945E-02 0.74496395E+03</pdfrwt>
<totfact> 0.38803940E+02</totfact>
</mgrwt>
</event>
<event>
 4    1  0.1804641E-005  0.9076699E+03  0.7818608E-02  0.9416044E-01
         -2   -1    0    0    0  501 -0.00000000000E+00  0.00000000000E+00  0.20681964536E+03  0.20681964538E+03  0.25500000000E-02 0.  1.
          2   -1    0    0  501    0  0.00000000000E+00 -0.00000000000E+00 -0.99587326035E+03  0.99587326035E+03  0.25500000000E-02 0. -1.
   -5000001    1    1    2    0    0  0.34775440966E+03 -0.37518324007E+02 -0.58711484091E+03  0.72769814518E+03  0.25000000000E+03 0.  0.
    5000001    1    1    2    0    0 -0.34775440966E+03  0.37518324007E+02 -0.20193877407E+03  0.47499476055E+03  0.25000000000E+03 0.  0.
<mgrwt>
<rscale>  0 0.90766988E+03</rscale>
<asrwt>0</asrwt>
<pdfrwt beam="1">  1        2 0.15321127E+00 0.90766988E+03</pdfrwt>
<pdfrwt beam="2">  1       -2 0.31818408E-01 0.90766988E+03</pdfrwt>
<totfact> 0.23292801E+02</totfact>
</mgrwt>
</event>
<event>
 4    1  0.1804641E-005  0.1255607E+04  0.7818608E-02  0.9065529E-01
         -2   -1    0    0    0  501 -0.00000000000E+00  0.00000000000E+00  0.10543568650E+03  0.10543568654E+03  0.25500000000E-02 0. -1.
          2   -1    0    0  501    0  0.00000000000E+00 -0.00000000000E+00 -0.37381795901E+04  0.37381795901E+04  0.25500000000E-02 0.  1.
   -5000001    1    1    2    0    0 -0.32967726751E+03 -0.70831259498E+02 -0.38732045289E+03  0.57115786019E+03  0.25000000000E+03 0.  0.
    5000001    1    1    2    0    0  0.32967726751E+03  0.70831259498E+02 -0.32454234507E+04  0.32724574165E+04  0.25000000000E+03 0.  0.
<mgrwt>
<rscale>  0 0.12556075E+04</rscale>
<asrwt>0</asrwt>
<pdfrwt beam="1">  1        2 0.57510445E+00 0.12556075E+04</pdfrwt>
<pdfrwt beam="2">  1       -2 0.16220878E-01 0.12556075E+04</pdfrwt>
<totfact> 0.17005137E+01</totfact>
</mgrwt>
</event>
<event>
 4    1  0.1804641E-005  0.5917175E+03  0.7818608E-02  0.9922740E-01
         -2   -1    0    0    0  501 -0.00000000000E+00  0.00000000000E+00  0.96103881573E+03  0.96103881573E+03  0.25500000000E-02 0. -1.
          2   -1    0    0  501    0  0.00000000000E+00 -0.00000000000E+00 -0.91081032362E+02  0.91081032397E+02  0.25500000000E-02 0.  1.
   -5000001    1    1    2    0    0 -0.39107051131E+02 -0.15174625875E+03  0.39618096304E+03  0.49397939630E+03  0.25000000000E+03 0.  0.
    5000001    1    1    2    0    0  0.39107051131E+02  0.15174625875E+03  0.47377682032E+03  0.55814045183E+03  0.25000000000E+03 0.  0.
<mgrwt>
<rscale>  0 0.59171753E+03</rscale>
<asrwt>0</asrwt>
<pdfrwt beam="1">  1        2 0.14012466E-01 0.59171753E+03</pdfrwt>
<pdfrwt beam="2">  1       -2 0.14785213E+00 0.59171753E+03</pdfrwt>
<totfact> 0.13791268E+02</totfact>
</mgrwt>
</event>
<event>
 4    1  0.1804641E-005  0.6435274E+03  0.7818608E-02  0.9819001E-01
         -2   -1    0    0    0  501 -0.00000000000E+00  0.00000000000E+00  0.10822652905E+03  0.10822652908E+03  0.25500000000E-02 0. -1.
          2   -1    0    0  501    0  0.00000000000E+00 -0.00000000000E+00 -0.95662205060E+03  0.95662205060E+03  0.25500000000E-02 0.  1.
   -5000001    1    1    2    0    0 -0.15993820014E+03 -0.12338889534E+03 -0.39927606645E+03  0.51256845845E+03  0.25000000000E+03 0.  0.
    5000001    1    1    2    0    0  0.15993820014E+03  0.12338889534E+03 -0.44911945510E+03  0.55228012123E+03  0.25000000000E+03 0.  0.
<mgrwt>
<rscale>  0 0.64352742E+03</rscale>
<asrwt>0</asrwt>
<pdfrwt beam="1">  1        2 0.14717262E+00 0.64352742E+03</pdfrwt>
<pdfrwt beam="2">  1       -2 0.16650236E-01 0.64352742E+03</pdfrwt>
<totfact> 0.79398324E+02</totfact>
</mgrwt>
</event>
<event>
 4    1  0.1804641E-005  0.6155416E+03  0.7818608E-02  0.9873677E-01
          2   -1    0    0  501    0  0.00000000000E+00  0.00000000000E+00  0.88831238368E+03  0.88831238368E+03  0.25500000000E-02 0.  1.
         -2   -1    0    0    0  501 -0.00000000000E+00 -0.00000000000E+00 -0.10663237107E+03  0.10663237110E+03  0.25500000000E-02 0. -1.
   -5000001    1    1    2    0    0  0.17813566159E+03  0.29089621674E+00  0.42663663544E+03  0.52559605901E+03  0.25000000000E+03 0.  0.
    5000001    1    1    2    0    0 -0.17813566159E+03 -0.29089621674E+00  0.35504337717E+03  0.46934869577E+03  0.25000000000E+03 0.  0.
<mgrwt>
<rscale>  0 0.61554157E+03</rscale>
<asrwt>0</asrwt>
<pdfrwt beam="1">  1        2 0.13666344E+00 0.61554157E+03</pdfrwt>
<pdfrwt beam="2">  1       -2 0.16404981E-01 0.61554157E+03</pdfrwt>
<totfact> 0.90417221E+02</totfact>
</mgrwt>
</event>
<event>
 4    1  0.1804641E-005  0.8566575E+03  0.7818608E-02  0.9481445E-01
          2   -1    0    0  501    0  0.00000000000E+00  0.00000000000E+00  0.38041535597E+03  0.38041535598E+03  0.25500000000E-02 0.  1.
         -2   -1    0    0    0  501 -0.00000000000E+00 -0.00000000000E+00 -0.48227682914E+03  0.48227682915E+03  0.25500000000E-02 0. -1.
   -5000001    1    1    2    0    0  0.30423858223E+03 -0.16423803383E+03 -0.12845478774E+02  0.42684921577E+03  0.25000000000E+03 0.  0.
    5000001    1    1    2    0    0 -0.30423858223E+03  0.16423803383E+03 -0.89015994399E+02  0.43584296935E+03  0.25000000000E+03 0.  0.
<mgrwt>
<rscale>  0 0.85665748E+03</rscale>
<asrwt>0</asrwt>
<pdfrwt beam="1">  1        2 0.58525439E-01 0.85665748E+03</pdfrwt>
<pdfrwt beam="2">  1       -2 0.74196436E-01 0.85665748E+03</pdfrwt>
<totfact> 0.13841745E+02</totfact>
</mgrwt>
</event>
<event>
 4    1  0.1804641E-005  0.5821496E+03  0.7818608E-02  0.9943148E-01
          2   -1    0    0  501    0  0.00000000000E+00  0.00000000000E+00  0.31428135963E+04  0.31428135963E+04  0.25500000000E-02 0.  1.
         -2   -1    0    0    0  501 -0.00000000000E+00 -0.00000000000E+00 -0.26958185376E+02  0.26958185496E+02  0.25500000000E-02 0. -1.
   -5000001    1    1    2    0    0 -0.74485755293E+02 -0.77735687288E+02  0.99644904940E+03  0.10329577304E+04  0.25000000000E+03 0.  0.
    5000001    1    1    2    0    0  0.74485755293E+02  0.77735687288E+02  0.21194063615E+04  0.21368140514E+04  0.25000000000E+03 0.  0.
<mgrwt>
<rscale>  0 0.58214964E+03</rscale>
<asrwt>0</asrwt>
<pdfrwt beam="1">  1        2 0.48350992E+00 0.58214964E+03</pdfrwt>
<pdfrwt beam="2">  1       -2 0.41474120E-02 0.58214964E+03</pdfrwt>
<totfact> 0.42131245E+02</totfact>
</mgrwt>
</event>
<event>
 4    1  0.1804641E-005  0.6580834E+03  0.7818608E-02  0.9791728E-01
          2   -1    0    0  501    0  0.00000000000E+00  0.00000000000E+00  0.33501442283E+03  0.33501442284E+03  0.25500000000E-02 0.  1.
         -2   -1    0    0    0  501 -0.00000000000E+00 -0.00000000000E+00 -0.32317547997E+03  0.32317547998E+03  0.25500000000E-02 0. -1.
   -5000001    1    1    2    0    0  0.15399846522E+03 -0.35214387863E+00  0.15444533719E+03  0.33176650445E+03  0.25000000000E+03 0.  0.
    5000001    1    1    2    0    0 -0.15399846522E+03  0.35214387863E+00 -0.14260639433E+03  0.32642339836E+03  0.25000000000E+03 0.  0.
<mgrwt>
<rscale>  0 0.65808342E+03</rscale>
<asrwt>0</asrwt>
<pdfrwt beam="1">  1        2 0.51540681E-01 0.65808342E+03</pdfrwt>
<pdfrwt beam="2">  1       -2 0.49719304E-01 0.65808342E+03</pdfrwt>
<totfact> 0.37499017E+02</totfact>
</mgrwt>
</event>
<event>
 4    1  0.1804641E-005  0.6654110E+03  0.7818608E-02  0.9778284E-01
          2   -1    0    0  501    0  0.00000000000E+00  0.00000000000E+00  0.67369124797E+03  0.67369124798E+03  0.25500000000E-02 0.  1.
         -2   -1    0    0    0  501 -0.00000000000E+00 -0.00000000000E+00 -0.16430814219E+03  0.16430814221E+03  0.25500000000E-02 0. -1.
   -5000001    1    1    2    0    0 -0.18660127983E+03  0.82835428639E+02  0.35631282167E+03  0.48077081105E+03  0.25000000000E+03 0.  0.
    5000001    1    1    2    0    0  0.18660127983E+03 -0.82835428639E+02  0.15307028411E+03  0.35722857914E+03  0.25000000000E+03 0.  0.
<mgrwt>
<rscale>  0 0.66541102E+03</rscale>
<asrwt>0</asrwt>
<pdfrwt beam="1">  1        2 0.10364481E+00 0.66541102E+03</pdfrwt>
<pdfrwt beam="2">  1       -2 0.25278176E-01 0.66541102E+03</pdfrwt>
<totfact> 0.60763109E+02</totfact>
</mgrwt>
</event>
<event>
 4    1  0.1804641E-005  0.8744966E+03  0.7818608E-02  0.9458036E-01
          2   -1    0    0  501    0  0.00000000000E+00  0.00000000000E+00  0.41847302509E+03  0.41847302509E+03  0.25500000000E-02 0.  1.
         -2   -1    0    0    0  501 -0.00000000000E+00 -0.00000000000E+00 -0.45686592704E+03  0.45686592704E+03  0.25500000000E-02 0. -1.
   -5000001    1    1    2    0    0 -0.35390111052E+03 -0.10933026053E+02  0.38483178671E+02  0.43513961223E+03  0.25000000000E+03 0.  0.
    5000001    1    1    2    0    0  0.35390111052E+03  0.10933026053E+02 -0.76876080620E+02  0.44019933991E+03  0.25000000000E+03 0.  0.
<mgrwt>
<rscale>  0 0.87449658E+03</rscale>
<asrwt>0</asrwt>
<pdfrwt beam="1">  1        2 0.64380465E-01 0.87449658E+03</pdfrwt>
<pdfrwt beam="2">  1       -2 0.70287066E-01 0.87449658E+03</pdfrwt>
<totfact> 0.13991093E+02</totfact>
</mgrwt>
</event>
<event>
 4    1  0.1804641E-005  0.6958281E+03  0.7818608E-02  0.9724393E-01
          2   -1    0    0  501    0  0.00000000000E+00  0.00000000000E+00  0.20424749874E+04  0.20424749874E+04  0.25500000000E-02 0.  1.
         -2   -1    0    0    0  501 -0.00000000000E+00 -0.00000000000E+00 -0.59263480646E+02  0.59263480701E+02  0.25500000000E-02 0. -1.
   -5000001    1    1    2    0    0 -0.23177216858E+03  0.69468042777E+02  0.99108389356E+03  0.10503768044E+04  0.25000000000E+03 0.  0.
    5000001    1    1    2    0    0  0.23177216858E+03 -0.69468042777E+02  0.99212761322E+03  0.10513616638E+04  0.25000000000E+03 0.  0.
<mgrwt>
<rscale>  0 0.69582807E+03</rscale>
<asrwt>0</asrwt>
<pdfrwt beam="1">  1        2 0.31422691E+00 0.69582807E+03</pdfrwt>
<pdfrwt beam="2">  1       -2 0.91174590E-02 0.69582807E+03</pdfrwt>
<totfact> 0.51895606E+02</totfact>
</mgrwt>
</event>
<event>
 4    1  0.1804641E-005  0.5616894E+03  0.7818608E-02  0.9988239E-01
         -2   -1    0    0    0  501 -0.00000000000E+00  0.00000000000E+00  0.60146222940E+02  0.60146222994E+02  0.25500000000E-02 0. -1.
          2   -1    0    0  501    0  0.00000000000E+00 -0.00000000000E+00 -0.13113664935E+04  0.13113664935E+04  0.25500000000E-02 0.  1.
   -5000001    1    1    2    0    0  0.10874697053E+03  0.32447294465E+02 -0.76996382686E+03  0.81744909639E+03  0.25000000000E+03 0.  0.
    5000001    1    1    2    0    0 -0.10874697053E+03 -0.32447294465E+02 -0.48125644367E+03  0.55406362007E+03  0.25000000000E+03 0.  0.
<mgrwt>
<rscale>  0 0.56168939E+03</rscale>
<asrwt>0</asrwt>
<pdfrwt beam="1">  1        2 0.20174867E+00 0.56168939E+03</pdfrwt>
<pdfrwt beam="2">  1       -2 0.92532661E-02 0.56168939E+03</pdfrwt>
<totfact> 0.12859968E+03</totfact>
</mgrwt>
</event>
<event>
 4    1  0.1804641E-005  0.6216755E+03  0.7818608E-02  0.9861430E-01
         -2   -1    0    0    0  501 -0.00000000000E+00  0.00000000000E+00  0.42667844129E+02  0.42667844206E+02  0.25500000000E-02 0. -1.
          2   -1    0    0  501    0  0.00000000000E+00 -0.00000000000E+00 -0.22644709271E+04  0.22644709271E+04  0.25500000000E-02 0.  1.
   -5000001    1    1    2    0    0 -0.11506983803E+03 -0.14199077916E+03 -0.12103194040E+04  0.12493100130E+04  0.25000000000E+03 0.  0.
    5000001    1    1    2    0    0  0.11506983803E+03  0.14199077916E+03 -0.10114836790E+04  0.10578287583E+04  0.25000000000E+03 0.  0.
<mgrwt>
<rscale>  0 0.62167545E+03</rscale>
<asrwt>0</asrwt>
<pdfrwt beam="1">  1        2 0.34838005E+00 0.62167545E+03</pdfrwt>
<pdfrwt beam="2">  1       -2 0.65642855E-02 0.62167545E+03</pdfrwt>
<totfact> 0.66607340E+02</totfact>
</mgrwt>
</event>
<event>
 4    1  0.1804641E-005  0.1258716E+04  0.7818608E-02  0.9062960E-01
          2   -1    0    0  501    0  0.00000000000E+00  0.00000000000E+00  0.95921767525E+03  0.95921767526E+03  0.25500000000E-02 0.  1.
         -2   -1    0    0    0  501 -0.00000000000E+00 -0.00000000000E+00 -0.41293203457E+03  0.41293203457E+03  0.25500000000E-02 0. -1.
   -5000001    1    1    2    0    0 -0.46643850255E+03  0.30785317744E+03  0.43206565790E+03  0.74934584023E+03  0.25000000000E+03 0.  0.
    5000001    1    1    2    0    0  0.46643850255E+03 -0.30785317744E+03  0.11421998278E+03  0.62280386960E+03  0.25000000000E+03 0.  0.
<mgrwt>
<rscale>  0 0.12587163E+04</rscale>
<asrwt>0</asrwt>
<pdfrwt beam="1">  1        2 0.14757195E+00 0.12587163E+04</pdfrwt>
<pdfrwt beam="2">  1       -2 0.63528005E-01 0.12587163E+04</pdfrwt>
<totfact> 0.60362100E+01</totfact>
</mgrwt>
</event>
<event>
 4    1  0.1804641E-005  0.9307032E+03  0.7818608E-02  0.9387994E-01
          2   -1    0    0  501    0  0.00000000000E+00  0.00000000000E+00  0.12390830936E+04  0.12390830936E+04  0.25500000000E-02 0.  1.
         -2   -1    0    0    0  501 -0.00000000000E+00 -0.00000000000E+00 -0.17476804648E+03  0.17476804650E+03  0.25500000000E-02 0. -1.
   -5000001    1    1    2    0    0 -0.21342661265E+03  0.32839081936E+03  0.57120463017E+03  0.73631934564E+03  0.25000000000E+03 0.  0.
    5000001    1    1    2    0    0  0.21342661265E+03 -0.32839081936E+03  0.49311041699E+03  0.67753179451E+03  0.25000000000E+03 0.  0.
<mgrwt>
<rscale>  0 0.93070324E+03</rscale>
<asrwt>0</asrwt>
<pdfrwt beam="1">  1        2 0.19062817E+00 0.93070324E+03</pdfrwt>
<pdfrwt beam="2">  1       -2 0.26887392E-01 0.93070324E+03</pdfrwt>
<totfact> 0.22549530E+02</totfact>
</mgrwt>
</event>
<event>
 4    1  0.1804641E-005  0.9638175E+03  0.7818608E-02  0.9349144E-01
         -2   -1    0    0    0  501 -0.00000000000E+00  0.00000000000E+00  0.63541878127E+03  0.63541878127E+03  0.25500000000E-02 0.  1.
          2   -1    0    0  501    0  0.00000000000E+00 -0.00000000000E+00 -0.36548504261E+03  0.36548504262E+03  0.25500000000E-02 0. -1.
   -5000001    1    1    2    0    0  0.34479742476E+02  0.34340989730E+03  0.36860573171E+03  0.56346197357E+03  0.25000000000E+03 0.  0.
    5000001    1    1    2    0    0 -0.34479742476E+02 -0.34340989730E+03 -0.98671993061E+02  0.43744185033E+03  0.25000000000E+03 0.  0.
<mgrwt>
<rscale>  0 0.96381754E+03</rscale>
<asrwt>0</asrwt>
<pdfrwt beam="1">  1        2 0.56228468E-01 0.96381754E+03</pdfrwt>
<pdfrwt beam="2">  1       -2 0.97756736E-01 0.96381754E+03</pdfrwt>
<totfact> 0.76754506E+01</totfact>
</mgrwt>
</event>
<event>
 4    1  0.1804641E-005  0.6365614E+03  0.7818608E-02  0.9832328E-01
         -2   -1    0    0    0  501 -0.00000000000E+00  0.00000000000E+00  0.49194146296E+03  0.49194146297E+03  0.25500000000E-02 0. -1.
          2   -1    0    0  501    0  0.00000000000E+00 -0.00000000000E+00 -0.20592407743E+03  0.20592407744E+03  0.25500000000E-02 0.  1.
   -5000001    1    1    2    0    0 -0.25568825228E+02  0.19519205100E+03  0.15067423585E+03  0.35207446221E+03  0.25000000000E+03 0.  0.
    5000001    1    1    2    0    0  0.25568825228E+02 -0.19519205100E+03  0.13534314969E+03  0.34579107820E+03  0.25000000000E+03 0.  0.
<mgrwt>
<rscale>  0 0.63656136E+03</rscale>
<asrwt>0</asrwt>
<pdfrwt beam="1">  1        2 0.31680627E-01 0.63656136E+03</pdfrwt>
<pdfrwt beam="2">  1       -2 0.75683302E-01 0.63656136E+03</pdfrwt>
<totfact> 0.26465288E+02</totfact>
</mgrwt>
</event>
<event>
 4    1  0.1804641E-005  0.5912938E+03  0.7818608E-02  0.9923635E-01
          2   -1    0    0  501    0  0.00000000000E+00  0.00000000000E+00  0.85602126269E+03  0.85602126270E+03  0.25500000000E-02 0.  1.
         -2   -1    0    0    0  501 -0.00000000000E+00 -0.00000000000E+00 -0.10210856355E+03  0.10210856358E+03  0.25500000000E-02 0. -1.
   -5000001    1    1    2    0    0  0.48110443867E+02  0.13790080564E+03  0.28005921712E+03  0.40282057060E+03  0.25000000000E+03 0.  0.
    5000001    1    1    2    0    0 -0.48110443867E+02 -0.13790080564E+03  0.47385348203E+03  0.55530925567E+03  0.25000000000E+03 0.  0.
<mgrwt>
<rscale>  0 0.59129384E+03</rscale>
<asrwt>0</asrwt>
<pdfrwt beam="1">  1        2 0.13169558E+00 0.59129384E+03</pdfrwt>
<pdfrwt beam="2">  1       -2 0.15709009E-01 0.59129384E+03</pdfrwt>
<totfact> 0.10242226E+03</totfact>
</mgrwt>
</event>
<event>
 4    1  0.1804641E-005  0.8840520E+03  0.7818608E-02  0.9445740E-01
          2   -1    0    0  501    0  0.00000000000E+00  0.00000000000E+00  0.23158998525E+04  0.23158998525E+04  0.25500000000E-02 0.  1.
         -2   -1    0    0    0  501 -0.00000000000E+00 -0.00000000000E+00 -0.84367628526E+02  0.84367628565E+02  0.25500000000E-02 0. -1.
   -5000001    1    1    2    0    0  0.28298795974E+03  0.28547883956E+02  0.17348378222E+04  0.17756856243E+04  0.25000000000E+03 0.  0.
    5000001    1    1    2    0    0 -0.28298795974E+03 -0.28547883956E+02  0.49669440176E+03  0.62458185675E+03  0.25000000000E+03 0.  0.
<mgrwt>
<rscale>  0 0.88405199E+03</rscale>
<asrwt>0</asrwt>
<pdfrwt beam="1">  1        2 0.35629227E+00 0.88405199E+03</pdfrwt>
<pdfrwt beam="2">  1       -2 0.12979636E-01 0.88405199E+03</pdfrwt>
<totfact> 0.20233688E+02</totfact>
</mgrwt>
</event>
<event>
 4    1  0.1804641E-005  0.6226477E+03  0.7818608E-02  0.9859502E-01
         -2   -1    0    0    0  501 -0.00000000000E+00  0.00000000000E+00  0.37262123759E+03  0.37262123760E+03  0.25500000000E-02 0. -1.
          2   -1    0    0  501    0  0.00000000000E+00 -0.00000000000E+00 -0.26011005660E+03  0.26011005661E+03  0.25500000000E-02 0.  1.
   -5000001    1    1    2    0    0  0.11186024630E+03  0.14741655281E+03  0.42691142971E+02  0.31395364058E+03  0.25000000000E+03 0.  0.
    5000001    1    1    2    0    0 -0.11186024630E+03 -0.14741655281E+03  0.69820038015E+02  0.31877765363E+03  0.25000000000E+03 0.  0.
<mgrwt>
<rscale>  0 0.62264767E+03</rscale>
<asrwt>0</asrwt>
<pdfrwt beam="1">  1        2 0.40016932E-01 0.62264767E+03</pdfrwt>
<pdfrwt beam="2">  1       -2 0.57326344E-01 0.62264767E+03</pdfrwt>
<totfact> 0.37061499E+02</totfact>
</mgrwt>
</event>
<event>
 4    1  0.1804641E-005  0.6533523E+03  0.7818608E-02  0.9800509E-01
         -2   -1    0    0    0  501 -0.00000000000E+00  0.00000000000E+00  0.77495464046E+02  0.77495464088E+02  0.25500000000E-02 0. -1.
          2   -1    0    0  501    0  0.00000000000E+00 -0.00000000000E+00 -0.13770781770E+04  0.13770781770E+04  0.25500000000E-02 0.  1.
   -5000001    1    1    2    0    0  0.87004121423E+02 -0.17783181886E+03 -0.80758476722E+03  0.86826668092E+03  0.25000000000E+03 0.  0.
    5000001    1    1    2    0    0 -0.87004121423E+02  0.17783181886E+03 -0.49199794575E+03  0.58630696019E+03  0.25000000000E+03 0.  0.
<mgrwt>
<rscale>  0 0.65335232E+03</rscale>
<asrwt>0</asrwt>
<pdfrwt beam="1">  1        2 0.21185816E+00 0.65335232E+03</pdfrwt>
<pdfrwt beam="2">  1       -2 0.11922380E-01 0.65335232E+03</pdfrwt>
<totfact> 0.77822389E+02</totfact>
</mgrwt>
</event>
<event>
 4    1  0.1804641E-005  0.9277220E+03  0.7818608E-02  0.9391576E-01
          2   -1    0    0  501    0  0.00000000000E+00  0.00000000000E+00  0.27438721710E+04  0.27438721710E+04  0.25500000000E-02 0.  1.
         -2   -1    0    0    0  501 -0.00000000000E+00 -0.00000000000E+00 -0.78417290511E+02  0.78417290552E+02  0.25500000000E-02 0. -1.
   -5000001    1    1    2    0    0  0.21354776692E+03  0.15731824503E+03  0.45990862687E+03  0.58682844516E+03  0.25000000000E+03 0.  0.
    5000001    1    1    2    0    0 -0.21354776692E+03 -0.15731824503E+03  0.22055462536E+04  0.22354610164E+04  0.25000000000E+03 0.  0.
<mgrwt>
<rscale>  0 0.92772199E+03</rscale>
<asrwt>0</asrwt>
<pdfrwt beam="1">  1        2 0.42213419E+00 0.92772199E+03</pdfrwt>
<pdfrwt beam="2">  1       -2 0.12064198E-01 0.92772199E+03</pdfrwt>
<totfact> 0.12946022E+02</totfact>
</mgrwt>
</event>
<event>
 4    1  0.1804641E-005  0.9529152E+03  0.7818608E-02  0.9361750E-01
          2   -1    0    0  501    0  0.00000000000E+00  0.00000000000E+00  0.17178821021E+04  0.17178821021E+04  0.25500000000E-02 0.  1.
         -2   -1    0    0    0  501 -0.00000000000E+00 -0.00000000000E+00 -0.13214634625E+03  0.13214634627E+03  0.25500000000E-02 0. -1.
   -5000001    1    1    2    0    0 -0.29259363714E+02 -0.36478012580E+03  0.11324324383E+04  0.12160690267E+04  0.25000000000E+03 0.  0.
    5000001    1    1    2    0    0  0.29259363714E+02  0.36478012580E+03  0.45330331755E+03  0.63395942161E+03  0.25000000000E+03 0.  0.
<mgrwt>
<rscale>  0 0.95291520E+03</rscale>
<asrwt>0</asrwt>
<pdfrwt beam="1">  1        2 0.26428956E+00 0.95291520E+03</pdfrwt>
<pdfrwt beam="2">  1       -2 0.20330207E-01 0.95291520E+03</pdfrwt>
<totfact> 0.19940944E+02</totfact>
</mgrwt>
</event>
<event>
 4    1  0.1804641E-005  0.8323512E+03  0.7818608E-02  0.9514336E-01
         -2   -1    0    0    0  501 -0.00000000000E+00  0.00000000000E+00  0.78146211651E+02  0.78146211692E+02  0.25500000000E-02 0. -1.
          2   -1    0    0  501    0  0.00000000000E+00 -0.00000000000E+00 -0.22163855466E+04  0.22163855466E+04  0.25500000000E-02 0.  1.
   -5000001    1    1    2    0    0 -0.14591585103E+03  0.27843074903E+03 -0.13696746212E+04  0.14273484808E+04  0.25000000000E+03 0.  0.
    5000001    1    1    2    0    0  0.14591585103E+03 -0.27843074903E+03 -0.76856471367E+03  0.86718327745E+03  0.25000000000E+03 0.  0.
<mgrwt>
<rscale>  0 0.83235121E+03</rscale>
<asrwt>0</asrwt>
<pdfrwt beam="1">  1        2 0.34098234E+00 0.83235121E+03</pdfrwt>
<pdfrwt beam="2">  1       -2 0.12022496E-01 0.83235121E+03</pdfrwt>
<totfact> 0.26219424E+02</totfact>
</mgrwt>
</event>
<event>
 4    1  0.1804641E-005  0.2395842E+04  0.7818608E-02  0.8441062E-01
          2   -1    0    0  501    0  0.00000000000E+00  0.00000000000E+00  0.34462182800E+04  0.34462182800E+04  0.25500000000E-02 0.  1.
         -2   -1    0    0    0  501 -0.00000000000E+00 -0.00000000000E+00 -0.41640258723E+03  0.41640258724E+03  0.25500000000E-02 0. -1.
   -5000001    1    1    2    0    0 -0.84587870444E+02  0.10611023664E+04  0.72603867039E+03  0.13125263771E+04  0.25000000000E+03 0.  0.
    5000001    1    1    2    0    0  0.84587870444E+02 -0.10611023664E+04  0.23037770223E+04  0.25500944901E+04  0.25000000000E+03 0.  0.
<mgrwt>
<rscale>  0 0.23958416E+04</rscale>
<asrwt>0</asrwt>
<pdfrwt beam="1">  1        2 0.53018741E+00 0.23958416E+04</pdfrwt>
<pdfrwt beam="2">  1       -2 0.64061939E-01 0.23958416E+04</pdfrwt>
<totfact> 0.17986646E+00</totfact>
</mgrwt>
</event>
<event>
 4    1  0.1804641E-005  0.5637524E+03  0.7818608E-02  0.9983600E-01
         -2   -1    0    0    0  501 -0.00000000000E+00  0.00000000000E+00  0.40632202614E+02  0.40632202694E+02  0.25500000000E-02 0. -1.
          2   -1    0    0  501    0  0.00000000000E+00 -0.00000000000E+00 -0.19554491040E+04  0.19554491040E+04  0.25500000000E-02 0.  1.
   -5000001    1    1    2    0    0 -0.70844692719E+02  0.10571358597E+03 -0.85980619000E+03  0.90441197312E+03  0.25000000000E+03 0.  0.
    5000001    1    1    2    0    0  0.70844692719E+02 -0.10571358597E+03 -0.10550107113E+04  0.10916693335E+04  0.25000000000E+03 0.  0.
<mgrwt>
<rscale>  0 0.56375244E+03</rscale>
<asrwt>0</asrwt>
<pdfrwt beam="1">  1        2 0.30083825E+00 0.56375244E+03</pdfrwt>
<pdfrwt beam="2">  1       -2 0.62511096E-02 0.56375244E+03</pdfrwt>
<totfact> 0.10639852E+03</totfact>
</mgrwt>
</event>
<event>
 4    1  0.1804641E-005  0.7079304E+03  0.7818608E-02  0.9703765E-01
         -2   -1    0    0    0  501 -0.00000000000E+00  0.00000000000E+00  0.24906974218E+03  0.24906974220E+03  0.25500000000E-02 0. -1.
          2   -1    0    0  501    0  0.00000000000E+00 -0.00000000000E+00 -0.50303731905E+03  0.50303731906E+03  0.25500000000E-02 0.  1.
   -5000001    1    1    2    0    0  0.13600765049E+02 -0.24136044458E+03 -0.19706636995E+03  0.39971865003E+03  0.25000000000E+03 0.  0.
    5000001    1    1    2    0    0 -0.13600765049E+02  0.24136044458E+03 -0.56901206918E+02  0.35238841122E+03  0.25000000000E+03 0.  0.
<mgrwt>
<rscale>  0 0.70793044E+03</rscale>
<asrwt>0</asrwt>
<pdfrwt beam="1">  1        2 0.77390356E-01 0.70793044E+03</pdfrwt>
<pdfrwt beam="2">  1       -2 0.38318422E-01 0.70793044E+03</pdfrwt>
<totfact> 0.39626827E+02</totfact>
</mgrwt>
</event>
<event>
 4    1  0.1804641E-005  0.6066833E+03  0.7818608E-02  0.9891636E-01
          2   -1    0    0  501    0  0.00000000000E+00  0.00000000000E+00  0.20644831571E+04  0.20644831571E+04  0.25500000000E-02 0.  1.
         -2   -1    0    0    0  501 -0.00000000000E+00 -0.00000000000E+00 -0.44571042412E+02  0.44571042485E+02  0.25500000000E-02 0. -1.
   -5000001    1    1    2    0    0  0.97023367115E+02  0.13863357615E+03  0.11132787181E+04  0.11534826858E+04  0.25000000000E+03 0.  0.
    5000001    1    1    2    0    0 -0.97023367115E+02 -0.13863357615E+03  0.90663339654E+03  0.95557151377E+03  0.25000000000E+03 0.  0.
<mgrwt>
<rscale>  0 0.60668333E+03</rscale>
<asrwt>0</asrwt>
<pdfrwt beam="1">  1        2 0.31761282E+00 0.60668333E+03</pdfrwt>
<pdfrwt beam="2">  1       -2 0.68570829E-02 0.60668333E+03</pdfrwt>
<totfact> 0.80059735E+02</totfact>
</mgrwt>
</event>
<event>
 4    1  0.1804641E-005  0.8900185E+03  0.7818608E-02  0.9438146E-01
          2   -1    0    0  501    0  0.00000000000E+00  0.00000000000E+00  0.99013787817E+03  0.99013787818E+03  0.25500000000E-02 0.  1.
         -2   -1    0    0    0  501 -0.00000000000E+00 -0.00000000000E+00 -0.20000569517E+03  0.20000569518E+03  0.25500000000E-02 0. -1.
   -5000001    1    1    2    0    0  0.15836256962E+03  0.19621180322E+03  0.75376673555E+03  0.83321189790E+03  0.25000000000E+03 0.  0.
    5000001    1    1    2    0    0 -0.15836256962E+03 -0.19621180322E+03  0.36365447456E+02  0.35693167546E+03  0.25000000000E+03 0.  0.
<mgrwt>
<rscale>  0 0.89001846E+03</rscale>
<asrwt>0</asrwt>
<pdfrwt beam="1">  1        2 0.15232890E+00 0.89001846E+03</pdfrwt>
<pdfrwt beam="2">  1       -2 0.30770107E-01 0.89001846E+03</pdfrwt>
<totfact> 0.25034615E+02</totfact>
</mgrwt>
</event>
<event>
 4    1  0.1804641E-005  0.8316916E+03  0.7818608E-02  0.9515245E-01
         -2   -1    0    0    0  501 -0.00000000000E+00  0.00000000000E+00  0.17619172855E+03  0.17619172857E+03  0.25500000000E-02 0. -1.
          2   -1    0    0  501    0  0.00000000000E+00 -0.00000000000E+00 -0.98147475301E+03  0.98147475302E+03  0.25500000000E-02 0.  1.
   -5000001    1    1    2    0    0 -0.10121392760E+03 -0.29119649730E+03 -0.57531007474E+03  0.69894301719E+03  0.25000000000E+03 0.  0.
    5000001    1    1    2    0    0  0.10121392760E+03  0.29119649730E+03 -0.22997294972E+03  0.45872346439E+03  0.25000000000E+03 0.  0.
<mgrwt>
<rscale>  0 0.83169161E+03</rscale>
<asrwt>0</asrwt>
<pdfrwt beam="1">  1        2 0.15099611E+00 0.83169161E+03</pdfrwt>
<pdfrwt beam="2">  1       -2 0.27106420E-01 0.83169161E+03</pdfrwt>
<totfact> 0.32142839E+02</totfact>
</mgrwt>
</event>
<event>
 4    1  0.1804641E-005  0.8537307E+03  0.7818608E-02  0.9485343E-01
         -2   -1    0    0    0  501 -0.00000000000E+00  0.00000000000E+00  0.51442218023E+02  0.51442218086E+02  0.25500000000E-02 0. -1.
          2   -1    0    0  501    0  0.00000000000E+00 -0.00000000000E+00 -0.35421106433E+04  0.35421106433E+04  0.25500000000E-02 0.  1.
   -5000001    1    1    2    0    0 -0.32952295230E+03  0.81364843124E+02 -0.20279621226E+04  0.20713126235E+04  0.25000000000E+03 0.  0.
    5000001    1    1    2    0    0  0.32952295230E+03 -0.81364843124E+02 -0.14627063027E+04  0.15222402379E+04  0.25000000000E+03 0.  0.
<mgrwt>
<rscale>  0 0.85373070E+03</rscale>
<asrwt>0</asrwt>
<pdfrwt beam="1">  1        2 0.54493991E+00 0.85373070E+03</pdfrwt>
<pdfrwt beam="2">  1       -2 0.79141902E-02 0.85373070E+03</pdfrwt>
<totfact> 0.80797974E+01</totfact>
</mgrwt>
</event>
<event>
 4    1  0.1804641E-005  0.1989345E+04  0.7818608E-02  0.8611619E-01
         -2   -1    0    0    0  501 -0.00000000000E+00  0.00000000000E+00  0.72463053336E+03  0.72463053337E+03  0.25500000000E-02 0. -1.
          2   -1    0    0  501    0  0.00000000000E+00 -0.00000000000E+00 -0.13653482386E+04  0.13653482386E+04  0.25500000000E-02 0.  1.
   -5000001    1    1    2    0    0  0.95848626473E+03 -0.84059290580E+02 -0.28533887046E+03  0.10342534288E+04  0.25000000000E+03 0.  0.
    5000001    1    1    2    0    0 -0.95848626473E+03  0.84059290580E+02 -0.35537883478E+03  0.10557253432E+04  0.25000000000E+03 0.  0.
<mgrwt>
<rscale>  0 0.19893446E+04</rscale>
<asrwt>0</asrwt>
<pdfrwt beam="1">  1        2 0.21005357E+00 0.19893446E+04</pdfrwt>
<pdfrwt beam="2">  1       -2 0.11148162E+00 0.19893446E+04</pdfrwt>
<totfact> 0.89613200E+00</totfact>
</mgrwt>
</event>
<event>
 4    1  0.1804641E-005  0.9216991E+03  0.7818608E-02  0.9398856E-01
          2   -1    0    0  501    0  0.00000000000E+00  0.00000000000E+00  0.98593379131E+03  0.98593379131E+03  0.25500000000E-02 0.  1.
         -2   -1    0    0    0  501 -0.00000000000E+00 -0.00000000000E+00 -0.21541236258E+03  0.21541236260E+03  0.25500000000E-02 0. -1.
   -5000001    1    1    2    0    0  0.22166201011E+03  0.28137443506E+03  0.57671785571E+03  0.72347018220E+03  0.25000000000E+03 0.  0.
    5000001    1    1    2    0    0 -0.22166201011E+03 -0.28137443506E+03  0.19380357302E+03  0.47787597172E+03  0.25000000000E+03 0.  0.
<mgrwt>
<rscale>  0 0.92169914E+03</rscale>
<asrwt>0</asrwt>
<pdfrwt beam="1">  1        2 0.15168212E+00 0.92169914E+03</pdfrwt>
<pdfrwt beam="2">  1       -2 0.33140364E-01 0.92169914E+03</pdfrwt>
<totfact> 0.21877759E+02</totfact>
</mgrwt>
</event>
<event>
 4    1  0.1804641E-005  0.5316890E+03  0.7818608E-02  0.1005823E+00
         -2   -1    0    0    0  501 -0.00000000000E+00  0.00000000000E+00  0.37188792186E+03  0.37188792187E+03  0.25500000000E-02 0. -1.
          2   -1    0    0  501    0  0.00000000000E+00 -0.00000000000E+00 -0.19003925019E+03  0.19003925021E+03  0.25500000000E-02 0.  1.
   -5000001    1    1    2    0    0  0.87210788263E+02  0.15185363905E+02  0.11032549194E+03  0.28724211223E+03  0.25000000000E+03 0.  0.
    5000001    1    1    2    0    0 -0.87210788263E+02 -0.15185363905E+02  0.71523179724E+02  0.27468505985E+03  0.25000000000E+03 0.  0.
<mgrwt>
<rscale>  0 0.53168901E+03</rscale>
<asrwt>0</asrwt>
<pdfrwt beam="1">  1        2 0.29236808E-01 0.53168901E+03</pdfrwt>
<pdfrwt beam="2">  1       -2 0.57213526E-01 0.53168901E+03</pdfrwt>
<totfact> 0.52883910E+02</totfact>
</mgrwt>
</event>
<event>
 4    1  0.1804641E-005  0.7477746E+03  0.7818608E-02  0.9638848E-01
         -2   -1    0    0    0  501 -0.00000000000E+00  0.00000000000E+00  0.25307576401E+03  0.25307576402E+03  0.25500000000E-02 0. -1.
          2   -1    0    0  501    0  0.00000000000E+00 -0.00000000000E+00 -0.55237106466E+03  0.55237106467E+03  0.25500000000E-02 0.  1.
   -5000001    1    1    2    0    0  0.23090821330E+03  0.14394200550E+03 -0.88205945527E+02  0.37989234362E+03  0.25000000000E+03 0.  0.
    5000001    1    1    2    0    0 -0.23090821330E+03 -0.14394200550E+03 -0.21108935513E+03  0.42555448507E+03  0.25000000000E+03 0.  0.
<mgrwt>
<rscale>  0 0.74777464E+03</rscale>
<asrwt>0</asrwt>
<pdfrwt beam="1">  1        2 0.84980163E-01 0.74777464E+03</pdfrwt>
<pdfrwt beam="2">  1       -2 0.38934733E-01 0.74777464E+03</pdfrwt>
<totfact> 0.34390262E+02</totfact>
</mgrwt>
</event>
<event>
 4    1  0.1804641E-005  0.1089214E+04  0.7818608E-02  0.9215769E-01
          2   -1    0    0  501    0  0.00000000000E+00  0.00000000000E+00  0.12961419306E+04  0.12961419306E+04  0.25500000000E-02 0.  1.
         -2   -1    0    0    0  501 -0.00000000000E+00 -0.00000000000E+00 -0.22883061806E+03  0.22883061808E+03  0.25500000000E-02 0. -1.
   -5000001    1    1    2    0    0 -0.16713269193E+03 -0.44282776440E+03  0.67413190149E+03  0.86080403475E+03  0.25000000000E+03 0.  0.
    5000001    1    1    2    0    0  0.16713269193E+03  0.44282776440E+03  0.39317941107E+03  0.66416851395E+03  0.25000000000E+03 0.  0.
<mgrwt>
<rscale>  0 0.10892143E+04</rscale>
<asrwt>0</asrwt>
<pdfrwt beam="1">  1        2 0.19940646E+00 0.10892143E+04</pdfrwt>
<pdfrwt beam="2">  1       -2 0.35204710E-01 0.10892143E+04</pdfrwt>
<totfact> 0.12494434E+02</totfact>
</mgrwt>
</event>
<event>
 4    1  0.1804641E-005  0.7025230E+03  0.7818608E-02  0.9712927E-01
         -2   -1    0    0    0  501 -0.00000000000E+00  0.00000000000E+00  0.48224058834E+03  0.48224058835E+03  0.25500000000E-02 0. -1.
          2   -1    0    0  501    0  0.00000000000E+00 -0.00000000000E+00 -0.25585704812E+03  0.25585704813E+03  0.25500000000E-02 0.  1.
   -5000001    1    1    2    0    0 -0.17933339942E+03 -0.14374417804E+03  0.18857571714E+02  0.34011536995E+03  0.25000000000E+03 0.  0.
    5000001    1    1    2    0    0  0.17933339942E+03  0.14374417804E+03  0.20752596851E+03  0.39798226653E+03  0.25000000000E+03 0.  0.
<mgrwt>
<rscale>  0 0.70252303E+03</rscale>
<asrwt>0</asrwt>
<pdfrwt beam="1">  1        2 0.39362623E-01 0.70252303E+03</pdfrwt>
<pdfrwt beam="2">  1       -2 0.74190858E-01 0.70252303E+03</pdfrwt>
<totfact> 0.21660694E+02</totfact>
</mgrwt>
</event>
<event>
 4    1  0.1804641E-005  0.6119857E+03  0.7818608E-02  0.9880847E-01
          2   -1    0    0  501    0  0.00000000000E+00  0.00000000000E+00  0.71155209841E+03  0.71155209842E+03  0.25500000000E-02 0.  1.
         -2   -1    0    0    0  501 -0.00000000000E+00 -0.00000000000E+00 -0.13158787652E+03  0.13158787655E+03  0.25500000000E-02 0. -1.
   -5000001    1    1    2    0    0  0.15920076349E+03 -0.11425775039E+02  0.18636757050E+03  0.35029744898E+03  0.25000000000E+03 0.  0.
    5000001    1    1    2    0    0 -0.15920076349E+03  0.11425775039E+02  0.39359665139E+03  0.49284252598E+03  0.25000000000E+03 0.  0.
<mgrwt>
<rscale>  0 0.61198572E+03</rscale>
<asrwt>0</asrwt>
<pdfrwt beam="1">  1        2 0.10946955E+00 0.61198572E+03</pdfrwt>
<pdfrwt beam="2">  1       -2 0.20244289E-01 0.61198572E+03</pdfrwt>
<totfact> 0.84252696E+02</totfact>
</mgrwt>
</event>
<event>
 4    1  0.1804641E-005  0.7929665E+03  0.7818608E-02  0.9570254E-01
         -2   -1    0    0    0  501 -0.00000000000E+00  0.00000000000E+00  0.86746382145E+02  0.86746382183E+02  0.25500000000E-02 0. -1.
          2   -1    0    0  501    0  0.00000000000E+00 -0.00000000000E+00 -0.18121676126E+04  0.18121676126E+04  0.25500000000E-02 0.  1.
   -5000001    1    1    2    0    0  0.69398631690E+02  0.16504607716E+03 -0.14620672844E+04  0.14940539219E+04  0.25000000000E+03 0.  0.
    5000001    1    1    2    0    0 -0.69398631690E+02 -0.16504607716E+03 -0.26335394611E+03  0.40486007286E+03  0.25000000000E+03 0.  0.
<mgrwt>
<rscale>  0 0.79296654E+03</rscale>
<asrwt>0</asrwt>
<pdfrwt beam="1">  1        2 0.27879499E+00 0.79296654E+03</pdfrwt>
<pdfrwt beam="2">  1       -2 0.13345599E-01 0.79296654E+03</pdfrwt>
<totfact> 0.36813899E+02</totfact>
</mgrwt>
</event>
<event>
 4    1  0.1804641E-005  0.6934282E+03  0.7818608E-02  0.9728537E-01
          2   -1    0    0  501    0  0.00000000000E+00  0.00000000000E+00  0.26005237524E+04  0.26005237524E+04  0.25500000000E-02 0.  1.
         -2   -1    0    0    0  501 -0.00000000000E+00 -0.00000000000E+00 -0.46225556223E+02  0.46225556293E+02  0.25500000000E-02 0. -1.
   -5000001    1    1    2    0    0  0.10625102459E+03 -0.20444558709E+03  0.10176170093E+04  0.10729080371E+04  0.25000000000E+03 0.  0.
    5000001    1    1    2    0    0 -0.10625102459E+03  0.20444558709E+03  0.15366811869E+04  0.15738412717E+04  0.25000000000E+03 0.  0.
<mgrwt>
<rscale>  0 0.69342817E+03</rscale>
<asrwt>0</asrwt>
<pdfrwt beam="1">  1        2 0.40008068E+00 0.69342817E+03</pdfrwt>
<pdfrwt beam="2">  1       -2 0.71116223E-02 0.69342817E+03</pdfrwt>
<totfact> 0.37785659E+02</totfact>
</mgrwt>
</event>
<event>
 4    1  0.1804641E-005  0.8849000E+03  0.7818608E-02  0.9444657E-01
          2   -1    0    0  501    0  0.00000000000E+00  0.00000000000E+00  0.22493102514E+04  0.22493102514E+04  0.25500000000E-02 0.  1.
         -2   -1    0    0    0  501 -0.00000000000E+00 -0.00000000000E+00 -0.87032011260E+02  0.87032011297E+02  0.25500000000E-02 0. -1.
   -5000001    1    1    2    0    0  0.23428361930E+03  0.24831807388E+03  0.73983023669E+03  0.85229071285E+03  0.25000000000E+03 0.  0.
    5000001    1    1    2    0    0 -0.23428361930E+03 -0.24831807388E+03  0.14224480034E+04  0.14840515498E+04  0.25000000000E+03 0.  0.
<mgrwt>
<rscale>  0 0.88489998E+03</rscale>
<asrwt>0</asrwt>
<pdfrwt beam="1">  1        2 0.34604771E+00 0.88489998E+03</pdfrwt>
<pdfrwt beam="2">  1       -2 0.13389541E-01 0.88489998E+03</pdfrwt>
<totfact> 0.20920146E+02</totfact>
</mgrwt>
</event>
<event>
 4    1  0.1804641E-005  0.1246244E+04  0.7818608E-02  0.9073315E-01
         -2   -1    0    0    0  501 -0.00000000000E+00  0.00000000000E+00  0.13805046976E+03  0.13805046979E+03  0.25500000000E-02 0. -1.
          2   -1    0    0  501    0  0.00000000000E+00 -0.00000000000E+00 -0.28126006867E+04  0.28126006867E+04  0.25500000000E-02 0.  1.
   -5000001    1    1    2    0    0  0.38300006207E+03 -0.37354964504E+03 -0.86640443249E+03  0.10485156296E+04  0.25000000000E+03 0.  0.
    5000001    1    1    2    0    0 -0.38300006207E+03  0.37354964504E+03 -0.18081457844E+04  0.19021355269E+04  0.25000000000E+03 0.  0.
<mgrwt>
<rscale>  0 0.12462437E+04</rscale>
<asrwt>0</asrwt>
<pdfrwt beam="1">  1        2 0.43270775E+00 0.12462437E+04</pdfrwt>
<pdfrwt beam="2">  1       -2 0.21238536E-01 0.12462437E+04</pdfrwt>
<totfact> 0.43390784E+01</totfact>
</mgrwt>
</event>
<event>
 4    1  0.1804641E-005  0.7143515E+03  0.7818608E-02  0.9692999E-01
          2   -1    0    0  501    0  0.00000000000E+00  0.00000000000E+00  0.15634824648E+04  0.15634824648E+04  0.25500000000E-02 0.  1.
         -2   -1    0    0    0  501 -0.00000000000E+00 -0.00000000000E+00 -0.81596373219E+02  0.81596373259E+02  0.25500000000E-02 0. -1.
   -5000001    1    1    2    0    0  0.15844903107E+03  0.15536892543E+03  0.10306775091E+04  0.10835320605E+04  0.25000000000E+03 0.  0.
    5000001    1    1    2    0    0 -0.15844903107E+03 -0.15536892543E+03  0.45120858244E+03  0.56154677749E+03  0.25000000000E+03 0.  0.
<mgrwt>
<rscale>  0 0.71435145E+03</rscale>
<asrwt>0</asrwt>
<pdfrwt beam="1">  1        2 0.24053576E+00 0.71435145E+03</pdfrwt>
<pdfrwt beam="2">  1       -2 0.12553289E-01 0.71435145E+03</pdfrwt>
<totfact> 0.56071221E+02</totfact>
</mgrwt>
</event>
<event>
 4    1  0.1804641E-005  0.7047561E+03  0.7818608E-02  0.9709133E-01
         -2   -1    0    0    0  501 -0.00000000000E+00  0.00000000000E+00  0.17285392900E+03  0.17285392902E+03  0.25500000000E-02 0. -1.
          2   -1    0    0  501    0  0.00000000000E+00 -0.00000000000E+00 -0.71835384113E+03  0.71835384114E+03  0.25500000000E-02 0.  1.
   -5000001    1    1    2    0    0 -0.13996480110E+03  0.18998127943E+03 -0.17490151910E+03  0.38571177512E+03  0.25000000000E+03 0.  0.
    5000001    1    1    2    0    0  0.13996480110E+03 -0.18998127943E+03 -0.37059839303E+03  0.50549599504E+03  0.25000000000E+03 0.  0.
<mgrwt>
<rscale>  0 0.70475608E+03</rscale>
<asrwt>0</asrwt>
<pdfrwt beam="1">  1        2 0.11051597E+00 0.70475608E+03</pdfrwt>
<pdfrwt beam="2">  1       -2 0.26592913E-01 0.70475608E+03</pdfrwt>
<totfact> 0.51079988E+02</totfact>
</mgrwt>
</event>
<event>
 4    1  0.1804641E-005  0.9031096E+03  0.7818608E-02  0.9421703E-01
          2   -1    0    0  501    0  0.00000000000E+00  0.00000000000E+00  0.47168431378E+03  0.47168431379E+03  0.25500000000E-02 0.  1.
         -2   -1    0    0    0  501 -0.00000000000E+00 -0.00000000000E+00 -0.43228428714E+03  0.43228428715E+03  0.25500000000E-02 0. -1.
   -5000001    1    1    2    0    0  0.37233056487E+03 -0.26177497806E+02  0.65420659912E+02  0.45397706293E+03  0.25000000000E+03 0.  0.
    5000001    1    1    2    0    0 -0.37233056487E+03  0.26177497806E+02 -0.26020633273E+02  0.44999153801E+03  0.25000000000E+03 0.  0.
<mgrwt>
<rscale>  0 0.90310956E+03</rscale>
<asrwt>0</asrwt>
<pdfrwt beam="1">  1        2 0.72566817E-01 0.90310956E+03</pdfrwt>
<pdfrwt beam="2">  1       -2 0.66505275E-01 0.90310956E+03</pdfrwt>
<totfact> 0.13743681E+02</totfact>
</mgrwt>
</event>
<event>
 4    1  0.1804641E-005  0.1384177E+04  0.7818608E-02  0.8965353E-01
          2   -1    0    0  501    0  0.00000000000E+00  0.00000000000E+00  0.11692127764E+04  0.11692127764E+04  0.25500000000E-02 0.  1.
         -2   -1    0    0    0  501 -0.00000000000E+00 -0.00000000000E+00 -0.40966551979E+03  0.40966551979E+03  0.25500000000E-02 0. -1.
   -5000001    1    1    2    0    0  0.43332901893E+03 -0.42367903951E+03  0.12674137451E+03  0.66771351879E+03  0.25000000000E+03 0.  0.
    5000001    1    1    2    0    0 -0.43332901893E+03  0.42367903951E+03  0.63280588212E+03  0.91116477742E+03  0.25000000000E+03 0.  0.
<mgrwt>
<rscale>  0 0.13841765E+04</rscale>
<asrwt>0</asrwt>
<pdfrwt beam="1">  1        2 0.17987889E+00 0.13841765E+04</pdfrwt>
<pdfrwt beam="2">  1       -2 0.63025466E-01 0.13841765E+04</pdfrwt>
<totfact> 0.44926270E+01</totfact>
</mgrwt>
</event>
<event>
 4    1  0.1804641E-005  0.1360248E+04  0.7818608E-02  0.8983106E-01
         -2   -1    0    0    0  501 -0.00000000000E+00  0.00000000000E+00  0.37216374616E+03  0.37216374617E+03  0.25500000000E-02 0. -1.
          2   -1    0    0  501    0  0.00000000000E+00 -0.00000000000E+00 -0.12429177805E+04  0.12429177805E+04  0.25500000000E-02 0.  1.
   -5000001    1    1    2    0    0  0.74260449685E+02 -0.42458066246E+03 -0.98500988925E+03  0.11038694829E+04  0.25000000000E+03 0.  0.
    5000001    1    1    2    0    0 -0.74260449685E+02  0.42458066246E+03  0.11425585492E+03  0.51121204378E+03  0.25000000000E+03 0.  0.
<mgrwt>
<rscale>  0 0.13602484E+04</rscale>
<asrwt>0</asrwt>
<pdfrwt beam="1">  1        2 0.19121812E+00 0.13602484E+04</pdfrwt>
<pdfrwt beam="2">  1       -2 0.57255962E-01 0.13602484E+04</pdfrwt>
<totfact> 0.49823495E+01</totfact>
</mgrwt>
</event>
<event>
 4    1  0.1804641E-005  0.6360899E+03  0.7818608E-02  0.9833236E-01
         -2   -1    0    0    0  501 -0.00000000000E+00  0.00000000000E+00  0.10903648146E+03  0.10903648149E+03  0.25500000000E-02 0. -1.
          2   -1    0    0  501    0  0.00000000000E+00 -0.00000000000E+00 -0.92769493168E+03  0.92769493168E+03  0.25500000000E-02 0.  1.
   -5000001    1    1    2    0    0 -0.19435960273E+03 -0.93734919962E+01 -0.36354598317E+03  0.48221281548E+03  0.25000000000E+03 0.  0.
    5000001    1    1    2    0    0  0.19435960273E+03  0.93734919962E+01 -0.45511246705E+03  0.55451859770E+03  0.25000000000E+03 0.  0.
<mgrwt>
<rscale>  0 0.63608990E+03</rscale>
<asrwt>0</asrwt>
<pdfrwt beam="1">  1        2 0.14272229E+00 0.63608990E+03</pdfrwt>
<pdfrwt beam="2">  1       -2 0.16774844E-01 0.63608990E+03</pdfrwt>
<totfact> 0.81900009E+02</totfact>
</mgrwt>
</event>
<event>
 4    1  0.1804641E-005  0.1214446E+04  0.7818608E-02  0.9100305E-01
         -2   -1    0    0    0  501 -0.00000000000E+00  0.00000000000E+00  0.28297681389E+03  0.28297681390E+03  0.25500000000E-02 0. -1.
          2   -1    0    0  501    0  0.00000000000E+00 -0.00000000000E+00 -0.13030037917E+04  0.13030037917E+04  0.25500000000E-02 0.  1.
   -5000001    1    1    2    0    0 -0.13341201985E+03  0.45073422197E+03 -0.89133530455E+03  0.10382382824E+04  0.25000000000E+03 0.  0.
    5000001    1    1    2    0    0  0.13341201985E+03 -0.45073422197E+03 -0.12869167330E+03  0.54774232325E+03  0.25000000000E+03 0.  0.
<mgrwt>
<rscale>  0 0.12144461E+04</rscale>
<asrwt>0</asrwt>
<pdfrwt beam="1">  1        2 0.20046212E+00 0.12144461E+04</pdfrwt>
<pdfrwt beam="2">  1       -2 0.43534895E-01 0.12144461E+04</pdfrwt>
<totfact> 0.81166389E+01</totfact>
</mgrwt>
</event>
<event>
 4    1  0.1804641E-005  0.7539313E+03  0.7818608E-02  0.9629203E-01
          2   -1    0    0  501    0  0.00000000000E+00  0.00000000000E+00  0.66894034947E+03  0.66894034947E+03  0.25500000000E-02 0.  1.
         -2   -1    0    0    0  501 -0.00000000000E+00 -0.00000000000E+00 -0.21243013897E+03  0.21243013898E+03  0.25500000000E-02 0. -1.
   -5000001    1    1    2    0    0  0.27336763288E+03  0.54233967235E+02  0.17687207828E+03  0.41407115088E+03  0.25000000000E+03 0.  0.
    5000001    1    1    2    0    0 -0.27336763288E+03 -0.54233967235E+02  0.27963813222E+03  0.46729933758E+03  0.25000000000E+03 0.  0.
<mgrwt>
<rscale>  0 0.75393127E+03</rscale>
<asrwt>0</asrwt>
<pdfrwt beam="1">  1        2 0.10291390E+00 0.75393127E+03</pdfrwt>
<pdfrwt beam="2">  1       -2 0.32681560E-01 0.75393127E+03</pdfrwt>
<totfact> 0.38090124E+02</totfact>
</mgrwt>
</event>
<event>
 4    1  0.1804641E-005  0.6802446E+03  0.7818608E-02  0.9751626E-01
          2   -1    0    0  501    0  0.00000000000E+00  0.00000000000E+00  0.12311358042E+04  0.12311358042E+04  0.25500000000E-02 0.  1.
         -2   -1    0    0    0  501 -0.00000000000E+00 -0.00000000000E+00 -0.93964588080E+02  0.93964588115E+02  0.25500000000E-02 0. -1.
   -5000001    1    1    2    0    0 -0.16693264306E+03 -0.81452814656E+02  0.83483985864E+03  0.89104357801E+03  0.25000000000E+03 0.  0.
    5000001    1    1    2    0    0  0.16693264306E+03  0.81452814656E+02  0.30233135748E+03  0.43405681431E+03  0.25000000000E+03 0.  0.
<mgrwt>
<rscale>  0 0.68024457E+03</rscale>
<asrwt>0</asrwt>
<pdfrwt beam="1">  1        2 0.18940550E+00 0.68024457E+03</pdfrwt>
<pdfrwt beam="2">  1       -2 0.14456091E-01 0.68024457E+03</pdfrwt>
<totfact> 0.68393822E+02</totfact>
</mgrwt>
</event>
<event>
 4    1  0.1804641E-005  0.1645926E+04  0.7818608E-02  0.8792820E-01
         -2   -1    0    0    0  501 -0.00000000000E+00  0.00000000000E+00  0.35002618426E+03  0.35002618427E+03  0.25500000000E-02 0. -1.
          2   -1    0    0  501    0  0.00000000000E+00 -0.00000000000E+00 -0.19349067478E+04  0.19349067478E+04  0.25500000000E-02 0.  1.
   -5000001    1    1    2    0    0  0.77550296204E+03  0.11501472298E+03 -0.80855788345E+03  0.11536459949E+04  0.25000000000E+03 0.  0.
    5000001    1    1    2    0    0 -0.77550296204E+03 -0.11501472298E+03 -0.77632268012E+03  0.11312869372E+04  0.25000000000E+03 0.  0.
<mgrwt>
<rscale>  0 0.16459259E+04</rscale>
<asrwt>0</asrwt>
<pdfrwt beam="1">  1        2 0.29767795E+00 0.16459259E+04</pdfrwt>
<pdfrwt beam="2">  1       -2 0.53850183E-01 0.16459259E+04</pdfrwt>
<totfact> 0.22543125E+01</totfact>
</mgrwt>
</event>
<event>
 4    1  0.1804641E-005  0.6378915E+03  0.7818608E-02  0.9829769E-01
         -2   -1    0    0    0  501 -0.00000000000E+00  0.00000000000E+00  0.41412699906E+03  0.41412699906E+03  0.25500000000E-02 0. -1.
          2   -1    0    0  501    0  0.00000000000E+00 -0.00000000000E+00 -0.24564052993E+03  0.24564052994E+03  0.25500000000E-02 0.  1.
   -5000001    1    1    2    0    0 -0.14932016598E+03  0.12249783342E+03  0.12961262890E+03  0.34146985918E+03  0.25000000000E+03 0.  0.
    5000001    1    1    2    0    0  0.14932016598E+03 -0.12249783342E+03  0.38873840225E+02  0.31829766982E+03  0.25000000000E+03 0.  0.
<mgrwt>
<rscale>  0 0.63789145E+03</rscale>
<asrwt>0</asrwt>
<pdfrwt beam="1">  1        2 0.37790851E-01 0.63789145E+03</pdfrwt>
<pdfrwt beam="2">  1       -2 0.63711846E-01 0.63789145E+03</pdfrwt>
<totfact> 0.31596802E+02</totfact>
</mgrwt>
</event>
<event>
 4    1  0.1804641E-005  0.9284460E+03  0.7818608E-02  0.9390705E-01
         -2   -1    0    0    0  501 -0.00000000000E+00  0.00000000000E+00  0.56505217263E+03  0.56505217264E+03  0.25500000000E-02 0. -1.
          2   -1    0    0  501    0  0.00000000000E+00 -0.00000000000E+00 -0.38138597144E+03  0.38138597144E+03  0.25500000000E-02 0.  1.
   -5000001    1    1    2    0    0  0.19740353417E+03  0.28859100337E+03 -0.86922030000E+02  0.43852977302E+03  0.25000000000E+03 0.  0.
    5000001    1    1    2    0    0 -0.19740353417E+03 -0.28859100337E+03  0.27058823119E+03  0.50790837106E+03  0.25000000000E+03 0.  0.
<mgrwt>
<rscale>  0 0.92844595E+03</rscale>
<asrwt>0</asrwt>
<pdfrwt beam="1">  1        2 0.58674765E-01 0.92844595E+03</pdfrwt>
<pdfrwt beam="2">  1       -2 0.86931103E-01 0.92844595E+03</pdfrwt>
<totfact> 0.96286036E+01</totfact>
</mgrwt>
</event>
<event>
 4    1  0.1804641E-005  0.8126683E+03  0.7818608E-02  0.9541859E-01
          2   -1    0    0  501    0  0.00000000000E+00  0.00000000000E+00  0.22224102667E+04  0.22224102667E+04  0.25500000000E-02 0.  1.
         -2   -1    0    0    0  501 -0.00000000000E+00 -0.00000000000E+00 -0.74292067401E+02  0.74292067444E+02  0.25500000000E-02 0. -1.
   -5000001    1    1    2    0    0  0.23784041333E+03  0.21452196347E+03  0.10866086077E+04  0.11600887903E+04  0.25000000000E+03 0.  0.
    5000001    1    1    2    0    0 -0.23784041333E+03 -0.21452196347E+03  0.10615095916E+04  0.11366135438E+04  0.25000000000E+03 0.  0.
<mgrwt>
<rscale>  0 0.81266833E+03</rscale>
<asrwt>0</asrwt>
<pdfrwt beam="1">  1        2 0.34190929E+00 0.81266833E+03</pdfrwt>
<pdfrwt beam="2">  1       -2 0.11429548E-01 0.81266833E+03</pdfrwt>
<totfact> 0.28332774E+02</totfact>
</mgrwt>
</event>
<event>
 4    1  0.1804641E-005  0.5810931E+03  0.7818608E-02  0.9945427E-01
         -2   -1    0    0    0  501 -0.00000000000E+00  0.00000000000E+00  0.58359924762E+02  0.58359924818E+02  0.25500000000E-02 0. -1.
          2   -1    0    0  501    0  0.00000000000E+00 -0.00000000000E+00 -0.14464945174E+04  0.14464945174E+04  0.25500000000E-02 0.  1.
   -5000001    1    1    2    0    0 -0.14304276872E+03 -0.31188147295E+02 -0.63713066787E+03  0.69990672390E+03  0.25000000000E+03 0.  0.
    5000001    1    1    2    0    0  0.14304276872E+03  0.31188147295E+02 -0.75100392474E+03  0.80494771830E+03  0.25000000000E+03 0.  0.
<mgrwt>
<rscale>  0 0.58109315E+03</rscale>
<asrwt>0</asrwt>
<pdfrwt beam="1">  1        2 0.22253759E+00 0.58109315E+03</pdfrwt>
<pdfrwt beam="2">  1       -2 0.89784510E-02 0.58109315E+03</pdfrwt>
<totfact> 0.11324439E+03</totfact>
</mgrwt>
</event>
<event>
 4    1  0.1804641E-005  0.9017345E+03  0.7818608E-02  0.9423416E-01
          2   -1    0    0  501    0  0.00000000000E+00  0.00000000000E+00  0.10389579005E+04  0.10389579005E+04  0.25500000000E-02 0.  1.
         -2   -1    0    0    0  501 -0.00000000000E+00 -0.00000000000E+00 -0.19565883589E+03  0.19565883590E+03  0.25500000000E-02 0. -1.
   -5000001    1    1    2    0    0 -0.66781128682E+02  0.36730522192E+03  0.37026600764E+03  0.58221109712E+03  0.25000000000E+03 0.  0.
    5000001    1    1    2    0    0  0.66781128682E+02 -0.36730522192E+03  0.47303305702E+03  0.65240563933E+03  0.25000000000E+03 0.  0.
<mgrwt>
<rscale>  0 0.90173454E+03</rscale>
<asrwt>0</asrwt>
<pdfrwt beam="1">  1        2 0.15983968E+00 0.90173454E+03</pdfrwt>
<pdfrwt beam="2">  1       -2 0.30101359E-01 0.90173454E+03</pdfrwt>
<totfact> 0.24264757E+02</totfact>
</mgrwt>
</event>
<event>
 4    1  0.1804641E-005  0.6928672E+03  0.7818608E-02  0.9729509E-01
         -2   -1    0    0    0  501 -0.00000000000E+00  0.00000000000E+00  0.18527495081E+03  0.18527495083E+03  0.25500000000E-02 0. -1.
          2   -1    0    0  501    0  0.00000000000E+00 -0.00000000000E+00 -0.64777370218E+03  0.64777370219E+03  0.25500000000E-02 0.  1.
   -5000001    1    1    2    0    0 -0.13179908272E+03  0.15207614622E+03 -0.38809620661E+03  0.50360383044E+03  0.25000000000E+03 0.  0.
    5000001    1    1    2    0    0  0.13179908272E+03 -0.15207614622E+03 -0.74402544758E+02  0.32944482257E+03  0.25000000000E+03 0.  0.
<mgrwt>
<rscale>  0 0.69286720E+03</rscale>
<asrwt>0</asrwt>
<pdfrwt beam="1">  1        2 0.99657491E-01 0.69286720E+03</pdfrwt>
<pdfrwt beam="2">  1       -2 0.28503839E-01 0.69286720E+03</pdfrwt>
<totfact> 0.51217340E+02</totfact>
</mgrwt>
</event>
<event>
 4    1  0.1804641E-005  0.1104787E+04  0.7818608E-02  0.9200539E-01
         -2   -1    0    0    0  501 -0.00000000000E+00  0.00000000000E+00  0.16808145886E+03  0.16808145888E+03  0.25500000000E-02 0. -1.
          2   -1    0    0  501    0  0.00000000000E+00 -0.00000000000E+00 -0.18154206761E+04  0.18154206761E+04  0.25500000000E-02 0.  1.
   -5000001    1    1    2    0    0 -0.16988915460E+03  0.45413928874E+03 -0.97950258619E+03  0.11211735525E+04  0.25000000000E+03 0.  0.
    5000001    1    1    2    0    0  0.16988915460E+03 -0.45413928874E+03 -0.66783663109E+03  0.86232858253E+03  0.25000000000E+03 0.  0.
<mgrwt>
<rscale>  0 0.11047870E+04</rscale>
<asrwt>0</asrwt>
<pdfrwt beam="1">  1        2 0.27929548E+00 0.11047870E+04</pdfrwt>
<pdfrwt beam="2">  1       -2 0.25858687E-01 0.11047870E+04</pdfrwt>
<totfact> 0.11336273E+02</totfact>
</mgrwt>
</event>
<event>
 4    1  0.1804641E-005  0.6135617E+03  0.7818608E-02  0.9877663E-01
          2   -1    0    0  501    0  0.00000000000E+00  0.00000000000E+00  0.35893550076E+03  0.35893550077E+03  0.25500000000E-02 0.  1.
         -2   -1    0    0    0  501 -0.00000000000E+00 -0.00000000000E+00 -0.26220442518E+03  0.26220442520E+03  0.25500000000E-02 0. -1.
   -5000001    1    1    2    0    0 -0.41834043907E+02  0.16984593606E+03  0.80645853777E+02  0.31559702622E+03  0.25000000000E+03 0.  0.
    5000001    1    1    2    0    0  0.41834043907E+02 -0.16984593606E+03  0.16085221804E+02  0.30554289975E+03  0.25000000000E+03 0.  0.
<mgrwt>
<rscale>  0 0.61356166E+03</rscale>
<asrwt>0</asrwt>
<pdfrwt beam="1">  1        2 0.55220846E-01 0.61356166E+03</pdfrwt>
<pdfrwt beam="2">  1       -2 0.40339142E-01 0.61356166E+03</pdfrwt>
<totfact> 0.52666181E+02</totfact>
</mgrwt>
</event>
<event>
 4    1  0.1804641E-005  0.5286866E+03  0.7818608E-02  0.1006551E+00
          2   -1    0    0  501    0  0.00000000000E+00  0.00000000000E+00  0.27060527187E+04  0.27060527187E+04  0.25500000000E-02 0.  1.
         -2   -1    0    0    0  501 -0.00000000000E+00 -0.00000000000E+00 -0.25822622330E+02  0.25822622456E+02  0.25500000000E-02 0. -1.
   -5000001    1    1    2    0    0 -0.28431513415E+02  0.52823850266E+02  0.10224774392E+04  0.10543049008E+04  0.25000000000E+03 0.  0.
    5000001    1    1    2    0    0  0.28431513415E+02 -0.52823850266E+02  0.16577526571E+04  0.16775704403E+04  0.25000000000E+03 0.  0.
<mgrwt>
<rscale>  0 0.52868659E+03</rscale>
<asrwt>0</asrwt>
<pdfrwt beam="1">  1        2 0.41631591E+00 0.52868659E+03</pdfrwt>
<pdfrwt beam="2">  1       -2 0.39727101E-02 0.52868659E+03</pdfrwt>
<totfact> 0.82694273E+02</totfact>
</mgrwt>
</event>
<event>
 4    1  0.1804641E-005  0.9551741E+03  0.7818608E-02  0.9359123E-01
          2   -1    0    0  501    0  0.00000000000E+00  0.00000000000E+00  0.75276307674E+03  0.75276307674E+03  0.25500000000E-02 0.  1.
         -2   -1    0    0    0  501 -0.00000000000E+00 -0.00000000000E+00 -0.30300287242E+03  0.30300287243E+03  0.25500000000E-02 0. -1.
   -5000001    1    1    2    0    0 -0.24670819319E+02  0.40477075052E+03  0.26222208267E+03  0.54379079658E+03  0.25000000000E+03 0.  0.
    5000001    1    1    2    0    0  0.24670819319E+02 -0.40477075052E+03  0.18753812165E+03  0.51197515260E+03  0.25000000000E+03 0.  0.
<mgrwt>
<rscale>  0 0.95517407E+03</rscale>
<asrwt>0</asrwt>
<pdfrwt beam="1">  1        2 0.11580970E+00 0.95517407E+03</pdfrwt>
<pdfrwt beam="2">  1       -2 0.46615826E-01 0.95517407E+03</pdfrwt>
<totfact> 0.16289113E+02</totfact>
</mgrwt>
</event>
<event>
 4    1  0.1804641E-005  0.6251087E+03  0.7818608E-02  0.9854641E-01
          2   -1    0    0  501    0  0.00000000000E+00  0.00000000000E+00  0.66270848451E+03  0.66270848451E+03  0.25500000000E-02 0. -1.
         -2   -1    0    0    0  501 -0.00000000000E+00 -0.00000000000E+00 -0.14741052868E+03  0.14741052871E+03  0.25500000000E-02 0.  1.
   -5000001    1    1    2    0    0 -0.16017728013E+03 -0.64991672290E+02  0.16321651152E+03  0.34499320018E+03  0.25000000000E+03 0.  0.
    5000001    1    1    2    0    0  0.16017728013E+03  0.64991672290E+02  0.35208144430E+03  0.46512581304E+03  0.25000000000E+03 0.  0.
<mgrwt>
<rscale>  0 0.62510866E+03</rscale>
<asrwt>0</asrwt>
<pdfrwt beam="1">  1        2 0.10195515E+00 0.62510866E+03</pdfrwt>
<pdfrwt beam="2">  1       -2 0.22678543E-01 0.62510866E+03</pdfrwt>
<totfact> 0.75367958E+02</totfact>
</mgrwt>
</event>
<event>
 4    1  0.1804641E-005  0.8770688E+03  0.7818608E-02  0.9454709E-01
          2   -1    0    0  501    0  0.00000000000E+00  0.00000000000E+00  0.79924398663E+03  0.79924398663E+03  0.25500000000E-02 0.  1.
         -2   -1    0    0    0  501 -0.00000000000E+00 -0.00000000000E+00 -0.24061790895E+03  0.24061790896E+03  0.25500000000E-02 0. -1.
   -5000001    1    1    2    0    0 -0.21137036660E+03 -0.28835579841E+03  0.33214816058E+03  0.54831459850E+03  0.25000000000E+03 0.  0.
    5000001    1    1    2    0    0  0.21137036660E+03  0.28835579841E+03  0.22647791710E+03  0.49154729710E+03  0.25000000000E+03 0.  0.
<mgrwt>
<rscale>  0 0.87706879E+03</rscale>
<asrwt>0</asrwt>
<pdfrwt beam="1">  1        2 0.12296062E+00 0.87706879E+03</pdfrwt>
<pdfrwt beam="2">  1       -2 0.37018139E-01 0.87706879E+03</pdfrwt>
<totfact> 0.23786138E+02</totfact>
</mgrwt>
</event>
<event>
 4    1  0.1804641E-005  0.8827440E+03  0.7818608E-02  0.9447413E-01
          2   -1    0    0  501    0  0.00000000000E+00  0.00000000000E+00  0.26109428576E+04  0.26109428576E+04  0.25500000000E-02 0.  1.
         -2   -1    0    0    0  501 -0.00000000000E+00 -0.00000000000E+00 -0.74612610253E+02  0.74612610297E+02  0.25500000000E-02 0. -1.
   -5000001    1    1    2    0    0  0.20669517383E+02 -0.35708429573E+03  0.14693433889E+04  0.15327773542E+04  0.25000000000E+03 0.  0.
    5000001    1    1    2    0    0 -0.20669517383E+02  0.35708429573E+03  0.10669868585E+04  0.11527781137E+04  0.25000000000E+03 0.  0.
<mgrwt>
<rscale>  0 0.88274404E+03</rscale>
<asrwt>0</asrwt>
<pdfrwt beam="1">  1        2 0.40168354E+00 0.88274404E+03</pdfrwt>
<pdfrwt beam="2">  1       -2 0.11478863E-01 0.88274404E+03</pdfrwt>
<totfact> 0.16876281E+02</totfact>
</mgrwt>
</event>
<event>
 4    1  0.1804641E-005  0.1100342E+04  0.7818608E-02  0.9204858E-01
         -2   -1    0    0    0  501 -0.00000000000E+00  0.00000000000E+00  0.10625875564E+03  0.10625875567E+03  0.25500000000E-02 0. -1.
          2   -1    0    0  501    0  0.00000000000E+00 -0.00000000000E+00 -0.28485968270E+04  0.28485968270E+04  0.25500000000E-02 0.  1.
   -5000001    1    1    2    0    0  0.47331230391E+03 -0.12443767975E+03 -0.14411482733E+04  0.15423740204E+04  0.25000000000E+03 0.  0.
    5000001    1    1    2    0    0 -0.47331230391E+03  0.12443767975E+03 -0.13011897981E+04  0.14124815623E+04  0.25000000000E+03 0.  0.
<mgrwt>
<rscale>  0 0.11003424E+04</rscale>
<asrwt>0</asrwt>
<pdfrwt beam="1">  1        2 0.43824561E+00 0.11003424E+04</pdfrwt>
<pdfrwt beam="2">  1       -2 0.16347503E-01 0.11003424E+04</pdfrwt>
<totfact> 0.66060697E+01</totfact>
</mgrwt>
</event>
<event>
 4    1  0.1804641E-005  0.5446311E+03  0.7818608E-02  0.1002744E+00
         -2   -1    0    0    0  501 -0.00000000000E+00  0.00000000000E+00  0.34975438372E+02  0.34975438465E+02  0.25500000000E-02 0. -1.
          2   -1    0    0  501    0  0.00000000000E+00 -0.00000000000E+00 -0.21202237011E+04  0.21202237011E+04  0.25500000000E-02 0.  1.
   -5000001    1    1    2    0    0 -0.76557955303E+02  0.22345884290E+02 -0.75466554051E+03  0.79898719458E+03  0.25000000000E+03 0.  0.
    5000001    1    1    2    0    0  0.76557955303E+02 -0.22345884290E+02 -0.13305827222E+04  0.13562119450E+04  0.25000000000E+03 0.  0.
<mgrwt>
<rscale>  0 0.54463108E+03</rscale>
<asrwt>0</asrwt>
<pdfrwt beam="1">  1        2 0.32618816E+00 0.54463108E+03</pdfrwt>
<pdfrwt beam="2">  1       -2 0.53808383E-02 0.54463108E+03</pdfrwt>
<totfact> 0.10963080E+03</totfact>
</mgrwt>
</event>
<event>
 4    1  0.1804641E-005  0.6508668E+03  0.7818608E-02  0.9805154E-01
         -2   -1    0    0    0  501 -0.00000000000E+00  0.00000000000E+00  0.22099033864E+04  0.22099033864E+04  0.25500000000E-02 0. -1.
          2   -1    0    0  501    0  0.00000000000E+00 -0.00000000000E+00 -0.47923772182E+02  0.47923772250E+02  0.25500000000E-02 0.  1.
   -5000001    1    1    2    0    0  0.13914376871E+02 -0.19832503925E+03  0.12970829695E+04  0.13358333208E+04  0.25000000000E+03 0.  0.
    5000001    1    1    2    0    0 -0.13914376871E+02  0.19832503925E+03  0.86489664474E+03  0.92199383792E+03  0.25000000000E+03 0.  0.
<mgrwt>
<rscale>  0 0.65086683E+03</rscale>
<asrwt>0</asrwt>
<pdfrwt beam="1">  1        2 0.73728888E-02 0.65086683E+03</pdfrwt>
<pdfrwt beam="2">  1       -2 0.33998510E+00 0.65086683E+03</pdfrwt>
<totfact> 0.18856954E+01</totfact>
</mgrwt>
</event>
<event>
 4    1  0.1804641E-005  0.1525444E+04  0.7818608E-02  0.8867707E-01
         -2   -1    0    0    0  501 -0.00000000000E+00  0.00000000000E+00  0.45123048793E+03  0.45123048793E+03  0.25500000000E-02 0.  1.
          2   -1    0    0  501    0  0.00000000000E+00 -0.00000000000E+00 -0.12892409021E+04  0.12892409021E+04  0.25500000000E-02 0. -1.
   -5000001    1    1    2    0    0 -0.53129023798E+03 -0.26274651315E+03  0.48565606569E+02  0.64510748351E+03  0.25000000000E+03 0.  0.
    5000001    1    1    2    0    0  0.53129023798E+03  0.26274651315E+03 -0.88657602072E+03  0.10953639065E+04  0.25000000000E+03 0.  0.
<mgrwt>
<rscale>  0 0.15254439E+04</rscale>
<asrwt>0</asrwt>
<pdfrwt beam="1">  1        2 0.19834475E+00 0.15254439E+04</pdfrwt>
<pdfrwt beam="2">  1       -2 0.69420076E-01 0.15254439E+04</pdfrwt>
<totfact> 0.30619568E+01</totfact>
</mgrwt>
</event>
<event>
 4    1  0.1804641E-005  0.1262880E+04  0.7818608E-02  0.9059531E-01
         -2   -1    0    0    0  501 -0.00000000000E+00  0.00000000000E+00  0.12074164743E+04  0.12074164743E+04  0.25500000000E-02 0. -1.
          2   -1    0    0  501    0  0.00000000000E+00 -0.00000000000E+00 -0.33022298424E+03  0.33022298425E+03  0.25500000000E-02 0.  1.
   -5000001    1    1    2    0    0 -0.18010830684E+03 -0.27787101289E+03 -0.14095082110E+03  0.43819908257E+03  0.25000000000E+03 0.  0.
    5000001    1    1    2    0    0  0.18010830684E+03  0.27787101289E+03  0.10181443111E+04  0.10994403760E+04  0.25000000000E+03 0.  0.
<mgrwt>
<rscale>  0 0.12628803E+04</rscale>
<asrwt>0</asrwt>
<pdfrwt beam="1">  1        2 0.50803536E-01 0.12628803E+04</pdfrwt>
<pdfrwt beam="2">  1       -2 0.18575638E+00 0.12628803E+04</pdfrwt>
<totfact> 0.16029822E+01</totfact>
</mgrwt>
</event>
<event>
 4    1  0.1804641E-005  0.1484409E+04  0.7818608E-02  0.8894887E-01
         -2   -1    0    0    0  501 -0.00000000000E+00  0.00000000000E+00  0.19025550519E+03  0.19025550520E+03  0.25500000000E-02 0. -1.
          2   -1    0    0  501    0  0.00000000000E+00 -0.00000000000E+00 -0.28954092255E+04  0.28954092255E+04  0.25500000000E-02 0.  1.
   -5000001    1    1    2    0    0  0.37517099541E+03 -0.58338617656E+03 -0.11752776439E+04  0.13873969320E+04  0.25000000000E+03 0.  0.
    5000001    1    1    2    0    0 -0.37517099541E+03  0.58338617656E+03 -0.15298760765E+04  0.16982677987E+04  0.25000000000E+03 0.  0.
<mgrwt>
<rscale>  0 0.14844090E+04</rscale>
<asrwt>0</asrwt>
<pdfrwt beam="1">  1        2 0.44544754E+00 0.14844090E+04</pdfrwt>
<pdfrwt beam="2">  1       -2 0.29270080E-01 0.14844090E+04</pdfrwt>
<totfact> 0.21137079E+01</totfact>
</mgrwt>
</event>
<event>
 4    1  0.1804641E-005  0.6539122E+03  0.7818608E-02  0.9799466E-01
         -2   -1    0    0    0  501 -0.00000000000E+00  0.00000000000E+00  0.13587260747E+03  0.13587260750E+03  0.25500000000E-02 0. -1.
          2   -1    0    0  501    0  0.00000000000E+00 -0.00000000000E+00 -0.78676860716E+03  0.78676860717E+03  0.25500000000E-02 0.  1.
   -5000001    1    1    2    0    0 -0.21004227488E+03 -0.12522623397E+02 -0.34126888578E+03  0.47248177292E+03  0.25000000000E+03 0.  0.
    5000001    1    1    2    0    0  0.21004227488E+03  0.12522623397E+02 -0.30962711390E+03  0.45015944175E+03  0.25000000000E+03 0.  0.
<mgrwt>
<rscale>  0 0.65391223E+03</rscale>
<asrwt>0</asrwt>
<pdfrwt beam="1">  1        2 0.12104132E+00 0.65391223E+03</pdfrwt>
<pdfrwt beam="2">  1       -2 0.20903479E-01 0.65391223E+03</pdfrwt>
<totfact> 0.69935470E+02</totfact>
</mgrwt>
</event>
<event>
 4    1  0.1804641E-005  0.6634411E+03  0.7818608E-02  0.9781880E-01
          2   -1    0    0  501    0  0.00000000000E+00  0.00000000000E+00  0.32993856405E+04  0.32993856405E+04  0.25500000000E-02 0.  1.
         -2   -1    0    0    0  501 -0.00000000000E+00 -0.00000000000E+00 -0.33351220169E+02  0.33351220267E+02  0.25500000000E-02 0. -1.
   -5000001    1    1    2    0    0 -0.11288159598E+02 -0.20487719367E+03  0.20034047144E+04  0.20293428830E+04  0.25000000000E+03 0.  0.
    5000001    1    1    2    0    0  0.11288159598E+02  0.20487719367E+03  0.12626297060E+04  0.13033939778E+04  0.25000000000E+03 0.  0.
<mgrwt>
<rscale>  0 0.66344114E+03</rscale>
<asrwt>0</asrwt>
<pdfrwt beam="1">  1        2 0.50759781E+00 0.66344114E+03</pdfrwt>
<pdfrwt beam="2">  1       -2 0.51309567E-02 0.66344114E+03</pdfrwt>
<totfact> 0.23858334E+02</totfact>
</mgrwt>
</event>
<event>
 4    1  0.1804641E-005  0.1111047E+04  0.7818608E-02  0.9194491E-01
          2   -1    0    0  501    0  0.00000000000E+00  0.00000000000E+00  0.21926443502E+04  0.21926443502E+04  0.25500000000E-02 0.  1.
         -2   -1    0    0    0  501 -0.00000000000E+00 -0.00000000000E+00 -0.14074614971E+03  0.14074614973E+03  0.25500000000E-02 0. -1.
   -5000001    1    1    2    0    0  0.31314950043E+03  0.38434931156E+03  0.98842428705E+03  0.11336973027E+04  0.25000000000E+03 0.  0.
    5000001    1    1    2    0    0 -0.31314950043E+03 -0.38434931156E+03  0.10634739134E+04  0.11996931972E+04  0.25000000000E+03 0.  0.
<mgrwt>
<rscale>  0 0.11110468E+04</rscale>
<asrwt>0</asrwt>
<pdfrwt beam="1">  1        2 0.33732987E+00 0.11110468E+04</pdfrwt>
<pdfrwt beam="2">  1       -2 0.21653256E-01 0.11110468E+04</pdfrwt>
<totfact> 0.96471548E+01</totfact>
</mgrwt>
</event>
<event>
 4    1  0.1804641E-005  0.5465788E+03  0.7818608E-02  0.1002289E+00
         -2   -1    0    0    0  501 -0.00000000000E+00  0.00000000000E+00  0.53660032993E+02  0.53660033054E+02  0.25500000000E-02 0. -1.
          2   -1    0    0  501    0  0.00000000000E+00 -0.00000000000E+00 -0.13918569198E+04  0.13918569198E+04  0.25500000000E-02 0.  1.
   -5000001    1    1    2    0    0 -0.61530895552E+02 -0.81541427605E+02 -0.77979689364E+03  0.82523829943E+03  0.25000000000E+03 0.  0.
    5000001    1    1    2    0    0  0.61530895552E+02  0.81541427605E+02 -0.55839999318E+03  0.62027865343E+03  0.25000000000E+03 0.  0.
<mgrwt>
<rscale>  0 0.54657877E+03</rscale>
<asrwt>0</asrwt>
<pdfrwt beam="1">  1        2 0.21413181E+00 0.54657877E+03</pdfrwt>
<pdfrwt beam="2">  1       -2 0.82553907E-02 0.54657877E+03</pdfrwt>
<totfact> 0.13913444E+03</totfact>
</mgrwt>
</event>
<event>
 4    1  0.1804641E-005  0.8197798E+03  0.7818608E-02  0.9531820E-01
         -2   -1    0    0    0  501 -0.00000000000E+00  0.00000000000E+00  0.18925122678E+03  0.18925122680E+03  0.25500000000E-02 0. -1.
          2   -1    0    0  501    0  0.00000000000E+00 -0.00000000000E+00 -0.88776041875E+03  0.88776041875E+03  0.25500000000E-02 0.  1.
   -5000001    1    1    2    0    0  0.19155405756E+02 -0.24035396548E+03 -0.63306213143E+02  0.35305047077E+03  0.25000000000E+03 0.  0.
    5000001    1    1    2    0    0 -0.19155405756E+02  0.24035396548E+03 -0.63520297882E+03  0.72396117478E+03  0.25000000000E+03 0.  0.
<mgrwt>
<rscale>  0 0.81977984E+03</rscale>
<asrwt>0</asrwt>
<pdfrwt beam="1">  1        2 0.13657852E+00 0.81977984E+03</pdfrwt>
<pdfrwt beam="2">  1       -2 0.29115574E-01 0.81977984E+03</pdfrwt>
<totfact> 0.32525691E+02</totfact>
</mgrwt>
</event>
<event>
 4    1  0.1804641E-005  0.8901176E+03  0.7818608E-02  0.9438020E-01
         -2   -1    0    0    0  501 -0.00000000000E+00  0.00000000000E+00  0.12056907849E+03  0.12056907851E+03  0.25500000000E-02 0. -1.
          2   -1    0    0  501    0  0.00000000000E+00 -0.00000000000E+00 -0.16428534187E+04  0.16428534187E+04  0.25500000000E-02 0.  1.
   -5000001    1    1    2    0    0 -0.33922396214E+03 -0.26235599986E+02 -0.10400227740E+04  0.11224564907E+04  0.25000000000E+03 0.  0.
    5000001    1    1    2    0    0  0.33922396214E+03  0.26235599986E+02 -0.48226156623E+03  0.64096600648E+03  0.25000000000E+03 0.  0.
<mgrwt>
<rscale>  0 0.89011757E+03</rscale>
<asrwt>0</asrwt>
<pdfrwt beam="1">  1        2 0.25274666E+00 0.89011757E+03</pdfrwt>
<pdfrwt beam="2">  1       -2 0.18549090E-01 0.89011757E+03</pdfrwt>
<totfact> 0.25854651E+02</totfact>
</mgrwt>
</event>
<event>
 4    1  0.1804641E-005  0.7413398E+03  0.7818608E-02  0.9649036E-01
         -2   -1    0    0    0  501 -0.00000000000E+00  0.00000000000E+00  0.18146512374E+03  0.18146512376E+03  0.25500000000E-02 0. -1.
          2   -1    0    0  501    0  0.00000000000E+00 -0.00000000000E+00 -0.75714912594E+03  0.75714912595E+03  0.25500000000E-02 0.  1.
   -5000001    1    1    2    0    0  0.13545807053E+03  0.22895035953E+03 -0.20648545671E+03  0.41940839266E+03  0.25000000000E+03 0.  0.
    5000001    1    1    2    0    0 -0.13545807053E+03 -0.22895035953E+03 -0.36919854549E+03  0.51920585705E+03  0.25000000000E+03 0.  0.
<mgrwt>
<rscale>  0 0.74133976E+03</rscale>
<asrwt>0</asrwt>
<pdfrwt beam="1">  1        2 0.11648448E+00 0.74133976E+03</pdfrwt>
<pdfrwt beam="2">  1       -2 0.27917712E-01 0.74133976E+03</pdfrwt>
<totfact> 0.43635324E+02</totfact>
</mgrwt>
</event>
<event>
 4    1  0.1804641E-005  0.7212862E+03  0.7818608E-02  0.9681507E-01
         -2   -1    0    0    0  501 -0.00000000000E+00  0.00000000000E+00  0.22600761659E+03  0.22600761660E+03  0.25500000000E-02 0. -1.
          2   -1    0    0  501    0  0.00000000000E+00 -0.00000000000E+00 -0.57548259239E+03  0.57548259240E+03  0.25500000000E-02 0.  1.
   -5000001    1    1    2    0    0  0.10069855248E+03 -0.23649211107E+03 -0.21769827828E+03  0.41947736225E+03  0.25000000000E+03 0.  0.
    5000001    1    1    2    0    0 -0.10069855248E+03  0.23649211107E+03 -0.13177669752E+03  0.38201284675E+03  0.25000000000E+03 0.  0.
<mgrwt>
<rscale>  0 0.72128621E+03</rscale>
<asrwt>0</asrwt>
<pdfrwt beam="1">  1        2 0.88535783E-01 0.72128621E+03</pdfrwt>
<pdfrwt beam="2">  1       -2 0.34770403E-01 0.72128621E+03</pdfrwt>
<totfact> 0.40735924E+02</totfact>
</mgrwt>
</event>
<event>
 4    1  0.1804641E-005  0.1163466E+04  0.7818608E-02  0.9145450E-01
          2   -1    0    0  501    0  0.00000000000E+00  0.00000000000E+00  0.82337222166E+03  0.82337222166E+03  0.25500000000E-02 0. -1.
         -2   -1    0    0    0  501 -0.00000000000E+00 -0.00000000000E+00 -0.41100879403E+03  0.41100879404E+03  0.25500000000E-02 0.  1.
   -5000001    1    1    2    0    0 -0.25560828876E+03  0.43943975378E+03  0.34641338901E+03  0.66403699488E+03  0.25000000000E+03 0.  0.
    5000001    1    1    2    0    0  0.25560828876E+03 -0.43943975378E+03  0.65950038628E+02  0.57034402082E+03  0.25000000000E+03 0.  0.
<mgrwt>
<rscale>  0 0.11634659E+04</rscale>
<asrwt>0</asrwt>
<pdfrwt beam="1">  1        2 0.12667265E+00 0.11634659E+04</pdfrwt>
<pdfrwt beam="2">  1       -2 0.63232123E-01 0.11634659E+04</pdfrwt>
<totfact> 0.75949501E+01</totfact>
</mgrwt>
</event>
<event>
 4    1  0.1804641E-005  0.5653467E+03  0.7818608E-02  0.9980029E-01
          2   -1    0    0  501    0  0.00000000000E+00  0.00000000000E+00  0.49817466057E+03  0.49817466057E+03  0.25500000000E-02 0.  1.
         -2   -1    0    0    0  501 -0.00000000000E+00 -0.00000000000E+00 -0.16039400342E+03  0.16039400344E+03  0.25500000000E-02 0. -1.
   -5000001    1    1    2    0    0 -0.36577883276E+02 -0.10591979106E+03  0.24999305288E+03  0.37088201651E+03  0.25000000000E+03 0.  0.
    5000001    1    1    2    0    0  0.36577883276E+02  0.10591979106E+03  0.87787604266E+02  0.28768664749E+03  0.25000000000E+03 0.  0.
<mgrwt>
<rscale>  0 0.56534672E+03</rscale>
<asrwt>0</asrwt>
<pdfrwt beam="1">  1        2 0.76642254E-01 0.56534672E+03</pdfrwt>
<pdfrwt beam="2">  1       -2 0.24676001E-01 0.56534672E+03</pdfrwt>
<totfact> 0.91092194E+02</totfact>
</mgrwt>
</event>
<event>
 4    1  0.1804641E-005  0.7756567E+03  0.7818608E-02  0.9595937E-01
          2   -1    0    0  501    0  0.00000000000E+00  0.00000000000E+00  0.25630592885E+04  0.25630592885E+04  0.25500000000E-02 0.  1.
         -2   -1    0    0    0  501 -0.00000000000E+00 -0.00000000000E+00 -0.58684099787E+02  0.58684099842E+02  0.25500000000E-02 0. -1.
   -5000001    1    1    2    0    0 -0.24734145516E+03 -0.87770175568E+01  0.70034135108E+03  0.78373008077E+03  0.25000000000E+03 0.  0.
    5000001    1    1    2    0    0  0.24734145516E+03  0.87770175568E+01  0.18040338376E+04  0.18380133075E+04  0.25000000000E+03 0.  0.
<mgrwt>
<rscale>  0 0.77565669E+03</rscale>
<asrwt>0</asrwt>
<pdfrwt beam="1">  1        2 0.39431672E+00 0.77565669E+03</pdfrwt>
<pdfrwt beam="2">  1       -2 0.90283252E-02 0.77565669E+03</pdfrwt>
<totfact> 0.26884662E+02</totfact>
</mgrwt>
</event>
<event>
 4    1  0.1804641E-005  0.7062791E+03  0.7818608E-02  0.9706554E-01
         -2   -1    0    0    0  501 -0.00000000000E+00  0.00000000000E+00  0.12672581350E+03  0.12672581352E+03  0.25500000000E-02 0. -1.
          2   -1    0    0  501    0  0.00000000000E+00 -0.00000000000E+00 -0.98407374186E+03  0.98407374186E+03  0.25500000000E-02 0.  1.
   -5000001    1    1    2    0    0 -0.18681144894E+03  0.88028037479E+02 -0.20871341786E+03  0.38562772674E+03  0.25000000000E+03 0.  0.
    5000001    1    1    2    0    0  0.18681144894E+03 -0.88028037479E+02 -0.64863451050E+03  0.72517182864E+03  0.25000000000E+03 0.  0.
<mgrwt>
<rscale>  0 0.70627911E+03</rscale>
<asrwt>0</asrwt>
<pdfrwt beam="1">  1        2 0.15139596E+00 0.70627911E+03</pdfrwt>
<pdfrwt beam="2">  1       -2 0.19496280E-01 0.70627911E+03</pdfrwt>
<totfact> 0.57946523E+02</totfact>
</mgrwt>
</event>
<event>
 4    1  0.1804641E-005  0.7925352E+03  0.7818608E-02  0.9570885E-01
         -2   -1    0    0    0  501 -0.00000000000E+00  0.00000000000E+00  0.94048660909E+02  0.94048660944E+02  0.25500000000E-02 0. -1.
          2   -1    0    0  501    0  0.00000000000E+00 -0.00000000000E+00 -0.16696462421E+04  0.16696462421E+04  0.25500000000E-02 0.  1.
   -5000001    1    1    2    0    0  0.31227691741E+02 -0.23855656004E+03 -0.36180433709E+03  0.50128512785E+03  0.25000000000E+03 0.  0.
    5000001    1    1    2    0    0 -0.31227691741E+02  0.23855656004E+03 -0.12137932441E+04  0.12624097752E+04  0.25000000000E+03 0.  0.
<mgrwt>
<rscale>  0 0.79253516E+03</rscale>
<asrwt>0</asrwt>
<pdfrwt beam="1">  1        2 0.25686863E+00 0.79253516E+03</pdfrwt>
<pdfrwt beam="2">  1       -2 0.14469026E-01 0.79253516E+03</pdfrwt>
<totfact> 0.38466409E+02</totfact>
</mgrwt>
</event>
<event>
 4    1  0.1804641E-005  0.7303351E+03  0.7818608E-02  0.9666717E-01
         -2   -1    0    0    0  501 -0.00000000000E+00  0.00000000000E+00  0.69901423020E+02  0.69901423066E+02  0.25500000000E-02 0. -1.
          2   -1    0    0  501    0  0.00000000000E+00 -0.00000000000E+00 -0.19076482715E+04  0.19076482715E+04  0.25500000000E-02 0.  1.
   -5000001    1    1    2    0    0  0.90611100897E+02  0.24185943187E+03 -0.74462999050E+03  0.82684955049E+03  0.25000000000E+03 0.  0.
    5000001    1    1    2    0    0 -0.90611100897E+02 -0.24185943187E+03 -0.10931168580E+04  0.11507001441E+04  0.25000000000E+03 0.  0.
<mgrwt>
<rscale>  0 0.73033507E+03</rscale>
<asrwt>0</asrwt>
<pdfrwt beam="1">  1        2 0.29348431E+00 0.73033507E+03</pdfrwt>
<pdfrwt beam="2">  1       -2 0.10754067E-01 0.73033507E+03</pdfrwt>
<totfact> 0.46873577E+02</totfact>
</mgrwt>
</event>
<event>
 4    1  0.1804641E-005  0.7242387E+03  0.7818608E-02  0.9676656E-01
         -2   -1    0    0    0  501 -0.00000000000E+00  0.00000000000E+00  0.84307993603E+02  0.84307993642E+02  0.25500000000E-02 0. -1.
          2   -1    0    0  501    0  0.00000000000E+00 -0.00000000000E+00 -0.15553737624E+04  0.15553737624E+04  0.25500000000E-02 0.  1.
   -5000001    1    1    2    0    0 -0.86070625978E+02 -0.14151185380E+03 -0.27600810342E+03  0.40757113560E+03  0.25000000000E+03 0.  0.
    5000001    1    1    2    0    0  0.86070625978E+02  0.14151185380E+03 -0.11950576654E+04  0.12321106204E+04  0.25000000000E+03 0.  0.
<mgrwt>
<rscale>  0 0.72423875E+03</rscale>
<asrwt>0</asrwt>
<pdfrwt beam="1">  1        2 0.23928825E+00 0.72423875E+03</pdfrwt>
<pdfrwt beam="2">  1       -2 0.12970462E-01 0.72423875E+03</pdfrwt>
<totfact> 0.53626019E+02</totfact>
</mgrwt>
</event>
<event>
 4    1  0.1804641E-005  0.8996154E+03  0.7818608E-02  0.9426062E-01
         -2   -1    0    0    0  501 -0.00000000000E+00  0.00000000000E+00  0.15735053657E+03  0.15735053659E+03  0.25500000000E-02 0. -1.
          2   -1    0    0  501    0  0.00000000000E+00 -0.00000000000E+00 -0.12858358761E+04  0.12858358761E+04  0.25500000000E-02 0.  1.
   -5000001    1    1    2    0    0 -0.14468982725E+03  0.20768906040E+03 -0.10057898807E+04  0.10668566802E+04  0.25000000000E+03 0.  0.
    5000001    1    1    2    0    0  0.14468982725E+03 -0.20768906040E+03 -0.12269545877E+03  0.37632973245E+03  0.25000000000E+03 0.  0.
<mgrwt>
<rscale>  0 0.89961540E+03</rscale>
<asrwt>0</asrwt>
<pdfrwt beam="1">  1        2 0.19782090E+00 0.89961540E+03</pdfrwt>
<pdfrwt beam="2">  1       -2 0.24207776E-01 0.89961540E+03</pdfrwt>
<totfact> 0.25658783E+02</totfact>
</mgrwt>
</event>
<event>
 4    1  0.1804641E-005  0.9457393E+03  0.7818608E-02  0.9370145E-01
          2   -1    0    0  501    0  0.00000000000E+00  0.00000000000E+00  0.72257742148E+03  0.72257742149E+03  0.25500000000E-02 0.  1.
         -2   -1    0    0    0  501 -0.00000000000E+00 -0.00000000000E+00 -0.30945572727E+03  0.30945572728E+03  0.25500000000E-02 0. -1.
   -5000001    1    1    2    0    0  0.24012215902E+03  0.19909448125E+03 -0.69091261772E+02  0.40567334910E+03  0.25000000000E+03 0.  0.
    5000001    1    1    2    0    0 -0.24012215902E+03 -0.19909448125E+03  0.48221295598E+03  0.62635979966E+03  0.25000000000E+03 0.  0.
<mgrwt>
<rscale>  0 0.94573933E+03</rscale>
<asrwt>0</asrwt>
<pdfrwt beam="1">  1        2 0.11116576E+00 0.94573933E+03</pdfrwt>
<pdfrwt beam="2">  1       -2 0.47608573E-01 0.94573933E+03</pdfrwt>
<totfact> 0.16466826E+02</totfact>
</mgrwt>
</event>
<event>
 4    1  0.1804641E-005  0.7783690E+03  0.7818608E-02  0.9591866E-01
          2   -1    0    0  501    0  0.00000000000E+00  0.00000000000E+00  0.11008045609E+04  0.11008045609E+04  0.25500000000E-02 0. -1.
         -2   -1    0    0    0  501 -0.00000000000E+00 -0.00000000000E+00 -0.13759441713E+03  0.13759441716E+03  0.25500000000E-02 0.  1.
   -5000001    1    1    2    0    0  0.26867909104E+03 -0.12735690718E+03  0.44407841977E+03  0.59001176147E+03  0.25000000000E+03 0.  0.
    5000001    1    1    2    0    0 -0.26867909104E+03  0.12735690718E+03  0.51913172397E+03  0.64838721656E+03  0.25000000000E+03 0.  0.
<mgrwt>
<rscale>  0 0.77836897E+03</rscale>
<asrwt>0</asrwt>
<pdfrwt beam="1">  1        2 0.16935454E+00 0.77836897E+03</pdfrwt>
<pdfrwt beam="2">  1       -2 0.21168372E-01 0.77836897E+03</pdfrwt>
<totfact> 0.42263803E+02</totfact>
</mgrwt>
</event>
<event>
 4    1  0.1804641E-005  0.9499305E+03  0.7818608E-02  0.9365232E-01
         -2   -1    0    0    0  501 -0.00000000000E+00  0.00000000000E+00  0.99883523085E+02  0.99883523117E+02  0.25500000000E-02 0. -1.
          2   -1    0    0  501    0  0.00000000000E+00 -0.00000000000E+00 -0.22585505247E+04  0.22585505247E+04  0.25500000000E-02 0.  1.
   -5000001    1    1    2    0    0 -0.30387648326E+03  0.20113666560E+03 -0.64719977435E+03  0.78368643171E+03  0.25000000000E+03 0.  0.
    5000001    1    1    2    0    0  0.30387648326E+03 -0.20113666560E+03 -0.15114672272E+04  0.15747476161E+04  0.25000000000E+03 0.  0.
<mgrwt>
<rscale>  0 0.94993049E+03</rscale>
<asrwt>0</asrwt>
<pdfrwt beam="1">  1        2 0.34746927E+00 0.94993049E+03</pdfrwt>
<pdfrwt beam="2">  1       -2 0.15366698E-01 0.94993049E+03</pdfrwt>
<totfact> 0.16297379E+02</totfact>
</mgrwt>
</event>
<event>
 4    1  0.1804641E-005  0.7353395E+03  0.7818608E-02  0.9658635E-01
         -2   -1    0    0    0  501 -0.00000000000E+00  0.00000000000E+00  0.20082247992E+03  0.20082247994E+03  0.25500000000E-02 0. -1.
          2   -1    0    0  501    0  0.00000000000E+00 -0.00000000000E+00 -0.67313701058E+03  0.67313701059E+03  0.25500000000E-02 0.  1.
   -5000001    1    1    2    0    0  0.66536008648E+02  0.25505682311E+03 -0.16892468512E+03  0.40064519554E+03  0.25000000000E+03 0.  0.
    5000001    1    1    2    0    0 -0.66536008648E+02 -0.25505682311E+03 -0.30338984554E+03  0.47331429499E+03  0.25000000000E+03 0.  0.
<mgrwt>
<rscale>  0 0.73533950E+03</rscale>
<asrwt>0</asrwt>
<pdfrwt beam="1">  1        2 0.10355954E+00 0.73533950E+03</pdfrwt>
<pdfrwt beam="2">  1       -2 0.30895766E-01 0.73533950E+03</pdfrwt>
<totfact> 0.42016073E+02</totfact>
</mgrwt>
</event>
<event>
 4    1  0.1804641E-005  0.6360743E+03  0.7818608E-02  0.9833266E-01
          2   -1    0    0  501    0  0.00000000000E+00  0.00000000000E+00  0.11867108647E+04  0.11867108647E+04  0.25500000000E-02 0.  1.
         -2   -1    0    0    0  501 -0.00000000000E+00 -0.00000000000E+00 -0.85233601741E+02  0.85233601779E+02  0.25500000000E-02 0. -1.
   -5000001    1    1    2    0    0 -0.18591065814E+03 -0.31128318112E+02  0.66236113768E+03  0.73263498531E+03  0.25000000000E+03 0.  0.
    5000001    1    1    2    0    0  0.18591065814E+03  0.31128318112E+02  0.43911612528E+03  0.53930948117E+03  0.25000000000E+03 0.  0.
<mgrwt>
<rscale>  0 0.63607434E+03</rscale>
<asrwt>0</asrwt>
<pdfrwt beam="1">  1        2 0.18257090E+00 0.63607434E+03</pdfrwt>
<pdfrwt beam="2">  1       -2 0.13112862E-01 0.63607434E+03</pdfrwt>
<totfact> 0.85653769E+02</totfact>
</mgrwt>
</event>
<event>
 4    1  0.1804641E-005  0.6996595E+03  0.7818608E-02  0.9717815E-01
          2   -1    0    0  501    0  0.00000000000E+00  0.00000000000E+00  0.79487711437E+03  0.79487711437E+03  0.25500000000E-02 0.  1.
         -2   -1    0    0    0  501 -0.00000000000E+00 -0.00000000000E+00 -0.15396197154E+03  0.15396197157E+03  0.25500000000E-02 0. -1.
   -5000001    1    1    2    0    0  0.20677303057E+03  0.73343976719E+02  0.46743771004E+03  0.57370065178E+03  0.25000000000E+03 0.  0.
    5000001    1    1    2    0    0 -0.20677303057E+03 -0.73343976719E+02  0.17347743279E+03  0.37513843415E+03  0.25000000000E+03 0.  0.
<mgrwt>
<rscale>  0 0.69965948E+03</rscale>
<asrwt>0</asrwt>
<pdfrwt beam="1">  1        2 0.12228878E+00 0.69965948E+03</pdfrwt>
<pdfrwt beam="2">  1       -2 0.23686458E-01 0.69965948E+03</pdfrwt>
<totfact> 0.55217158E+02</totfact>
</mgrwt>
</event>
<event>
 4    1  0.1804641E-005  0.6114082E+03  0.7818608E-02  0.9882016E-01
         -2   -1    0    0    0  501 -0.00000000000E+00  0.00000000000E+00  0.65653232680E+02  0.65653232729E+02  0.25500000000E-02 0. -1.
          2   -1    0    0  501    0  0.00000000000E+00 -0.00000000000E+00 -0.14234635932E+04  0.14234635932E+04  0.25500000000E-02 0.  1.
   -5000001    1    1    2    0    0  0.10002871242E+03 -0.10914106378E+03 -0.91044250131E+03  0.95567937265E+03  0.25000000000E+03 0.  0.
    5000001    1    1    2    0    0 -0.10002871242E+03  0.10914106378E+03 -0.44736785921E+03  0.53343745329E+03  0.25000000000E+03 0.  0.
<mgrwt>
<rscale>  0 0.61140817E+03</rscale>
<asrwt>0</asrwt>
<pdfrwt beam="1">  1        2 0.21899438E+00 0.61140817E+03</pdfrwt>
<pdfrwt beam="2">  1       -2 0.10100498E-01 0.61140817E+03</pdfrwt>
<totfact> 0.96313113E+02</totfact>
</mgrwt>
</event>
<event>
 4    1  0.1804641E-005  0.5844255E+03  0.7818608E-02  0.9938255E-01
         -2   -1    0    0    0  501 -0.00000000000E+00  0.00000000000E+00  0.45908328956E+02  0.45908329026E+02  0.25500000000E-02 0. -1.
          2   -1    0    0  501    0  0.00000000000E+00 -0.00000000000E+00 -0.18599741411E+04  0.18599741411E+04  0.25500000000E-02 0.  1.
   -5000001    1    1    2    0    0  0.13838935252E+03  0.60797686477E+02 -0.92774377628E+03  0.97265435073E+03  0.25000000000E+03 0.  0.
    5000001    1    1    2    0    0 -0.13838935252E+03 -0.60797686477E+02 -0.88632203584E+03  0.93322811938E+03  0.25000000000E+03 0.  0.
<mgrwt>
<rscale>  0 0.58442555E+03</rscale>
<asrwt>0</asrwt>
<pdfrwt beam="1">  1        2 0.28614981E+00 0.58442555E+03</pdfrwt>
<pdfrwt beam="2">  1       -2 0.70628213E-02 0.58442555E+03</pdfrwt>
<totfact> 0.98735349E+02</totfact>
</mgrwt>
</event>
<event>
 4    1  0.1804641E-005  0.6030718E+03  0.7818608E-02  0.9899054E-01
          2   -1    0    0  501    0  0.00000000000E+00  0.00000000000E+00  0.10615784020E+04  0.10615784020E+04  0.25500000000E-02 0.  1.
         -2   -1    0    0    0  501 -0.00000000000E+00 -0.00000000000E+00 -0.85649717186E+02  0.85649717224E+02  0.25500000000E-02 0. -1.
   -5000001    1    1    2    0    0  0.14104177203E+03  0.92035932173E+02  0.47316839179E+03  0.56102738013E+03  0.25000000000E+03 0.  0.
    5000001    1    1    2    0    0 -0.14104177203E+03 -0.92035932173E+02  0.50276029299E+03  0.58620073906E+03  0.25000000000E+03 0.  0.
<mgrwt>
<rscale>  0 0.60307177E+03</rscale>
<asrwt>0</asrwt>
<pdfrwt beam="1">  1        2 0.16331977E+00 0.60307177E+03</pdfrwt>
<pdfrwt beam="2">  1       -2 0.13176879E-01 0.60307177E+03</pdfrwt>
<totfact> 0.10119252E+03</totfact>
</mgrwt>
</event>
<event>
 4    1  0.1804641E-005  0.8084657E+03  0.7818608E-02  0.9547844E-01
         -2   -1    0    0    0  501 -0.00000000000E+00  0.00000000000E+00  0.11598028701E+03  0.11598028704E+03  0.25500000000E-02 0. -1.
          2   -1    0    0  501    0  0.00000000000E+00 -0.00000000000E+00 -0.14088962113E+04  0.14088962113E+04  0.25500000000E-02 0.  1.
   -5000001    1    1    2    0    0  0.31679870621E+03 -0.21801858916E+02 -0.66194791611E+03  0.77557190831E+03  0.25000000000E+03 0.  0.
    5000001    1    1    2    0    0 -0.31679870621E+03  0.21801858916E+02 -0.63096800818E+03  0.74930459004E+03  0.25000000000E+03 0.  0.
<mgrwt>
<rscale>  0 0.80846568E+03</rscale>
<asrwt>0</asrwt>
<pdfrwt beam="1">  1        2 0.21675325E+00 0.80846568E+03</pdfrwt>
<pdfrwt beam="2">  1       -2 0.17843122E-01 0.80846568E+03</pdfrwt>
<totfact> 0.37530354E+02</totfact>
</mgrwt>
</event>
<event>
 4    1  0.1804641E-005  0.5434192E+03  0.7818608E-02  0.1003029E+00
         -2   -1    0    0    0  501 -0.00000000000E+00  0.00000000000E+00  0.39214572359E+02  0.39214572442E+02  0.25500000000E-02 0. -1.
          2   -1    0    0  501    0  0.00000000000E+00 -0.00000000000E+00 -0.18826190765E+04  0.18826190765E+04  0.25500000000E-02 0.  1.
   -5000001    1    1    2    0    0 -0.88853080935E+02  0.56391632999E+02 -0.97775595625E+03  0.10146830028E+04  0.25000000000E+03 0.  0.
    5000001    1    1    2    0    0  0.88853080935E+02 -0.56391632999E+02 -0.86564854786E+03  0.90715064608E+03  0.25000000000E+03 0.  0.
<mgrwt>
<rscale>  0 0.54341918E+03</rscale>
<asrwt>0</asrwt>
<pdfrwt beam="1">  1        2 0.28963363E+00 0.54341918E+03</pdfrwt>
<pdfrwt beam="2">  1       -2 0.60330126E-02 0.54341918E+03</pdfrwt>
<totfact> 0.12328139E+03</totfact>
</mgrwt>
</event>
<event>
 4    1  0.1804641E-005  0.6852126E+03  0.7818608E-02  0.9742860E-01
          2   -1    0    0  501    0  0.00000000000E+00  0.00000000000E+00  0.20484858366E+04  0.20484858366E+04  0.25500000000E-02 0.  1.
         -2   -1    0    0    0  501 -0.00000000000E+00 -0.00000000000E+00 -0.57300403235E+02  0.57300403292E+02  0.25500000000E-02 0. -1.
   -5000001    1    1    2    0    0 -0.22797907380E+03 -0.53892425606E+02  0.99701067910E+03  0.10542339142E+04  0.25000000000E+03 0.  0.
    5000001    1    1    2    0    0  0.22797907380E+03  0.53892425606E+02  0.99417475424E+03  0.10515523257E+04  0.25000000000E+03 0.  0.
<mgrwt>
<rscale>  0 0.68521256E+03</rscale>
<asrwt>0</asrwt>
<pdfrwt beam="1">  1        2 0.31515160E+00 0.68521256E+03</pdfrwt>
<pdfrwt beam="2">  1       -2 0.88154485E-02 0.68521256E+03</pdfrwt>
<totfact> 0.54422470E+02</totfact>
</mgrwt>
</event>
<event>
 4    1  0.1804641E-005  0.8358722E+03  0.7818608E-02  0.9509497E-01
          2   -1    0    0  501    0  0.00000000000E+00  0.00000000000E+00  0.12511315676E+04  0.12511315677E+04  0.25500000000E-02 0.  1.
         -2   -1    0    0    0  501 -0.00000000000E+00 -0.00000000000E+00 -0.13961008447E+03  0.13961008449E+03  0.25500000000E-02 0. -1.
   -5000001    1    1    2    0    0 -0.31849712584E+03 -0.99120161269E+02  0.60582373669E+03  0.73538263882E+03  0.25000000000E+03 0.  0.
    5000001    1    1    2    0    0  0.31849712584E+03  0.99120161269E+02  0.50569774649E+03  0.65535901332E+03  0.25000000000E+03 0.  0.
<mgrwt>
<rscale>  0 0.83587220E+03</rscale>
<asrwt>0</asrwt>
<pdfrwt beam="1">  1        2 0.19248178E+00 0.83587220E+03</pdfrwt>
<pdfrwt beam="2">  1       -2 0.21478475E-01 0.83587220E+03</pdfrwt>
<totfact> 0.33395848E+02</totfact>
</mgrwt>
</event>
<event>
 4    1  0.1804641E-005  0.6036068E+03  0.7818608E-02  0.9897951E-01
          2   -1    0    0  501    0  0.00000000000E+00  0.00000000000E+00  0.64604152299E+03  0.64604152300E+03  0.25500000000E-02 0.  1.
         -2   -1    0    0    0  501 -0.00000000000E+00 -0.00000000000E+00 -0.14098985235E+03  0.14098985238E+03  0.25500000000E-02 0. -1.
   -5000001    1    1    2    0    0  0.99396710821E+02 -0.13124549712E+03  0.30269073096E+03  0.42570737043E+03  0.25000000000E+03 0.  0.
    5000001    1    1    2    0    0 -0.99396710821E+02  0.13124549712E+03  0.20236093969E+03  0.36132400494E+03  0.25000000000E+03 0.  0.
<mgrwt>
<rscale>  0 0.60360682E+03</rscale>
<asrwt>0</asrwt>
<pdfrwt beam="1">  1        2 0.99391002E-01 0.60360682E+03</pdfrwt>
<pdfrwt beam="2">  1       -2 0.21690747E-01 0.60360682E+03</pdfrwt>
<totfact> 0.84170221E+02</totfact>
</mgrwt>
</event>
<event>
 4    1  0.1804641E-005  0.6232801E+03  0.7818608E-02  0.9858251E-01
          2   -1    0    0  501    0  0.00000000000E+00  0.00000000000E+00  0.13544181418E+04  0.13544181418E+04  0.25500000000E-02 0.  1.
         -2   -1    0    0    0  501 -0.00000000000E+00 -0.00000000000E+00 -0.71705709174E+02  0.71705709219E+02  0.25500000000E-02 0. -1.
   -5000001    1    1    2    0    0  0.10601236934E+03 -0.15050136170E+03  0.70318691519E+03  0.76867491180E+03  0.25000000000E+03 0.  0.
    5000001    1    1    2    0    0 -0.10601236934E+03  0.15050136170E+03  0.57952551742E+03  0.65744893921E+03  0.25000000000E+03 0.  0.
<mgrwt>
<rscale>  0 0.62328008E+03</rscale>
<asrwt>0</asrwt>
<pdfrwt beam="1">  1        2 0.20837202E+00 0.62328008E+03</pdfrwt>
<pdfrwt beam="2">  1       -2 0.11031648E-01 0.62328008E+03</pdfrwt>
<totfact> 0.91177378E+02</totfact>
</mgrwt>
</event>
<event>
 4    1  0.1804641E-005  0.8416903E+03  0.7818608E-02  0.9501558E-01
         -2   -1    0    0    0  501 -0.00000000000E+00  0.00000000000E+00  0.26913466327E+03  0.26913466328E+03  0.25500000000E-02 0. -1.
          2   -1    0    0  501    0  0.00000000000E+00 -0.00000000000E+00 -0.65807439323E+03  0.65807439323E+03  0.25500000000E-02 0.  1.
   -5000001    1    1    2    0    0  0.33647177634E+03  0.29025830095E+02 -0.22041900632E+03  0.47448950824E+03  0.25000000000E+03 0.  0.
    5000001    1    1    2    0    0 -0.33647177634E+03 -0.29025830095E+02 -0.16852072364E+03  0.45271954827E+03  0.25000000000E+03 0.  0.
<mgrwt>
<rscale>  0 0.84169028E+03</rscale>
<asrwt>0</asrwt>
<pdfrwt beam="1">  1        2 0.10124221E+00 0.84169028E+03</pdfrwt>
<pdfrwt beam="2">  1       -2 0.41405333E-01 0.84169028E+03</pdfrwt>
<totfact> 0.24584552E+02</totfact>
</mgrwt>
</event>
<event>
 4    1  0.1804641E-005  0.7059810E+03  0.7818608E-02  0.9707058E-01
          2   -1    0    0  501    0  0.00000000000E+00  0.00000000000E+00  0.14917162730E+04  0.14917162730E+04  0.25500000000E-02 0.  1.
         -2   -1    0    0    0  501 -0.00000000000E+00 -0.00000000000E+00 -0.83529489423E+02  0.83529489462E+02  0.25500000000E-02 0. -1.
   -5000001    1    1    2    0    0  0.11390157477E+03 -0.22042070416E+03  0.75610884018E+03  0.83412195377E+03  0.25000000000E+03 0.  0.
    5000001    1    1    2    0    0 -0.11390157477E+03  0.22042070416E+03  0.65207794344E+03  0.74112380874E+03  0.25000000000E+03 0.  0.
<mgrwt>
<rscale>  0 0.70598102E+03</rscale>
<asrwt>0</asrwt>
<pdfrwt beam="1">  1        2 0.22949481E+00 0.70598102E+03</pdfrwt>
<pdfrwt beam="2">  1       -2 0.12850691E-01 0.70598102E+03</pdfrwt>
<totfact> 0.59130760E+02</totfact>
</mgrwt>
</event>
<event>
 4    1  0.1804641E-005  0.1337821E+04  0.7818608E-02  0.9000099E-01
         -2   -1    0    0    0  501 -0.00000000000E+00  0.00000000000E+00  0.58371252927E+03  0.58371252927E+03  0.25500000000E-02 0. -1.
          2   -1    0    0  501    0  0.00000000000E+00 -0.00000000000E+00 -0.76654352444E+03  0.76654352445E+03  0.25500000000E-02 0.  1.
   -5000001    1    1    2    0    0  0.50456465865E+03  0.24987301778E+03 -0.35445076889E+03  0.71074423483E+03  0.25000000000E+03 0.  0.
    5000001    1    1    2    0    0 -0.50456465865E+03 -0.24987301778E+03  0.17161977371E+03  0.63951181889E+03  0.25000000000E+03 0.  0.
<mgrwt>
<rscale>  0 0.13378207E+04</rscale>
<asrwt>0</asrwt>
<pdfrwt beam="1">  1        2 0.11792977E+00 0.13378207E+04</pdfrwt>
<pdfrwt beam="2">  1       -2 0.89801927E-01 0.13378207E+04</pdfrwt>
<totfact> 0.37861131E+01</totfact>
</mgrwt>
</event>
<event>
 4    1  0.1804641E-005  0.6504111E+03  0.7818608E-02  0.9806008E-01
          2   -1    0    0  501    0  0.00000000000E+00  0.00000000000E+00  0.27730360879E+04  0.27730360879E+04  0.25500000000E-02 0.  1.
         -2   -1    0    0    0  501 -0.00000000000E+00 -0.00000000000E+00 -0.38138210790E+02  0.38138210875E+02  0.25500000000E-02 0. -1.
   -5000001    1    1    2    0    0 -0.14496950460E+02  0.17305334686E+03  0.87273711426E+03  0.92429848699E+03  0.25000000000E+03 0.  0.
    5000001    1    1    2    0    0  0.14496950460E+02 -0.17305334686E+03  0.18621607628E+04  0.18868758118E+04  0.25000000000E+03 0.  0.
<mgrwt>
<rscale>  0 0.65041105E+03</rscale>
<asrwt>0</asrwt>
<pdfrwt beam="1">  1        2 0.42662089E+00 0.65041105E+03</pdfrwt>
<pdfrwt beam="2">  1       -2 0.58674177E-02 0.65041105E+03</pdfrwt>
<totfact> 0.40826828E+02</totfact>
</mgrwt>
</event>
<event>
 4    1  0.1804641E-005  0.6345654E+03  0.7818608E-02  0.9836180E-01
          2   -1    0    0  501    0  0.00000000000E+00  0.00000000000E+00  0.12421163425E+04  0.12421163425E+04  0.25500000000E-02 0.  1.
         -2   -1    0    0    0  501 -0.00000000000E+00 -0.00000000000E+00 -0.81045791098E+02  0.81045791138E+02  0.25500000000E-02 0. -1.
   -5000001    1    1    2    0    0  0.12453074733E+03 -0.12076418088E+03  0.76792501268E+03  0.82601496325E+03  0.25000000000E+03 0.  0.
    5000001    1    1    2    0    0 -0.12453074733E+03  0.12076418088E+03  0.39314553874E+03  0.49714717041E+03  0.25000000000E+03 0.  0.
<mgrwt>
<rscale>  0 0.63456537E+03</rscale>
<asrwt>0</asrwt>
<pdfrwt beam="1">  1        2 0.19109482E+00 0.63456537E+03</pdfrwt>
<pdfrwt beam="2">  1       -2 0.12468584E-01 0.63456537E+03</pdfrwt>
<totfact> 0.86417527E+02</totfact>
</mgrwt>
</event>
<event>
 4    1  0.1804641E-005  0.1194906E+04  0.7818608E-02  0.9117327E-01
          2   -1    0    0  501    0  0.00000000000E+00  0.00000000000E+00  0.33179785616E+03  0.33179785617E+03  0.25500000000E-02 0.  1.
         -2   -1    0    0    0  501 -0.00000000000E+00 -0.00000000000E+00 -0.10758055264E+04  0.10758055264E+04  0.25500000000E-02 0. -1.
   -5000001    1    1    2    0    0  0.33423743162E+03  0.25092393903E+03 -0.77968923636E+03  0.91928928481E+03  0.25000000000E+03 0.  0.
    5000001    1    1    2    0    0 -0.33423743162E+03 -0.25092393903E+03  0.35681566159E+02  0.48831409773E+03  0.25000000000E+03 0.  0.
<mgrwt>
<rscale>  0 0.11949058E+04</rscale>
<asrwt>0</asrwt>
<pdfrwt beam="1">  1        2 0.51045824E-01 0.11949058E+04</pdfrwt>
<pdfrwt beam="2">  1       -2 0.16550854E+00 0.11949058E+04</pdfrwt>
<totfact> 0.22203222E+01</totfact>
</mgrwt>
</event>
<event>
 4    1  0.1804641E-005  0.7493693E+03  0.7818608E-02  0.9636340E-01
         -2   -1    0    0    0  501 -0.00000000000E+00  0.00000000000E+00  0.97959702669E+02  0.97959702702E+02  0.25500000000E-02 0. -1.
          2   -1    0    0  501    0  0.00000000000E+00 -0.00000000000E+00 -0.14331259893E+04  0.14331259893E+04  0.25500000000E-02 0.  1.
   -5000001    1    1    2    0    0  0.11313797432E+03 -0.25483350209E+03 -0.64270339095E+03  0.74384673405E+03  0.25000000000E+03 0.  0.
    5000001    1    1    2    0    0 -0.11313797432E+03  0.25483350209E+03 -0.69246289566E+03  0.78723895793E+03  0.25000000000E+03 0.  0.
<mgrwt>
<rscale>  0 0.74936932E+03</rscale>
<asrwt>0</asrwt>
<pdfrwt beam="1">  1        2 0.22048091E+00 0.74936932E+03</pdfrwt>
<pdfrwt beam="2">  1       -2 0.15070725E-01 0.74936932E+03</pdfrwt>
<totfact> 0.48692472E+02</totfact>
</mgrwt>
</event>
<event>
 4    1  0.1804641E-005  0.1438791E+04  0.7818608E-02  0.8926209E-01
          2   -1    0    0  501    0  0.00000000000E+00  0.00000000000E+00  0.21621713159E+04  0.21621713159E+04  0.25500000000E-02 0.  1.
         -2   -1    0    0    0  501 -0.00000000000E+00 -0.00000000000E+00 -0.23935640360E+03  0.23935640362E+03  0.25500000000E-02 0. -1.
   -5000001    1    1    2    0    0  0.36312292551E+03  0.55248087842E+03  0.73786764012E+03  0.10217837513E+04  0.25000000000E+03 0.  0.
    5000001    1    1    2    0    0 -0.36312292551E+03 -0.55248087842E+03  0.11849472722E+04  0.13797439682E+04  0.25000000000E+03 0.  0.
<mgrwt>
<rscale>  0 0.14387905E+04</rscale>
<asrwt>0</asrwt>
<pdfrwt beam="1">  1        2 0.33264174E+00 0.14387905E+04</pdfrwt>
<pdfrwt beam="2">  1       -2 0.36824062E-01 0.14387905E+04</pdfrwt>
<totfact> 0.36610001E+01</totfact>
</mgrwt>
</event>
<event>
 4    1  0.1804641E-005  0.1004928E+04  0.7818608E-02  0.9303157E-01
         -2   -1    0    0    0  501 -0.00000000000E+00  0.00000000000E+00  0.88291829430E+03  0.88291829431E+03  0.25500000000E-02 0. -1.
          2   -1    0    0  501    0  0.00000000000E+00 -0.00000000000E+00 -0.28594926211E+03  0.28594926213E+03  0.25500000000E-02 0.  1.
   -5000001    1    1    2    0    0  0.10205042313E+03 -0.40894815778E+03  0.16939762163E+03  0.51850596798E+03  0.25000000000E+03 0.  0.
    5000001    1    1    2    0    0 -0.10205042313E+03  0.40894815778E+03  0.42757141056E+03  0.65036158846E+03  0.25000000000E+03 0.  0.
<mgrwt>
<rscale>  0 0.10049275E+04</rscale>
<asrwt>0</asrwt>
<pdfrwt beam="1">  1        2 0.43992195E-01 0.10049275E+04</pdfrwt>
<pdfrwt beam="2">  1       -2 0.13583358E+00 0.10049275E+04</pdfrwt>
<totfact> 0.44861049E+01</totfact>
</mgrwt>
</event>
<event>
 4    1  0.1804641E-005  0.8871549E+03  0.7818608E-02  0.9441782E-01
          2   -1    0    0  501    0  0.00000000000E+00  0.00000000000E+00  0.66814138753E+03  0.66814138753E+03  0.25500000000E-02 0.  1.
         -2   -1    0    0    0  501 -0.00000000000E+00 -0.00000000000E+00 -0.29449001336E+03  0.29449001337E+03  0.25500000000E-02 0. -1.
   -5000001    1    1    2    0    0  0.12299469271E+03 -0.34439832110E+03  0.16200923519E+03  0.47168304008E+03  0.25000000000E+03 0.  0.
    5000001    1    1    2    0    0 -0.12299469271E+03  0.34439832110E+03  0.21164213898E+03  0.49094836083E+03  0.25000000000E+03 0.  0.
<mgrwt>
<rscale>  0 0.88715493E+03</rscale>
<asrwt>0</asrwt>
<pdfrwt beam="1">  1        2 0.10279098E+00 0.88715493E+03</pdfrwt>
<pdfrwt beam="2">  1       -2 0.45306156E-01 0.88715493E+03</pdfrwt>
<totfact> 0.20141933E+02</totfact>
</mgrwt>
</event>
<event>
 4    1  0.1804641E-005  0.6180813E+03  0.7818608E-02  0.9868587E-01
         -2   -1    0    0    0  501 -0.00000000000E+00  0.00000000000E+00  0.28664873946E+03  0.28664873947E+03  0.25500000000E-02 0. -1.
          2   -1    0    0  501    0  0.00000000000E+00 -0.00000000000E+00 -0.33318175850E+03  0.33318175851E+03  0.25500000000E-02 0.  1.
   -5000001    1    1    2    0    0  0.51111709031E+02  0.84290066462E+02 -0.17630542922E+03  0.32140445933E+03  0.25000000000E+03 0.  0.
    5000001    1    1    2    0    0 -0.51111709031E+02 -0.84290066462E+02  0.12977241018E+03  0.29842603865E+03  0.25000000000E+03 0.  0.
<mgrwt>
<rscale>  0 0.61808133E+03</rscale>
<asrwt>0</asrwt>
<pdfrwt beam="1">  1        2 0.51258732E-01 0.61808133E+03</pdfrwt>
<pdfrwt beam="2">  1       -2 0.44099806E-01 0.61808133E+03</pdfrwt>
<totfact> 0.48019427E+02</totfact>
</mgrwt>
</event>
<event>
 4    1  0.1804641E-005  0.5998134E+03  0.7818608E-02  0.9905793E-01
          2   -1    0    0  501    0  0.00000000000E+00  0.00000000000E+00  0.11653643622E+03  0.11653643625E+03  0.25500000000E-02 0.  1.
         -2   -1    0    0    0  501 -0.00000000000E+00 -0.00000000000E+00 -0.77181044840E+03  0.77181044841E+03  0.25500000000E-02 0. -1.
   -5000001    1    1    2    0    0  0.28467777254E+02  0.15407439144E+03 -0.24795345581E+03  0.38539622298E+03  0.25000000000E+03 0.  0.
    5000001    1    1    2    0    0 -0.28467777254E+02 -0.15407439144E+03 -0.40732055638E+03  0.50295066168E+03  0.25000000000E+03 0.  0.
<mgrwt>
<rscale>  0 0.59981343E+03</rscale>
<asrwt>0</asrwt>
<pdfrwt beam="1">  1        2 0.17928683E-01 0.59981343E+03</pdfrwt>
<pdfrwt beam="2">  1       -2 0.11874007E+00 0.59981343E+03</pdfrwt>
<totfact> 0.17868555E+02</totfact>
</mgrwt>
</event>
<event>
 4    1  0.1804641E-005  0.9361373E+03  0.7818608E-02  0.9381502E-01
          2   -1    0    0  501    0  0.00000000000E+00  0.00000000000E+00  0.39448869657E+03  0.39448869658E+03  0.25500000000E-02 0.  1.
         -2   -1    0    0    0  501 -0.00000000000E+00 -0.00000000000E+00 -0.55537270854E+03  0.55537270854E+03  0.25500000000E-02 0. -1.
   -5000001    1    1    2    0    0 -0.91539674884E+02  0.29577216484E+03 -0.33048440085E+03  0.51728195868E+03  0.25000000000E+03 0.  0.
    5000001    1    1    2    0    0  0.91539674884E+02 -0.29577216484E+03  0.16960038889E+03  0.43257944644E+03  0.25000000000E+03 0.  0.
<mgrwt>
<rscale>  0 0.93613729E+03</rscale>
<asrwt>0</asrwt>
<pdfrwt beam="1">  1        2 0.60690568E-01 0.93613729E+03</pdfrwt>
<pdfrwt beam="2">  1       -2 0.85441956E-01 0.93613729E+03</pdfrwt>
<totfact> 0.96393687E+01</totfact>
</mgrwt>
</event>
<event>
 4    1  0.1804641E-005  0.9949105E+03  0.7818608E-02  0.9314144E-01
         -2   -1    0    0    0  501 -0.00000000000E+00  0.00000000000E+00  0.22391250178E+03  0.22391250180E+03  0.25500000000E-02 0. -1.
          2   -1    0    0  501    0  0.00000000000E+00 -0.00000000000E+00 -0.11051716539E+04  0.11051716539E+04  0.25500000000E-02 0.  1.
   -5000001    1    1    2    0    0  0.99617509159E+02  0.36536656963E+03 -0.16834078162E+03  0.48399896393E+03  0.25000000000E+03 0.  0.
    5000001    1    1    2    0    0 -0.99617509159E+02 -0.36536656963E+03 -0.71291837045E+03  0.84508519172E+03  0.25000000000E+03 0.  0.
<mgrwt>
<rscale>  0 0.99491055E+03</rscale>
<asrwt>0</asrwt>
<pdfrwt beam="1">  1        2 0.17002640E+00 0.99491055E+03</pdfrwt>
<pdfrwt beam="2">  1       -2 0.34448078E-01 0.99491055E+03</pdfrwt>
<totfact> 0.17033546E+02</totfact>
</mgrwt>
</event>
<event>
 4    1  0.1804641E-005  0.1109610E+04  0.7818608E-02  0.9195875E-01
         -2   -1    0    0    0  501 -0.00000000000E+00  0.00000000000E+00  0.78404766929E+02  0.78404766970E+02  0.25500000000E-02 0. -1.
          2   -1    0    0  501    0  0.00000000000E+00 -0.00000000000E+00 -0.39258934494E+04  0.39258934494E+04  0.25500000000E-02 0.  1.
   -5000001    1    1    2    0    0 -0.43062551038E+03 -0.19297293840E+03 -0.24666397958E+04  0.25237846119E+04  0.25000000000E+03 0.  0.
    5000001    1    1    2    0    0  0.43062551038E+03  0.19297293840E+03 -0.13808488867E+04  0.14805136045E+04  0.25000000000E+03 0.  0.
<mgrwt>
<rscale>  0 0.11096103E+04</rscale>
<asrwt>0</asrwt>
<pdfrwt beam="1">  1        2 0.60398345E+00 0.11096103E+04</pdfrwt>
<pdfrwt beam="2">  1       -2 0.12062275E-01 0.11096103E+04</pdfrwt>
<totfact> 0.20585274E+01</totfact>
</mgrwt>
</event>
<event>
 4    1  0.1804641E-005  0.5688857E+03  0.7818608E-02  0.9972147E-01
         -2   -1    0    0    0  501 -0.00000000000E+00  0.00000000000E+00  0.68510554717E+03  0.68510554717E+03  0.25500000000E-02 0. -1.
          2   -1    0    0  501    0  0.00000000000E+00 -0.00000000000E+00 -0.11809530072E+03  0.11809530074E+03  0.25500000000E-02 0.  1.
   -5000001    1    1    2    0    0  0.13027236454E+03 -0.28914945321E+02  0.24889861459E+03  0.37717036385E+03  0.25000000000E+03 0.  0.
    5000001    1    1    2    0    0 -0.13027236454E+03  0.28914945321E+02  0.31811163187E+03  0.42603048407E+03  0.25000000000E+03 0.  0.
<mgrwt>
<rscale>  0 0.56888574E+03</rscale>
<asrwt>0</asrwt>
<pdfrwt beam="1">  1        2 0.18168507E-01 0.56888574E+03</pdfrwt>
<pdfrwt beam="2">  1       -2 0.10540086E+00 0.56888574E+03</pdfrwt>
<totfact> 0.23484411E+02</totfact>
</mgrwt>
</event>
<event>
 4    1  0.1804641E-005  0.7105337E+03  0.7818608E-02  0.9699386E-01
         -2   -1    0    0    0  501 -0.00000000000E+00  0.00000000000E+00  0.11340968094E+03  0.11340968096E+03  0.25500000000E-02 0. -1.
          2   -1    0    0  501    0  0.00000000000E+00 -0.00000000000E+00 -0.11129080724E+04  0.11129080724E+04  0.25500000000E-02 0.  1.
   -5000001    1    1    2    0    0 -0.19633478809E+03  0.78277312172E+01 -0.22628124235E+03  0.39027147350E+03  0.25000000000E+03 0.  0.
    5000001    1    1    2    0    0  0.19633478809E+03 -0.78277312172E+01 -0.77321714916E+03  0.83604627990E+03  0.25000000000E+03 0.  0.
<mgrwt>
<rscale>  0 0.71053374E+03</rscale>
<asrwt>0</asrwt>
<pdfrwt beam="1">  1        2 0.17121662E+00 0.71053374E+03</pdfrwt>
<pdfrwt beam="2">  1       -2 0.17447644E-01 0.71053374E+03</pdfrwt>
<totfact> 0.58347617E+02</totfact>
</mgrwt>
</event>
<event>
 4    1  0.1804641E-005  0.9701461E+03  0.7818608E-02  0.9341908E-01
         -2   -1    0    0    0  501 -0.00000000000E+00  0.00000000000E+00  0.46620869384E+03  0.46620869384E+03  0.25500000000E-02 0. -1.
          2   -1    0    0  501    0  0.00000000000E+00 -0.00000000000E+00 -0.50470076106E+03  0.50470076107E+03  0.25500000000E-02 0.  1.
   -5000001    1    1    2    0    0  0.40976941706E+03 -0.69771953163E+02 -0.15146227793E+02  0.48529218913E+03  0.25000000000E+03 0.  0.
    5000001    1    1    2    0    0 -0.40976941706E+03  0.69771953163E+02 -0.23345839431E+02  0.48561726579E+03  0.25000000000E+03 0.  0.
<mgrwt>
<rscale>  0 0.97014614E+03</rscale>
<asrwt>0</asrwt>
<pdfrwt beam="1">  1        2 0.77646271E-01 0.97014614E+03</pdfrwt>
<pdfrwt beam="2">  1       -2 0.71724415E-01 0.97014614E+03</pdfrwt>
<totfact> 0.10742483E+02</totfact>
</mgrwt>
</event>
<event>
 4    1  0.1804641E-005  0.1028087E+04  0.7818608E-02  0.9278264E-01
         -2   -1    0    0    0  501 -0.00000000000E+00  0.00000000000E+00  0.49196271457E+03  0.49196271458E+03  0.25500000000E-02 0.  1.
          2   -1    0    0  501    0  0.00000000000E+00 -0.00000000000E+00 -0.53711569330E+03  0.53711569330E+03  0.25500000000E-02 0. -1.
   -5000001    1    1    2    0    0 -0.13960572133E+03  0.42097202981E+03 -0.93593365924E+02  0.51765521871E+03  0.25000000000E+03 0.  0.
    5000001    1    1    2    0    0  0.13960572133E+03 -0.42097202981E+03  0.48440387196E+02  0.51142318917E+03  0.25000000000E+03 0.  0.
<mgrwt>
<rscale>  0 0.10280873E+04</rscale>
<asrwt>0</asrwt>
<pdfrwt beam="1">  1        2 0.82633184E-01 0.10280873E+04</pdfrwt>
<pdfrwt beam="2">  1       -2 0.75686571E-01 0.10280873E+04</pdfrwt>
<totfact> 0.88389408E+01</totfact>
</mgrwt>
</event>
<event>
 4    1  0.1804641E-005  0.6957481E+03  0.7818608E-02  0.9724531E-01
         -2   -1    0    0    0  501 -0.00000000000E+00  0.00000000000E+00  0.11175087780E+03  0.11175087783E+03  0.25500000000E-02 0. -1.
          2   -1    0    0  501    0  0.00000000000E+00 -0.00000000000E+00 -0.10829118407E+04  0.10829118407E+04  0.25500000000E-02 0.  1.
   -5000001    1    1    2    0    0  0.21932379544E+03 -0.77782161023E+02 -0.59900414357E+03  0.68953531877E+03  0.25000000000E+03 0.  0.
    5000001    1    1    2    0    0 -0.21932379544E+03  0.77782161023E+02 -0.37215681933E+03  0.50512739977E+03  0.25000000000E+03 0.  0.
<mgrwt>
<rscale>  0 0.69574808E+03</rscale>
<asrwt>0</asrwt>
<pdfrwt beam="1">  1        2 0.16660181E+00 0.69574808E+03</pdfrwt>
<pdfrwt beam="2">  1       -2 0.17192443E-01 0.69574808E+03</pdfrwt>
<totfact> 0.62459057E+02</totfact>
</mgrwt>
</event>
<event>
 4    1  0.1804641E-005  0.6331172E+03  0.7818608E-02  0.9838985E-01
         -2   -1    0    0    0  501 -0.00000000000E+00  0.00000000000E+00  0.11045757206E+03  0.11045757209E+03  0.25500000000E-02 0. -1.
          2   -1    0    0  501    0  0.00000000000E+00 -0.00000000000E+00 -0.90722026862E+03  0.90722026862E+03  0.25500000000E-02 0.  1.
   -5000001    1    1    2    0    0 -0.17645929292E+03 -0.54998924935E+02 -0.49410766617E+03  0.58378519129E+03  0.25000000000E+03 0.  0.
    5000001    1    1    2    0    0  0.17645929292E+03  0.54998924935E+02 -0.30265503040E+03  0.43389264942E+03  0.25000000000E+03 0.  0.
<mgrwt>
<rscale>  0 0.63311720E+03</rscale>
<asrwt>0</asrwt>
<pdfrwt beam="1">  1        2 0.13957234E+00 0.63311720E+03</pdfrwt>
<pdfrwt beam="2">  1       -2 0.16993473E-01 0.63311720E+03</pdfrwt>
<totfact> 0.82655592E+02</totfact>
</mgrwt>
</event>
<event>
 4    1  0.1804641E-005  0.9638490E+03  0.7818608E-02  0.9349108E-01
          2   -1    0    0  501    0  0.00000000000E+00  0.00000000000E+00  0.22117765311E+04  0.22117765311E+04  0.25500000000E-02 0.  1.
         -2   -1    0    0    0  501 -0.00000000000E+00 -0.00000000000E+00 -0.10500664451E+03  0.10500664454E+03  0.25500000000E-02 0. -1.
   -5000001    1    1    2    0    0 -0.31266631387E+03 -0.23007187022E+03  0.72155590371E+03  0.85664240584E+03  0.25000000000E+03 0.  0.
    5000001    1    1    2    0    0  0.31266631387E+03  0.23007187022E+03  0.13852139829E+04  0.14601407699E+04  0.25000000000E+03 0.  0.
<mgrwt>
<rscale>  0 0.96384902E+03</rscale>
<asrwt>0</asrwt>
<pdfrwt beam="1">  1        2 0.34027333E+00 0.96384902E+03</pdfrwt>
<pdfrwt beam="2">  1       -2 0.16154867E-01 0.96384902E+03</pdfrwt>
<totfact> 0.15870579E+02</totfact>
</mgrwt>
</event>
<event>
 4    1  0.1804641E-005  0.8553344E+03  0.7818608E-02  0.9483205E-01
         -2   -1    0    0    0  501 -0.00000000000E+00  0.00000000000E+00  0.16139902922E+03  0.16139902924E+03  0.25500000000E-02 0. -1.
          2   -1    0    0  501    0  0.00000000000E+00 -0.00000000000E+00 -0.11332115226E+04  0.11332115226E+04  0.25500000000E-02 0.  1.
   -5000001    1    1    2    0    0  0.12190264231E+03  0.21292297580E+03 -0.85728026141E+03  0.92608093298E+03  0.25000000000E+03 0.  0.
    5000001    1    1    2    0    0 -0.12190264231E+03 -0.21292297580E+03 -0.11453223199E+03  0.36852961888E+03  0.25000000000E+03 0.  0.
<mgrwt>
<rscale>  0 0.85533441E+03</rscale>
<asrwt>0</asrwt>
<pdfrwt beam="1">  1        2 0.17434023E+00 0.85533441E+03</pdfrwt>
<pdfrwt beam="2">  1       -2 0.24830621E-01 0.85533441E+03</pdfrwt>
<totfact> 0.30265355E+02</totfact>
</mgrwt>
</event>
<event>
 4    1  0.1804641E-005  0.1109830E+04  0.7818608E-02  0.9195664E-01
         -2   -1    0    0    0  501 -0.00000000000E+00  0.00000000000E+00  0.20983079577E+03  0.20983079579E+03  0.25500000000E-02 0. -1.
          2   -1    0    0  501    0  0.00000000000E+00 -0.00000000000E+00 -0.14675184142E+04  0.14675184142E+04  0.25500000000E-02 0.  1.
   -5000001    1    1    2    0    0  0.16058825830E+03 -0.38746171022E+03 -0.23036284053E+03  0.53989091851E+03  0.25000000000E+03 0.  0.
    5000001    1    1    2    0    0 -0.16058825830E+03  0.38746171022E+03 -0.10273247779E+04  0.11374582915E+04  0.25000000000E+03 0.  0.
<mgrwt>
<rscale>  0 0.11098298E+04</rscale>
<asrwt>0</asrwt>
<pdfrwt beam="1">  1        2 0.22577206E+00 0.11098298E+04</pdfrwt>
<pdfrwt beam="2">  1       -2 0.32281662E-01 0.11098298E+04</pdfrwt>
<totfact> 0.11731814E+02</totfact>
</mgrwt>
</event>
<event>
 4    1  0.1804641E-005  0.9457586E+03  0.7818608E-02  0.9370122E-01
          2   -1    0    0  501    0  0.00000000000E+00  0.00000000000E+00  0.36267790503E+04  0.36267790503E+04  0.25500000000E-02 0.  1.
         -2   -1    0    0    0  501 -0.00000000000E+00 -0.00000000000E+00 -0.61656597371E+02  0.61656597423E+02  0.25500000000E-02 0. -1.
   -5000001    1    1    2    0    0  0.33884954910E+03 -0.17855803619E+03  0.22507673306E+04  0.22967706820E+04  0.25000000000E+03 0.  0.
    5000001    1    1    2    0    0 -0.33884954910E+03  0.17855803619E+03  0.13143551223E+04  0.13916649657E+04  0.25000000000E+03 0.  0.
<mgrwt>
<rscale>  0 0.94575865E+03</rscale>
<asrwt>0</asrwt>
<pdfrwt beam="1">  1        2 0.55796616E+00 0.94575865E+03</pdfrwt>
<pdfrwt beam="2">  1       -2 0.94856278E-02 0.94575865E+03</pdfrwt>
<totfact> 0.52006390E+01</totfact>
</mgrwt>
</event>
<event>
 4    1  0.1804641E-005  0.6625639E+03  0.7818608E-02  0.9783485E-01
         -2   -1    0    0    0  501 -0.00000000000E+00  0.00000000000E+00  0.12226209761E+03  0.12226209763E+03  0.25500000000E-02 0. -1.
          2   -1    0    0  501    0  0.00000000000E+00 -0.00000000000E+00 -0.89764305537E+03  0.89764305538E+03  0.25500000000E-02 0.  1.
   -5000001    1    1    2    0    0 -0.19879088031E+03 -0.41096423816E+02 -0.50733317402E+03  0.60091070851E+03  0.25000000000E+03 0.  0.
    5000001    1    1    2    0    0  0.19879088031E+03  0.41096423816E+02 -0.26804778375E+03  0.41899444449E+03  0.25000000000E+03 0.  0.
<mgrwt>
<rscale>  0 0.66256388E+03</rscale>
<asrwt>0</asrwt>
<pdfrwt beam="1">  1        2 0.13809893E+00 0.66256388E+03</pdfrwt>
<pdfrwt beam="2">  1       -2 0.18809554E-01 0.66256388E+03</pdfrwt>
<totfact> 0.70374097E+02</totfact>
</mgrwt>
</event>
<event>
 4    1  0.1804641E-005  0.6814797E+03  0.7818608E-02  0.9749439E-01
          2   -1    0    0  501    0  0.00000000000E+00  0.00000000000E+00  0.45236853115E+03  0.45236853115E+03  0.25500000000E-02 0.  1.
         -2   -1    0    0    0  501 -0.00000000000E+00 -0.00000000000E+00 -0.25665724432E+03  0.25665724433E+03  0.25500000000E-02 0. -1.
   -5000001    1    1    2    0    0 -0.20861143191E+03 -0.41194655751E+02  0.25680173137E+01  0.32821079187E+03  0.25000000000E+03 0.  0.
    5000001    1    1    2    0    0  0.20861143191E+03  0.41194655751E+02  0.19314326952E+03  0.38081498361E+03  0.25000000000E+03 0.  0.
<mgrwt>
<rscale>  0 0.68147974E+03</rscale>
<asrwt>0</asrwt>
<pdfrwt beam="1">  1        2 0.69595157E-01 0.68147974E+03</pdfrwt>
<pdfrwt beam="2">  1       -2 0.39485731E-01 0.68147974E+03</pdfrwt>
<totfact> 0.42271350E+02</totfact>
</mgrwt>
</event>
<event>
 4    1  0.1804641E-005  0.1183185E+04  0.7818608E-02  0.9127703E-01
          2   -1    0    0  501    0  0.00000000000E+00  0.00000000000E+00  0.77431108855E+03  0.77431108856E+03  0.25500000000E-02 0.  1.
         -2   -1    0    0    0  501 -0.00000000000E+00 -0.00000000000E+00 -0.45199137102E+03  0.45199137102E+03  0.25500000000E-02 0. -1.
   -5000001    1    1    2    0    0  0.24794686412E+03  0.45314597083E+03  0.12175180122E+02  0.57399229378E+03  0.25000000000E+03 0.  0.
    5000001    1    1    2    0    0 -0.24794686412E+03 -0.45314597083E+03  0.31014453741E+03  0.65231016580E+03  0.25000000000E+03 0.  0.
<mgrwt>
<rscale>  0 0.11831854E+04</rscale>
<asrwt>0</asrwt>
<pdfrwt beam="1">  1        2 0.11912478E+00 0.11831854E+04</pdfrwt>
<pdfrwt beam="2">  1       -2 0.69537133E-01 0.11831854E+04</pdfrwt>
<totfact> 0.67042130E+01</totfact>
</mgrwt>
</event>
<event>
 4    1  0.1804641E-005  0.6653318E+03  0.7818608E-02  0.9778428E-01
         -2   -1    0    0    0  501 -0.00000000000E+00  0.00000000000E+00  0.98494783644E+02  0.98494783677E+02  0.25500000000E-02 0. -1.
          2   -1    0    0  501    0  0.00000000000E+00 -0.00000000000E+00 -0.11235782591E+04  0.11235782591E+04  0.25500000000E-02 0.  1.
   -5000001    1    1    2    0    0  0.74088597059E+02  0.17375381770E+03 -0.30728875406E+03  0.43886887307E+03  0.25000000000E+03 0.  0.
    5000001    1    1    2    0    0 -0.74088597059E+02 -0.17375381770E+03 -0.71779472140E+03  0.78320416971E+03  0.25000000000E+03 0.  0.
<mgrwt>
<rscale>  0 0.66533179E+03</rscale>
<asrwt>0</asrwt>
<pdfrwt beam="1">  1        2 0.17285818E+00 0.66533179E+03</pdfrwt>
<pdfrwt beam="2">  1       -2 0.15153044E-01 0.66533179E+03</pdfrwt>
<totfact> 0.73228900E+02</totfact>
</mgrwt>
</event>
<event>
 4    1  0.1804641E-005  0.6914294E+03  0.7818608E-02  0.9732002E-01
          2   -1    0    0  501    0  0.00000000000E+00  0.00000000000E+00  0.78869789079E+03  0.78869789079E+03  0.25500000000E-02 0.  1.
         -2   -1    0    0    0  501 -0.00000000000E+00 -0.00000000000E+00 -0.15153921798E+03  0.15153921800E+03  0.25500000000E-02 0. -1.
   -5000001    1    1    2    0    0 -0.22027830446E+03 -0.77972793721E+02  0.25173392895E+03  0.42482026666E+03  0.25000000000E+03 0.  0.
    5000001    1    1    2    0    0  0.22027830446E+03  0.77972793721E+02  0.38542474386E+03  0.51541684213E+03  0.25000000000E+03 0.  0.
<mgrwt>
<rscale>  0 0.69142942E+03</rscale>
<asrwt>0</asrwt>
<pdfrwt beam="1">  1        2 0.12133814E+00 0.69142942E+03</pdfrwt>
<pdfrwt beam="2">  1       -2 0.23313725E-01 0.69142942E+03</pdfrwt>
<totfact> 0.57405177E+02</totfact>
</mgrwt>
</event>
<event>
 4    1  0.1804641E-005  0.9620742E+03  0.7818608E-02  0.9351148E-01
          2   -1    0    0  501    0  0.00000000000E+00  0.00000000000E+00  0.92719833795E+03  0.92719833795E+03  0.25500000000E-02 0.  1.
         -2   -1    0    0    0  501 -0.00000000000E+00 -0.00000000000E+00 -0.24956546481E+03  0.24956546483E+03  0.25500000000E-02 0. -1.
   -5000001    1    1    2    0    0  0.11436858318E+03 -0.35717695884E+03  0.13326439916E+03  0.47001590699E+03  0.25000000000E+03 0.  0.
    5000001    1    1    2    0    0 -0.11436858318E+03  0.35717695884E+03  0.54436847397E+03  0.70674789579E+03  0.25000000000E+03 0.  0.
<mgrwt>
<rscale>  0 0.96207418E+03</rscale>
<asrwt>0</asrwt>
<pdfrwt beam="1">  1        2 0.14264590E+00 0.96207418E+03</pdfrwt>
<pdfrwt beam="2">  1       -2 0.38394687E-01 0.96207418E+03</pdfrwt>
<totfact> 0.17997835E+02</totfact>
</mgrwt>
</event>
<event>
 4    1  0.1804641E-005  0.1226588E+04  0.7818608E-02  0.9089897E-01
         -2   -1    0    0    0  501 -0.00000000000E+00  0.00000000000E+00  0.37871694454E+03  0.37871694455E+03  0.25500000000E-02 0. -1.
          2   -1    0    0  501    0  0.00000000000E+00 -0.00000000000E+00 -0.99316875348E+03  0.99316875349E+03  0.25500000000E-02 0.  1.
   -5000001    1    1    2    0    0 -0.15042157370E+02  0.51971235644E+03 -0.74483130104E+02  0.58170004006E+03  0.25000000000E+03 0.  0.
    5000001    1    1    2    0    0  0.15042157370E+02 -0.51971235644E+03 -0.53996867884E+03  0.79018565797E+03  0.25000000000E+03 0.  0.
<mgrwt>
<rscale>  0 0.12265885E+04</rscale>
<asrwt>0</asrwt>
<pdfrwt beam="1">  1        2 0.15279519E+00 0.12265885E+04</pdfrwt>
<pdfrwt beam="2">  1       -2 0.58264146E-01 0.12265885E+04</pdfrwt>
<totfact> 0.69071264E+01</totfact>
</mgrwt>
</event>
<event>
 4    1  0.1804641E-005  0.1067366E+04  0.7818608E-02  0.9237596E-01
          2   -1    0    0  501    0  0.00000000000E+00  0.00000000000E+00  0.32384917551E+03  0.32384917552E+03  0.25500000000E-02 0.  1.
         -2   -1    0    0    0  501 -0.00000000000E+00 -0.00000000000E+00 -0.87947557697E+03  0.87947557697E+03  0.25500000000E-02 0. -1.
   -5000001    1    1    2    0    0  0.19934372662E+03 -0.37966127996E+03 -0.49883919643E+03  0.70371951283E+03  0.25000000000E+03 0.  0.
    5000001    1    1    2    0    0 -0.19934372662E+03  0.37966127996E+03 -0.56787205028E+02  0.49960523966E+03  0.25000000000E+03 0.  0.
<mgrwt>
<rscale>  0 0.10673658E+04</rscale>
<asrwt>0</asrwt>
<pdfrwt beam="1">  1        2 0.49822950E-01 0.10673658E+04</pdfrwt>
<pdfrwt beam="2">  1       -2 0.13530393E+00 0.10673658E+04</pdfrwt>
<totfact> 0.39298595E+01</totfact>
</mgrwt>
</event>
<event>
 4    1  0.1804641E-005  0.8781044E+03  0.7818608E-02  0.9453374E-01
         -2   -1    0    0    0  501 -0.00000000000E+00  0.00000000000E+00  0.67638926644E+02  0.67638926692E+02  0.25500000000E-02 0. -1.
          2   -1    0    0  501    0  0.00000000000E+00 -0.00000000000E+00 -0.28499394335E+04  0.28499394335E+04  0.25500000000E-02 0.  1.
   -5000001    1    1    2    0    0  0.35258703231E+03  0.77051014983E+02 -0.13794643372E+04  0.14476450987E+04  0.25000000000E+03 0.  0.
    5000001    1    1    2    0    0 -0.35258703231E+03 -0.77051014983E+02 -0.14028361696E+04  0.14699332615E+04  0.25000000000E+03 0.  0.
<mgrwt>
<rscale>  0 0.87810442E+03</rscale>
<asrwt>0</asrwt>
<pdfrwt beam="1">  1        2 0.43845213E+00 0.87810442E+03</pdfrwt>
<pdfrwt beam="2">  1       -2 0.10405991E-01 0.87810442E+03</pdfrwt>
<totfact> 0.14358560E+02</totfact>
</mgrwt>
</event>
<event>
 4    1  0.1804641E-005  0.6892424E+03  0.7818608E-02  0.9735808E-01
          2   -1    0    0  501    0  0.00000000000E+00  0.00000000000E+00  0.77557781906E+03  0.77557781906E+03  0.25500000000E-02 0.  1.
         -2   -1    0    0    0  501 -0.00000000000E+00 -0.00000000000E+00 -0.15312939197E+03  0.15312939199E+03  0.25500000000E-02 0. -1.
   -5000001    1    1    2    0    0 -0.66217271944E+02  0.98505432357E+02  0.34505794806E+02  0.27888832386E+03  0.25000000000E+03 0.  0.
    5000001    1    1    2    0    0  0.66217271944E+02 -0.98505432357E+02  0.58794263228E+03  0.64981888720E+03  0.25000000000E+03 0.  0.
<mgrwt>
<rscale>  0 0.68924237E+03</rscale>
<asrwt>0</asrwt>
<pdfrwt beam="1">  1        2 0.11931966E+00 0.68924237E+03</pdfrwt>
<pdfrwt beam="2">  1       -2 0.23558368E-01 0.68924237E+03</pdfrwt>
<totfact> 0.57601145E+02</totfact>
</mgrwt>
</event>
<event>
 4    1  0.1804641E-005  0.8088910E+03  0.7818608E-02  0.9547236E-01
         -2   -1    0    0    0  501 -0.00000000000E+00  0.00000000000E+00  0.17342827073E+03  0.17342827075E+03  0.25500000000E-02 0. -1.
          2   -1    0    0  501    0  0.00000000000E+00 -0.00000000000E+00 -0.94319214184E+03  0.94319214185E+03  0.25500000000E-02 0.  1.
   -5000001    1    1    2    0    0 -0.25748631877E+03 -0.17551617486E+03 -0.29789215822E+03  0.49834212136E+03  0.25000000000E+03 0.  0.
    5000001    1    1    2    0    0  0.25748631877E+03  0.17551617486E+03 -0.47187171289E+03  0.61827829124E+03  0.25000000000E+03 0.  0.
<mgrwt>
<rscale>  0 0.80889105E+03</rscale>
<asrwt>0</asrwt>
<pdfrwt beam="1">  1        2 0.14510648E+00 0.80889105E+03</pdfrwt>
<pdfrwt beam="2">  1       -2 0.26681273E-01 0.80889105E+03</pdfrwt>
<totfact> 0.35076266E+02</totfact>
</mgrwt>
</event>
<event>
 4    1  0.1804641E-005  0.7367646E+03  0.7818608E-02  0.9656347E-01
          2   -1    0    0  501    0  0.00000000000E+00  0.00000000000E+00  0.11310998744E+04  0.11310998744E+04  0.25500000000E-02 0.  1.
         -2   -1    0    0    0  501 -0.00000000000E+00 -0.00000000000E+00 -0.11997659086E+03  0.11997659089E+03  0.25500000000E-02 0. -1.
   -5000001    1    1    2    0    0 -0.20783902185E+03 -0.17298933141E+03  0.49007854778E+03  0.61302475544E+03  0.25000000000E+03 0.  0.
    5000001    1    1    2    0    0  0.20783902185E+03  0.17298933141E+03  0.52104473579E+03  0.63805170988E+03  0.25000000000E+03 0.  0.
<mgrwt>
<rscale>  0 0.73676457E+03</rscale>
<asrwt>0</asrwt>
<pdfrwt beam="1">  1        2 0.17401537E+00 0.73676457E+03</pdfrwt>
<pdfrwt beam="2">  1       -2 0.18457937E-01 0.73676457E+03</pdfrwt>
<totfact> 0.51563474E+02</totfact>
</mgrwt>
</event>
<event>
 4    1  0.1804641E-005  0.6988423E+03  0.7818608E-02  0.9719214E-01
         -2   -1    0    0    0  501 -0.00000000000E+00  0.00000000000E+00  0.12253971271E+03  0.12253971273E+03  0.25500000000E-02 0. -1.
          2   -1    0    0  501    0  0.00000000000E+00 -0.00000000000E+00 -0.99637192834E+03  0.99637192834E+03  0.25500000000E-02 0.  1.
   -5000001    1    1    2    0    0 -0.23914302121E+03  0.41087988398E+02 -0.39402824722E+03  0.52596184937E+03  0.25000000000E+03 0.  0.
    5000001    1    1    2    0    0  0.23914302121E+03 -0.41087988398E+02 -0.47980396841E+03  0.59294979170E+03  0.25000000000E+03 0.  0.
<mgrwt>
<rscale>  0 0.69884227E+03</rscale>
<asrwt>0</asrwt>
<pdfrwt beam="1">  1        2 0.15328798E+00 0.69884227E+03</pdfrwt>
<pdfrwt beam="2">  1       -2 0.18852264E-01 0.69884227E+03</pdfrwt>
<totfact> 0.60345899E+02</totfact>
</mgrwt>
</event>
<event>
 4    1  0.1804641E-005  0.6098628E+03  0.7818608E-02  0.9885153E-01
         -2   -1    0    0    0  501 -0.00000000000E+00  0.00000000000E+00  0.33963005562E+03  0.33963005563E+03  0.25500000000E-02 0. -1.
          2   -1    0    0  501    0  0.00000000000E+00 -0.00000000000E+00 -0.27377775742E+03  0.27377775743E+03  0.25500000000E-02 0.  1.
   -5000001    1    1    2    0    0 -0.12609156064E+03  0.85210384205E+02  0.11899965770E+03  0.31594431436E+03  0.25000000000E+03 0.  0.
    5000001    1    1    2    0    0  0.12609156064E+03 -0.85210384205E+02 -0.53147359499E+02  0.29746349871E+03  0.25000000000E+03 0.  0.
<mgrwt>
<rscale>  0 0.60986279E+03</rscale>
<asrwt>0</asrwt>
<pdfrwt beam="1">  1        2 0.42119655E-01 0.60986279E+03</pdfrwt>
<pdfrwt beam="2">  1       -2 0.52250777E-01 0.60986279E+03</pdfrwt>
<totfact> 0.42424090E+02</totfact>
</mgrwt>
</event>
<event>
 4    1  0.1804641E-005  0.6169755E+03  0.7818608E-02  0.9870800E-01
         -2   -1    0    0    0  501 -0.00000000000E+00  0.00000000000E+00  0.28640907201E+03  0.28640907202E+03  0.25500000000E-02 0. -1.
          2   -1    0    0  501    0  0.00000000000E+00 -0.00000000000E+00 -0.33226841608E+03  0.33226841609E+03  0.25500000000E-02 0.  1.
   -5000001    1    1    2    0    0  0.10171863264E+03  0.14289365197E+03  0.20772806983E+02  0.30609930661E+03  0.25000000000E+03 0.  0.
    5000001    1    1    2    0    0 -0.10171863264E+03 -0.14289365197E+03 -0.66632151059E+02  0.31257818150E+03  0.25000000000E+03 0.  0.
<mgrwt>
<rscale>  0 0.61697549E+03</rscale>
<asrwt>0</asrwt>
<pdfrwt beam="1">  1        2 0.51118218E-01 0.61697549E+03</pdfrwt>
<pdfrwt beam="2">  1       -2 0.44062934E-01 0.61697549E+03</pdfrwt>
<totfact> 0.48246634E+02</totfact>
</mgrwt>
</event>
<event>
 4    1  0.1804641E-005  0.5652532E+03  0.7818608E-02  0.9980238E-01
         -2   -1    0    0    0  501 -0.00000000000E+00  0.00000000000E+00  0.38240768809E+02  0.38240768894E+02  0.25500000000E-02 0. -1.
          2   -1    0    0  501    0  0.00000000000E+00 -0.00000000000E+00 -0.20888123323E+04  0.20888123323E+04  0.25500000000E-02 0.  1.
   -5000001    1    1    2    0    0  0.11906293985E+03 -0.40418035132E+02 -0.11743023065E+04  0.12071849519E+04  0.25000000000E+03 0.  0.
    5000001    1    1    2    0    0 -0.11906293985E+03  0.40418035132E+02 -0.87626925699E+03  0.91986814922E+03  0.25000000000E+03 0.  0.
<mgrwt>
<rscale>  0 0.56525318E+03</rscale>
<asrwt>0</asrwt>
<pdfrwt beam="1">  1        2 0.32135565E+00 0.56525318E+03</pdfrwt>
<pdfrwt beam="2">  1       -2 0.58831968E-02 0.56525318E+03</pdfrwt>
<totfact> 0.99074113E+02</totfact>
</mgrwt>
</event>
<event>
 4    1  0.1804641E-005  0.5790696E+03  0.7818608E-02  0.9949807E-01
         -2   -1    0    0    0  501 -0.00000000000E+00  0.00000000000E+00  0.42292419208E+02  0.42292419285E+02  0.25500000000E-02 0. -1.
          2   -1    0    0  501    0  0.00000000000E+00 -0.00000000000E+00 -0.19821613468E+04  0.19821613468E+04  0.25500000000E-02 0.  1.
   -5000001    1    1    2    0    0 -0.11292833291E+03  0.88463682720E+02 -0.87407857978E+03  0.92037600749E+03  0.25000000000E+03 0.  0.
    5000001    1    1    2    0    0  0.11292833291E+03 -0.88463682720E+02 -0.10657903478E+04  0.11040777586E+04  0.25000000000E+03 0.  0.
<mgrwt>
<rscale>  0 0.57906959E+03</rscale>
<asrwt>0</asrwt>
<pdfrwt beam="1">  1        2 0.30494783E+00 0.57906959E+03</pdfrwt>
<pdfrwt beam="2">  1       -2 0.65065276E-02 0.57906959E+03</pdfrwt>
<totfact> 0.96551883E+02</totfact>
</mgrwt>
</event>
<event>
 4    1  0.1804641E-005  0.9546030E+03  0.7818608E-02  0.9359787E-01
         -2   -1    0    0    0  501 -0.00000000000E+00  0.00000000000E+00  0.47014039755E+03  0.47014039755E+03  0.25500000000E-02 0. -1.
          2   -1    0    0  501    0  0.00000000000E+00 -0.00000000000E+00 -0.48457163530E+03  0.48457163531E+03  0.25500000000E-02 0.  1.
   -5000001    1    1    2    0    0 -0.24143823302E+03 -0.32654987556E+03 -0.26952606668E+02  0.47765435682E+03  0.25000000000E+03 0.  0.
    5000001    1    1    2    0    0  0.24143823302E+03  0.32654987556E+03  0.12521368915E+02  0.47705767604E+03  0.25000000000E+03 0.  0.
<mgrwt>
<rscale>  0 0.95460296E+03</rscale>
<asrwt>0</asrwt>
<pdfrwt beam="1">  1        2 0.74549482E-01 0.95460296E+03</pdfrwt>
<pdfrwt beam="2">  1       -2 0.72329292E-01 0.95460296E+03</pdfrwt>
<totfact> 0.11065498E+02</totfact>
</mgrwt>
</event>
<event>
 4    1  0.1804641E-005  0.9469107E+03  0.7818608E-02  0.9368769E-01
         -2   -1    0    0    0  501 -0.00000000000E+00  0.00000000000E+00  0.55788083261E+03  0.55788083261E+03  0.25500000000E-02 0. -1.
          2   -1    0    0  501    0  0.00000000000E+00 -0.00000000000E+00 -0.40180617895E+03  0.40180617896E+03  0.25500000000E-02 0.  1.
   -5000001    1    1    2    0    0 -0.27290506562E+03  0.82493204022E+01 -0.22109711301E+03  0.43119503651E+03  0.25000000000E+03 0.  0.
    5000001    1    1    2    0    0  0.27290506562E+03 -0.82493204022E+01  0.37717176667E+03  0.52849197506E+03  0.25000000000E+03 0.  0.
<mgrwt>
<rscale>  0 0.94691069E+03</rscale>
<asrwt>0</asrwt>
<pdfrwt beam="1">  1        2 0.61816335E-01 0.94691069E+03</pdfrwt>
<pdfrwt beam="2">  1       -2 0.85827820E-01 0.94691069E+03</pdfrwt>
<totfact> 0.93398218E+01</totfact>
</mgrwt>
</event>
<event>
 4    1  0.1804641E-005  0.8576711E+03  0.7818608E-02  0.9480099E-01
          2   -1    0    0  501    0  0.00000000000E+00  0.00000000000E+00  0.58862751642E+03  0.58862751642E+03  0.25500000000E-02 0.  1.
         -2   -1    0    0    0  501 -0.00000000000E+00 -0.00000000000E+00 -0.31242155064E+03  0.31242155065E+03  0.25500000000E-02 0. -1.
   -5000001    1    1    2    0    0 -0.29628027766E+02  0.34712063656E+03  0.14379601065E+03  0.45226966406E+03  0.25000000000E+03 0.  0.
    5000001    1    1    2    0    0  0.29628027766E+02 -0.34712063656E+03  0.13240995513E+03  0.44877940301E+03  0.25000000000E+03 0.  0.
<mgrwt>
<rscale>  0 0.85767108E+03</rscale>
<asrwt>0</asrwt>
<pdfrwt beam="1">  1        2 0.90558078E-01 0.85767108E+03</pdfrwt>
<pdfrwt beam="2">  1       -2 0.48064855E-01 0.85767108E+03</pdfrwt>
<totfact> 0.20917031E+02</totfact>
</mgrwt>
</event>
<event>
 4    1  0.1804641E-005  0.7099296E+03  0.7818608E-02  0.9700400E-01
         -2   -1    0    0    0  501 -0.00000000000E+00  0.00000000000E+00  0.15252777021E+03  0.15252777023E+03  0.25500000000E-02 0. -1.
          2   -1    0    0  501    0  0.00000000000E+00 -0.00000000000E+00 -0.82607910767E+03  0.82607910767E+03  0.25500000000E-02 0.  1.
   -5000001    1    1    2    0    0  0.10046540806E+03  0.22760600396E+03 -0.28159929907E+03  0.45132688430E+03  0.25000000000E+03 0.  0.
    5000001    1    1    2    0    0 -0.10046540806E+03 -0.22760600396E+03 -0.39195203839E+03  0.52727999360E+03  0.25000000000E+03 0.  0.
<mgrwt>
<rscale>  0 0.70992959E+03</rscale>
<asrwt>0</asrwt>
<pdfrwt beam="1">  1        2 0.12708909E+00 0.70992959E+03</pdfrwt>
<pdfrwt beam="2">  1       -2 0.23465811E-01 0.70992959E+03</pdfrwt>
<totfact> 0.53329004E+02</totfact>
</mgrwt>
</event>
<event>
 4    1  0.1804641E-005  0.9248284E+03  0.7818608E-02  0.9395066E-01
          2   -1    0    0  501    0  0.00000000000E+00  0.00000000000E+00  0.14577015562E+04  0.14577015562E+04  0.25500000000E-02 0.  1.
         -2   -1    0    0    0  501 -0.00000000000E+00 -0.00000000000E+00 -0.14668769628E+03  0.14668769630E+03  0.25500000000E-02 0. -1.
   -5000001    1    1    2    0    0  0.24049681975E+03 -0.28331356239E+03  0.45603104102E+03  0.63919449725E+03  0.25000000000E+03 0.  0.
    5000001    1    1    2    0    0 -0.24049681975E+03  0.28331356239E+03  0.85498281886E+03  0.96519475521E+03  0.25000000000E+03 0.  0.
<mgrwt>
<rscale>  0 0.92482838E+03</rscale>
<asrwt>0</asrwt>
<pdfrwt beam="1">  1        2 0.22426177E+00 0.92482838E+03</pdfrwt>
<pdfrwt beam="2">  1       -2 0.22567338E-01 0.92482838E+03</pdfrwt>
<totfact> 0.23168641E+02</totfact>
</mgrwt>
</event>
<event>
 4    1  0.1804641E-005  0.6867923E+03  0.7818608E-02  0.9740089E-01
          2   -1    0    0  501    0  0.00000000000E+00  0.00000000000E+00  0.14395800671E+04  0.14395800671E+04  0.25500000000E-02 0.  1.
         -2   -1    0    0    0  501 -0.00000000000E+00 -0.00000000000E+00 -0.81913421759E+02  0.81913421798E+02  0.25500000000E-02 0. -1.
   -5000001    1    1    2    0    0 -0.15758793089E+03 -0.13343754829E+03  0.42837598088E+03  0.53725740223E+03  0.25000000000E+03 0.  0.
    5000001    1    1    2    0    0  0.15758793089E+03  0.13343754829E+03  0.92929066449E+03  0.98423608670E+03  0.25000000000E+03 0.  0.
<mgrwt>
<rscale>  0 0.68679234E+03</rscale>
<asrwt>0</asrwt>
<pdfrwt beam="1">  1        2 0.22147383E+00 0.68679234E+03</pdfrwt>
<pdfrwt beam="2">  1       -2 0.12602067E-01 0.68679234E+03</pdfrwt>
<totfact> 0.65378703E+02</totfact>
</mgrwt>
</event>
<event>
 4    1  0.1804641E-005  0.5666858E+03  0.7818608E-02  0.9977039E-01
          2   -1    0    0  501    0  0.00000000000E+00  0.00000000000E+00  0.23968650633E+03  0.23968650634E+03  0.25500000000E-02 0.  1.
         -2   -1    0    0    0  501 -0.00000000000E+00 -0.00000000000E+00 -0.33495082784E+03  0.33495082785E+03  0.25500000000E-02 0. -1.
   -5000001    1    1    2    0    0 -0.12006667645E+03 -0.21455079909E+02  0.70397263277E+01  0.27825507182E+03  0.25000000000E+03 0.  0.
    5000001    1    1    2    0    0  0.12006667645E+03  0.21455079909E+02 -0.10230404784E+03  0.29638226238E+03  0.25000000000E+03 0.  0.
<mgrwt>
<rscale>  0 0.56668578E+03</rscale>
<asrwt>0</asrwt>
<pdfrwt beam="1">  1        2 0.36874847E-01 0.56668578E+03</pdfrwt>
<pdfrwt beam="2">  1       -2 0.51530897E-01 0.56668578E+03</pdfrwt>
<totfact> 0.50603385E+02</totfact>
</mgrwt>
</event>
<event>
 4    1  0.1804641E-005  0.8918767E+03  0.7818608E-02  0.9435793E-01
          2   -1    0    0  501    0  0.00000000000E+00  0.00000000000E+00  0.80304866819E+03  0.80304866819E+03  0.25500000000E-02 0. -1.
         -2   -1    0    0    0  501 -0.00000000000E+00 -0.00000000000E+00 -0.24763259001E+03  0.24763259002E+03  0.25500000000E-02 0.  1.
   -5000001    1    1    2    0    0 -0.16642111934E+03  0.30652423736E+03  0.42057830519E+03  0.60086538246E+03  0.25000000000E+03 0.  0.
    5000001    1    1    2    0    0  0.16642111934E+03 -0.30652423736E+03  0.13483777299E+03  0.44981587575E+03  0.25000000000E+03 0.  0.
<mgrwt>
<rscale>  0 0.89187672E+03</rscale>
<asrwt>0</asrwt>
<pdfrwt beam="1">  1        2 0.12354595E+00 0.89187672E+03</pdfrwt>
<pdfrwt beam="2">  1       -2 0.38097322E-01 0.89187672E+03</pdfrwt>
<totfact> 0.22344975E+02</totfact>
</mgrwt>
</event>
<event>
 4    1  0.1804641E-005  0.5793822E+03  0.7818608E-02  0.9949130E-01
         -2   -1    0    0    0  501 -0.00000000000E+00  0.00000000000E+00  0.57064502046E+02  0.57064502103E+02  0.25500000000E-02 0. -1.
          2   -1    0    0  501    0  0.00000000000E+00 -0.00000000000E+00 -0.14706327194E+04  0.14706327194E+04  0.25500000000E-02 0.  1.
   -5000001    1    1    2    0    0  0.71668274857E+02  0.88024620840E+02 -0.95040004040E+03  0.98926483425E+03  0.25000000000E+03 0.  0.
    5000001    1    1    2    0    0 -0.71668274857E+02 -0.88024620840E+02 -0.46316817691E+03  0.53843238721E+03  0.25000000000E+03 0.  0.
<mgrwt>
<rscale>  0 0.57938217E+03</rscale>
<asrwt>0</asrwt>
<pdfrwt beam="1">  1        2 0.22625116E+00 0.57938217E+03</pdfrwt>
<pdfrwt beam="2">  1       -2 0.87791553E-02 0.57938217E+03</pdfrwt>
<totfact> 0.11384162E+03</totfact>
</mgrwt>
</event>
<event>
 4    1  0.1804641E-005  0.1054129E+04  0.7818608E-02  0.9251091E-01
         -2   -1    0    0    0  501 -0.00000000000E+00  0.00000000000E+00  0.12188310862E+03  0.12188310864E+03  0.25500000000E-02 0. -1.
          2   -1    0    0  501    0  0.00000000000E+00 -0.00000000000E+00 -0.22792090584E+04  0.22792090584E+04  0.25500000000E-02 0.  1.
   -5000001    1    1    2    0    0  0.30766316170E+03 -0.34724514976E+03 -0.10964924881E+04  0.12165654900E+04  0.25000000000E+03 0.  0.
    5000001    1    1    2    0    0 -0.30766316170E+03  0.34724514976E+03 -0.10608334617E+04  0.11845266770E+04  0.25000000000E+03 0.  0.
<mgrwt>
<rscale>  0 0.10541292E+04</rscale>
<asrwt>0</asrwt>
<pdfrwt beam="1">  1        2 0.35064752E+00 0.10541292E+04</pdfrwt>
<pdfrwt beam="2">  1       -2 0.18751249E-01 0.10541292E+04</pdfrwt>
<totfact> 0.11169176E+02</totfact>
</mgrwt>
</event>
<event>
 4    1  0.1804641E-005  0.8245805E+03  0.7818608E-02  0.9525104E-01
         -2   -1    0    0    0  501 -0.00000000000E+00  0.00000000000E+00  0.10223909063E+03  0.10223909067E+03  0.25500000000E-02 0. -1.
          2   -1    0    0  501    0  0.00000000000E+00 -0.00000000000E+00 -0.16626052749E+04  0.16626052749E+04  0.25500000000E-02 0.  1.
   -5000001    1    1    2    0    0  0.17106266139E+03 -0.20117643045E+03 -0.11960221497E+04  0.12500813465E+04  0.25000000000E+03 0.  0.
    5000001    1    1    2    0    0 -0.17106266139E+03  0.20117643045E+03 -0.36434403461E+03  0.51476301911E+03  0.25000000000E+03 0.  0.
<mgrwt>
<rscale>  0 0.82458050E+03</rscale>
<asrwt>0</asrwt>
<pdfrwt beam="1">  1        2 0.25578541E+00 0.82458050E+03</pdfrwt>
<pdfrwt beam="2">  1       -2 0.15729092E-01 0.82458050E+03</pdfrwt>
<totfact> 0.33621833E+02</totfact>
</mgrwt>
</event>
<event>
 4    1  0.1804641E-005  0.7767843E+03  0.7818608E-02  0.9594242E-01
         -2   -1    0    0    0  501 -0.00000000000E+00  0.00000000000E+00  0.23490170159E+03  0.23490170160E+03  0.25500000000E-02 0. -1.
          2   -1    0    0  501    0  0.00000000000E+00 -0.00000000000E+00 -0.64217689196E+03  0.64217689196E+03  0.25500000000E-02 0.  1.
   -5000001    1    1    2    0    0  0.29594325481E+03 -0.22946556516E+01 -0.17249430161E+03  0.42407777542E+03  0.25000000000E+03 0.  0.
    5000001    1    1    2    0    0 -0.29594325481E+03  0.22946556516E+01 -0.23478088876E+03  0.45300081815E+03  0.25000000000E+03 0.  0.
<mgrwt>
<rscale>  0 0.77678425E+03</rscale>
<asrwt>0</asrwt>
<pdfrwt beam="1">  1        2 0.98796444E-01 0.77678425E+03</pdfrwt>
<pdfrwt beam="2">  1       -2 0.36138724E-01 0.77678425E+03</pdfrwt>
<totfact> 0.33074474E+02</totfact>
</mgrwt>
</event>
<event>
 4    1  0.1804641E-005  0.9706376E+03  0.7818608E-02  0.9341348E-01
          2   -1    0    0  501    0  0.00000000000E+00  0.00000000000E+00  0.94813971824E+03  0.94813971824E+03  0.25500000000E-02 0.  1.
         -2   -1    0    0    0  501 -0.00000000000E+00 -0.00000000000E+00 -0.24841731942E+03  0.24841731944E+03  0.25500000000E-02 0. -1.
   -5000001    1    1    2    0    0 -0.38759151370E+02 -0.36682589514E+03  0.11282982505E+03  0.45966735645E+03  0.25000000000E+03 0.  0.
    5000001    1    1    2    0    0  0.38759151370E+02  0.36682589514E+03  0.58689257377E+03  0.73688968123E+03  0.25000000000E+03 0.  0.
<mgrwt>
<rscale>  0 0.97063758E+03</rscale>
<asrwt>0</asrwt>
<pdfrwt beam="1">  1        2 0.14586765E+00 0.97063758E+03</pdfrwt>
<pdfrwt beam="2">  1       -2 0.38218049E-01 0.97063758E+03</pdfrwt>
<totfact> 0.17580424E+02</totfact>
</mgrwt>
</event>
<event>
 4    1  0.1804641E-005  0.1500767E+04  0.7818608E-02  0.8883943E-01
          2   -1    0    0  501    0  0.00000000000E+00  0.00000000000E+00  0.96378689050E+03  0.96378689050E+03  0.25500000000E-02 0.  1.
         -2   -1    0    0    0  501 -0.00000000000E+00 -0.00000000000E+00 -0.58423189651E+03  0.58423189652E+03  0.25500000000E-02 0. -1.
   -5000001    1    1    2    0    0 -0.24700788269E+03  0.53865150792E+03  0.58849257998E+03  0.87176938337E+03  0.25000000000E+03 0.  0.
    5000001    1    1    2    0    0  0.24700788269E+03 -0.53865150792E+03 -0.20893758599E+03  0.67624940365E+03  0.25000000000E+03 0.  0.
<mgrwt>
<rscale>  0 0.15007665E+04</rscale>
<asrwt>0</asrwt>
<pdfrwt beam="1">  1        2 0.14827491E+00 0.15007665E+04</pdfrwt>
<pdfrwt beam="2">  1       -2 0.89881831E-01 0.15007665E+04</pdfrwt>
<totfact> 0.27237833E+01</totfact>
</mgrwt>
</event>
<event>
 4    1  0.1804641E-005  0.6712805E+03  0.7818608E-02  0.9767647E-01
          2   -1    0    0  501    0  0.00000000000E+00  0.00000000000E+00  0.16596943932E+04  0.16596943932E+04  0.25500000000E-02 0.  1.
         -2   -1    0    0    0  501 -0.00000000000E+00 -0.00000000000E+00 -0.67876577820E+02  0.67876577868E+02  0.25500000000E-02 0. -1.
   -5000001    1    1    2    0    0  0.13968557103E+03 -0.14233882922E+00  0.12464065538E+04  0.12788828627E+04  0.25000000000E+03 0.  0.
    5000001    1    1    2    0    0 -0.13968557103E+03  0.14233882922E+00  0.34541126157E+03  0.44868810842E+03  0.25000000000E+03 0.  0.
<mgrwt>
<rscale>  0 0.67128049E+03</rscale>
<asrwt>0</asrwt>
<pdfrwt beam="1">  1        2 0.25533759E+00 0.67128049E+03</pdfrwt>
<pdfrwt beam="2">  1       -2 0.10442551E-01 0.67128049E+03</pdfrwt>
<totfact> 0.67372710E+02</totfact>
</mgrwt>
</event>
<event>
 4    1  0.1804641E-005  0.7319084E+03  0.7818608E-02  0.9664169E-01
          2   -1    0    0  501    0  0.00000000000E+00  0.00000000000E+00  0.23635175242E+04  0.23635175242E+04  0.25500000000E-02 0.  1.
         -2   -1    0    0    0  501 -0.00000000000E+00 -0.00000000000E+00 -0.56662353968E+02  0.56662354026E+02  0.25500000000E-02 0. -1.
   -5000001    1    1    2    0    0 -0.38853724281E+01  0.25319499009E+03  0.87091196165E+03  0.94080308464E+03  0.25000000000E+03 0.  0.
    5000001    1    1    2    0    0  0.38853724281E+01 -0.25319499009E+03  0.14359432086E+04  0.14793767936E+04  0.25000000000E+03 0.  0.
<mgrwt>
<rscale>  0 0.73190837E+03</rscale>
<asrwt>0</asrwt>
<pdfrwt beam="1">  1        2 0.36361801E+00 0.73190837E+03</pdfrwt>
<pdfrwt beam="2">  1       -2 0.87172869E-02 0.73190837E+03</pdfrwt>
<totfact> 0.37021272E+02</totfact>
</mgrwt>
</event>
<event>
 4    1  0.1804641E-005  0.1106129E+04  0.7818608E-02  0.9199239E-01
         -2   -1    0    0    0  501 -0.00000000000E+00  0.00000000000E+00  0.16933204606E+03  0.16933204608E+03  0.25500000000E-02 0. -1.
          2   -1    0    0  501    0  0.00000000000E+00 -0.00000000000E+00 -0.18063933108E+04  0.18063933108E+04  0.25500000000E-02 0.  1.
   -5000001    1    1    2    0    0 -0.42317423134E+03 -0.36296668788E+01 -0.12714228108E+04  0.13631234605E+04  0.25000000000E+03 0.  0.
    5000001    1    1    2    0    0  0.42317423134E+03  0.36296668788E+01 -0.36563845393E+03  0.61260189646E+03  0.25000000000E+03 0.  0.
<mgrwt>
<rscale>  0 0.11061289E+04</rscale>
<asrwt>0</asrwt>
<pdfrwt beam="1">  1        2 0.27790665E+00 0.11061289E+04</pdfrwt>
<pdfrwt beam="2">  1       -2 0.26051085E-01 0.11061289E+04</pdfrwt>
<totfact> 0.11312021E+02</totfact>
</mgrwt>
</event>
<event>
 4    1  0.1804641E-005  0.1430397E+04  0.7818608E-02  0.8932105E-01
         -2   -1    0    0    0  501 -0.00000000000E+00  0.00000000000E+00  0.55752368619E+03  0.55752368620E+03  0.25500000000E-02 0. -1.
          2   -1    0    0  501    0  0.00000000000E+00 -0.00000000000E+00 -0.91746621932E+03  0.91746621932E+03  0.25500000000E-02 0.  1.
   -5000001    1    1    2    0    0 -0.31038079016E+03 -0.56191686622E+03 -0.37811348077E+03  0.78584769757E+03  0.25000000000E+03 0.  0.
    5000001    1    1    2    0    0  0.31038079016E+03  0.56191686622E+03  0.18170947642E+02  0.68914220795E+03  0.25000000000E+03 0.  0.
<mgrwt>
<rscale>  0 0.14303974E+04</rscale>
<asrwt>0</asrwt>
<pdfrwt beam="1">  1        2 0.14114865E+00 0.14303974E+04</pdfrwt>
<pdfrwt beam="2">  1       -2 0.85772875E-01 0.14303974E+04</pdfrwt>
<totfact> 0.32720201E+01</totfact>
</mgrwt>
</event>
<event>
 4    1  0.1804641E-005  0.1152482E+04  0.7818608E-02  0.9155497E-01
         -2   -1    0    0    0  501 -0.00000000000E+00  0.00000000000E+00  0.72523861078E+03  0.72523861078E+03  0.25500000000E-02 0. -1.
          2   -1    0    0  501    0  0.00000000000E+00 -0.00000000000E+00 -0.45785462043E+03  0.45785462044E+03  0.25500000000E-02 0.  1.
   -5000001    1    1    2    0    0  0.40703565921E+03 -0.30725184867E+03  0.33782131263E+02  0.56896657087E+03  0.25000000000E+03 0.  0.
    5000001    1    1    2    0    0 -0.40703565921E+03  0.30725184867E+03  0.23360185908E+03  0.61412666034E+03  0.25000000000E+03 0.  0.
<mgrwt>
<rscale>  0 0.11524823E+04</rscale>
<asrwt>0</asrwt>
<pdfrwt beam="1">  1        2 0.70439173E-01 0.11524823E+04</pdfrwt>
<pdfrwt beam="2">  1       -2 0.11157517E+00 0.11524823E+04</pdfrwt>
<totfact> 0.42828164E+01</totfact>
</mgrwt>
</event>
<event>
 4    1  0.1804641E-005  0.1334351E+04  0.7818608E-02  0.9002760E-01
         -2   -1    0    0    0  501 -0.00000000000E+00  0.00000000000E+00  0.25093212987E+03  0.25093212988E+03  0.25500000000E-02 0. -1.
          2   -1    0    0  501    0  0.00000000000E+00 -0.00000000000E+00 -0.17738780923E+04  0.17738780923E+04  0.25500000000E-02 0.  1.
   -5000001    1    1    2    0    0 -0.14739268145E+03  0.57639889620E+03 -0.50456772431E+03  0.81917573114E+03  0.25000000000E+03 0.  0.
    5000001    1    1    2    0    0  0.14739268145E+03 -0.57639889620E+03 -0.10183782381E+04  0.12056344910E+04  0.25000000000E+03 0.  0.
<mgrwt>
<rscale>  0 0.13343508E+04</rscale>
<asrwt>0</asrwt>
<pdfrwt beam="1">  1        2 0.27290431E+00 0.13343508E+04</pdfrwt>
<pdfrwt beam="2">  1       -2 0.38604944E-01 0.13343508E+04</pdfrwt>
<totfact> 0.55304511E+01</totfact>
</mgrwt>
</event>
<event>
 4    1  0.1804641E-005  0.7863325E+03  0.7818608E-02  0.9580014E-01
          2   -1    0    0  501    0  0.00000000000E+00  0.00000000000E+00  0.11891747116E+04  0.11891747116E+04  0.25500000000E-02 0.  1.
         -2   -1    0    0    0  501 -0.00000000000E+00 -0.00000000000E+00 -0.12998905881E+03  0.12998905883E+03  0.25500000000E-02 0. -1.
   -5000001    1    1    2    0    0 -0.20883566030E+03  0.14250913207E+03  0.24808053135E+03  0.43354946174E+03  0.25000000000E+03 0.  0.
    5000001    1    1    2    0    0  0.20883566030E+03 -0.14250913207E+03  0.81110512147E+03  0.88561430872E+03  0.25000000000E+03 0.  0.
<mgrwt>
<rscale>  0 0.78633250E+03</rscale>
<asrwt>0</asrwt>
<pdfrwt beam="1">  1        2 0.18294995E+00 0.78633250E+03</pdfrwt>
<pdfrwt beam="2">  1       -2 0.19998317E-01 0.78633250E+03</pdfrwt>
<totfact> 0.41296405E+02</totfact>
</mgrwt>
</event>
<event>
 4    1  0.1804641E-005  0.6632075E+03  0.7818608E-02  0.9782307E-01
         -2   -1    0    0    0  501 -0.00000000000E+00  0.00000000000E+00  0.89163661259E+02  0.89163661295E+02  0.25500000000E-02 0. -1.
          2   -1    0    0  501    0  0.00000000000E+00 -0.00000000000E+00 -0.12332496516E+04  0.12332496516E+04  0.25500000000E-02 0.  1.
   -5000001    1    1    2    0    0  0.16849983953E+02  0.16152054950E+03 -0.86160260450E+03  0.91171917713E+03  0.25000000000E+03 0.  0.
    5000001    1    1    2    0    0 -0.16849983953E+02 -0.16152054950E+03 -0.28248338581E+03  0.41069413574E+03  0.25000000000E+03 0.  0.
<mgrwt>
<rscale>  0 0.66320752E+03</rscale>
<asrwt>0</asrwt>
<pdfrwt beam="1">  1        2 0.18973070E+00 0.66320752E+03</pdfrwt>
<pdfrwt beam="2">  1       -2 0.13717487E-01 0.66320752E+03</pdfrwt>
<totfact> 0.74523892E+02</totfact>
</mgrwt>
</event>
<event>
 4    1  0.1804641E-005  0.9132042E+03  0.7818608E-02  0.9409224E-01
         -2   -1    0    0    0  501 -0.00000000000E+00  0.00000000000E+00  0.93414935201E+02  0.93414935236E+02  0.25500000000E-02 0. -1.
          2   -1    0    0  501    0  0.00000000000E+00 -0.00000000000E+00 -0.22318217845E+04  0.22318217845E+04  0.25500000000E-02 0.  1.
   -5000001    1    1    2    0    0 -0.14328782621E+03  0.34054117370E+03 -0.82121230091E+03  0.93455301363E+03  0.25000000000E+03 0.  0.
    5000001    1    1    2    0    0  0.14328782621E+03 -0.34054117370E+03 -0.13171945484E+04  0.13906837061E+04  0.25000000000E+03 0.  0.
<mgrwt>
<rscale>  0 0.91320422E+03</rscale>
<asrwt>0</asrwt>
<pdfrwt beam="1">  1        2 0.34335716E+00 0.91320422E+03</pdfrwt>
<pdfrwt beam="2">  1       -2 0.14371530E-01 0.91320422E+03</pdfrwt>
<totfact> 0.18948667E+02</totfact>
</mgrwt>
</event>
<event>
 4    1  0.1804641E-005  0.8517437E+03  0.7818608E-02  0.9488000E-01
          2   -1    0    0  501    0  0.00000000000E+00  0.00000000000E+00  0.26408348470E+04  0.26408348470E+04  0.25500000000E-02 0.  1.
         -2   -1    0    0    0  501 -0.00000000000E+00 -0.00000000000E+00 -0.68677841019E+02  0.68677841066E+02  0.25500000000E-02 0. -1.
   -5000001    1    1    2    0    0  0.19675165894E+03  0.24939949964E+03  0.85981207535E+03  0.95009901096E+03  0.25000000000E+03 0.  0.
    5000001    1    1    2    0    0 -0.19675165894E+03 -0.24939949964E+03  0.17123449306E+04  0.17594136771E+04  0.25000000000E+03 0.  0.
<mgrwt>
<rscale>  0 0.85174371E+03</rscale>
<asrwt>0</asrwt>
<pdfrwt beam="1">  1        2 0.40628219E+00 0.85174371E+03</pdfrwt>
<pdfrwt beam="2">  1       -2 0.10565824E-01 0.85174371E+03</pdfrwt>
<totfact> 0.18640935E+02</totfact>
</mgrwt>
</event>
<event>
 4    1  0.1804641E-005  0.6536236E+03  0.7818608E-02  0.9800003E-01
          2   -1    0    0  501    0  0.00000000000E+00  0.00000000000E+00  0.64298409862E+03  0.64298409862E+03  0.25500000000E-02 0.  1.
         -2   -1    0    0    0  501 -0.00000000000E+00 -0.00000000000E+00 -0.16610978304E+03  0.16610978306E+03  0.25500000000E-02 0. -1.
   -5000001    1    1    2    0    0 -0.13666657117E+03 -0.11408205606E+03  0.99413505258E+02  0.32260736541E+03  0.25000000000E+03 0.  0.
    5000001    1    1    2    0    0  0.13666657117E+03  0.11408205606E+03  0.37746081031E+03  0.48648651627E+03  0.25000000000E+03 0.  0.
<mgrwt>
<rscale>  0 0.65362359E+03</rscale>
<asrwt>0</asrwt>
<pdfrwt beam="1">  1        2 0.98920631E-01 0.65362359E+03</pdfrwt>
<pdfrwt beam="2">  1       -2 0.25555351E-01 0.65362359E+03</pdfrwt>
<totfact> 0.63127223E+02</totfact>
</mgrwt>
</event>
<event>
 4    1  0.1804641E-005  0.6342758E+03  0.7818608E-02  0.9836740E-01
          2   -1    0    0  501    0  0.00000000000E+00  0.00000000000E+00  0.25899677041E+04  0.25899677041E+04  0.25500000000E-02 0.  1.
         -2   -1    0    0    0  501 -0.00000000000E+00 -0.00000000000E+00 -0.38833084605E+02  0.38833084689E+02  0.25500000000E-02 0. -1.
   -5000001    1    1    2    0    0 -0.78967655839E+02 -0.57305067295E+02  0.57518789799E+03  0.63471322611E+03  0.25000000000E+03 0.  0.
    5000001    1    1    2    0    0  0.78967655839E+02  0.57305067295E+02  0.19759467215E+04  0.19940875627E+04  0.25000000000E+03 0.  0.
<mgrwt>
<rscale>  0 0.63427576E+03</rscale>
<asrwt>0</asrwt>
<pdfrwt beam="1">  1        2 0.39845672E+00 0.63427576E+03</pdfrwt>
<pdfrwt beam="2">  1       -2 0.59743185E-02 0.63427576E+03</pdfrwt>
<totfact> 0.50717590E+02</totfact>
</mgrwt>
</event>
<event>
 4    1  0.1804641E-005  0.9479538E+03  0.7818608E-02  0.9367545E-01
         -2   -1    0    0    0  501 -0.00000000000E+00  0.00000000000E+00  0.23971786429E+04  0.23971786429E+04  0.25500000000E-02 0. -1.
          2   -1    0    0  501    0  0.00000000000E+00 -0.00000000000E+00 -0.93716043536E+02  0.93716043570E+02  0.25500000000E-02 0.  1.
   -5000001    1    1    2    0    0 -0.20307059927E+03  0.24995908466E+03  0.51652948560E+03  0.65804249239E+03  0.25000000000E+03 0.  0.
    5000001    1    1    2    0    0  0.20307059927E+03 -0.24995908466E+03  0.17869331138E+04  0.18328521941E+04  0.25000000000E+03 0.  0.
<mgrwt>
<rscale>  0 0.94795379E+03</rscale>
<asrwt>0</asrwt>
<pdfrwt beam="1">  1        2 0.14417852E-01 0.94795379E+03</pdfrwt>
<pdfrwt beam="2">  1       -2 0.36879675E+00 0.94795379E+03</pdfrwt>
<totfact> 0.51396816E+00</totfact>
</mgrwt>
</event>
<event>
 4    1  0.1804641E-005  0.1442058E+04  0.7818608E-02  0.8923925E-01
          2   -1    0    0  501    0  0.00000000000E+00  0.00000000000E+00  0.32158154773E+03  0.32158154774E+03  0.25500000000E-02 0.  1.
         -2   -1    0    0    0  501 -0.00000000000E+00 -0.00000000000E+00 -0.16166444270E+04  0.16166444270E+04  0.25500000000E-02 0. -1.
   -5000001    1    1    2    0    0  0.44597467020E+03 -0.50579678689E+03 -0.71684190344E+03  0.10154241038E+04  0.25000000000E+03 0.  0.
    5000001    1    1    2    0    0 -0.44597467020E+03  0.50579678689E+03 -0.57822097583E+03  0.92280187092E+03  0.25000000000E+03 0.  0.
<mgrwt>
<rscale>  0 0.14420583E+04</rscale>
<asrwt>0</asrwt>
<pdfrwt beam="1">  1        2 0.49474085E-01 0.14420583E+04</pdfrwt>
<pdfrwt beam="2">  1       -2 0.24871452E+00 0.14420583E+04</pdfrwt>
<totfact> 0.64568949E+00</totfact>
</mgrwt>
</event>
<event>
 4    1  0.1804641E-005  0.6600066E+03  0.7818608E-02  0.9788182E-01
          2   -1    0    0  501    0  0.00000000000E+00  0.00000000000E+00  0.12396833311E+04  0.12396833311E+04  0.25500000000E-02 0.  1.
         -2   -1    0    0    0  501 -0.00000000000E+00 -0.00000000000E+00 -0.87846764579E+02  0.87846764616E+02  0.25500000000E-02 0. -1.
   -5000001    1    1    2    0    0  0.37248717119E+01 -0.19231783958E+03  0.77095193619E+03  0.83298674300E+03  0.25000000000E+03 0.  0.
    5000001    1    1    2    0    0 -0.37248717119E+01  0.19231783958E+03  0.38088463029E+03  0.49454335268E+03  0.25000000000E+03 0.  0.
<mgrwt>
<rscale>  0 0.66000658E+03</rscale>
<asrwt>0</asrwt>
<pdfrwt beam="1">  1        2 0.19072052E+00 0.66000658E+03</pdfrwt>
<pdfrwt beam="2">  1       -2 0.13514887E-01 0.66000658E+03</pdfrwt>
<totfact> 0.75752912E+02</totfact>
</mgrwt>
</event>
<event>
 4    1  0.1804641E-005  0.8002872E+03  0.7818608E-02  0.9559601E-01
         -2   -1    0    0    0  501 -0.00000000000E+00  0.00000000000E+00  0.34709067954E+03  0.34709067955E+03  0.25500000000E-02 0. -1.
          2   -1    0    0  501    0  0.00000000000E+00 -0.00000000000E+00 -0.46130571123E+03  0.46130571123E+03  0.25500000000E-02 0.  1.
   -5000001    1    1    2    0    0 -0.18826211038E+03 -0.23938606740E+03  0.13360389704E+02  0.39424207218E+03  0.25000000000E+03 0.  0.
    5000001    1    1    2    0    0  0.18826211038E+03  0.23938606740E+03 -0.12757542139E+03  0.41415431859E+03  0.25000000000E+03 0.  0.
<mgrwt>
<rscale>  0 0.80028723E+03</rscale>
<asrwt>0</asrwt>
<pdfrwt beam="1">  1        2 0.70970109E-01 0.80028723E+03</pdfrwt>
<pdfrwt beam="2">  1       -2 0.53398566E-01 0.80028723E+03</pdfrwt>
<totfact> 0.22508063E+02</totfact>
</mgrwt>
</event>
<event>
 4    1  0.1804641E-005  0.6443737E+03  0.7818608E-02  0.9817394E-01
         -2   -1    0    0    0  501 -0.00000000000E+00  0.00000000000E+00  0.12663096416E+03  0.12663096418E+03  0.25500000000E-02 0. -1.
          2   -1    0    0  501    0  0.00000000000E+00 -0.00000000000E+00 -0.81973923994E+03  0.81973923995E+03  0.25500000000E-02 0.  1.
   -5000001    1    1    2    0    0 -0.14327093043E+03  0.14298569552E+03 -0.37335083371E+03  0.49281062657E+03  0.25000000000E+03 0.  0.
    5000001    1    1    2    0    0  0.14327093043E+03 -0.14298569552E+03 -0.31975744208E+03  0.45355957756E+03  0.25000000000E+03 0.  0.
<mgrwt>
<rscale>  0 0.64437371E+03</rscale>
<asrwt>0</asrwt>
<pdfrwt beam="1">  1        2 0.12611373E+00 0.64437371E+03</pdfrwt>
<pdfrwt beam="2">  1       -2 0.19481687E-01 0.64437371E+03</pdfrwt>
<totfact> 0.74942436E+02</totfact>
</mgrwt>
</event>
<event>
 4    1  0.1804641E-005  0.7010294E+03  0.7818608E-02  0.9715473E-01
          2   -1    0    0  501    0  0.00000000000E+00  0.00000000000E+00  0.10401229484E+04  0.10401229484E+04  0.25500000000E-02 0.  1.
         -2   -1    0    0    0  501 -0.00000000000E+00 -0.00000000000E+00 -0.11812117054E+03  0.11812117057E+03  0.25500000000E-02 0. -1.
   -5000001    1    1    2    0    0 -0.13594453140E+03 -0.16337140244E+03  0.25737436747E+03  0.41702841124E+03  0.25000000000E+03 0.  0.
    5000001    1    1    2    0    0  0.13594453140E+03  0.16337140244E+03  0.66462741043E+03  0.74121570777E+03  0.25000000000E+03 0.  0.
<mgrwt>
<rscale>  0 0.70102936E+03</rscale>
<asrwt>0</asrwt>
<pdfrwt beam="1">  1        2 0.16001890E+00 0.70102936E+03</pdfrwt>
<pdfrwt beam="2">  1       -2 0.18172489E-01 0.70102936E+03</pdfrwt>
<totfact> 0.60337946E+02</totfact>
</mgrwt>
</event>
<event>
 4    1  0.1804641E-005  0.8125643E+03  0.7818608E-02  0.9542007E-01
          2   -1    0    0  501    0  0.00000000000E+00  0.00000000000E+00  0.48712155772E+03  0.48712155773E+03  0.25500000000E-02 0.  1.
         -2   -1    0    0    0  501 -0.00000000000E+00 -0.00000000000E+00 -0.33885830491E+03  0.33885830492E+03  0.25500000000E-02 0. -1.
   -5000001    1    1    2    0    0 -0.31790426772E+03  0.35301640623E+02  0.57872036472E+02  0.41007133754E+03  0.25000000000E+03 0.  0.
    5000001    1    1    2    0    0  0.31790426772E+03 -0.35301640623E+02  0.90391216341E+02  0.41590852511E+03  0.25000000000E+03 0.  0.
<mgrwt>
<rscale>  0 0.81256430E+03</rscale>
<asrwt>0</asrwt>
<pdfrwt beam="1">  1        2 0.74941778E-01 0.81256430E+03</pdfrwt>
<pdfrwt beam="2">  1       -2 0.52132047E-01 0.81256430E+03</pdfrwt>
<totfact> 0.22199961E+02</totfact>
</mgrwt>
</event>
<event>
 4    1  0.1804641E-005  0.8646308E+03  0.7818608E-02  0.9470908E-01
         -2   -1    0    0    0  501 -0.00000000000E+00  0.00000000000E+00  0.26331594631E+03  0.26331594632E+03  0.25500000000E-02 0. -1.
          2   -1    0    0  501    0  0.00000000000E+00 -0.00000000000E+00 -0.70978085572E+03  0.70978085572E+03  0.25500000000E-02 0.  1.
   -5000001    1    1    2    0    0  0.23030314621E+02 -0.33173143799E+03 -0.35554067240E+03  0.54725251217E+03  0.25000000000E+03 0.  0.
    5000001    1    1    2    0    0 -0.23030314621E+02  0.33173143799E+03 -0.90924237003E+02  0.42584428987E+03  0.25000000000E+03 0.  0.
<mgrwt>
<rscale>  0 0.86463083E+03</rscale>
<asrwt>0</asrwt>
<pdfrwt beam="1">  1        2 0.10919705E+00 0.86463083E+03</pdfrwt>
<pdfrwt beam="2">  1       -2 0.40510146E-01 0.86463083E+03</pdfrwt>
<totfact> 0.23311736E+02</totfact>
</mgrwt>
</event>
<event>
 4    1  0.1804641E-005  0.8815524E+03  0.7818608E-02  0.9448940E-01
         -2   -1    0    0    0  501 -0.00000000000E+00  0.00000000000E+00  0.82749163744E+02  0.82749163783E+02  0.25500000000E-02 0. -1.
          2   -1    0    0  501    0  0.00000000000E+00 -0.00000000000E+00 -0.23478622443E+04  0.23478622443E+04  0.25500000000E-02 0.  1.
   -5000001    1    1    2    0    0 -0.10016771842E+03  0.33476197515E+03 -0.14038914671E+04  0.14681656594E+04  0.25000000000E+03 0.  0.
    5000001    1    1    2    0    0  0.10016771842E+03 -0.33476197515E+03 -0.86122161340E+03  0.96244574871E+03  0.25000000000E+03 0.  0.
<mgrwt>
<rscale>  0 0.88155235E+03</rscale>
<asrwt>0</asrwt>
<pdfrwt beam="1">  1        2 0.36120952E+00 0.88155235E+03</pdfrwt>
<pdfrwt beam="2">  1       -2 0.12730642E-01 0.88155235E+03</pdfrwt>
<totfact> 0.20059202E+02</totfact>
</mgrwt>
</event>
<event>
 4    1  0.1804641E-005  0.6610782E+03  0.7818608E-02  0.9786211E-01
         -2   -1    0    0    0  501 -0.00000000000E+00  0.00000000000E+00  0.17445989935E+03  0.17445989937E+03  0.25500000000E-02 0. -1.
          2   -1    0    0  501    0  0.00000000000E+00 -0.00000000000E+00 -0.62625333027E+03  0.62625333028E+03  0.25500000000E-02 0.  1.
   -5000001    1    1    2    0    0  0.79641452054E+02  0.19757283386E+03 -0.27086405788E+03  0.42572893185E+03  0.25000000000E+03 0.  0.
    5000001    1    1    2    0    0 -0.79641452054E+02 -0.19757283386E+03 -0.18092937304E+03  0.37498429780E+03  0.25000000000E+03 0.  0.
<mgrwt>
<rscale>  0 0.66107819E+03</rscale>
<asrwt>0</asrwt>
<pdfrwt beam="1">  1        2 0.96346665E-01 0.66107819E+03</pdfrwt>
<pdfrwt beam="2">  1       -2 0.26839985E-01 0.66107819E+03</pdfrwt>
<totfact> 0.59635781E+02</totfact>
</mgrwt>
</event>
<event>
 4    1  0.1804641E-005  0.7693881E+03  0.7818608E-02  0.9605415E-01
          2   -1    0    0  501    0  0.00000000000E+00  0.00000000000E+00  0.65273089182E+03  0.65273089183E+03  0.25500000000E-02 0.  1.
         -2   -1    0    0    0  501 -0.00000000000E+00 -0.00000000000E+00 -0.22672364244E+03  0.22672364245E+03  0.25500000000E-02 0. -1.
   -5000001    1    1    2    0    0 -0.95860497816E+02 -0.25090341048E+03  0.34506391497E+03  0.50369719261E+03  0.25000000000E+03 0.  0.
    5000001    1    1    2    0    0  0.95860497816E+02  0.25090341048E+03  0.80943334414E+02  0.37575734167E+03  0.25000000000E+03 0.  0.
<mgrwt>
<rscale>  0 0.76938813E+03</rscale>
<asrwt>0</asrwt>
<pdfrwt beam="1">  1        2 0.10042014E+00 0.76938813E+03</pdfrwt>
<pdfrwt beam="2">  1       -2 0.34880561E-01 0.76938813E+03</pdfrwt>
<totfact> 0.34694605E+02</totfact>
</mgrwt>
</event>
<event>
 4    1  0.1804641E-005  0.6500575E+03  0.7818608E-02  0.9806671E-01
          2   -1    0    0  501    0  0.00000000000E+00  0.00000000000E+00  0.23009293940E+04  0.23009293940E+04  0.25500000000E-02 0.  1.
         -2   -1    0    0    0  501 -0.00000000000E+00 -0.00000000000E+00 -0.45913479155E+02  0.45913479225E+02  0.25500000000E-02 0. -1.
   -5000001    1    1    2    0    0  0.16139962384E+03  0.72134540766E+02  0.73383888836E+03  0.79515579895E+03  0.25000000000E+03 0.  0.
    5000001    1    1    2    0    0 -0.16139962384E+03 -0.72134540766E+02  0.15211770265E+04  0.15516870743E+04  0.25000000000E+03 0.  0.
<mgrwt>
<rscale>  0 0.65005746E+03</rscale>
<asrwt>0</asrwt>
<pdfrwt beam="1">  1        2 0.35398909E+00 0.65005746E+03</pdfrwt>
<pdfrwt beam="2">  1       -2 0.70636132E-02 0.65005746E+03</pdfrwt>
<totfact> 0.56507763E+02</totfact>
</mgrwt>
</event>
<event>
 4    1  0.1804641E-005  0.6543943E+03  0.7818608E-02  0.9798568E-01
         -2   -1    0    0    0  501 -0.00000000000E+00  0.00000000000E+00  0.95658386999E+03  0.95658387000E+03  0.25500000000E-02 0. -1.
          2   -1    0    0  501    0  0.00000000000E+00 -0.00000000000E+00 -0.11191697000E+03  0.11191697003E+03  0.25500000000E-02 0.  1.
   -5000001    1    1    2    0    0  0.86843087576E+02 -0.15279522038E+03  0.23142835499E+03  0.38333690760E+03  0.25000000000E+03 0.  0.
    5000001    1    1    2    0    0 -0.86843087576E+02  0.15279522038E+03  0.61323854500E+03  0.68516393243E+03  0.25000000000E+03 0.  0.
<mgrwt>
<rscale>  0 0.65439428E+03</rscale>
<asrwt>0</asrwt>
<pdfrwt beam="1">  1        2 0.17217995E-01 0.65439428E+03</pdfrwt>
<pdfrwt beam="2">  1       -2 0.14716675E+00 0.65439428E+03</pdfrwt>
<totfact> 0.10854517E+02</totfact>
</mgrwt>
</event>
<event>
 4    1  0.1804641E-005  0.6786391E+03  0.7818608E-02  0.9754476E-01
          2   -1    0    0  501    0  0.00000000000E+00  0.00000000000E+00  0.77155636619E+03  0.77155636620E+03  0.25500000000E-02 0.  1.
         -2   -1    0    0    0  501 -0.00000000000E+00 -0.00000000000E+00 -0.14922792774E+03  0.14922792776E+03  0.25500000000E-02 0. -1.
   -5000001    1    1    2    0    0  0.18055608579E+03  0.84807816939E+02  0.46493869236E+03  0.56432335906E+03  0.25000000000E+03 0.  0.
    5000001    1    1    2    0    0 -0.18055608579E+03 -0.84807816939E+02  0.15738974609E+03  0.35646093490E+03  0.25000000000E+03 0.  0.
<mgrwt>
<rscale>  0 0.67863910E+03</rscale>
<asrwt>0</asrwt>
<pdfrwt beam="1">  1        2 0.11870098E+00 0.67863910E+03</pdfrwt>
<pdfrwt beam="2">  1       -2 0.22958143E-01 0.67863910E+03</pdfrwt>
<totfact> 0.60743058E+02</totfact>
</mgrwt>
</event>
<event>
 4    1  0.1804641E-005  0.8612739E+03  0.7818608E-02  0.9475329E-01
         -2   -1    0    0    0  501 -0.00000000000E+00  0.00000000000E+00  0.25597570189E+03  0.25597570190E+03  0.25500000000E-02 0. -1.
          2   -1    0    0  501    0  0.00000000000E+00 -0.00000000000E+00 -0.72447576301E+03  0.72447576302E+03  0.25500000000E-02 0.  1.
   -5000001    1    1    2    0    0  0.20478890609E+03 -0.10141527655E+02 -0.55805047176E+03  0.64495090950E+03  0.25000000000E+03 0.  0.
    5000001    1    1    2    0    0 -0.20478890609E+03  0.10141527655E+02  0.89550410637E+02  0.33550055542E+03  0.25000000000E+03 0.  0.
<mgrwt>
<rscale>  0 0.86127392E+03</rscale>
<asrwt>0</asrwt>
<pdfrwt beam="1">  1        2 0.11145781E+00 0.86127392E+03</pdfrwt>
<pdfrwt beam="2">  1       -2 0.39380878E-01 0.86127392E+03</pdfrwt>
<totfact> 0.24002016E+02</totfact>
</mgrwt>
</event>
<event>
 4    1  0.1804641E-005  0.1249388E+04  0.7818608E-02  0.9070693E-01
         -2   -1    0    0    0  501 -0.00000000000E+00  0.00000000000E+00  0.20618934974E+04  0.20618934974E+04  0.25500000000E-02 0. -1.
          2   -1    0    0  501    0  0.00000000000E+00 -0.00000000000E+00 -0.18926410257E+03  0.18926410259E+03  0.25500000000E-02 0.  1.
   -5000001    1    1    2    0    0 -0.98356629472E+02  0.48408689315E+03  0.14576831381E+04  0.15592800511E+04  0.25000000000E+03 0.  0.
    5000001    1    1    2    0    0  0.98356629472E+02 -0.48408689315E+03  0.41494625674E+03  0.69187754890E+03  0.25000000000E+03 0.  0.
<mgrwt>
<rscale>  0 0.12493877E+04</rscale>
<asrwt>0</asrwt>
<pdfrwt beam="1">  1        2 0.29117553E-01 0.12493877E+04</pdfrwt>
<pdfrwt beam="2">  1       -2 0.31721440E+00 0.12493877E+04</pdfrwt>
<totfact> 0.45556866E+00</totfact>
</mgrwt>
</event>
<event>
 4    1  0.1804641E-005  0.7349556E+03  0.7818608E-02  0.9659253E-01
         -2   -1    0    0    0  501 -0.00000000000E+00  0.00000000000E+00  0.79124060778E+02  0.79124060819E+02  0.25500000000E-02 0. -1.
          2   -1    0    0  501    0  0.00000000000E+00 -0.00000000000E+00 -0.17066861314E+04  0.17066861314E+04  0.25500000000E-02 0.  1.
   -5000001    1    1    2    0    0  0.21709898355E+03  0.15007675279E+03 -0.68327146999E+03  0.77396053006E+03  0.25000000000E+03 0.  0.
    5000001    1    1    2    0    0 -0.21709898355E+03 -0.15007675279E+03 -0.94429060065E+03  0.10118496622E+04  0.25000000000E+03 0.  0.
<mgrwt>
<rscale>  0 0.73495561E+03</rscale>
<asrwt>0</asrwt>
<pdfrwt beam="1">  1        2 0.26256707E+00 0.73495561E+03</pdfrwt>
<pdfrwt beam="2">  1       -2 0.12172934E-01 0.73495561E+03</pdfrwt>
<totfact> 0.49173365E+02</totfact>
</mgrwt>
</event>
<event>
 4    1  0.1804641E-005  0.1009058E+04  0.7818608E-02  0.9298665E-01
         -2   -1    0    0    0  501 -0.00000000000E+00  0.00000000000E+00  0.11012642209E+03  0.11012642212E+03  0.25500000000E-02 0. -1.
          2   -1    0    0  501    0  0.00000000000E+00 -0.00000000000E+00 -0.23114322452E+04  0.23114322452E+04  0.25500000000E-02 0.  1.
   -5000001    1    1    2    0    0  0.21467515310E+03 -0.11707274060E+03 -0.19734034871E+04  0.20041488894E+04  0.25000000000E+03 0.  0.
    5000001    1    1    2    0    0 -0.21467515310E+03  0.11707274060E+03 -0.22790233601E+03  0.41740977793E+03  0.25000000000E+03 0.  0.
<mgrwt>
<rscale>  0 0.10090585E+04</rscale>
<asrwt>0</asrwt>
<pdfrwt beam="1">  1        2 0.35560492E+00 0.10090585E+04</pdfrwt>
<pdfrwt beam="2">  1       -2 0.16942528E-01 0.10090585E+04</pdfrwt>
<totfact> 0.12819651E+02</totfact>
</mgrwt>
</event>
<event>
 4    1  0.1804641E-005  0.7790000E+03  0.7818608E-02  0.9590921E-01
         -2   -1    0    0    0  501 -0.00000000000E+00  0.00000000000E+00  0.44358239721E+03  0.44358239722E+03  0.25500000000E-02 0. -1.
          2   -1    0    0  501    0  0.00000000000E+00 -0.00000000000E+00 -0.34201139949E+03  0.34201139950E+03  0.25500000000E-02 0.  1.
   -5000001    1    1    2    0    0  0.29386850921E+03  0.10973089220E+02  0.10348804058E+03  0.39961091569E+03  0.25000000000E+03 0.  0.
    5000001    1    1    2    0    0 -0.29386850921E+03 -0.10973089220E+02 -0.19170428665E+01  0.38598288103E+03  0.25000000000E+03 0.  0.
<mgrwt>
<rscale>  0 0.77899997E+03</rscale>
<asrwt>0</asrwt>
<pdfrwt beam="1">  1        2 0.52617138E-01 0.77899997E+03</pdfrwt>
<pdfrwt beam="2">  1       -2 0.68243446E-01 0.77899997E+03</pdfrwt>
<totfact> 0.18788283E+02</totfact>
</mgrwt>
</event>
<event>
 4    1  0.1804641E-005  0.5608776E+03  0.7818608E-02  0.9990071E-01
         -2   -1    0    0    0  501 -0.00000000000E+00  0.00000000000E+00  0.29423041029E+03  0.29423041031E+03  0.25500000000E-02 0. -1.
          2   -1    0    0  501    0  0.00000000000E+00 -0.00000000000E+00 -0.26729362884E+03  0.26729362885E+03  0.25500000000E-02 0.  1.
   -5000001    1    1    2    0    0  0.68801141837E+02 -0.28965809231E+02 -0.89476673653E+02  0.27582365807E+03  0.25000000000E+03 0.  0.
    5000001    1    1    2    0    0 -0.68801141837E+02  0.28965809231E+02  0.11641345511E+03  0.28570038109E+03  0.25000000000E+03 0.  0.
<mgrwt>
<rscale>  0 0.56087758E+03</rscale>
<asrwt>0</asrwt>
<pdfrwt beam="1">  1        2 0.41122097E-01 0.56087758E+03</pdfrwt>
<pdfrwt beam="2">  1       -2 0.45266217E-01 0.56087758E+03</pdfrwt>
<totfact> 0.58218152E+02</totfact>
</mgrwt>
</event>
<event>
 4    1  0.1804641E-005  0.7693064E+03  0.7818608E-02  0.9605539E-01
          2   -1    0    0  501    0  0.00000000000E+00  0.00000000000E+00  0.61363159277E+03  0.61363159278E+03  0.25500000000E-02 0.  1.
         -2   -1    0    0    0  501 -0.00000000000E+00 -0.00000000000E+00 -0.24111875304E+03  0.24111875305E+03  0.25500000000E-02 0. -1.
   -5000001    1    1    2    0    0  0.20460073718E+03 -0.19204068886E+03  0.27731639036E+03  0.46706045454E+03  0.25000000000E+03 0.  0.
    5000001    1    1    2    0    0 -0.20460073718E+03  0.19204068886E+03  0.95196449368E+02  0.38768989128E+03  0.25000000000E+03 0.  0.
<mgrwt>
<rscale>  0 0.76930640E+03</rscale>
<asrwt>0</asrwt>
<pdfrwt beam="1">  1        2 0.94404859E-01 0.76930640E+03</pdfrwt>
<pdfrwt beam="2">  1       -2 0.37095194E-01 0.76930640E+03</pdfrwt>
<totfact> 0.33263927E+02</totfact>
</mgrwt>
</event>
<event>
 4    1  0.1804641E-005  0.5899175E+03  0.7818608E-02  0.9926548E-01
         -2   -1    0    0    0  501 -0.00000000000E+00  0.00000000000E+00  0.85349348831E+02  0.85349348869E+02  0.25500000000E-02 0. -1.
          2   -1    0    0  501    0  0.00000000000E+00 -0.00000000000E+00 -0.10193478914E+04  0.10193478914E+04  0.25500000000E-02 0.  1.
   -5000001    1    1    2    0    0  0.13694666302E+03 -0.71128306200E+02 -0.41791441836E+03  0.51084839780E+03  0.25000000000E+03 0.  0.
    5000001    1    1    2    0    0 -0.13694666302E+03  0.71128306200E+02 -0.51608412422E+03  0.59384884249E+03  0.25000000000E+03 0.  0.
<mgrwt>
<rscale>  0 0.58991755E+03</rscale>
<asrwt>0</asrwt>
<pdfrwt beam="1">  1        2 0.15682274E+00 0.58991755E+03</pdfrwt>
<pdfrwt beam="2">  1       -2 0.13130670E-01 0.58991755E+03</pdfrwt>
<totfact> 0.10816742E+03</totfact>
</mgrwt>
</event>
<event>
 4    1  0.1804641E-005  0.1311402E+04  0.7818608E-02  0.9020572E-01
          2   -1    0    0  501    0  0.00000000000E+00  0.00000000000E+00  0.20536992156E+04  0.20536992156E+04  0.25500000000E-02 0.  1.
         -2   -1    0    0    0  501 -0.00000000000E+00 -0.00000000000E+00 -0.20935098033E+03  0.20935098034E+03  0.25500000000E-02 0. -1.
   -5000001    1    1    2    0    0  0.49487589059E+03 -0.27437797818E+03  0.54702982696E+03  0.82578874634E+03  0.25000000000E+03 0.  0.
    5000001    1    1    2    0    0 -0.49487589059E+03  0.27437797818E+03  0.12973184083E+04  0.14372614496E+04  0.25000000000E+03 0.  0.
<mgrwt>
<rscale>  0 0.13114022E+04</rscale>
<asrwt>0</asrwt>
<pdfrwt beam="1">  1        2 0.31595374E+00 0.13114022E+04</pdfrwt>
<pdfrwt beam="2">  1       -2 0.32207842E-01 0.13114022E+04</pdfrwt>
<totfact> 0.54872742E+01</totfact>
</mgrwt>
</event>
<event>
 4    1  0.1804641E-005  0.1029624E+04  0.7818608E-02  0.9276638E-01
          2   -1    0    0  501    0  0.00000000000E+00  0.00000000000E+00  0.13116208900E+04  0.13116208900E+04  0.25500000000E-02 0.  1.
         -2   -1    0    0    0  501 -0.00000000000E+00 -0.00000000000E+00 -0.20206390393E+03  0.20206390395E+03  0.25500000000E-02 0. -1.
   -5000001    1    1    2    0    0  0.14257788523E+03  0.28796845615E+03  0.91565067042E+02  0.41729898945E+03  0.25000000000E+03 0.  0.
    5000001    1    1    2    0    0 -0.14257788523E+03 -0.28796845615E+03  0.10179919190E+04  0.10963858045E+04  0.25000000000E+03 0.  0.
<mgrwt>
<rscale>  0 0.10296237E+04</rscale>
<asrwt>0</asrwt>
<pdfrwt beam="1">  1        2 0.20178783E+00 0.10296237E+04</pdfrwt>
<pdfrwt beam="2">  1       -2 0.31086754E-01 0.10296237E+04</pdfrwt>
<totfact> 0.15544031E+02</totfact>
</mgrwt>
</event>
<event>
 4    1  0.1804641E-005  0.6162340E+03  0.7818608E-02  0.9872286E-01
          2   -1    0    0  501    0  0.00000000000E+00  0.00000000000E+00  0.71275256385E+03  0.71275256385E+03  0.25500000000E-02 0.  1.
         -2   -1    0    0    0  501 -0.00000000000E+00 -0.00000000000E+00 -0.13319642002E+03  0.13319642004E+03  0.25500000000E-02 0. -1.
   -5000001    1    1    2    0    0 -0.12554641633E+03 -0.12026496469E+03  0.35432064432E+03  0.46719234088E+03  0.25000000000E+03 0.  0.
    5000001    1    1    2    0    0  0.12554641633E+03  0.12026496469E+03  0.22523549951E+03  0.37875664301E+03  0.25000000000E+03 0.  0.
<mgrwt>
<rscale>  0 0.61623401E+03</rscale>
<asrwt>0</asrwt>
<pdfrwt beam="1">  1        2 0.10965424E+00 0.61623401E+03</pdfrwt>
<pdfrwt beam="2">  1       -2 0.20491757E-01 0.61623401E+03</pdfrwt>
<totfact> 0.82299478E+02</totfact>
</mgrwt>
</event>
<event>
 4    1  0.1804641E-005  0.1181711E+04  0.7818608E-02  0.9129017E-01
          2   -1    0    0  501    0  0.00000000000E+00  0.00000000000E+00  0.21764541466E+04  0.21764541466E+04  0.25500000000E-02 0.  1.
         -2   -1    0    0    0  501 -0.00000000000E+00 -0.00000000000E+00 -0.16040323195E+03  0.16040323197E+03  0.25500000000E-02 0. -1.
   -5000001    1    1    2    0    0  0.20311637935E+02  0.53211523889E+03  0.89879384387E+03  0.10741925171E+04  0.25000000000E+03 0.  0.
    5000001    1    1    2    0    0 -0.20311637935E+02 -0.53211523889E+03  0.11172570708E+04  0.12626648615E+04  0.25000000000E+03 0.  0.
<mgrwt>
<rscale>  0 0.11817111E+04</rscale>
<asrwt>0</asrwt>
<pdfrwt beam="1">  1        2 0.33483911E+00 0.11817111E+04</pdfrwt>
<pdfrwt beam="2">  1       -2 0.24677420E-01 0.11817111E+04</pdfrwt>
<totfact> 0.77479276E+01</totfact>
</mgrwt>
</event>
<event>
 4    1  0.1804641E-005  0.5460270E+03  0.7818608E-02  0.1002418E+00
         -2   -1    0    0    0  501 -0.00000000000E+00  0.00000000000E+00  0.15319734945E+03  0.15319734947E+03  0.25500000000E-02 0. -1.
          2   -1    0    0  501    0  0.00000000000E+00 -0.00000000000E+00 -0.48653828169E+03  0.48653828169E+03  0.25500000000E-02 0.  1.
   -5000001    1    1    2    0    0 -0.10034311864E+03  0.94979605607E+01 -0.11590511265E+03  0.29341599794E+03  0.25000000000E+03 0.  0.
    5000001    1    1    2    0    0  0.10034311864E+03 -0.94979605607E+01 -0.21743581959E+03  0.34631963322E+03  0.25000000000E+03 0.  0.
<mgrwt>
<rscale>  0 0.54602701E+03</rscale>
<asrwt>0</asrwt>
<pdfrwt beam="1">  1        2 0.74852042E-01 0.54602701E+03</pdfrwt>
<pdfrwt beam="2">  1       -2 0.23568823E-01 0.54602701E+03</pdfrwt>
<totfact> 0.10160381E+03</totfact>
</mgrwt>
</event>
<event>
 4    1  0.1804641E-005  0.1400345E+04  0.7818608E-02  0.8953569E-01
          2   -1    0    0  501    0  0.00000000000E+00  0.00000000000E+00  0.49947293539E+03  0.49947293539E+03  0.25500000000E-02 0.  1.
         -2   -1    0    0    0  501 -0.00000000000E+00 -0.00000000000E+00 -0.98151819703E+03  0.98151819703E+03  0.25500000000E-02 0. -1.
   -5000001    1    1    2    0    0  0.63847152263E+03  0.51080852709E+02 -0.38087519803E+03  0.78601593826E+03  0.25000000000E+03 0.  0.
    5000001    1    1    2    0    0 -0.63847152263E+03 -0.51080852709E+02 -0.10117006361E+03  0.69497519416E+03  0.25000000000E+03 0.  0.
<mgrwt>
<rscale>  0 0.14003454E+04</rscale>
<asrwt>0</asrwt>
<pdfrwt beam="1">  1        2 0.76841991E-01 0.14003454E+04</pdfrwt>
<pdfrwt beam="2">  1       -2 0.15100280E+00 0.14003454E+04</pdfrwt>
<totfact> 0.17648079E+01</totfact>
</mgrwt>
</event>
<event>
 4    1  0.1804641E-005  0.9083473E+03  0.7818608E-02  0.9415207E-01
          2   -1    0    0  501    0  0.00000000000E+00  0.00000000000E+00  0.40577156994E+03  0.40577156995E+03  0.25500000000E-02 0.  1.
         -2   -1    0    0    0  501 -0.00000000000E+00 -0.00000000000E+00 -0.50834929978E+03  0.50834929979E+03  0.25500000000E-02 0. -1.
   -5000001    1    1    2    0    0 -0.34199120554E+03 -0.32793575933E+02 -0.21274643987E+03  0.47517833596E+03  0.25000000000E+03 0.  0.
    5000001    1    1    2    0    0  0.34199120554E+03  0.32793575933E+02  0.11016871002E+03  0.43894253378E+03  0.25000000000E+03 0.  0.
<mgrwt>
<rscale>  0 0.90834728E+03</rscale>
<asrwt>0</asrwt>
<pdfrwt beam="1">  1        2 0.62426395E-01 0.90834728E+03</pdfrwt>
<pdfrwt beam="2">  1       -2 0.78207585E-01 0.90834728E+03</pdfrwt>
<totfact> 0.11420859E+02</totfact>
</mgrwt>
</event>
<event>
 4    1  0.1804641E-005  0.8104309E+03  0.7818608E-02  0.9545040E-01
          2   -1    0    0  501    0  0.00000000000E+00  0.00000000000E+00  0.60082199534E+03  0.60082199535E+03  0.25500000000E-02 0.  1.
         -2   -1    0    0    0  501 -0.00000000000E+00 -0.00000000000E+00 -0.27329153332E+03  0.27329153333E+03  0.25500000000E-02 0. -1.
   -5000001    1    1    2    0    0 -0.14012662042E+03  0.27485994873E+03  0.76699786250E+02  0.40443332995E+03  0.25000000000E+03 0.  0.
    5000001    1    1    2    0    0  0.14012662042E+03 -0.27485994873E+03  0.25083067577E+03  0.46968019872E+03  0.25000000000E+03 0.  0.
<mgrwt>
<rscale>  0 0.81043091E+03</rscale>
<asrwt>0</asrwt>
<pdfrwt beam="1">  1        2 0.92434152E-01 0.81043091E+03</pdfrwt>
<pdfrwt beam="2">  1       -2 0.42044852E-01 0.81043091E+03</pdfrwt>
<totfact> 0.26701725E+02</totfact>
</mgrwt>
</event>
<event>
 4    1  0.1804641E-005  0.7511638E+03  0.7818608E-02  0.9633526E-01
         -2   -1    0    0    0  501 -0.00000000000E+00  0.00000000000E+00  0.20619756171E+03  0.20619756172E+03  0.25500000000E-02 0. -1.
          2   -1    0    0  501    0  0.00000000000E+00 -0.00000000000E+00 -0.68410984091E+03  0.68410984091E+03  0.25500000000E-02 0.  1.
   -5000001    1    1    2    0    0  0.23240818637E+03  0.15592814169E+03 -0.22080107882E+03  0.43540816124E+03  0.25000000000E+03 0.  0.
    5000001    1    1    2    0    0 -0.23240818637E+03 -0.15592814169E+03 -0.25711120037E+03  0.45489924139E+03  0.25000000000E+03 0.  0.
<mgrwt>
<rscale>  0 0.75116385E+03</rscale>
<asrwt>0</asrwt>
<pdfrwt beam="1">  1        2 0.10524767E+00 0.75116385E+03</pdfrwt>
<pdfrwt beam="2">  1       -2 0.31722702E-01 0.75116385E+03</pdfrwt>
<totfact> 0.39171727E+02</totfact>
</mgrwt>
</event>
<event>
 4    1  0.1804641E-005  0.8191751E+03  0.7818608E-02  0.9532669E-01
         -2   -1    0    0    0  501 -0.00000000000E+00  0.00000000000E+00  0.15229566230E+03  0.15229566232E+03  0.25500000000E-02 0.  1.
          2   -1    0    0  501    0  0.00000000000E+00 -0.00000000000E+00 -0.11015544390E+04  0.11015544390E+04  0.25500000000E-02 0. -1.
   -5000001    1    1    2    0    0  0.73291076841E+02  0.29537262189E+03 -0.64675087033E+03  0.75723395063E+03  0.25000000000E+03 0.  0.
    5000001    1    1    2    0    0 -0.73291076841E+02 -0.29537262189E+03 -0.30250790635E+03  0.49661615068E+03  0.25000000000E+03 0.  0.
<mgrwt>
<rscale>  0 0.81917510E+03</rscale>
<asrwt>0</asrwt>
<pdfrwt beam="1">  1        2 0.16946991E+00 0.81917510E+03</pdfrwt>
<pdfrwt beam="2">  1       -2 0.23430103E-01 0.81917510E+03</pdfrwt>
<totfact> 0.35184474E+02</totfact>
</mgrwt>
</event>
<event>
 4    1  0.1804641E-005  0.8011635E+03  0.7818608E-02  0.9558335E-01
          2   -1    0    0  501    0  0.00000000000E+00  0.00000000000E+00  0.86456949458E+03  0.86456949458E+03  0.25500000000E-02 0.  1.
         -2   -1    0    0    0  501 -0.00000000000E+00 -0.00000000000E+00 -0.18560189348E+03  0.18560189350E+03  0.25500000000E-02 0. -1.
   -5000001    1    1    2    0    0 -0.29433051124E+03  0.35986118316E+02  0.47082834685E+03  0.61000392028E+03  0.25000000000E+03 0.  0.
    5000001    1    1    2    0    0  0.29433051124E+03 -0.35986118316E+02  0.20813925424E+03  0.44016746781E+03  0.25000000000E+03 0.  0.
<mgrwt>
<rscale>  0 0.80116349E+03</rscale>
<asrwt>0</asrwt>
<pdfrwt beam="1">  1        2 0.13301069E+00 0.80116349E+03</pdfrwt>
<pdfrwt beam="2">  1       -2 0.28554137E-01 0.80116349E+03</pdfrwt>
<totfact> 0.34998257E+02</totfact>
</mgrwt>
</event>
<event>
 4    1  0.1804641E-005  0.1890029E+04  0.7818608E-02  0.8659835E-01
         -2   -1    0    0    0  501 -0.00000000000E+00  0.00000000000E+00  0.66856316201E+03  0.66856316201E+03  0.25500000000E-02 0. -1.
          2   -1    0    0  501    0  0.00000000000E+00 -0.00000000000E+00 -0.13357790515E+04  0.13357790515E+04  0.25500000000E-02 0.  1.
   -5000001    1    1    2    0    0 -0.11844882021E+03 -0.86840700506E+03 -0.59849891773E+03  0.10903493954E+04  0.25000000000E+03 0.  0.
    5000001    1    1    2    0    0  0.11844882021E+03  0.86840700506E+03 -0.68716971786E+02  0.91399281817E+03  0.25000000000E+03 0.  0.
<mgrwt>
<rscale>  0 0.18900293E+04</rscale>
<asrwt>0</asrwt>
<pdfrwt beam="1">  1        2 0.20550447E+00 0.18900293E+04</pdfrwt>
<pdfrwt beam="2">  1       -2 0.10285587E+00 0.18900293E+04</pdfrwt>
<totfact> 0.11409547E+01</totfact>
</mgrwt>
</event>
<event>
 4    1  0.1804641E-005  0.5671008E+03  0.7818608E-02  0.9976115E-01
         -2   -1    0    0    0  501 -0.00000000000E+00  0.00000000000E+00  0.23425246950E+02  0.23425247089E+02  0.25500000000E-02 0. -1.
          2   -1    0    0  501    0  0.00000000000E+00 -0.00000000000E+00 -0.34322294182E+04  0.34322294182E+04  0.25500000000E-02 0.  1.
   -5000001    1    1    2    0    0 -0.78587184705E+02  0.89388795412E+02 -0.20767830459E+04  0.20951596890E+04  0.25000000000E+03 0.  0.
    5000001    1    1    2    0    0  0.78587184705E+02 -0.89388795412E+02 -0.13320211253E+04  0.13604949764E+04  0.25000000000E+03 0.  0.
<mgrwt>
<rscale>  0 0.56710077E+03</rscale>
<asrwt>0</asrwt>
<pdfrwt beam="1">  1        2 0.52803490E+00 0.56710077E+03</pdfrwt>
<pdfrwt beam="2">  1       -2 0.36038869E-02 0.56710077E+03</pdfrwt>
<totfact> 0.34078753E+02</totfact>
</mgrwt>
</event>
<event>
 4    1  0.1804641E-005  0.8195352E+03  0.7818608E-02  0.9532163E-01
          2   -1    0    0  501    0  0.00000000000E+00  0.00000000000E+00  0.17466115722E+04  0.17466115722E+04  0.25500000000E-02 0.  1.
         -2   -1    0    0    0  501 -0.00000000000E+00 -0.00000000000E+00 -0.96134426374E+02  0.96134426408E+02  0.25500000000E-02 0. -1.
   -5000001    1    1    2    0    0  0.21577571959E+03 -0.19228039103E+03  0.11578273011E+04  0.12192600089E+04  0.25000000000E+03 0.  0.
    5000001    1    1    2    0    0 -0.21577571959E+03  0.19228039103E+03  0.49264984466E+03  0.62348598973E+03  0.25000000000E+03 0.  0.
<mgrwt>
<rscale>  0 0.81953524E+03</rscale>
<asrwt>0</asrwt>
<pdfrwt beam="1">  1        2 0.26870945E+00 0.81953524E+03</pdfrwt>
<pdfrwt beam="2">  1       -2 0.14789913E-01 0.81953524E+03</pdfrwt>
<totfact> 0.33576072E+02</totfact>
</mgrwt>
</event>
<event>
 4    1  0.1804641E-005  0.5281589E+03  0.7818608E-02  0.1006680E+00
         -2   -1    0    0    0  501 -0.00000000000E+00  0.00000000000E+00  0.35538960113E+02  0.35538960205E+02  0.25500000000E-02 0. -1.
          2   -1    0    0  501    0  0.00000000000E+00 -0.00000000000E+00 -0.19622956039E+04  0.19622956039E+04  0.25500000000E-02 0.  1.
   -5000001    1    1    2    0    0  0.16618229628E+02 -0.79175040598E+02 -0.86379408289E+03  0.90287599937E+03  0.25000000000E+03 0.  0.
    5000001    1    1    2    0    0 -0.16618229628E+02  0.79175040598E+02 -0.10629625609E+04  0.10949585647E+04  0.25000000000E+03 0.  0.
<mgrwt>
<rscale>  0 0.52815886E+03</rscale>
<asrwt>0</asrwt>
<pdfrwt beam="1">  1        2 0.30189155E+00 0.52815886E+03</pdfrwt>
<pdfrwt beam="2">  1       -2 0.54675339E-02 0.52815886E+03</pdfrwt>
<totfact> 0.13030790E+03</totfact>
</mgrwt>
</event>
<event>
 4    1  0.1804641E-005  0.1544712E+04  0.7818608E-02  0.8855253E-01
         -2   -1    0    0    0  501 -0.00000000000E+00  0.00000000000E+00  0.55916832345E+03  0.55916832345E+03  0.25500000000E-02 0. -1.
          2   -1    0    0  501    0  0.00000000000E+00 -0.00000000000E+00 -0.10668227303E+04  0.10668227303E+04  0.25500000000E-02 0.  1.
   -5000001    1    1    2    0    0 -0.65958730582E+03  0.22857161620E+03 -0.48138040328E+03  0.88404043482E+03  0.25000000000E+03 0.  0.
    5000001    1    1    2    0    0  0.65958730582E+03 -0.22857161620E+03 -0.26274003612E+02  0.74195061897E+03  0.25000000000E+03 0.  0.
<mgrwt>
<rscale>  0 0.15447116E+04</rscale>
<asrwt>0</asrwt>
<pdfrwt beam="1">  1        2 0.16412657E+00 0.15447116E+04</pdfrwt>
<pdfrwt beam="2">  1       -2 0.86025896E-01 0.15447116E+04</pdfrwt>
<totfact> 0.25797074E+01</totfact>
</mgrwt>
</event>
<event>
 4    1  0.1804641E-005  0.6531985E+03  0.7818608E-02  0.9800796E-01
          2   -1    0    0  501    0  0.00000000000E+00  0.00000000000E+00  0.76711287731E+03  0.76711287732E+03  0.25500000000E-02 0.  1.
         -2   -1    0    0    0  501 -0.00000000000E+00 -0.00000000000E+00 -0.13905003662E+03  0.13905003664E+03  0.25500000000E-02 0. -1.
   -5000001    1    1    2    0    0  0.29135571613E+01  0.15734204250E+03  0.12079673122E+03  0.31915021139E+03  0.25000000000E+03 0.  0.
    5000001    1    1    2    0    0 -0.29135571613E+01 -0.15734204250E+03  0.50726610948E+03  0.58701270257E+03  0.25000000000E+03 0.  0.
<mgrwt>
<rscale>  0 0.65319851E+03</rscale>
<asrwt>0</asrwt>
<pdfrwt beam="1">  1        2 0.11801737E+00 0.65319851E+03</pdfrwt>
<pdfrwt beam="2">  1       -2 0.21392313E-01 0.65319851E+03</pdfrwt>
<totfact> 0.69403399E+02</totfact>
</mgrwt>
</event>
<event>
 4    1  0.1804641E-005  0.6301073E+03  0.7818608E-02  0.9844839E-01
          2   -1    0    0  501    0  0.00000000000E+00  0.00000000000E+00  0.16041586970E+04  0.16041586970E+04  0.25500000000E-02 0.  1.
         -2   -1    0    0    0  501 -0.00000000000E+00 -0.00000000000E+00 -0.61875930781E+02  0.61875930834E+02  0.25500000000E-02 0. -1.
   -5000001    1    1    2    0    0 -0.12889864451E+03 -0.14146120126E+03  0.74068536780E+03  0.80482354966E+03  0.25000000000E+03 0.  0.
    5000001    1    1    2    0    0  0.12889864451E+03  0.14146120126E+03  0.80159739841E+03  0.86121107817E+03  0.25000000000E+03 0.  0.
<mgrwt>
<rscale>  0 0.63010733E+03</rscale>
<asrwt>0</asrwt>
<pdfrwt beam="1">  1        2 0.24679362E+00 0.63010733E+03</pdfrwt>
<pdfrwt beam="2">  1       -2 0.95193748E-02 0.63010733E+03</pdfrwt>
<totfact> 0.84163849E+02</totfact>
</mgrwt>
</event>
<event>
 4    1  0.1804641E-005  0.7113077E+03  0.7818608E-02  0.9698088E-01
         -2   -1    0    0    0  501 -0.00000000000E+00  0.00000000000E+00  0.70272932954E+03  0.70272932954E+03  0.25500000000E-02 0. -1.
          2   -1    0    0  501    0  0.00000000000E+00 -0.00000000000E+00 -0.17999767903E+03  0.17999767905E+03  0.25500000000E-02 0.  1.
   -5000001    1    1    2    0    0 -0.24104555063E+03  0.19265722199E+02  0.35353002746E+03  0.49594113143E+03  0.25000000000E+03 0.  0.
    5000001    1    1    2    0    0  0.24104555063E+03 -0.19265722199E+02  0.16920162305E+03  0.38678587716E+03  0.25000000000E+03 0.  0.
<mgrwt>
<rscale>  0 0.71130766E+03</rscale>
<asrwt>0</asrwt>
<pdfrwt beam="1">  1        2 0.27691951E-01 0.71130766E+03</pdfrwt>
<pdfrwt beam="2">  1       -2 0.10811220E+00 0.71130766E+03</pdfrwt>
<totfact> 0.13491387E+02</totfact>
</mgrwt>
</event>
<event>
 4    1  0.1804641E-005  0.8100563E+03  0.7818608E-02  0.9545574E-01
         -2   -1    0    0    0  501 -0.00000000000E+00  0.00000000000E+00  0.13349327083E+03  0.13349327085E+03  0.25500000000E-02 0. -1.
          2   -1    0    0  501    0  0.00000000000E+00 -0.00000000000E+00 -0.12288843470E+04  0.12288843470E+04  0.25500000000E-02 0.  1.
   -5000001    1    1    2    0    0  0.24500962142E+03 -0.19796266795E+03 -0.62885774743E+03  0.74644557671E+03  0.25000000000E+03 0.  0.
    5000001    1    1    2    0    0 -0.24500962142E+03  0.19796266795E+03 -0.46653332875E+03  0.61593204116E+03  0.25000000000E+03 0.  0.
<mgrwt>
<rscale>  0 0.81005627E+03</rscale>
<asrwt>0</asrwt>
<pdfrwt beam="1">  1        2 0.18905912E+00 0.81005627E+03</pdfrwt>
<pdfrwt beam="2">  1       -2 0.20537427E-01 0.81005627E+03</pdfrwt>
<totfact> 0.37294431E+02</totfact>
</mgrwt>
</event>
<event>
 4    1  0.1804641E-005  0.1057314E+04  0.7818608E-02  0.9247825E-01
          2   -1    0    0  501    0  0.00000000000E+00  0.00000000000E+00  0.68430143424E+03  0.68430143424E+03  0.25500000000E-02 0.  1.
         -2   -1    0    0    0  501 -0.00000000000E+00 -0.00000000000E+00 -0.40841415639E+03  0.40841415639E+03  0.25500000000E-02 0. -1.
   -5000001    1    1    2    0    0 -0.19478721739E+03 -0.49864945638E+02 -0.29630319920E+03  0.43671977138E+03  0.25000000000E+03 0.  0.
    5000001    1    1    2    0    0  0.19478721739E+03  0.49864945638E+02  0.57219047705E+03  0.65599581926E+03  0.25000000000E+03 0.  0.
<mgrwt>
<rscale>  0 0.10573143E+04</rscale>
<asrwt>0</asrwt>
<pdfrwt beam="1">  1        2 0.10527714E+00 0.10573143E+04</pdfrwt>
<pdfrwt beam="2">  1       -2 0.62832948E-01 0.10573143E+04</pdfrwt>
<totfact> 0.98586107E+01</totfact>
</mgrwt>
</event>
<event>
 4    1  0.1804641E-005  0.6096680E+03  0.7818608E-02  0.9885549E-01
          2   -1    0    0  501    0  0.00000000000E+00  0.00000000000E+00  0.42507880941E+03  0.42507880942E+03  0.25500000000E-02 0.  1.
         -2   -1    0    0    0  501 -0.00000000000E+00 -0.00000000000E+00 -0.21860359730E+03  0.21860359731E+03  0.25500000000E-02 0. -1.
   -5000001    1    1    2    0    0  0.10778661098E+03 -0.10352455102E+03  0.19819121417E+03  0.35229965022E+03  0.25000000000E+03 0.  0.
    5000001    1    1    2    0    0 -0.10778661098E+03  0.10352455102E+03  0.82839979442E+01  0.29138275651E+03  0.25000000000E+03 0.  0.
<mgrwt>
<rscale>  0 0.60966796E+03</rscale>
<asrwt>0</asrwt>
<pdfrwt beam="1">  1        2 0.65396740E-01 0.60966796E+03</pdfrwt>
<pdfrwt beam="2">  1       -2 0.33631323E-01 0.60966796E+03</pdfrwt>
<totfact> 0.61753701E+02</totfact>
</mgrwt>
</event>
<event>
 4    1  0.1804641E-005  0.8509604E+03  0.7818608E-02  0.9489049E-01
          2   -1    0    0  501    0  0.00000000000E+00  0.00000000000E+00  0.14606581889E+04  0.14606581889E+04  0.25500000000E-02 0.  1.
         -2   -1    0    0    0  501 -0.00000000000E+00 -0.00000000000E+00 -0.12393961638E+03  0.12393961640E+03  0.25500000000E-02 0. -1.
   -5000001    1    1    2    0    0  0.19765153364E+03 -0.18467465889E+03  0.10649645248E+04  0.11268630340E+04  0.25000000000E+03 0.  0.
    5000001    1    1    2    0    0 -0.19765153364E+03  0.18467465889E+03  0.27175404775E+03  0.45773477130E+03  0.25000000000E+03 0.  0.
<mgrwt>
<rscale>  0 0.85096044E+03</rscale>
<asrwt>0</asrwt>
<pdfrwt beam="1">  1        2 0.22471663E+00 0.85096044E+03</pdfrwt>
<pdfrwt beam="2">  1       -2 0.19067634E-01 0.85096044E+03</pdfrwt>
<totfact> 0.31199246E+02</totfact>
</mgrwt>
</event>
<event>
 4    1  0.1804641E-005  0.6231834E+03  0.7818608E-02  0.9858442E-01
         -2   -1    0    0    0  501 -0.00000000000E+00  0.00000000000E+00  0.52832253756E+03  0.52832253756E+03  0.25500000000E-02 0. -1.
          2   -1    0    0  501    0  0.00000000000E+00 -0.00000000000E+00 -0.18376916539E+03  0.18376916541E+03  0.25500000000E-02 0.  1.
   -5000001    1    1    2    0    0  0.14439692411E+02  0.18535299038E+03  0.16654554452E+03  0.35327277585E+03  0.25000000000E+03 0.  0.
    5000001    1    1    2    0    0 -0.14439692411E+02 -0.18535299038E+03  0.17800782764E+03  0.35881892712E+03  0.25000000000E+03 0.  0.
<mgrwt>
<rscale>  0 0.62318341E+03</rscale>
<asrwt>0</asrwt>
<pdfrwt beam="1">  1        2 0.28272179E-01 0.62318341E+03</pdfrwt>
<pdfrwt beam="2">  1       -2 0.81280390E-01 0.62318341E+03</pdfrwt>
<totfact> 0.25667359E+02</totfact>
</mgrwt>
</event>
<event>
 4    1  0.1804641E-005  0.5945073E+03  0.7818608E-02  0.9916868E-01
         -2   -1    0    0    0  501 -0.00000000000E+00  0.00000000000E+00  0.15297367057E+04  0.15297367057E+04  0.25500000000E-02 0. -1.
          2   -1    0    0  501    0  0.00000000000E+00 -0.00000000000E+00 -0.57761398388E+02  0.57761398445E+02  0.25500000000E-02 0.  1.
   -5000001    1    1    2    0    0  0.68054246465E+02  0.40236493474E+01  0.34707821367E+03  0.43314068918E+03  0.25000000000E+03 0.  0.
    5000001    1    1    2    0    0 -0.68054246465E+02 -0.40236493474E+01  0.11248970937E+04  0.11543574150E+04  0.25000000000E+03 0.  0.
<mgrwt>
<rscale>  0 0.59450730E+03</rscale>
<asrwt>0</asrwt>
<pdfrwt beam="1">  1        2 0.88863691E-02 0.59450730E+03</pdfrwt>
<pdfrwt beam="2">  1       -2 0.23534411E+00 0.59450730E+03</pdfrwt>
<totfact> 0.63383423E+01</totfact>
</mgrwt>
</event>
<event>
 4    1  0.1804641E-005  0.8124601E+03  0.7818608E-02  0.9542155E-01
          2   -1    0    0  501    0  0.00000000000E+00  0.00000000000E+00  0.90750066390E+03  0.90750066390E+03  0.25500000000E-02 0.  1.
         -2   -1    0    0    0  501 -0.00000000000E+00 -0.00000000000E+00 -0.18184325060E+03  0.18184325062E+03  0.25500000000E-02 0. -1.
   -5000001    1    1    2    0    0  0.22932303619E+03 -0.22073292545E+03  0.40948364308E+03  0.57575075619E+03  0.25000000000E+03 0.  0.
    5000001    1    1    2    0    0 -0.22932303619E+03  0.22073292545E+03  0.31617377022E+03  0.51359315833E+03  0.25000000000E+03 0.  0.
<mgrwt>
<rscale>  0 0.81246014E+03</rscale>
<asrwt>0</asrwt>
<pdfrwt beam="1">  1        2 0.13961549E+00 0.81246014E+03</pdfrwt>
<pdfrwt beam="2">  1       -2 0.27975885E-01 0.81246014E+03</pdfrwt>
<totfact> 0.33962448E+02</totfact>
</mgrwt>
</event>
<event>
 4    1  0.1804641E-005  0.6402370E+03  0.7818608E-02  0.9825273E-01
         -2   -1    0    0    0  501 -0.00000000000E+00  0.00000000000E+00  0.29714688015E+02  0.29714688125E+02  0.25500000000E-02 0. -1.
          2   -1    0    0  501    0  0.00000000000E+00 -0.00000000000E+00 -0.34486602848E+04  0.34486602848E+04  0.25500000000E-02 0.  1.
   -5000001    1    1    2    0    0  0.49944167217E+02 -0.19137529901E+03 -0.15504311963E+04  0.15828631714E+04  0.25000000000E+03 0.  0.
    5000001    1    1    2    0    0 -0.49944167217E+02  0.19137529901E+03 -0.18685144005E+04  0.18955118016E+04  0.25000000000E+03 0.  0.
<mgrwt>
<rscale>  0 0.64023703E+03</rscale>
<asrwt>0</asrwt>
<pdfrwt beam="1">  1        2 0.53056280E+00 0.64023703E+03</pdfrwt>
<pdfrwt beam="2">  1       -2 0.45714932E-02 0.64023703E+03</pdfrwt>
<totfact> 0.22822166E+02</totfact>
</mgrwt>
</event>
<event>
 4    1  0.1804641E-005  0.5752379E+03  0.7818608E-02  0.9958154E-01
         -2   -1    0    0    0  501 -0.00000000000E+00  0.00000000000E+00  0.12344799273E+03  0.12344799276E+03  0.25500000000E-02 0. -1.
          2   -1    0    0  501    0  0.00000000000E+00 -0.00000000000E+00 -0.67011754200E+03  0.67011754200E+03  0.25500000000E-02 0.  1.
   -5000001    1    1    2    0    0 -0.12052785875E+03  0.61030831184E+02 -0.33461100672E+03  0.43899459326E+03  0.25000000000E+03 0.  0.
    5000001    1    1    2    0    0  0.12052785875E+03 -0.61030831184E+02 -0.21205854255E+03  0.35457094150E+03  0.25000000000E+03 0.  0.
<mgrwt>
<rscale>  0 0.57523792E+03</rscale>
<asrwt>0</asrwt>
<pdfrwt beam="1">  1        2 0.10309500E+00 0.57523792E+03</pdfrwt>
<pdfrwt beam="2">  1       -2 0.18991999E-01 0.57523792E+03</pdfrwt>
<totfact> 0.10152480E+03</totfact>
</mgrwt>
</event>
<event>
 4    1  0.1804641E-005  0.6836164E+03  0.7818608E-02  0.9745668E-01
         -2   -1    0    0    0  501 -0.00000000000E+00  0.00000000000E+00  0.36867814376E+02  0.36867814464E+02  0.25500000000E-02 0. -1.
          2   -1    0    0  501    0  0.00000000000E+00 -0.00000000000E+00 -0.31689658629E+04  0.31689658629E+04  0.25500000000E-02 0.  1.
   -5000001    1    1    2    0    0  0.21225321170E+03 -0.67610771801E+02 -0.12442028681E+04  0.12884732901E+04  0.25000000000E+03 0.  0.
    5000001    1    1    2    0    0 -0.21225321170E+03  0.67610771801E+02 -0.18878951805E+04  0.19173603873E+04  0.25000000000E+03 0.  0.
<mgrwt>
<rscale>  0 0.68361640E+03</rscale>
<asrwt>0</asrwt>
<pdfrwt beam="1">  1        2 0.48753299E+00 0.68361640E+03</pdfrwt>
<pdfrwt beam="2">  1       -2 0.56719739E-02 0.68361640E+03</pdfrwt>
<totfact> 0.24659392E+02</totfact>
</mgrwt>
</event>
<event>
 4    1  0.1804641E-005  0.8360623E+03  0.7818608E-02  0.9509237E-01
         -2   -1    0    0    0  501 -0.00000000000E+00  0.00000000000E+00  0.22403539279E+03  0.22403539280E+03  0.25500000000E-02 0. -1.
          2   -1    0    0  501    0  0.00000000000E+00 -0.00000000000E+00 -0.78001087878E+03  0.78001087879E+03  0.25500000000E-02 0.  1.
   -5000001    1    1    2    0    0 -0.33125089025E+02  0.28248143040E+03 -0.49064608948E+03  0.61977948914E+03  0.25000000000E+03 0.  0.
    5000001    1    1    2    0    0  0.33125089025E+02 -0.28248143040E+03 -0.65329396517E+02  0.38426678245E+03  0.25000000000E+03 0.  0.
<mgrwt>
<rscale>  0 0.83606230E+03</rscale>
<asrwt>0</asrwt>
<pdfrwt beam="1">  1        2 0.12000167E+00 0.83606230E+03</pdfrwt>
<pdfrwt beam="2">  1       -2 0.34466984E-01 0.83606230E+03</pdfrwt>
<totfact> 0.28212947E+02</totfact>
</mgrwt>
</event>
<event>
 4    1  0.1804641E-005  0.1105508E+04  0.7818608E-02  0.9199840E-01
         -2   -1    0    0    0  501 -0.00000000000E+00  0.00000000000E+00  0.35832110324E+03  0.35832110325E+03  0.25500000000E-02 0. -1.
          2   -1    0    0  501    0  0.00000000000E+00 -0.00000000000E+00 -0.85268989904E+03  0.85268989904E+03  0.25500000000E-02 0.  1.
   -5000001    1    1    2    0    0 -0.46537537723E+03 -0.15367819723E+03 -0.18874982729E+03  0.58165086378E+03  0.25000000000E+03 0.  0.
    5000001    1    1    2    0    0  0.46537537723E+03  0.15367819723E+03 -0.30561896851E+03  0.62936013851E+03  0.25000000000E+03 0.  0.
<mgrwt>
<rscale>  0 0.11055076E+04</rscale>
<asrwt>0</asrwt>
<pdfrwt beam="1">  1        2 0.13118306E+00 0.11055076E+04</pdfrwt>
<pdfrwt beam="2">  1       -2 0.55126324E-01 0.11055076E+04</pdfrwt>
<totfact> 0.97065668E+01</totfact>
</mgrwt>
</event>
<event>
 4    1  0.1804641E-005  0.7849802E+03  0.7818608E-02  0.9582016E-01
          2   -1    0    0  501    0  0.00000000000E+00  0.00000000000E+00  0.69075115374E+03  0.69075115375E+03  0.25500000000E-02 0.  1.
         -2   -1    0    0    0  501 -0.00000000000E+00 -0.00000000000E+00 -0.22301586680E+03  0.22301586681E+03  0.25500000000E-02 0. -1.
   -5000001    1    1    2    0    0 -0.25865249453E+03  0.14871812938E+03  0.29242216408E+03  0.48685615635E+03  0.25000000000E+03 0.  0.
    5000001    1    1    2    0    0  0.25865249453E+03 -0.14871812938E+03  0.17531312287E+03  0.42691086421E+03  0.25000000000E+03 0.  0.
<mgrwt>
<rscale>  0 0.78498017E+03</rscale>
<asrwt>0</asrwt>
<pdfrwt beam="1">  1        2 0.10626941E+00 0.78498017E+03</pdfrwt>
<pdfrwt beam="2">  1       -2 0.34310134E-01 0.78498017E+03</pdfrwt>
<totfact> 0.33339900E+02</totfact>
</mgrwt>
</event>
<event>
 4    1  0.1804641E-005  0.5030536E+03  0.7818608E-02  0.1012985E+00
          2   -1    0    0  501    0  0.00000000000E+00  0.00000000000E+00  0.25977959076E+04  0.25977959076E+04  0.25500000000E-02 0.  1.
         -2   -1    0    0    0  501 -0.00000000000E+00 -0.00000000000E+00 -0.24353622982E+02  0.24353623115E+02  0.25500000000E-02 0. -1.
   -5000001    1    1    2    0    0 -0.11983342026E+02  0.21181556249E+02  0.13553761503E+04  0.13784544851E+04  0.25000000000E+03 0.  0.
    5000001    1    1    2    0    0  0.11983342026E+02 -0.21181556249E+02  0.12180661344E+04  0.12436950456E+04  0.25000000000E+03 0.  0.
<mgrwt>
<rscale>  0 0.50305364E+03</rscale>
<asrwt>0</asrwt>
<pdfrwt beam="1">  1        2 0.39966091E+00 0.50305364E+03</pdfrwt>
<pdfrwt beam="2">  1       -2 0.37467112E-02 0.50305364E+03</pdfrwt>
<totfact> 0.10453807E+03</totfact>
</mgrwt>
</event>
<event>
 4    1  0.1804641E-005  0.5070416E+03  0.7818608E-02  0.1011957E+00
         -2   -1    0    0    0  501 -0.00000000000E+00  0.00000000000E+00  0.46214621473E+02  0.46214621544E+02  0.25500000000E-02 0.  1.
          2   -1    0    0  501    0  0.00000000000E+00 -0.00000000000E+00 -0.13907461390E+04  0.13907461390E+04  0.25500000000E-02 0. -1.
   -5000001    1    1    2    0    0 -0.32619833306E+02 -0.21278212345E+02 -0.62692244263E+03  0.67605367015E+03  0.25000000000E+03 0.  0.
    5000001    1    1    2    0    0  0.32619833306E+02  0.21278212345E+02 -0.71760907489E+03  0.76090709039E+03  0.25000000000E+03 0.  0.
<mgrwt>
<rscale>  0 0.50704164E+03</rscale>
<asrwt>0</asrwt>
<pdfrwt beam="1">  1        2 0.21396091E+00 0.50704164E+03</pdfrwt>
<pdfrwt beam="2">  1       -2 0.71099428E-02 0.50704164E+03</pdfrwt>
<totfact> 0.17678913E+03</totfact>
</mgrwt>
</event>
<event>
 4    1  0.1804641E-005  0.8522512E+03  0.7818608E-02  0.9487320E-01
          2   -1    0    0  501    0  0.00000000000E+00  0.00000000000E+00  0.24241050326E+04  0.24241050326E+04  0.25500000000E-02 0.  1.
         -2   -1    0    0    0  501 -0.00000000000E+00 -0.00000000000E+00 -0.74907251302E+02  0.74907251346E+02  0.25500000000E-02 0. -1.
   -5000001    1    1    2    0    0 -0.26083396473E+03  0.18213444665E+03  0.15666409435E+04  0.16180454752E+04  0.25000000000E+03 0.  0.
    5000001    1    1    2    0    0  0.26083396473E+03 -0.18213444665E+03  0.78255683779E+03  0.88096680878E+03  0.25000000000E+03 0.  0.
<mgrwt>
<rscale>  0 0.85225124E+03</rscale>
<asrwt>0</asrwt>
<pdfrwt beam="1">  1        2 0.37293921E+00 0.85225124E+03</pdfrwt>
<pdfrwt beam="2">  1       -2 0.11524193E-01 0.85225124E+03</pdfrwt>
<totfact> 0.21491672E+02</totfact>
</mgrwt>
</event>
<event>
 4    1  0.1804641E-005  0.6803479E+03  0.7818608E-02  0.9751443E-01
         -2   -1    0    0    0  501 -0.00000000000E+00  0.00000000000E+00  0.62205596577E+02  0.62205596629E+02  0.25500000000E-02 0. -1.
          2   -1    0    0  501    0  0.00000000000E+00 -0.00000000000E+00 -0.18602555267E+04  0.18602555267E+04  0.25500000000E-02 0.  1.
   -5000001    1    1    2    0    0  0.16667454802E+03  0.15942423931E+03 -0.88582804318E+03  0.94888767256E+03  0.25000000000E+03 0.  0.
    5000001    1    1    2    0    0 -0.16667454802E+03 -0.15942423931E+03 -0.91222188692E+03  0.97357345075E+03  0.25000000000E+03 0.  0.
<mgrwt>
<rscale>  0 0.68034787E+03</rscale>
<asrwt>0</asrwt>
<pdfrwt beam="1">  1        2 0.28619311E+00 0.68034787E+03</pdfrwt>
<pdfrwt beam="2">  1       -2 0.95700932E-02 0.68034787E+03</pdfrwt>
<totfact> 0.60348194E+02</totfact>
</mgrwt>
</event>
<event>
 4    1  0.1804641E-005  0.6158248E+03  0.7818608E-02  0.9873108E-01
         -2   -1    0    0    0  501 -0.00000000000E+00  0.00000000000E+00  0.45333141222E+03  0.45333141223E+03  0.25500000000E-02 0. -1.
          2   -1    0    0  501    0  0.00000000000E+00 -0.00000000000E+00 -0.20914068700E+03  0.20914068702E+03  0.25500000000E-02 0.  1.
   -5000001    1    1    2    0    0  0.15565045098E+03 -0.87293346902E+02  0.98951739175E+02  0.32270518742E+03  0.25000000000E+03 0.  0.
    5000001    1    1    2    0    0 -0.15565045098E+03  0.87293346902E+02  0.14523898604E+03  0.33976691182E+03  0.25000000000E+03 0.  0.
<mgrwt>
<rscale>  0 0.61582479E+03</rscale>
<asrwt>0</asrwt>
<pdfrwt beam="1">  1        2 0.32175491E-01 0.61582479E+03</pdfrwt>
<pdfrwt beam="2">  1       -2 0.69743293E-01 0.61582479E+03</pdfrwt>
<totfact> 0.31134299E+02</totfact>
</mgrwt>
</event>
<event>
 4    1  0.1804641E-005  0.7475538E+03  0.7818608E-02  0.9639196E-01
          2   -1    0    0  501    0  0.00000000000E+00  0.00000000000E+00  0.54837513095E+03  0.54837513096E+03  0.25500000000E-02 0.  1.
         -2   -1    0    0    0  501 -0.00000000000E+00 -0.00000000000E+00 -0.25476931644E+03  0.25476931645E+03  0.25500000000E-02 0. -1.
   -5000001    1    1    2    0    0  0.53349922584E+02 -0.14663820880E+03  0.39381348003E+03  0.49187197071E+03  0.25000000000E+03 0.  0.
    5000001    1    1    2    0    0 -0.53349922584E+02  0.14663820880E+03 -0.10020766551E+03  0.31127247669E+03  0.25000000000E+03 0.  0.
<mgrwt>
<rscale>  0 0.74755376E+03</rscale>
<asrwt>0</asrwt>
<pdfrwt beam="1">  1        2 0.84365404E-01 0.74755376E+03</pdfrwt>
<pdfrwt beam="2">  1       -2 0.39195280E-01 0.74755376E+03</pdfrwt>
<totfact> 0.34240883E+02</totfact>
</mgrwt>
</event>
<event>
 4    1  0.1804641E-005  0.6819088E+03  0.7818608E-02  0.9748681E-01
         -2   -1    0    0    0  501 -0.00000000000E+00  0.00000000000E+00  0.56818361153E+02  0.56818361210E+02  0.25500000000E-02 0. -1.
          2   -1    0    0  501    0  0.00000000000E+00 -0.00000000000E+00 -0.20459920334E+04  0.20459920334E+04  0.25500000000E-02 0.  1.
   -5000001    1    1    2    0    0 -0.22135931536E+03 -0.58669359404E+02 -0.11061078654E+04  0.11568995851E+04  0.25000000000E+03 0.  0.
    5000001    1    1    2    0    0  0.22135931536E+03  0.58669359404E+02 -0.88306580687E+03  0.94591080948E+03  0.25000000000E+03 0.  0.
<mgrwt>
<rscale>  0 0.68190883E+03</rscale>
<asrwt>0</asrwt>
<pdfrwt beam="1">  1        2 0.31476795E+00 0.68190883E+03</pdfrwt>
<pdfrwt beam="2">  1       -2 0.87412879E-02 0.68190883E+03</pdfrwt>
<totfact> 0.55353592E+02</totfact>
</mgrwt>
</event>
<event>
 4    1  0.1804641E-005  0.5728677E+03  0.7818608E-02  0.9963353E-01
          2   -1    0    0  501    0  0.00000000000E+00  0.00000000000E+00  0.16467832565E+04  0.16467832565E+04  0.25500000000E-02 0.  1.
         -2   -1    0    0    0  501 -0.00000000000E+00 -0.00000000000E+00 -0.49820970015E+02  0.49820970080E+02  0.25500000000E-02 0. -1.
   -5000001    1    1    2    0    0  0.77957879729E+02  0.77510794930E+02  0.10542608609E+04  0.10890598318E+04  0.25000000000E+03 0.  0.
    5000001    1    1    2    0    0 -0.77957879729E+02 -0.77510794930E+02  0.54270142561E+03  0.60754439484E+03  0.25000000000E+03 0.  0.
<mgrwt>
<rscale>  0 0.57286766E+03</rscale>
<asrwt>0</asrwt>
<pdfrwt beam="1">  1        2 0.25335130E+00 0.57286766E+03</pdfrwt>
<pdfrwt beam="2">  1       -2 0.76647637E-02 0.57286766E+03</pdfrwt>
<totfact> 0.11321755E+03</totfact>
</mgrwt>
</event>
<event>
 4    1  0.1804641E-005  0.6596139E+03  0.7818608E-02  0.9788905E-01
          2   -1    0    0  501    0  0.00000000000E+00  0.00000000000E+00  0.88588308397E+03  0.88588308397E+03  0.25500000000E-02 0.  1.
         -2   -1    0    0    0  501 -0.00000000000E+00 -0.00000000000E+00 -0.12278441420E+03  0.12278441422E+03  0.25500000000E-02 0. -1.
   -5000001    1    1    2    0    0  0.11130283272E+03 -0.15463635604E+03  0.22884638324E+03  0.38880765207E+03  0.25000000000E+03 0.  0.
    5000001    1    1    2    0    0 -0.11130283272E+03  0.15463635604E+03  0.53425228653E+03  0.61985984613E+03  0.25000000000E+03 0.  0.
<mgrwt>
<rscale>  0 0.65961393E+03</rscale>
<asrwt>0</asrwt>
<pdfrwt beam="1">  1        2 0.13628970E+00 0.65961393E+03</pdfrwt>
<pdfrwt beam="2">  1       -2 0.18889910E-01 0.65961393E+03</pdfrwt>
<totfact> 0.71147714E+02</totfact>
</mgrwt>
</event>
<event>
 4    1  0.1804641E-005  0.1216445E+04  0.7818608E-02  0.9098583E-01
         -2   -1    0    0    0  501 -0.00000000000E+00  0.00000000000E+00  0.58283994997E+03  0.58283994997E+03  0.25500000000E-02 0.  1.
          2   -1    0    0  501    0  0.00000000000E+00 -0.00000000000E+00 -0.63471000272E+03  0.63471000272E+03  0.25500000000E-02 0. -1.
   -5000001    1    1    2    0    0  0.38035758967E+03  0.22492024268E+03 -0.36116225010E+03  0.62305632369E+03  0.25000000000E+03 0.  0.
    5000001    1    1    2    0    0 -0.38035758967E+03 -0.22492024268E+03  0.30929219735E+03  0.59449362901E+03  0.25000000000E+03 0.  0.
<mgrwt>
<rscale>  0 0.12164446E+04</rscale>
<asrwt>0</asrwt>
<pdfrwt beam="1">  1        2 0.97647693E-01 0.12164446E+04</pdfrwt>
<pdfrwt beam="2">  1       -2 0.89667684E-01 0.12164446E+04</pdfrwt>
<totfact> 0.48668856E+01</totfact>
</mgrwt>
</event>
<event>
 4    1  0.1804641E-005  0.1172469E+04  0.7818608E-02  0.9137302E-01
         -2   -1    0    0    0  501 -0.00000000000E+00  0.00000000000E+00  0.21063535645E+03  0.21063535647E+03  0.25500000000E-02 0. -1.
          2   -1    0    0  501    0  0.00000000000E+00 -0.00000000000E+00 -0.16315902682E+04  0.16315902682E+04  0.25500000000E-02 0.  1.
   -5000001    1    1    2    0    0 -0.27777329423E+03 -0.40884707878E+03 -0.40883002710E+03  0.68844457139E+03  0.25000000000E+03 0.  0.
    5000001    1    1    2    0    0  0.27777329423E+03  0.40884707878E+03 -0.10121248847E+04  0.11537810533E+04  0.25000000000E+03 0.  0.
<mgrwt>
<rscale>  0 0.11724685E+04</rscale>
<asrwt>0</asrwt>
<pdfrwt beam="1">  1        2 0.25101388E+00 0.11724685E+04</pdfrwt>
<pdfrwt beam="2">  1       -2 0.32405440E-01 0.11724685E+04</pdfrwt>
<totfact> 0.93851480E+01</totfact>
</mgrwt>
</event>
<event>
 4    1  0.1804641E-005  0.6819490E+03  0.7818608E-02  0.9748610E-01
         -2   -1    0    0    0  501 -0.00000000000E+00  0.00000000000E+00  0.79262365828E+02  0.79262365869E+02  0.25500000000E-02 0. -1.
          2   -1    0    0  501    0  0.00000000000E+00 -0.00000000000E+00 -0.14668196253E+04  0.14668196253E+04  0.25500000000E-02 0.  1.
   -5000001    1    1    2    0    0 -0.16529050844E+03 -0.14622615846E+03 -0.53249896648E+03  0.62829785206E+03  0.25000000000E+03 0.  0.
    5000001    1    1    2    0    0  0.16529050844E+03  0.14622615846E+03 -0.85505829302E+03  0.91778413914E+03  0.25000000000E+03 0.  0.
<mgrwt>
<rscale>  0 0.68194895E+03</rscale>
<asrwt>0</asrwt>
<pdfrwt beam="1">  1        2 0.22566454E+00 0.68194895E+03</pdfrwt>
<pdfrwt beam="2">  1       -2 0.12194211E-01 0.68194895E+03</pdfrwt>
<totfact> 0.66678808E+02</totfact>
</mgrwt>
</event>
<event>
 4    1  0.1804641E-005  0.5543325E+03  0.7818608E-02  0.1000496E+00
         -2   -1    0    0    0  501 -0.00000000000E+00  0.00000000000E+00  0.23755458171E+02  0.23755458307E+02  0.25500000000E-02 0. -1.
          2   -1    0    0  501    0  0.00000000000E+00 -0.00000000000E+00 -0.32338306785E+04  0.32338306785E+04  0.25500000000E-02 0.  1.
   -5000001    1    1    2    0    0 -0.30882657264E+02 -0.11497517883E+03 -0.15335217814E+04  0.15583202765E+04  0.25000000000E+03 0.  0.
    5000001    1    1    2    0    0  0.30882657264E+02  0.11497517883E+03 -0.16765534390E+04  0.16992658603E+04  0.25000000000E+03 0.  0.
<mgrwt>
<rscale>  0 0.55433250E+03</rscale>
<asrwt>0</asrwt>
<pdfrwt beam="1">  1        2 0.49751206E+00 0.55433250E+03</pdfrwt>
<pdfrwt beam="2">  1       -2 0.36546884E-02 0.55433250E+03</pdfrwt>
<totfact> 0.44975508E+02</totfact>
</mgrwt>
</event>
<event>
 4    1  0.1804641E-005  0.6786698E+03  0.7818608E-02  0.9754421E-01
         -2   -1    0    0    0  501 -0.00000000000E+00  0.00000000000E+00  0.45631912714E+03  0.45631912715E+03  0.25500000000E-02 0. -1.
          2   -1    0    0  501    0  0.00000000000E+00 -0.00000000000E+00 -0.25234131639E+03  0.25234131640E+03  0.25500000000E-02 0.  1.
   -5000001    1    1    2    0    0 -0.99080190330E+02  0.17865164301E+03  0.21107994286E+03  0.38573052244E+03  0.25000000000E+03 0.  0.
    5000001    1    1    2    0    0  0.99080190330E+02 -0.17865164301E+03 -0.71021321069E+01  0.32292992111E+03  0.25000000000E+03 0.  0.
<mgrwt>
<rscale>  0 0.67866978E+03</rscale>
<asrwt>0</asrwt>
<pdfrwt beam="1">  1        2 0.38821742E-01 0.67866978E+03</pdfrwt>
<pdfrwt beam="2">  1       -2 0.70202942E-01 0.67866978E+03</pdfrwt>
<totfact> 0.24849297E+02</totfact>
</mgrwt>
</event>
<event>
 4    1  0.1804641E-005  0.6746491E+03  0.7818608E-02  0.9761596E-01
          2   -1    0    0  501    0  0.00000000000E+00  0.00000000000E+00  0.85347619879E+02  0.85347619917E+02  0.25500000000E-02 0.  1.
         -2   -1    0    0    0  501 -0.00000000000E+00 -0.00000000000E+00 -0.13332280636E+04  0.13332280636E+04  0.25500000000E-02 0. -1.
   -5000001    1    1    2    0    0 -0.55476873537E+02  0.21585878341E+03 -0.53943564572E+03  0.63495158378E+03  0.25000000000E+03 0.  0.
    5000001    1    1    2    0    0  0.55476873537E+02 -0.21585878341E+03 -0.70844479796E+03  0.78362409970E+03  0.25000000000E+03 0.  0.
<mgrwt>
<rscale>  0 0.67464907E+03</rscale>
<asrwt>0</asrwt>
<pdfrwt beam="1">  1        2 0.13130404E-01 0.67464907E+03</pdfrwt>
<pdfrwt beam="2">  1       -2 0.20511199E+00 0.67464907E+03</pdfrwt>
<totfact> 0.59476301E+01</totfact>
</mgrwt>
</event>
<event>
 4    1  0.1804641E-005  0.6169635E+03  0.7818608E-02  0.9870824E-01
         -2   -1    0    0    0  501 -0.00000000000E+00  0.00000000000E+00  0.49413246686E+02  0.49413246751E+02  0.25500000000E-02 0.  1.
          2   -1    0    0  501    0  0.00000000000E+00 -0.00000000000E+00 -0.19258192473E+04  0.19258192473E+04  0.25500000000E-02 0. -1.
   -5000001    1    1    2    0    0  0.58024177828E+02 -0.17114827083E+03 -0.93319611194E+03  0.98285986751E+03  0.25000000000E+03 0.  0.
    5000001    1    1    2    0    0 -0.58024177828E+02  0.17114827083E+03 -0.94320988868E+03  0.99237262655E+03  0.25000000000E+03 0.  0.
<mgrwt>
<rscale>  0 0.61696347E+03</rscale>
<asrwt>0</asrwt>
<pdfrwt beam="1">  1        2 0.29627983E+00 0.61696347E+03</pdfrwt>
<pdfrwt beam="2">  1       -2 0.76020394E-02 0.61696347E+03</pdfrwt>
<totfact> 0.80784274E+02</totfact>
</mgrwt>
</event>
<event>
 4    1  0.1804641E-005  0.6266618E+03  0.7818608E-02  0.9851585E-01
         -2   -1    0    0    0  501 -0.00000000000E+00  0.00000000000E+00  0.43613704610E+03  0.43613704611E+03  0.25500000000E-02 0. -1.
          2   -1    0    0  501    0  0.00000000000E+00 -0.00000000000E+00 -0.22510414615E+03  0.22510414616E+03  0.25500000000E-02 0.  1.
   -5000001    1    1    2    0    0 -0.16647014474E+03  0.31468841170E+02  0.19363291442E+03  0.35874266905E+03  0.25000000000E+03 0.  0.
    5000001    1    1    2    0    0  0.16647014474E+03 -0.31468841170E+02  0.17399985535E+02  0.30249852322E+03  0.25000000000E+03 0.  0.
<mgrwt>
<rscale>  0 0.62666181E+03</rscale>
<asrwt>0</asrwt>
<pdfrwt beam="1">  1        2 0.34631407E-01 0.62666181E+03</pdfrwt>
<pdfrwt beam="2">  1       -2 0.67098007E-01 0.62666181E+03</pdfrwt>
<totfact> 0.31172089E+02</totfact>
</mgrwt>
</event>
<event>
 4    1  0.1804641E-005  0.5808572E+03  0.7818608E-02  0.9945937E-01
          2   -1    0    0  501    0  0.00000000000E+00  0.00000000000E+00  0.11178951435E+04  0.11178951435E+04  0.25500000000E-02 0.  1.
         -2   -1    0    0    0  501 -0.00000000000E+00 -0.00000000000E+00 -0.75453201332E+02  0.75453201375E+02  0.25500000000E-02 0. -1.
   -5000001    1    1    2    0    0  0.66712605240E+02  0.10262466249E+02  0.25105446825E+03  0.36067192286E+03  0.25000000000E+03 0.  0.
    5000001    1    1    2    0    0 -0.66712605240E+02 -0.10262466249E+02  0.79138747393E+03  0.83267642203E+03  0.25000000000E+03 0.  0.
<mgrwt>
<rscale>  0 0.58085719E+03</rscale>
<asrwt>0</asrwt>
<pdfrwt beam="1">  1        2 0.17198385E+00 0.58085719E+03</pdfrwt>
<pdfrwt beam="2">  1       -2 0.11608186E-01 0.58085719E+03</pdfrwt>
<totfact> 0.11535370E+03</totfact>
</mgrwt>
</event>
<event>
 4    1  0.1804641E-005  0.6058954E+03  0.7818608E-02  0.9893250E-01
         -2   -1    0    0    0  501 -0.00000000000E+00  0.00000000000E+00  0.31361482248E+02  0.31361482352E+02  0.25500000000E-02 0. -1.
          2   -1    0    0  501    0  0.00000000000E+00 -0.00000000000E+00 -0.29264338035E+04  0.29264338035E+04  0.25500000000E-02 0.  1.
   -5000001    1    1    2    0    0 -0.90461291726E+02 -0.89932827087E+02 -0.20042663090E+04  0.20238217797E+04  0.25000000000E+03 0.  0.
    5000001    1    1    2    0    0  0.90461291726E+02  0.89932827087E+02 -0.89080601227E+03  0.93397350614E+03  0.25000000000E+03 0.  0.
<mgrwt>
<rscale>  0 0.60589538E+03</rscale>
<asrwt>0</asrwt>
<pdfrwt beam="1">  1        2 0.45022037E+00 0.60589538E+03</pdfrwt>
<pdfrwt beam="2">  1       -2 0.48248457E-02 0.60589538E+03</pdfrwt>
<totfact> 0.45122513E+02</totfact>
</mgrwt>
</event>
<event>
 4    1  0.1804641E-005  0.8981428E+03  0.7818608E-02  0.9427906E-01
          2   -1    0    0  501    0  0.00000000000E+00  0.00000000000E+00  0.10769944444E+04  0.10769944444E+04  0.25500000000E-02 0.  1.
         -2   -1    0    0    0  501 -0.00000000000E+00 -0.00000000000E+00 -0.18724806193E+03  0.18724806194E+03  0.25500000000E-02 0. -1.
   -5000001    1    1    2    0    0  0.15847258386E+03 -0.33187638153E+03  0.35685897561E+03  0.57017876226E+03  0.25000000000E+03 0.  0.
    5000001    1    1    2    0    0 -0.15847258386E+03  0.33187638153E+03  0.53288740682E+03  0.69406374405E+03  0.25000000000E+03 0.  0.
<mgrwt>
<rscale>  0 0.89814280E+03</rscale>
<asrwt>0</asrwt>
<pdfrwt beam="1">  1        2 0.16569145E+00 0.89814280E+03</pdfrwt>
<pdfrwt beam="2">  1       -2 0.28807394E-01 0.89814280E+03</pdfrwt>
<totfact> 0.24926574E+02</totfact>
</mgrwt>
</event>
<event>
 4    1  0.1804641E-005  0.6510279E+03  0.7818608E-02  0.9804852E-01
         -2   -1    0    0    0  501 -0.00000000000E+00  0.00000000000E+00  0.23867085392E+03  0.23867085393E+03  0.25500000000E-02 0. -1.
          2   -1    0    0  501    0  0.00000000000E+00 -0.00000000000E+00 -0.44395594586E+03  0.44395594587E+03  0.25500000000E-02 0.  1.
   -5000001    1    1    2    0    0 -0.36681526607E+02 -0.20346459875E+03 -0.74586250841E+02  0.33287608228E+03  0.25000000000E+03 0.  0.
    5000001    1    1    2    0    0  0.36681526607E+02  0.20346459875E+03 -0.13069884110E+03  0.34975071752E+03  0.25000000000E+03 0.  0.
<mgrwt>
<rscale>  0 0.65102794E+03</rscale>
<asrwt>0</asrwt>
<pdfrwt beam="1">  1        2 0.68300915E-01 0.65102794E+03</pdfrwt>
<pdfrwt beam="2">  1       -2 0.36718593E-01 0.65102794E+03</pdfrwt>
<totfact> 0.49715832E+02</totfact>
</mgrwt>
</event>
<event>
 4    1  0.1804641E-005  0.6588260E+03  0.7818608E-02  0.9790357E-01
         -2   -1    0    0    0  501 -0.00000000000E+00  0.00000000000E+00  0.26051833010E+03  0.26051833011E+03  0.25500000000E-02 0. -1.
          2   -1    0    0  501    0  0.00000000000E+00 -0.00000000000E+00 -0.41652703506E+03  0.41652703507E+03  0.25500000000E-02 0.  1.
   -5000001    1    1    2    0    0  0.16737042838E+03 -0.13137528599E+03 -0.50037773505E+02  0.33207846187E+03  0.25000000000E+03 0.  0.
    5000001    1    1    2    0    0 -0.16737042838E+03  0.13137528599E+03 -0.10597093146E+03  0.34496690331E+03  0.25000000000E+03 0.  0.
<mgrwt>
<rscale>  0 0.65882601E+03</rscale>
<asrwt>0</asrwt>
<pdfrwt beam="1">  1        2 0.64081082E-01 0.65882601E+03</pdfrwt>
<pdfrwt beam="2">  1       -2 0.40079743E-01 0.65882601E+03</pdfrwt>
<totfact> 0.45111867E+02</totfact>
</mgrwt>
</event>
<event>
 4    1  0.1804641E-005  0.8274885E+03  0.7818608E-02  0.9521059E-01
          2   -1    0    0  501    0  0.00000000000E+00  0.00000000000E+00  0.13277542767E+04  0.13277542767E+04  0.25500000000E-02 0.  1.
         -2   -1    0    0    0  501 -0.00000000000E+00 -0.00000000000E+00 -0.12892770542E+03  0.12892770545E+03  0.25500000000E-02 0. -1.
   -5000001    1    1    2    0    0 -0.20132672686E+03 -0.26060722687E+03  0.57238525081E+03  0.70609733960E+03  0.25000000000E+03 0.  0.
    5000001    1    1    2    0    0  0.20132672686E+03  0.26060722687E+03  0.62644132046E+03  0.75058464254E+03  0.25000000000E+03 0.  0.
<mgrwt>
<rscale>  0 0.82748852E+03</rscale>
<asrwt>0</asrwt>
<pdfrwt beam="1">  1        2 0.20426989E+00 0.82748852E+03</pdfrwt>
<pdfrwt beam="2">  1       -2 0.19835032E-01 0.82748852E+03</pdfrwt>
<totfact> 0.34696410E+02</totfact>
</mgrwt>
</event>
<event>
 4    1  0.1804641E-005  0.1596689E+04  0.7818608E-02  0.8822584E-01
          2   -1    0    0  501    0  0.00000000000E+00  0.00000000000E+00  0.83756349578E+03  0.83756349578E+03  0.25500000000E-02 0.  1.
         -2   -1    0    0    0  501 -0.00000000000E+00 -0.00000000000E+00 -0.76096221295E+03  0.76096221295E+03  0.25500000000E-02 0. -1.
   -5000001    1    1    2    0    0 -0.27034038032E+02 -0.73531609337E+03 -0.14475816287E+03  0.79049068438E+03  0.25000000000E+03 0.  0.
    5000001    1    1    2    0    0  0.27034038032E+02  0.73531609337E+03  0.22135944570E+03  0.80803502435E+03  0.25000000000E+03 0.  0.
<mgrwt>
<rscale>  0 0.15966893E+04</rscale>
<asrwt>0</asrwt>
<pdfrwt beam="1">  1        2 0.12885592E+00 0.15966893E+04</pdfrwt>
<pdfrwt beam="2">  1       -2 0.11707111E+00 0.15966893E+04</pdfrwt>
<totfact> 0.17531995E+01</totfact>
</mgrwt>
</event>
<event>
 4    1  0.1804641E-005  0.1506221E+04  0.7818608E-02  0.8880326E-01
         -2   -1    0    0    0  501 -0.00000000000E+00  0.00000000000E+00  0.89441762761E+03  0.89441762761E+03  0.25500000000E-02 0. -1.
          2   -1    0    0  501    0  0.00000000000E+00 -0.00000000000E+00 -0.63412854412E+03  0.63412854412E+03  0.25500000000E-02 0.  1.
   -5000001    1    1    2    0    0 -0.23635684773E+03  0.46249569077E+03 -0.36171318485E+03  0.68051690026E+03  0.25000000000E+03 0.  0.
    5000001    1    1    2    0    0  0.23635684773E+03 -0.46249569077E+03  0.62200226834E+03  0.84802927147E+03  0.25000000000E+03 0.  0.
<mgrwt>
<rscale>  0 0.15062214E+04</rscale>
<asrwt>0</asrwt>
<pdfrwt beam="1">  1        2 0.97558237E-01 0.15062214E+04</pdfrwt>
<pdfrwt beam="2">  1       -2 0.13760271E+00 0.15062214E+04</pdfrwt>
<totfact> 0.16807483E+01</totfact>
</mgrwt>
</event>
<event>
 4    1  0.1804641E-005  0.8428566E+03  0.7818608E-02  0.9499975E-01
          2   -1    0    0  501    0  0.00000000000E+00  0.00000000000E+00  0.14096765667E+04  0.14096765667E+04  0.25500000000E-02 0.  1.
         -2   -1    0    0    0  501 -0.00000000000E+00 -0.00000000000E+00 -0.12598762795E+03  0.12598762797E+03  0.25500000000E-02 0. -1.
   -5000001    1    1    2    0    0  0.24970272185E+03  0.12787439036E+03  0.98944809947E+03  0.10584001373E+04  0.25000000000E+03 0.  0.
    5000001    1    1    2    0    0 -0.24970272185E+03 -0.12787439036E+03  0.29424083930E+03  0.47726405743E+03  0.25000000000E+03 0.  0.
<mgrwt>
<rscale>  0 0.84285659E+03</rscale>
<asrwt>0</asrwt>
<pdfrwt beam="1">  1        2 0.21687332E+00 0.84285659E+03</pdfrwt>
<pdfrwt beam="2">  1       -2 0.19382712E-01 0.84285659E+03</pdfrwt>
<totfact> 0.32411189E+02</totfact>
</mgrwt>
</event>
<event>
 4    1  0.1804641E-005  0.9707629E+03  0.7818608E-02  0.9341206E-01
         -2   -1    0    0    0  501 -0.00000000000E+00  0.00000000000E+00  0.13019325991E+03  0.13019325993E+03  0.25500000000E-02 0. -1.
          2   -1    0    0  501    0  0.00000000000E+00 -0.00000000000E+00 -0.18095803805E+04  0.18095803805E+04  0.25500000000E-02 0.  1.
   -5000001    1    1    2    0    0  0.19517905145E+03  0.31096929943E+03 -0.12307398697E+04  0.13084408256E+04  0.25000000000E+03 0.  0.
    5000001    1    1    2    0    0 -0.19517905145E+03 -0.31096929943E+03 -0.44864725090E+03  0.63133281480E+03  0.25000000000E+03 0.  0.
<mgrwt>
<rscale>  0 0.97076293E+03</rscale>
<asrwt>0</asrwt>
<pdfrwt beam="1">  1        2 0.27839696E+00 0.97076293E+03</pdfrwt>
<pdfrwt beam="2">  1       -2 0.20029734E-01 0.97076293E+03</pdfrwt>
<totfact> 0.18203013E+02</totfact>
</mgrwt>
</event>
<event>
 4    1  0.1804641E-005  0.7404068E+03  0.7818608E-02  0.9650522E-01
         -2   -1    0    0    0  501 -0.00000000000E+00  0.00000000000E+00  0.51075141616E+02  0.51075141680E+02  0.25500000000E-02 0. -1.
          2   -1    0    0  501    0  0.00000000000E+00 -0.00000000000E+00 -0.26833124755E+04  0.26833124755E+04  0.25500000000E-02 0.  1.
   -5000001    1    1    2    0    0  0.11531354206E+03  0.16636017423E+03 -0.19928476545E+04  0.20186417945E+04  0.25000000000E+03 0.  0.
    5000001    1    1    2    0    0 -0.11531354206E+03 -0.16636017423E+03 -0.63938967940E+03  0.71574582268E+03  0.25000000000E+03 0.  0.
<mgrwt>
<rscale>  0 0.74040682E+03</rscale>
<asrwt>0</asrwt>
<pdfrwt beam="1">  1        2 0.41281719E+00 0.74040682E+03</pdfrwt>
<pdfrwt beam="2">  1       -2 0.78577162E-02 0.74040682E+03</pdfrwt>
<totfact> 0.28748190E+02</totfact>
</mgrwt>
</event>
<event>
 4    1  0.1804641E-005  0.6404279E+03  0.7818608E-02  0.9824908E-01
         -2   -1    0    0    0  501 -0.00000000000E+00  0.00000000000E+00  0.85800748660E+03  0.85800748660E+03  0.25500000000E-02 0. -1.
          2   -1    0    0  501    0  0.00000000000E+00 -0.00000000000E+00 -0.11950593281E+03  0.11950593284E+03  0.25500000000E-02 0.  1.
   -5000001    1    1    2    0    0  0.13575775527E+03 -0.14677303765E+03  0.38150840941E+03  0.49801722776E+03  0.25000000000E+03 0.  0.
    5000001    1    1    2    0    0 -0.13575775527E+03  0.14677303765E+03  0.35699314438E+03  0.47949619167E+03  0.25000000000E+03 0.  0.
<mgrwt>
<rscale>  0 0.64042794E+03</rscale>
<asrwt>0</asrwt>
<pdfrwt beam="1">  1        2 0.18385528E-01 0.64042794E+03</pdfrwt>
<pdfrwt beam="2">  1       -2 0.13200115E+00 0.64042794E+03</pdfrwt>
<totfact> 0.13292953E+02</totfact>
</mgrwt>
</event>
<event>
 4    1  0.1804641E-005  0.5172171E+03  0.7818608E-02  0.1009380E+00
          2   -1    0    0  501    0  0.00000000000E+00  0.00000000000E+00  0.16586223864E+03  0.16586223866E+03  0.25500000000E-02 0.  1.
         -2   -1    0    0    0  501 -0.00000000000E+00 -0.00000000000E+00 -0.40321639895E+03  0.40321639896E+03  0.25500000000E-02 0. -1.
   -5000001    1    1    2    0    0 -0.11595133451E+02 -0.62949185346E+02 -0.10022244105E+03  0.27684216577E+03  0.25000000000E+03 0.  0.
    5000001    1    1    2    0    0  0.11595133451E+02  0.62949185346E+02 -0.13713171925E+03  0.29223647185E+03  0.25000000000E+03 0.  0.
<mgrwt>
<rscale>  0 0.51721707E+03</rscale>
<asrwt>0</asrwt>
<pdfrwt beam="1">  1        2 0.25517268E-01 0.51721707E+03</pdfrwt>
<pdfrwt beam="2">  1       -2 0.62033292E-01 0.51721707E+03</pdfrwt>
<totfact> 0.52071470E+02</totfact>
</mgrwt>
</event>
<event>
 4    1  0.1804641E-005  0.8880256E+03  0.7818608E-02  0.9440675E-01
         -2   -1    0    0    0  501 -0.00000000000E+00  0.00000000000E+00  0.10993275704E+04  0.10993275704E+04  0.25500000000E-02 0. -1.
          2   -1    0    0  501    0  0.00000000000E+00 -0.00000000000E+00 -0.17933452516E+03  0.17933452518E+03  0.25500000000E-02 0.  1.
   -5000001    1    1    2    0    0 -0.31992467144E+03 -0.17913473758E+03  0.48067983735E+03  0.65421262265E+03  0.25000000000E+03 0.  0.
    5000001    1    1    2    0    0  0.31992467144E+03  0.17913473758E+03  0.43931320785E+03  0.62444947289E+03  0.25000000000E+03 0.  0.
<mgrwt>
<rscale>  0 0.88802565E+03</rscale>
<asrwt>0</asrwt>
<pdfrwt beam="1">  1        2 0.27589927E-01 0.88802565E+03</pdfrwt>
<pdfrwt beam="2">  1       -2 0.16912732E+00 0.88802565E+03</pdfrwt>
<totfact> 0.42525849E+01</totfact>
</mgrwt>
</event>
<event>
 4    1  0.1804641E-005  0.7653013E+03  0.7818608E-02  0.9611646E-01
          2   -1    0    0  501    0  0.00000000000E+00  0.00000000000E+00  0.15523670787E+04  0.15523670787E+04  0.25500000000E-02 0.  1.
         -2   -1    0    0    0  501 -0.00000000000E+00 -0.00000000000E+00 -0.94321459653E+02  0.94321459687E+02  0.25500000000E-02 0. -1.
   -5000001    1    1    2    0    0  0.10135085214E+03  0.21315627287E+03  0.36760392272E+03  0.50332915263E+03  0.25000000000E+03 0.  0.
    5000001    1    1    2    0    0 -0.10135085214E+03 -0.21315627287E+03  0.10904416963E+04  0.11433593857E+04  0.25000000000E+03 0.  0.
<mgrwt>
<rscale>  0 0.76530132E+03</rscale>
<asrwt>0</asrwt>
<pdfrwt beam="1">  1        2 0.23882569E+00 0.76530132E+03</pdfrwt>
<pdfrwt beam="2">  1       -2 0.14510995E-01 0.76530132E+03</pdfrwt>
<totfact> 0.44497503E+02</totfact>
</mgrwt>
</event>
<event>
 4    1  0.1804641E-005  0.7210014E+03  0.7818608E-02  0.9681976E-01
         -2   -1    0    0    0  501 -0.00000000000E+00  0.00000000000E+00  0.15549236490E+03  0.15549236492E+03  0.25500000000E-02 0. -1.
          2   -1    0    0  501    0  0.00000000000E+00 -0.00000000000E+00 -0.83580142391E+03  0.83580142392E+03  0.25500000000E-02 0.  1.
   -5000001    1    1    2    0    0  0.22712833813E+03  0.11633230053E+03 -0.40666618972E+03  0.54129278213E+03  0.25000000000E+03 0.  0.
    5000001    1    1    2    0    0 -0.22712833813E+03 -0.11633230053E+03 -0.27364286929E+03  0.45000100671E+03  0.25000000000E+03 0.  0.
<mgrwt>
<rscale>  0 0.72100136E+03</rscale>
<asrwt>0</asrwt>
<pdfrwt beam="1">  1        2 0.12858483E+00 0.72100136E+03</pdfrwt>
<pdfrwt beam="2">  1       -2 0.23921903E-01 0.72100136E+03</pdfrwt>
<totfact> 0.50700948E+02</totfact>
</mgrwt>
</event>
<event>
 4    1  0.1804641E-005  0.6904110E+03  0.7818608E-02  0.9733773E-01
          2   -1    0    0  501    0  0.00000000000E+00  0.00000000000E+00  0.36097152096E+03  0.36097152097E+03  0.25500000000E-02 0. -1.
         -2   -1    0    0    0  501 -0.00000000000E+00 -0.00000000000E+00 -0.33012804492E+03  0.33012804493E+03  0.25500000000E-02 0.  1.
   -5000001    1    1    2    0    0  0.16961122113E+03 -0.16531487367E+03  0.39317051147E+02  0.34661622048E+03  0.25000000000E+03 0.  0.
    5000001    1    1    2    0    0 -0.16961122113E+03  0.16531487367E+03 -0.84735751079E+01  0.34448334541E+03  0.25000000000E+03 0.  0.
<mgrwt>
<rscale>  0 0.69041096E+03</rscale>
<asrwt>0</asrwt>
<pdfrwt beam="1">  1        2 0.55534080E-01 0.69041096E+03</pdfrwt>
<pdfrwt beam="2">  1       -2 0.50788930E-01 0.69041096E+03</pdfrwt>
<totfact> 0.33020082E+02</totfact>
</mgrwt>
</event>
<event>
 4    1  0.1804641E-005  0.8520817E+03  0.7818608E-02  0.9487547E-01
         -2   -1    0    0    0  501 -0.00000000000E+00  0.00000000000E+00  0.60537515060E+02  0.60537515114E+02  0.25500000000E-02 0.  1.
          2   -1    0    0  501    0  0.00000000000E+00 -0.00000000000E+00 -0.29983196803E+04  0.29983196803E+04  0.25500000000E-02 0. -1.
   -5000001    1    1    2    0    0  0.43511745551E+02 -0.32325817100E+03 -0.10655829592E+04  0.11420841300E+04  0.25000000000E+03 0.  0.
    5000001    1    1    2    0    0 -0.43511745551E+02  0.32325817100E+03 -0.18721992060E+04  0.19167730654E+04  0.25000000000E+03 0.  0.
<mgrwt>
<rscale>  0 0.85208174E+03</rscale>
<asrwt>0</asrwt>
<pdfrwt beam="1">  1        2 0.46127984E+00 0.85208174E+03</pdfrwt>
<pdfrwt beam="2">  1       -2 0.93134662E-02 0.85208174E+03</pdfrwt>
<totfact> 0.14024923E+02</totfact>
</mgrwt>
</event>
<event>
 4    1  0.1804641E-005  0.6056654E+03  0.7818608E-02  0.9893721E-01
          2   -1    0    0  501    0  0.00000000000E+00  0.00000000000E+00  0.92858148762E+03  0.92858148762E+03  0.25500000000E-02 0.  1.
         -2   -1    0    0    0  501 -0.00000000000E+00 -0.00000000000E+00 -0.98761002701E+02  0.98761002734E+02  0.25500000000E-02 0. -1.
   -5000001    1    1    2    0    0 -0.16991540807E+03 -0.16561042348E+02  0.42827973758E+03  0.52447025430E+03  0.25000000000E+03 0.  0.
    5000001    1    1    2    0    0  0.16991540807E+03  0.16561042348E+02  0.40154074734E+03  0.50287223606E+03  0.25000000000E+03 0.  0.
<mgrwt>
<rscale>  0 0.60566538E+03</rscale>
<asrwt>0</asrwt>
<pdfrwt beam="1">  1        2 0.14285868E+00 0.60566538E+03</pdfrwt>
<pdfrwt beam="2">  1       -2 0.15194001E-01 0.60566538E+03</pdfrwt>
<totfact> 0.96833417E+02</totfact>
</mgrwt>
</event>
<event>
 4    1  0.1804641E-005  0.5771257E+03  0.7818608E-02  0.9954033E-01
          2   -1    0    0  501    0  0.00000000000E+00  0.00000000000E+00  0.47348196180E+03  0.47348196180E+03  0.25500000000E-02 0.  1.
         -2   -1    0    0    0  501 -0.00000000000E+00 -0.00000000000E+00 -0.17586415952E+03  0.17586415954E+03  0.25500000000E-02 0. -1.
   -5000001    1    1    2    0    0  0.13435119357E+03  0.32231822713E+02  0.10270055619E+03  0.30354001030E+03  0.25000000000E+03 0.  0.
    5000001    1    1    2    0    0 -0.13435119357E+03 -0.32231822713E+02  0.19491724609E+03  0.34580611104E+03  0.25000000000E+03 0.  0.
<mgrwt>
<rscale>  0 0.57712566E+03</rscale>
<asrwt>0</asrwt>
<pdfrwt beam="1">  1        2 0.72843378E-01 0.57712566E+03</pdfrwt>
<pdfrwt beam="2">  1       -2 0.27056025E-01 0.57712566E+03</pdfrwt>
<totfact> 0.81768613E+02</totfact>
</mgrwt>
</event>
<event>
 4    1  0.1804641E-005  0.8286820E+03  0.7818608E-02  0.9519405E-01
         -2   -1    0    0    0  501 -0.00000000000E+00  0.00000000000E+00  0.73495069416E+02  0.73495069460E+02  0.25500000000E-02 0. -1.
          2   -1    0    0  501    0  0.00000000000E+00 -0.00000000000E+00 -0.23359181235E+04  0.23359181235E+04  0.25500000000E-02 0.  1.
   -5000001    1    1    2    0    0  0.30001729199E+03  0.33293239133E+02 -0.15219426772E+04  0.15716005625E+04  0.25000000000E+03 0.  0.
    5000001    1    1    2    0    0 -0.30001729199E+03 -0.33293239133E+02 -0.74048037690E+03  0.83781263051E+03  0.25000000000E+03 0.  0.
<mgrwt>
<rscale>  0 0.82868200E+03</rscale>
<asrwt>0</asrwt>
<pdfrwt beam="1">  1        2 0.35937196E+00 0.82868200E+03</pdfrwt>
<pdfrwt beam="2">  1       -2 0.11306936E-01 0.82868200E+03</pdfrwt>
<totfact> 0.24906589E+02</totfact>
</mgrwt>
</event>
<event>
 4    1  0.1804641E-005  0.8602341E+03  0.7818608E-02  0.9476703E-01
         -2   -1    0    0    0  501 -0.00000000000E+00  0.00000000000E+00  0.86504991715E+02  0.86504991752E+02  0.25500000000E-02 0. -1.
          2   -1    0    0  501    0  0.00000000000E+00 -0.00000000000E+00 -0.21386126182E+04  0.21386126182E+04  0.25500000000E-02 0.  1.
   -5000001    1    1    2    0    0  0.20930219774E+02  0.25526041112E+03 -0.16430897459E+04  0.16816182280E+04  0.25000000000E+03 0.  0.
    5000001    1    1    2    0    0 -0.20930219774E+02 -0.25526041112E+03 -0.40901788064E+03  0.54349938203E+03  0.25000000000E+03 0.  0.
<mgrwt>
<rscale>  0 0.86023408E+03</rscale>
<asrwt>0</asrwt>
<pdfrwt beam="1">  1        2 0.32901729E+00 0.86023408E+03</pdfrwt>
<pdfrwt beam="2">  1       -2 0.13308462E-01 0.86023408E+03</pdfrwt>
<totfact> 0.24384507E+02</totfact>
</mgrwt>
</event>
<event>
 4    1  0.1804641E-005  0.6097907E+03  0.7818608E-02  0.9885299E-01
          2   -1    0    0  501    0  0.00000000000E+00  0.00000000000E+00  0.11097178929E+04  0.11097178929E+04  0.25500000000E-02 0.  1.
         -2   -1    0    0    0  501 -0.00000000000E+00 -0.00000000000E+00 -0.83770105799E+02  0.83770105838E+02  0.25500000000E-02 0. -1.
   -5000001    1    1    2    0    0 -0.15434498570E+03  0.64768120785E+02  0.60973015060E+03  0.67991774549E+03  0.25000000000E+03 0.  0.
    5000001    1    1    2    0    0  0.15434498570E+03 -0.64768120785E+02  0.41621763646E+03  0.51357025321E+03  0.25000000000E+03 0.  0.
<mgrwt>
<rscale>  0 0.60979074E+03</rscale>
<asrwt>0</asrwt>
<pdfrwt beam="1">  1        2 0.17072582E+00 0.60979074E+03</pdfrwt>
<pdfrwt beam="2">  1       -2 0.12887709E-01 0.60979074E+03</pdfrwt>
<totfact> 0.98099349E+02</totfact>
</mgrwt>
</event>
<event>
 4    1  0.1804641E-005  0.8537440E+03  0.7818608E-02  0.9485326E-01
          2   -1    0    0  501    0  0.00000000000E+00  0.00000000000E+00  0.22639966622E+03  0.22639966623E+03  0.25500000000E-02 0.  1.
         -2   -1    0    0    0  501 -0.00000000000E+00 -0.00000000000E+00 -0.80485854429E+03  0.80485854430E+03  0.25500000000E-02 0. -1.
   -5000001    1    1    2    0    0 -0.60063284170E+02  0.32604449201E+03 -0.16960773450E+03  0.44853025815E+03  0.25000000000E+03 0.  0.
    5000001    1    1    2    0    0  0.60063284170E+02 -0.32604449201E+03 -0.40885114358E+03  0.58272795238E+03  0.25000000000E+03 0.  0.
<mgrwt>
<rscale>  0 0.85374400E+03</rscale>
<asrwt>0</asrwt>
<pdfrwt beam="1">  1        2 0.34830718E-01 0.85374400E+03</pdfrwt>
<pdfrwt beam="2">  1       -2 0.12382439E+00 0.85374400E+03</pdfrwt>
<totfact> 0.74208021E+01</totfact>
</mgrwt>
</event>
<event>
 4    1  0.1804641E-005  0.2500142E+04  0.7818608E-02  0.8402935E-01
          2   -1    0    0  501    0  0.00000000000E+00  0.00000000000E+00  0.24299390304E+04  0.24299390304E+04  0.25500000000E-02 0.  1.
         -2   -1    0    0    0  501 -0.00000000000E+00 -0.00000000000E+00 -0.64309334232E+03  0.64309334232E+03  0.25500000000E-02 0. -1.
   -5000001    1    1    2    0    0  0.80448474781E+03  0.40138249148E+03  0.19158113288E+04  0.21309942894E+04  0.25000000000E+03 0.  0.
    5000001    1    1    2    0    0 -0.80448474781E+03 -0.40138249148E+03 -0.12896564072E+03  0.94203808331E+03  0.25000000000E+03 0.  0.
<mgrwt>
<rscale>  0 0.25001421E+04</rscale>
<asrwt>0</asrwt>
<pdfrwt beam="1">  1        2 0.37383678E+00 0.25001421E+04</pdfrwt>
<pdfrwt beam="2">  1       -2 0.98937435E-01 0.25001421E+04</pdfrwt>
<totfact> 0.28865668E+00</totfact>
</mgrwt>
</event>
<event>
 4    1  0.1804641E-005  0.7279103E+03  0.7818608E-02  0.9670657E-01
         -2   -1    0    0    0  501 -0.00000000000E+00  0.00000000000E+00  0.18138029554E+03  0.18138029556E+03  0.25500000000E-02 0. -1.
          2   -1    0    0  501    0  0.00000000000E+00 -0.00000000000E+00 -0.73030736461E+03  0.73030736461E+03  0.25500000000E-02 0.  1.
   -5000001    1    1    2    0    0  0.22774324468E+03  0.86454019014E+02 -0.40354771689E+03  0.53356540621E+03  0.25000000000E+03 0.  0.
    5000001    1    1    2    0    0 -0.22774324468E+03 -0.86454019014E+02 -0.14537935218E+03  0.37812225396E+03  0.25000000000E+03 0.  0.
<mgrwt>
<rscale>  0 0.72791034E+03</rscale>
<asrwt>0</asrwt>
<pdfrwt beam="1">  1        2 0.11235498E+00 0.72791034E+03</pdfrwt>
<pdfrwt beam="2">  1       -2 0.27904661E-01 0.72791034E+03</pdfrwt>
<totfact> 0.45771975E+02</totfact>
</mgrwt>
</event>
<event>
 4    1  0.1804641E-005  0.5861707E+03  0.7818608E-02  0.9934520E-01
          2   -1    0    0  501    0  0.00000000000E+00  0.00000000000E+00  0.31738398567E+04  0.31738398567E+04  0.25500000000E-02 0.  1.
         -2   -1    0    0    0  501 -0.00000000000E+00 -0.00000000000E+00 -0.27064697844E+02  0.27064697965E+02  0.25500000000E-02 0. -1.
   -5000001    1    1    2    0    0  0.27978705210E+02 -0.15033442399E+03  0.15517023670E+04  0.15791337760E+04  0.25000000000E+03 0.  0.
    5000001    1    1    2    0    0 -0.27978705210E+02  0.15033442399E+03  0.15950727919E+04  0.16217707787E+04  0.25000000000E+03 0.  0.
<mgrwt>
<rscale>  0 0.58617068E+03</rscale>
<asrwt>0</asrwt>
<pdfrwt beam="1">  1        2 0.48828312E+00 0.58617068E+03</pdfrwt>
<pdfrwt beam="2">  1       -2 0.41637991E-02 0.58617068E+03</pdfrwt>
<totfact> 0.40023072E+02</totfact>
</mgrwt>
</event>
<event>
 4    1  0.1804641E-005  0.6335742E+03  0.7818608E-02  0.9838099E-01
         -2   -1    0    0    0  501 -0.00000000000E+00  0.00000000000E+00  0.10717818723E+03  0.10717818726E+03  0.25500000000E-02 0. -1.
          2   -1    0    0  501    0  0.00000000000E+00 -0.00000000000E+00 -0.93632929677E+03  0.93632929677E+03  0.25500000000E-02 0.  1.
   -5000001    1    1    2    0    0  0.12082083460E+03 -0.15217191264E+03 -0.43105491385E+03  0.53484792589E+03  0.25000000000E+03 0.  0.
    5000001    1    1    2    0    0 -0.12082083460E+03  0.15217191264E+03 -0.39809619569E+03  0.50865955814E+03  0.25000000000E+03 0.  0.
<mgrwt>
<rscale>  0 0.63357423E+03</rscale>
<asrwt>0</asrwt>
<pdfrwt beam="1">  1        2 0.14405066E+00 0.63357423E+03</pdfrwt>
<pdfrwt beam="2">  1       -2 0.16488953E-01 0.63357423E+03</pdfrwt>
<totfact> 0.83248820E+02</totfact>
</mgrwt>
</event>
<event>
 4    1  0.1804641E-005  0.5954724E+03  0.7818608E-02  0.9914844E-01
         -2   -1    0    0    0  501 -0.00000000000E+00  0.00000000000E+00  0.26602518291E+03  0.26602518293E+03  0.25500000000E-02 0. -1.
          2   -1    0    0  501    0  0.00000000000E+00 -0.00000000000E+00 -0.33322729541E+03  0.33322729542E+03  0.25500000000E-02 0.  1.
   -5000001    1    1    2    0    0  0.13141054962E+03  0.94066754697E+02 -0.28129138683E+02  0.29901260063E+03  0.25000000000E+03 0.  0.
    5000001    1    1    2    0    0 -0.13141054962E+03 -0.94066754697E+02 -0.39072973816E+02  0.30023987772E+03  0.25000000000E+03 0.  0.
<mgrwt>
<rscale>  0 0.59547242E+03</rscale>
<asrwt>0</asrwt>
<pdfrwt beam="1">  1        2 0.51265738E-01 0.59547242E+03</pdfrwt>
<pdfrwt beam="2">  1       -2 0.40926951E-01 0.59547242E+03</pdfrwt>
<totfact> 0.55622320E+02</totfact>
</mgrwt>
</event>
<event>
 4    1  0.1804641E-005  0.7185427E+03  0.7818608E-02  0.9686037E-01
         -2   -1    0    0    0  501 -0.00000000000E+00  0.00000000000E+00  0.97509646168E+02  0.97509646201E+02  0.25500000000E-02 0. -1.
          2   -1    0    0  501    0  0.00000000000E+00 -0.00000000000E+00 -0.13237243120E+04  0.13237243120E+04  0.25500000000E-02 0.  1.
   -5000001    1    1    2    0    0  0.17717356579E+03 -0.11672330271E+03 -0.90354192944E+03  0.96119863716E+03  0.25000000000E+03 0.  0.
    5000001    1    1    2    0    0 -0.17717356579E+03  0.11672330271E+03 -0.32267273642E+03  0.46003532108E+03  0.25000000000E+03 0.  0.
<mgrwt>
<rscale>  0 0.71854266E+03</rscale>
<asrwt>0</asrwt>
<pdfrwt beam="1">  1        2 0.20364988E+00 0.71854266E+03</pdfrwt>
<pdfrwt beam="2">  1       -2 0.15001485E-01 0.71854266E+03</pdfrwt>
<totfact> 0.56699237E+02</totfact>
</mgrwt>
</event>
<event>
 4    1  0.1804641E-005  0.8149296E+03  0.7818608E-02  0.9538655E-01
          2   -1    0    0  501    0  0.00000000000E+00  0.00000000000E+00  0.13156977754E+04  0.13156977754E+04  0.25500000000E-02 0.  1.
         -2   -1    0    0    0  501 -0.00000000000E+00 -0.00000000000E+00 -0.12618972930E+03  0.12618972933E+03  0.25500000000E-02 0. -1.
   -5000001    1    1    2    0    0 -0.30687432507E+03  0.89349916382E+02  0.66029815454E+03  0.77501542683E+03  0.25000000000E+03 0.  0.
    5000001    1    1    2    0    0  0.30687432507E+03 -0.89349916382E+02  0.52920989151E+03  0.66687207785E+03  0.25000000000E+03 0.  0.
<mgrwt>
<rscale>  0 0.81492956E+03</rscale>
<asrwt>0</asrwt>
<pdfrwt beam="1">  1        2 0.20241503E+00 0.81492956E+03</pdfrwt>
<pdfrwt beam="2">  1       -2 0.19413805E-01 0.81492956E+03</pdfrwt>
<totfact> 0.36628021E+02</totfact>
</mgrwt>
</event>
<event>
 4    1  0.1804641E-005  0.7674142E+03  0.7818608E-02  0.9608419E-01
          2   -1    0    0  501    0  0.00000000000E+00  0.00000000000E+00  0.20400161741E+03  0.20400161742E+03  0.25500000000E-02 0.  1.
         -2   -1    0    0    0  501 -0.00000000000E+00 -0.00000000000E+00 -0.72171556598E+03  0.72171556598E+03  0.25500000000E-02 0. -1.
   -5000001    1    1    2    0    0 -0.24393684613E+03  0.95542277905E+02 -0.41190561338E+03  0.54845213657E+03  0.25000000000E+03 0.  0.
    5000001    1    1    2    0    0  0.24393684613E+03 -0.95542277905E+02 -0.10580833519E+03  0.37726504684E+03  0.25000000000E+03 0.  0.
<mgrwt>
<rscale>  0 0.76741421E+03</rscale>
<asrwt>0</asrwt>
<pdfrwt beam="1">  1        2 0.31384865E-01 0.76741421E+03</pdfrwt>
<pdfrwt beam="2">  1       -2 0.11103316E+00 0.76741421E+03</pdfrwt>
<totfact> 0.10953557E+02</totfact>
</mgrwt>
</event>
<event>
 4    1  0.1804641E-005  0.9464386E+03  0.7818608E-02  0.9369323E-01
          2   -1    0    0  501    0  0.00000000000E+00  0.00000000000E+00  0.16290634234E+04  0.16290634234E+04  0.25500000000E-02 0.  1.
         -2   -1    0    0    0  501 -0.00000000000E+00 -0.00000000000E+00 -0.13746333184E+03  0.13746333187E+03  0.25500000000E-02 0. -1.
   -5000001    1    1    2    0    0 -0.37483743989E+03 -0.10722732074E+03  0.56449310629E+03  0.73017345316E+03  0.25000000000E+03 0.  0.
    5000001    1    1    2    0    0  0.37483743989E+03  0.10722732074E+03  0.92710698529E+03  0.10363533021E+04  0.25000000000E+03 0.  0.
<mgrwt>
<rscale>  0 0.94643856E+03</rscale>
<asrwt>0</asrwt>
<pdfrwt beam="1">  1        2 0.25062514E+00 0.94643856E+03</pdfrwt>
<pdfrwt beam="2">  1       -2 0.21148205E-01 0.94643856E+03</pdfrwt>
<totfact> 0.20833138E+02</totfact>
</mgrwt>
</event>
<event>
 4    1  0.1804641E-005  0.8423171E+03  0.7818608E-02  0.9500707E-01
          2   -1    0    0  501    0  0.00000000000E+00  0.00000000000E+00  0.12604760146E+04  0.12604760146E+04  0.25500000000E-02 0.  1.
         -2   -1    0    0    0  501 -0.00000000000E+00 -0.00000000000E+00 -0.14072027969E+03  0.14072027971E+03  0.25500000000E-02 0. -1.
   -5000001    1    1    2    0    0 -0.24867143466E+03  0.14017062263E+03  0.25591069185E+03  0.45768500966E+03  0.25000000000E+03 0.  0.
    5000001    1    1    2    0    0  0.24867143466E+03 -0.14017062263E+03  0.86384504311E+03  0.94351128470E+03  0.25000000000E+03 0.  0.
<mgrwt>
<rscale>  0 0.84231713E+03</rscale>
<asrwt>0</asrwt>
<pdfrwt beam="1">  1        2 0.19391939E+00 0.84231713E+03</pdfrwt>
<pdfrwt beam="2">  1       -2 0.21649274E-01 0.84231713E+03</pdfrwt>
<totfact> 0.32508013E+02</totfact>
</mgrwt>
</event>
<event>
 4    1  0.1804641E-005  0.8893832E+03  0.7818608E-02  0.9438951E-01
         -2   -1    0    0    0  501 -0.00000000000E+00  0.00000000000E+00  0.18418457316E+03  0.18418457318E+03  0.25500000000E-02 0. -1.
          2   -1    0    0  501    0  0.00000000000E+00 -0.00000000000E+00 -0.10736545060E+04  0.10736545060E+04  0.25500000000E-02 0.  1.
   -5000001    1    1    2    0    0  0.36812177275E+02  0.34270128518E+03 -0.26333543499E+03  0.50064444327E+03  0.25000000000E+03 0.  0.
    5000001    1    1    2    0    0 -0.36812177275E+02 -0.34270128518E+03 -0.62613449784E+03  0.75719463591E+03  0.25000000000E+03 0.  0.
<mgrwt>
<rscale>  0 0.88938315E+03</rscale>
<asrwt>0</asrwt>
<pdfrwt beam="1">  1        2 0.16517761E+00 0.88938315E+03</pdfrwt>
<pdfrwt beam="2">  1       -2 0.28336089E-01 0.88938315E+03</pdfrwt>
<totfact> 0.25831713E+02</totfact>
</mgrwt>
</event>
<event>
 4    1  0.1804641E-005  0.6754172E+03  0.7818608E-02  0.9760221E-01
          2   -1    0    0  501    0  0.00000000000E+00  0.00000000000E+00  0.18592112994E+04  0.18592112994E+04  0.25500000000E-02 0.  1.
         -2   -1    0    0    0  501 -0.00000000000E+00 -0.00000000000E+00 -0.61341649742E+02  0.61341649795E+02  0.25500000000E-02 0. -1.
   -5000001    1    1    2    0    0  0.72037295638E+02 -0.20389639882E+03  0.10956095887E+04  0.11443878207E+04  0.25000000000E+03 0.  0.
    5000001    1    1    2    0    0 -0.72037295638E+02  0.20389639882E+03  0.70226006100E+03  0.77616512849E+03  0.25000000000E+03 0.  0.
<mgrwt>
<rscale>  0 0.67541717E+03</rscale>
<asrwt>0</asrwt>
<pdfrwt beam="1">  1        2 0.28603245E+00 0.67541717E+03</pdfrwt>
<pdfrwt beam="2">  1       -2 0.94371786E-02 0.67541717E+03</pdfrwt>
<totfact> 0.61830919E+02</totfact>
</mgrwt>
</event>
<event>
 4    1  0.1804641E-005  0.7466893E+03  0.7818608E-02  0.9640559E-01
         -2   -1    0    0    0  501 -0.00000000000E+00  0.00000000000E+00  0.20085429141E+03  0.20085429143E+03  0.25500000000E-02 0. -1.
          2   -1    0    0  501    0  0.00000000000E+00 -0.00000000000E+00 -0.69396693181E+03  0.69396693181E+03  0.25500000000E-02 0.  1.
   -5000001    1    1    2    0    0 -0.76208740745E+02 -0.25492183978E+03 -0.34010191067E+03  0.49896114699E+03  0.25000000000E+03 0.  0.
    5000001    1    1    2    0    0  0.76208740745E+02  0.25492183978E+03 -0.15301072973E+03  0.39586007626E+03  0.25000000000E+03 0.  0.
<mgrwt>
<rscale>  0 0.74668932E+03</rscale>
<asrwt>0</asrwt>
<pdfrwt beam="1">  1        2 0.10676414E+00 0.74668932E+03</pdfrwt>
<pdfrwt beam="2">  1       -2 0.30900661E-01 0.74668932E+03</pdfrwt>
<totfact> 0.40415236E+02</totfact>
</mgrwt>
</event>
<event>
 4    1  0.1804641E-005  0.8295407E+03  0.7818608E-02  0.9518216E-01
         -2   -1    0    0    0  501 -0.00000000000E+00  0.00000000000E+00  0.12853795860E+03  0.12853795863E+03  0.25500000000E-02 0.  1.
          2   -1    0    0  501    0  0.00000000000E+00 -0.00000000000E+00 -0.13383941961E+04  0.13383941961E+04  0.25500000000E-02 0. -1.
   -5000001    1    1    2    0    0  0.78462633773E+02 -0.32149881340E+03 -0.59772631085E+03  0.72752636694E+03  0.25000000000E+03 0.  0.
    5000001    1    1    2    0    0 -0.78462633773E+02  0.32149881340E+03 -0.61212992669E+03  0.73940578782E+03  0.25000000000E+03 0.  0.
<mgrwt>
<rscale>  0 0.82954074E+03</rscale>
<asrwt>0</asrwt>
<pdfrwt beam="1">  1        2 0.20590679E+00 0.82954074E+03</pdfrwt>
<pdfrwt beam="2">  1       -2 0.19775071E-01 0.82954074E+03</pdfrwt>
<totfact> 0.34389597E+02</totfact>
</mgrwt>
</event>
<event>
 4    1  0.1804641E-005  0.6003905E+03  0.7818608E-02  0.9904596E-01
          2   -1    0    0  501    0  0.00000000000E+00  0.00000000000E+00  0.53722293362E+03  0.53722293362E+03  0.25500000000E-02 0.  1.
         -2   -1    0    0    0  501 -0.00000000000E+00 -0.00000000000E+00 -0.16774637611E+03  0.16774637613E+03  0.25500000000E-02 0. -1.
   -5000001    1    1    2    0    0 -0.53281824242E+02  0.11960301590E+03  0.30490369956E+03  0.41546371708E+03  0.25000000000E+03 0.  0.
    5000001    1    1    2    0    0  0.53281824242E+02 -0.11960301590E+03  0.64572857948E+02  0.28950559268E+03  0.25000000000E+03 0.  0.
<mgrwt>
<rscale>  0 0.60039054E+03</rscale>
<asrwt>0</asrwt>
<pdfrwt beam="1">  1        2 0.82649682E-01 0.60039054E+03</pdfrwt>
<pdfrwt beam="2">  1       -2 0.25807135E-01 0.60039054E+03</pdfrwt>
<totfact> 0.76963646E+02</totfact>
</mgrwt>
</event>
<event>
 4    1  0.1804641E-005  0.9438188E+03  0.7818608E-02  0.9372405E-01
          2   -1    0    0  501    0  0.00000000000E+00  0.00000000000E+00  0.63452123388E+03  0.63452123389E+03  0.25500000000E-02 0.  1.
         -2   -1    0    0    0  501 -0.00000000000E+00 -0.00000000000E+00 -0.35097086422E+03  0.35097086423E+03  0.25500000000E-02 0. -1.
   -5000001    1    1    2    0    0 -0.35821364308E+03  0.14660980968E+03  0.24819191906E+03  0.52336476674E+03  0.25000000000E+03 0.  0.
    5000001    1    1    2    0    0  0.35821364308E+03 -0.14660980968E+03  0.35358450608E+02  0.46212733138E+03  0.25000000000E+03 0.  0.
<mgrwt>
<rscale>  0 0.94381877E+03</rscale>
<asrwt>0</asrwt>
<pdfrwt beam="1">  1        2 0.97618651E-01 0.94381877E+03</pdfrwt>
<pdfrwt beam="2">  1       -2 0.53995518E-01 0.94381877E+03</pdfrwt>
<totfact> 0.14986674E+02</totfact>
</mgrwt>
</event>
<event>
 4    1  0.1804641E-005  0.5741925E+03  0.7818608E-02  0.9960444E-01
         -2   -1    0    0    0  501 -0.00000000000E+00  0.00000000000E+00  0.60088087495E+02  0.60088087549E+02  0.25500000000E-02 0. -1.
          2   -1    0    0  501    0  0.00000000000E+00 -0.00000000000E+00 -0.13717239849E+04  0.13717239849E+04  0.25500000000E-02 0.  1.
   -5000001    1    1    2    0    0 -0.63303590787E+02  0.30317176621E+02 -0.96119906238E+03  0.99565561984E+03  0.25000000000E+03 0.  0.
    5000001    1    1    2    0    0  0.63303590787E+02 -0.30317176621E+02 -0.35043683499E+03  0.43615645258E+03  0.25000000000E+03 0.  0.
<mgrwt>
<rscale>  0 0.57419255E+03</rscale>
<asrwt>0</asrwt>
<pdfrwt beam="1">  1        2 0.21103444E+00 0.57419255E+03</pdfrwt>
<pdfrwt beam="2">  1       -2 0.92443222E-02 0.57419255E+03</pdfrwt>
<totfact> 0.11900451E+03</totfact>
</mgrwt>
</event>
<event>
 4    1  0.1804641E-005  0.6143869E+03  0.7818608E-02  0.9875999E-01
         -2   -1    0    0    0  501 -0.00000000000E+00  0.00000000000E+00  0.36924902553E+03  0.36924902554E+03  0.25500000000E-02 0. -1.
          2   -1    0    0  501    0  0.00000000000E+00 -0.00000000000E+00 -0.25556685630E+03  0.25556685632E+03  0.25500000000E-02 0.  1.
   -5000001    1    1    2    0    0  0.98637029354E+02 -0.14083153793E+03  0.10566674549E+03  0.32129152920E+03  0.25000000000E+03 0.  0.
    5000001    1    1    2    0    0 -0.98637029354E+02  0.14083153793E+03  0.80154237367E+01  0.30352435265E+03  0.25000000000E+03 0.  0.
<mgrwt>
<rscale>  0 0.61438689E+03</rscale>
<asrwt>0</asrwt>
<pdfrwt beam="1">  1        2 0.39317978E-01 0.61438689E+03</pdfrwt>
<pdfrwt beam="2">  1       -2 0.56807542E-01 0.61438689E+03</pdfrwt>
<totfact> 0.38521882E+02</totfact>
</mgrwt>
</event>
<event>
 4    1  0.1804641E-005  0.9714771E+03  0.7818608E-02  0.9340394E-01
          2   -1    0    0  501    0  0.00000000000E+00  0.00000000000E+00  0.10520239384E+04  0.10520239384E+04  0.25500000000E-02 0.  1.
         -2   -1    0    0    0  501 -0.00000000000E+00 -0.00000000000E+00 -0.22427430951E+03  0.22427430953E+03  0.25500000000E-02 0. -1.
   -5000001    1    1    2    0    0 -0.22747736332E+03  0.25025339135E+02 -0.43252716939E+02  0.34167677115E+03  0.25000000000E+03 0.  0.
    5000001    1    1    2    0    0  0.22747736332E+03 -0.25025339135E+02  0.87100234587E+03  0.93462147682E+03  0.25000000000E+03 0.  0.
<mgrwt>
<rscale>  0 0.97147711E+03</rscale>
<asrwt>0</asrwt>
<pdfrwt beam="1">  1        2 0.16184984E+00 0.97147711E+03</pdfrwt>
<pdfrwt beam="2">  1       -2 0.34503740E-01 0.97147711E+03</pdfrwt>
<totfact> 0.18346802E+02</totfact>
</mgrwt>
</event>
<event>
 4    1  0.1804641E-005  0.6267303E+03  0.7818608E-02  0.9851450E-01
         -2   -1    0    0    0  501 -0.00000000000E+00  0.00000000000E+00  0.35077442361E+02  0.35077442453E+02  0.25500000000E-02 0. -1.
          2   -1    0    0  501    0  0.00000000000E+00 -0.00000000000E+00 -0.27994552823E+04  0.27994552823E+04  0.25500000000E-02 0.  1.
   -5000001    1    1    2    0    0  0.12330954448E+03  0.14286841173E+03 -0.13414580657E+04  0.13775435996E+04  0.25000000000E+03 0.  0.
    5000001    1    1    2    0    0 -0.12330954448E+03 -0.14286841173E+03 -0.14229197743E+04  0.14569891252E+04  0.25000000000E+03 0.  0.
<mgrwt>
<rscale>  0 0.62673035E+03</rscale>
<asrwt>0</asrwt>
<pdfrwt beam="1">  1        2 0.43068525E+00 0.62673035E+03</pdfrwt>
<pdfrwt beam="2">  1       -2 0.53965318E-02 0.62673035E+03</pdfrwt>
<totfact> 0.45006024E+02</totfact>
</mgrwt>
</event>
<event>
 4    1  0.1804641E-005  0.5952311E+03  0.7818608E-02  0.9915350E-01
         -2   -1    0    0    0  501 -0.00000000000E+00  0.00000000000E+00  0.52254367949E+02  0.52254368011E+02  0.25500000000E-02 0. -1.
          2   -1    0    0  501    0  0.00000000000E+00 -0.00000000000E+00 -0.16950741307E+04  0.16950741307E+04  0.25500000000E-02 0.  1.
   -5000001    1    1    2    0    0  0.53696764326E+02  0.12522227925E+03 -0.56699664874E+03  0.63446762046E+03  0.25000000000E+03 0.  0.
    5000001    1    1    2    0    0 -0.53696764326E+02 -0.12522227925E+03 -0.10758231140E+04  0.11128608783E+04  0.25000000000E+03 0.  0.
<mgrwt>
<rscale>  0 0.59523114E+03</rscale>
<asrwt>0</asrwt>
<pdfrwt beam="1">  1        2 0.26078059E+00 0.59523114E+03</pdfrwt>
<pdfrwt beam="2">  1       -2 0.80391348E-02 0.59523114E+03</pdfrwt>
<totfact> 0.98673990E+02</totfact>
</mgrwt>
</event>
<event>
 4    1  0.1804641E-005  0.6331761E+03  0.7818608E-02  0.9838870E-01
          2   -1    0    0  501    0  0.00000000000E+00  0.00000000000E+00  0.26933544507E+03  0.26933544508E+03  0.25500000000E-02 0.  1.
         -2   -1    0    0    0  501 -0.00000000000E+00 -0.00000000000E+00 -0.37213067166E+03  0.37213067167E+03  0.25500000000E-02 0. -1.
   -5000001    1    1    2    0    0  0.13997002130E+03  0.12177830819E+03 -0.10965192039E+03  0.33006833664E+03  0.25000000000E+03 0.  0.
    5000001    1    1    2    0    0 -0.13997002130E+03 -0.12177830819E+03  0.68566937920E+01  0.31139778011E+03  0.25000000000E+03 0.  0.
<mgrwt>
<rscale>  0 0.63317606E+03</rscale>
<asrwt>0</asrwt>
<pdfrwt beam="1">  1        2 0.41436222E-01 0.63317606E+03</pdfrwt>
<pdfrwt beam="2">  1       -2 0.57250873E-01 0.63317606E+03</pdfrwt>
<totfact> 0.35747953E+02</totfact>
</mgrwt>
</event>
<event>
 4    1  0.1804641E-005  0.9618123E+03  0.7818608E-02  0.9351449E-01
         -2   -1    0    0    0  501 -0.00000000000E+00  0.00000000000E+00  0.27960103000E+03  0.27960103001E+03  0.25500000000E-02 0. -1.
          2   -1    0    0  501    0  0.00000000000E+00 -0.00000000000E+00 -0.82714551198E+03  0.82714551199E+03  0.25500000000E-02 0.  1.
   -5000001    1    1    2    0    0 -0.29837944408E+03  0.28223601583E+03 -0.28427291901E+03  0.55856830716E+03  0.25000000000E+03 0.  0.
    5000001    1    1    2    0    0  0.29837944408E+03 -0.28223601583E+03 -0.26327156298E+03  0.54817823484E+03  0.25000000000E+03 0.  0.
<mgrwt>
<rscale>  0 0.96181232E+03</rscale>
<asrwt>0</asrwt>
<pdfrwt beam="1">  1        2 0.12725315E+00 0.96181232E+03</pdfrwt>
<pdfrwt beam="2">  1       -2 0.43015544E-01 0.96181232E+03</pdfrwt>
<totfact> 0.16872921E+02</totfact>
</mgrwt>
</event>
<event>
 4    1  0.1804641E-005  0.7927499E+03  0.7818608E-02  0.9570571E-01
          2   -1    0    0  501    0  0.00000000000E+00  0.00000000000E+00  0.65720000341E+03  0.65720000341E+03  0.25500000000E-02 0.  1.
         -2   -1    0    0    0  501 -0.00000000000E+00 -0.00000000000E+00 -0.23906435468E+03  0.23906435469E+03  0.25500000000E-02 0. -1.
   -5000001    1    1    2    0    0  0.17767950548E+03 -0.16162542213E+03 -0.81685840722E+01  0.34678452894E+03  0.25000000000E+03 0.  0.
    5000001    1    1    2    0    0 -0.17767950548E+03  0.16162542213E+03  0.42630423280E+03  0.54947982916E+03  0.25000000000E+03 0.  0.
<mgrwt>
<rscale>  0 0.79274988E+03</rscale>
<asrwt>0</asrwt>
<pdfrwt beam="1">  1        2 0.10110769E+00 0.79274988E+03</pdfrwt>
<pdfrwt beam="2">  1       -2 0.36779132E-01 0.79274988E+03</pdfrwt>
<totfact> 0.31059707E+02</totfact>
</mgrwt>
</event>
<event>
 4    1  0.1804641E-005  0.7672660E+03  0.7818608E-02  0.9608645E-01
         -2   -1    0    0    0  501 -0.00000000000E+00  0.00000000000E+00  0.91610879977E+02  0.91610880013E+02  0.25500000000E-02 0. -1.
          2   -1    0    0  501    0  0.00000000000E+00 -0.00000000000E+00 -0.16065154727E+04  0.16065154727E+04  0.25500000000E-02 0.  1.
   -5000001    1    1    2    0    0 -0.71787461069E+02 -0.27239506939E+03 -0.91890770368E+03  0.99309812268E+03  0.25000000000E+03 0.  0.
    5000001    1    1    2    0    0  0.71787461069E+02  0.27239506939E+03 -0.59599688905E+03  0.70502823004E+03  0.25000000000E+03 0.  0.
<mgrwt>
<rscale>  0 0.76726605E+03</rscale>
<asrwt>0</asrwt>
<pdfrwt beam="1">  1        2 0.24715621E+00 0.76726605E+03</pdfrwt>
<pdfrwt beam="2">  1       -2 0.14093983E-01 0.76726605E+03</pdfrwt>
<totfact> 0.43620362E+02</totfact>
</mgrwt>
</event>
<event>
 4    1  0.1804641E-005  0.5839449E+03  0.7818608E-02  0.9939287E-01
         -2   -1    0    0    0  501 -0.00000000000E+00  0.00000000000E+00  0.20986079028E+03  0.20986079029E+03  0.25500000000E-02 0. -1.
          2   -1    0    0  501    0  0.00000000000E+00 -0.00000000000E+00 -0.40621166369E+03  0.40621166370E+03  0.25500000000E-02 0.  1.
   -5000001    1    1    2    0    0 -0.11248108828E+02  0.14942658941E+03 -0.11623675640E+03  0.31379262119E+03  0.25000000000E+03 0.  0.
    5000001    1    1    2    0    0  0.11248108828E+02 -0.14942658941E+03 -0.80114117007E+02  0.30227983280E+03  0.25000000000E+03 0.  0.
<mgrwt>
<rscale>  0 0.58394486E+03</rscale>
<asrwt>0</asrwt>
<pdfrwt beam="1">  1        2 0.62494102E-01 0.58394486E+03</pdfrwt>
<pdfrwt beam="2">  1       -2 0.32286275E-01 0.58394486E+03</pdfrwt>
<totfact> 0.70186794E+02</totfact>
</mgrwt>
</event>
<event>
 4    1  0.1804641E-005  0.6261904E+03  0.7818608E-02  0.9852511E-01
          2   -1    0    0  501    0  0.00000000000E+00  0.00000000000E+00  0.24268887171E+03  0.24268887172E+03  0.25500000000E-02 0.  1.
         -2   -1    0    0    0  501 -0.00000000000E+00 -0.00000000000E+00 -0.40392707587E+03  0.40392707587E+03  0.25500000000E-02 0. -1.
   -5000001    1    1    2    0    0  0.92514506768E+02 -0.16388075054E+03 -0.69653296738E+02  0.32057357362E+03  0.25000000000E+03 0.  0.
    5000001    1    1    2    0    0 -0.92514506768E+02  0.16388075054E+03 -0.91584907420E+02  0.32604237397E+03  0.25000000000E+03 0.  0.
<mgrwt>
<rscale>  0 0.62619041E+03</rscale>
<asrwt>0</asrwt>
<pdfrwt beam="1">  1        2 0.37336750E-01 0.62619041E+03</pdfrwt>
<pdfrwt beam="2">  1       -2 0.62142627E-01 0.62619041E+03</pdfrwt>
<totfact> 0.33778257E+02</totfact>
</mgrwt>
</event>
<event>
 4    1  0.1804641E-005  0.8827000E+03  0.7818608E-02  0.9447469E-01
          2   -1    0    0  501    0  0.00000000000E+00  0.00000000000E+00  0.56710917770E+03  0.56710917770E+03  0.25500000000E-02 0. -1.
         -2   -1    0    0    0  501 -0.00000000000E+00 -0.00000000000E+00 -0.34347853609E+03  0.34347853610E+03  0.25500000000E-02 0.  1.
   -5000001    1    1    2    0    0 -0.34675003783E+03 -0.52904928526E+02  0.21105929226E+03  0.47966711900E+03  0.25000000000E+03 0.  0.
    5000001    1    1    2    0    0  0.34675003783E+03  0.52904928526E+02  0.12571349345E+02  0.43092059480E+03  0.25000000000E+03 0.  0.
<mgrwt>
<rscale>  0 0.88270002E+03</rscale>
<asrwt>0</asrwt>
<pdfrwt beam="1">  1        2 0.87247565E-01 0.88270002E+03</pdfrwt>
<pdfrwt beam="2">  1       -2 0.52842852E-01 0.88270002E+03</pdfrwt>
<totfact> 0.18006098E+02</totfact>
</mgrwt>
</event>
<event>
 4    1  0.1804641E-005  0.5339373E+03  0.7818608E-02  0.1005282E+00
         -2   -1    0    0    0  501 -0.00000000000E+00  0.00000000000E+00  0.44942530546E+03  0.44942530547E+03  0.25500000000E-02 0. -1.
          2   -1    0    0  501    0  0.00000000000E+00 -0.00000000000E+00 -0.15858534067E+03  0.15858534069E+03  0.25500000000E-02 0.  1.
   -5000001    1    1    2    0    0  0.28684971334E+02 -0.86378829190E+02  0.12026111478E+03  0.29197065853E+03  0.25000000000E+03 0.  0.
    5000001    1    1    2    0    0 -0.28684971334E+02  0.86378829190E+02  0.17057885001E+03  0.31603998763E+03  0.25000000000E+03 0.  0.
<mgrwt>
<rscale>  0 0.53393732E+03</rscale>
<asrwt>0</asrwt>
<pdfrwt beam="1">  1        2 0.24397745E-01 0.53393732E+03</pdfrwt>
<pdfrwt beam="2">  1       -2 0.69142353E-01 0.53393732E+03</pdfrwt>
<totfact> 0.43449456E+02</totfact>
</mgrwt>
</event>
<event>
 4    1  0.1804641E-005  0.5663144E+03  0.7818608E-02  0.9977868E-01
          2   -1    0    0  501    0  0.00000000000E+00  0.00000000000E+00  0.42993334096E+03  0.42993334097E+03  0.25500000000E-02 0.  1.
         -2   -1    0    0    0  501 -0.00000000000E+00 -0.00000000000E+00 -0.18648936305E+03  0.18648936307E+03  0.25500000000E-02 0. -1.
   -5000001    1    1    2    0    0  0.90768210651E+02  0.93296687087E+02  0.92215205381E+02  0.29655823035E+03  0.25000000000E+03 0.  0.
    5000001    1    1    2    0    0 -0.90768210651E+02 -0.93296687087E+02  0.15122877253E+03  0.31986447369E+03  0.25000000000E+03 0.  0.
<mgrwt>
<rscale>  0 0.56631438E+03</rscale>
<asrwt>0</asrwt>
<pdfrwt beam="1">  1        2 0.66143590E-01 0.56631438E+03</pdfrwt>
<pdfrwt beam="2">  1       -2 0.28690672E-01 0.56631438E+03</pdfrwt>
<totfact> 0.81962029E+02</totfact>
</mgrwt>
</event>
<event>
 4    1  0.1804641E-005  0.6922812E+03  0.7818608E-02  0.9730524E-01
         -2   -1    0    0    0  501 -0.00000000000E+00  0.00000000000E+00  0.92674813767E+02  0.92674813802E+02  0.25500000000E-02 0. -1.
          2   -1    0    0  501    0  0.00000000000E+00 -0.00000000000E+00 -0.12928357162E+04  0.12928357162E+04  0.25500000000E-02 0.  1.
   -5000001    1    1    2    0    0 -0.31022974708E+02 -0.22190895312E+03 -0.76880553482E+03  0.83890879052E+03  0.25000000000E+03 0.  0.
    5000001    1    1    2    0    0  0.31022974708E+02  0.22190895312E+03 -0.43135536758E+03  0.54660173946E+03  0.25000000000E+03 0.  0.
<mgrwt>
<rscale>  0 0.69228118E+03</rscale>
<asrwt>0</asrwt>
<pdfrwt beam="1">  1        2 0.19889779E+00 0.69228118E+03</pdfrwt>
<pdfrwt beam="2">  1       -2 0.14257665E-01 0.69228118E+03</pdfrwt>
<totfact> 0.64428444E+02</totfact>
</mgrwt>
</event>
<event>
 4    1  0.1804641E-005  0.8476275E+03  0.7818608E-02  0.9493527E-01
         -2   -1    0    0    0  501 -0.00000000000E+00  0.00000000000E+00  0.27299997197E+03  0.27299997199E+03  0.25500000000E-02 0. -1.
          2   -1    0    0  501    0  0.00000000000E+00 -0.00000000000E+00 -0.65794184563E+03  0.65794184563E+03  0.25500000000E-02 0.  1.
   -5000001    1    1    2    0    0  0.28440767039E+03 -0.83594876223E+02 -0.46590408697E+01  0.38781120790E+03  0.25000000000E+03 0.  0.
    5000001    1    1    2    0    0 -0.28440767039E+03  0.83594876223E+02 -0.38028283278E+03  0.54313060972E+03  0.25000000000E+03 0.  0.
<mgrwt>
<rscale>  0 0.84762753E+03</rscale>
<asrwt>0</asrwt>
<pdfrwt beam="1">  1        2 0.10122182E+00 0.84762753E+03</pdfrwt>
<pdfrwt beam="2">  1       -2 0.41999996E-01 0.84762753E+03</pdfrwt>
<totfact> 0.23904467E+02</totfact>
</mgrwt>
</event>
<event>
 4    1  0.1804641E-005  0.6548289E+03  0.7818608E-02  0.9797760E-01
         -2   -1    0    0    0  501 -0.00000000000E+00  0.00000000000E+00  0.12936193787E+03  0.12936193789E+03  0.25500000000E-02 0. -1.
          2   -1    0    0  501    0  0.00000000000E+00 -0.00000000000E+00 -0.82868435229E+03  0.82868435230E+03  0.25500000000E-02 0.  1.
   -5000001    1    1    2    0    0 -0.15018588616E+03  0.10401435540E+03 -0.19396215524E+03  0.36537118687E+03  0.25000000000E+03 0.  0.
    5000001    1    1    2    0    0  0.15018588616E+03 -0.10401435540E+03 -0.50536025918E+03  0.59267510332E+03  0.25000000000E+03 0.  0.
<mgrwt>
<rscale>  0 0.65482887E+03</rscale>
<asrwt>0</asrwt>
<pdfrwt beam="1">  1        2 0.12748990E+00 0.65482887E+03</pdfrwt>
<pdfrwt beam="2">  1       -2 0.19901837E-01 0.65482887E+03</pdfrwt>
<totfact> 0.71148163E+02</totfact>
</mgrwt>
</event>
<event>
 4    1  0.1804641E-005  0.8423297E+03  0.7818608E-02  0.9500690E-01
          2   -1    0    0  501    0  0.00000000000E+00  0.00000000000E+00  0.10293586322E+04  0.10293586322E+04  0.25500000000E-02 0.  1.
         -2   -1    0    0    0  501 -0.00000000000E+00 -0.00000000000E+00 -0.17232072478E+03  0.17232072479E+03  0.25500000000E-02 0. -1.
   -5000001    1    1    2    0    0  0.36751581459E+02 -0.29430784277E+03  0.19448449467E+03  0.43392626530E+03  0.25000000000E+03 0.  0.
    5000001    1    1    2    0    0 -0.36751581459E+02  0.29430784277E+03  0.66255341278E+03  0.76775309172E+03  0.25000000000E+03 0.  0.
<mgrwt>
<rscale>  0 0.84232969E+03</rscale>
<asrwt>0</asrwt>
<pdfrwt beam="1">  1        2 0.15836287E+00 0.84232969E+03</pdfrwt>
<pdfrwt beam="2">  1       -2 0.26510880E-01 0.84232969E+03</pdfrwt>
<totfact> 0.31181909E+02</totfact>
</mgrwt>
</event>
<event>
 4    1  0.1804641E-005  0.6554239E+03  0.7818608E-02  0.9796655E-01
          2   -1    0    0  501    0  0.00000000000E+00  0.00000000000E+00  0.71285374246E+03  0.71285374246E+03  0.25500000000E-02 0.  1.
         -2   -1    0    0    0  501 -0.00000000000E+00 -0.00000000000E+00 -0.15065518457E+03  0.15065518459E+03  0.25500000000E-02 0. -1.
   -5000001    1    1    2    0    0 -0.11850857772E+03 -0.15899101667E+03  0.37944984321E+03  0.49578685933E+03  0.25000000000E+03 0.  0.
    5000001    1    1    2    0    0  0.11850857772E+03  0.15899101667E+03  0.18274871468E+03  0.36772206772E+03  0.25000000000E+03 0.  0.
<mgrwt>
<rscale>  0 0.65542387E+03</rscale>
<asrwt>0</asrwt>
<pdfrwt beam="1">  1        2 0.10966981E+00 0.65542387E+03</pdfrwt>
<pdfrwt beam="2">  1       -2 0.23177720E-01 0.65542387E+03</pdfrwt>
<totfact> 0.66146268E+02</totfact>
</mgrwt>
</event>
<event>
 4    1  0.1804641E-005  0.9414252E+03  0.7818608E-02  0.9375230E-01
          2   -1    0    0  501    0  0.00000000000E+00  0.00000000000E+00  0.10497611812E+04  0.10497611812E+04  0.25500000000E-02 0.  1.
         -2   -1    0    0    0  501 -0.00000000000E+00 -0.00000000000E+00 -0.21106740232E+03  0.21106740234E+03  0.25500000000E-02 0. -1.
   -5000001    1    1    2    0    0  0.33380199006E+03  0.19285316425E+03  0.55628260584E+03  0.72150290997E+03  0.25000000000E+03 0.  0.
    5000001    1    1    2    0    0 -0.33380199006E+03 -0.19285316425E+03  0.28241117306E+03  0.53932567360E+03  0.25000000000E+03 0.  0.
<mgrwt>
<rscale>  0 0.94142523E+03</rscale>
<asrwt>0</asrwt>
<pdfrwt beam="1">  1        2 0.16150172E+00 0.94142523E+03</pdfrwt>
<pdfrwt beam="2">  1       -2 0.32471908E-01 0.94142523E+03</pdfrwt>
<totfact> 0.20683514E+02</totfact>
</mgrwt>
</event>
<event>
 4    1  0.1804641E-005  0.2714452E+04  0.7818608E-02  0.8330331E-01
          2   -1    0    0  501    0  0.00000000000E+00  0.00000000000E+00  0.27539710194E+04  0.27539710194E+04  0.25500000000E-02 0.  1.
         -2   -1    0    0    0  501 -0.00000000000E+00 -0.00000000000E+00 -0.66887522898E+03  0.66887522898E+03  0.25500000000E-02 0. -1.
   -5000001    1    1    2    0    0  0.12294705674E+04  0.23599423258E+02  0.39048046766E+03  0.13142031062E+04  0.25000000000E+03 0.  0.
    5000001    1    1    2    0    0 -0.12294705674E+04 -0.23599423258E+02  0.16946153228E+04  0.21086431422E+04  0.25000000000E+03 0.  0.
<mgrwt>
<rscale>  0 0.27144524E+04</rscale>
<asrwt>0</asrwt>
<pdfrwt beam="1">  1        2 0.42368786E+00 0.27144524E+04</pdfrwt>
<pdfrwt beam="2">  1       -2 0.10290388E+00 0.27144524E+04</pdfrwt>
<totfact> 0.16659751E+00</totfact>
</mgrwt>
</event>
<event>
 4    1  0.1804641E-005  0.1091470E+04  0.7818608E-02  0.9213546E-01
          2   -1    0    0  501    0  0.00000000000E+00  0.00000000000E+00  0.92154307377E+03  0.92154307377E+03  0.25500000000E-02 0.  1.
         -2   -1    0    0    0  501 -0.00000000000E+00 -0.00000000000E+00 -0.32318254213E+03  0.32318254214E+03  0.25500000000E-02 0. -1.
   -5000001    1    1    2    0    0 -0.15226109294E+00 -0.35535553256E+03 -0.77413234194E+02  0.44132798068E+03  0.25000000000E+03 0.  0.
    5000001    1    1    2    0    0  0.15226109294E+00  0.35535553256E+03  0.67577376583E+03  0.80339763523E+03  0.25000000000E+03 0.  0.
<mgrwt>
<rscale>  0 0.10914699E+04</rscale>
<asrwt>0</asrwt>
<pdfrwt beam="1">  1        2 0.14177586E+00 0.10914699E+04</pdfrwt>
<pdfrwt beam="2">  1       -2 0.49720391E-01 0.10914699E+04</pdfrwt>
<totfact> 0.10781314E+02</totfact>
</mgrwt>
</event>
<event>
 4    1  0.1804641E-005  0.7481255E+03  0.7818608E-02  0.9638296E-01
          2   -1    0    0  501    0  0.00000000000E+00  0.00000000000E+00  0.14792780338E+04  0.14792780338E+04  0.25500000000E-02 0.  1.
         -2   -1    0    0    0  501 -0.00000000000E+00 -0.00000000000E+00 -0.94588660489E+02  0.94588660523E+02  0.25500000000E-02 0. -1.
   -5000001    1    1    2    0    0 -0.17380145630E+03 -0.14650378781E+03  0.35474329243E+03  0.48991132828E+03  0.25000000000E+03 0.  0.
    5000001    1    1    2    0    0  0.17380145630E+03  0.14650378781E+03  0.10299460809E+04  0.10839553661E+04  0.25000000000E+03 0.  0.
<mgrwt>
<rscale>  0 0.74812546E+03</rscale>
<asrwt>0</asrwt>
<pdfrwt beam="1">  1        2 0.22758122E+00 0.74812546E+03</pdfrwt>
<pdfrwt beam="2">  1       -2 0.14552103E-01 0.74812546E+03</pdfrwt>
<totfact> 0.48677143E+02</totfact>
</mgrwt>
</event>
<event>
 4    1  0.1804641E-005  0.5978348E+03  0.7818608E-02  0.9909908E-01
          2   -1    0    0  501    0  0.00000000000E+00  0.00000000000E+00  0.15427225889E+04  0.15427225889E+04  0.25500000000E-02 0.  1.
         -2   -1    0    0    0  501 -0.00000000000E+00 -0.00000000000E+00 -0.57918134926E+02  0.57918134982E+02  0.25500000000E-02 0. -1.
   -5000001    1    1    2    0    0 -0.11366988310E+03 -0.11175209045E+03  0.84408137346E+03  0.89464112194E+03  0.25000000000E+03 0.  0.
    5000001    1    1    2    0    0  0.11366988310E+03  0.11175209045E+03  0.64072308054E+03  0.70599960197E+03  0.25000000000E+03 0.  0.
<mgrwt>
<rscale>  0 0.59783481E+03</rscale>
<asrwt>0</asrwt>
<pdfrwt beam="1">  1        2 0.23734195E+00 0.59783481E+03</pdfrwt>
<pdfrwt beam="2">  1       -2 0.89104819E-02 0.59783481E+03</pdfrwt>
<totfact> 0.10134658E+03</totfact>
</mgrwt>
</event>
<event>
 4    1  0.1804641E-005  0.6998115E+03  0.7818608E-02  0.9717555E-01
         -2   -1    0    0    0  501 -0.00000000000E+00  0.00000000000E+00  0.91388626158E+02  0.91388626194E+02  0.25500000000E-02 0. -1.
          2   -1    0    0  501    0  0.00000000000E+00 -0.00000000000E+00 -0.13397075957E+04  0.13397075957E+04  0.25500000000E-02 0.  1.
   -5000001    1    1    2    0    0 -0.23246122829E+03 -0.76673695021E+02 -0.61573814244E+03  0.70820232859E+03  0.25000000000E+03 0.  0.
    5000001    1    1    2    0    0  0.23246122829E+03  0.76673695021E+02 -0.63258082713E+03  0.72289389334E+03  0.25000000000E+03 0.  0.
<mgrwt>
<rscale>  0 0.69981151E+03</rscale>
<asrwt>0</asrwt>
<pdfrwt beam="1">  1        2 0.20610885E+00 0.69981151E+03</pdfrwt>
<pdfrwt beam="2">  1       -2 0.14059790E-01 0.69981151E+03</pdfrwt>
<totfact> 0.61980199E+02</totfact>
</mgrwt>
</event>
<event>
 4    1  0.1804641E-005  0.6370606E+03  0.7818608E-02  0.9831367E-01
         -2   -1    0    0    0  501 -0.00000000000E+00  0.00000000000E+00  0.41920743842E+03  0.41920743843E+03  0.25500000000E-02 0. -1.
          2   -1    0    0  501    0  0.00000000000E+00 -0.00000000000E+00 -0.24203186210E+03  0.24203186212E+03  0.25500000000E-02 0.  1.
   -5000001    1    1    2    0    0  0.13325392301E+02 -0.19687579696E+03  0.93663309529E+02  0.33197960940E+03  0.25000000000E+03 0.  0.
    5000001    1    1    2    0    0 -0.13325392301E+02  0.19687579696E+03  0.83512266786E+02  0.32925969114E+03  0.25000000000E+03 0.  0.
<mgrwt>
<rscale>  0 0.63706062E+03</rscale>
<asrwt>0</asrwt>
<pdfrwt beam="1">  1        2 0.37235671E-01 0.63706062E+03</pdfrwt>
<pdfrwt beam="2">  1       -2 0.64493451E-01 0.63706062E+03</pdfrwt>
<totfact> 0.31296227E+02</totfact>
</mgrwt>
</event>
<event>
 4    1  0.1804641E-005  0.5751354E+03  0.7818608E-02  0.9958379E-01
         -2   -1    0    0    0  501 -0.00000000000E+00  0.00000000000E+00  0.12665125110E+03  0.12665125113E+03  0.25500000000E-02 0. -1.
          2   -1    0    0  501    0  0.00000000000E+00 -0.00000000000E+00 -0.65293618643E+03  0.65293618643E+03  0.25500000000E-02 0.  1.
   -5000001    1    1    2    0    0  0.26749636752E+02 -0.12840227484E+03 -0.33729254957E+03  0.43985105575E+03  0.25000000000E+03 0.  0.
    5000001    1    1    2    0    0 -0.26749636752E+02  0.12840227484E+03 -0.18899238575E+03  0.33973638181E+03  0.25000000000E+03 0.  0.
<mgrwt>
<rscale>  0 0.57513541E+03</rscale>
<asrwt>0</asrwt>
<pdfrwt beam="1">  1        2 0.10045172E+00 0.57513541E+03</pdfrwt>
<pdfrwt beam="2">  1       -2 0.19484808E-01 0.57513541E+03</pdfrwt>
<totfact> 0.10026810E+03</totfact>
</mgrwt>
</event>
<event>
 4    1  0.1804641E-005  0.1190348E+04  0.7818608E-02  0.9121347E-01
          2   -1    0    0  501    0  0.00000000000E+00  0.00000000000E+00  0.97573855991E+03  0.97573855991E+03  0.25500000000E-02 0.  1.
         -2   -1    0    0    0  501 -0.00000000000E+00 -0.00000000000E+00 -0.36303981031E+03  0.36303981032E+03  0.25500000000E-02 0. -1.
   -5000001    1    1    2    0    0  0.51746395296E+02  0.16474526682E+03 -0.26924105693E+03  0.40596728822E+03  0.25000000000E+03 0.  0.
    5000001    1    1    2    0    0 -0.51746395296E+02 -0.16474526682E+03  0.88193980653E+03  0.93281108201E+03  0.25000000000E+03 0.  0.
<mgrwt>
<rscale>  0 0.11903478E+04</rscale>
<asrwt>0</asrwt>
<pdfrwt beam="1">  1        2 0.15011362E+00 0.11903478E+04</pdfrwt>
<pdfrwt beam="2">  1       -2 0.55852280E-01 0.11903478E+04</pdfrwt>
<totfact> 0.77640959E+01</totfact>
</mgrwt>
</event>
<event>
 4    1  0.1804641E-005  0.7960854E+03  0.7818608E-02  0.9565701E-01
         -2   -1    0    0    0  501 -0.00000000000E+00  0.00000000000E+00  0.59169823296E+03  0.59169823297E+03  0.25500000000E-02 0. -1.
          2   -1    0    0  501    0  0.00000000000E+00 -0.00000000000E+00 -0.26776825214E+03  0.26776825215E+03  0.25500000000E-02 0.  1.
   -5000001    1    1    2    0    0 -0.27504942280E+02 -0.29111207352E+03  0.27225102012E+03  0.47129967023E+03  0.25000000000E+03 0.  0.
    5000001    1    1    2    0    0  0.27504942280E+02  0.29111207352E+03  0.51678960708E+02  0.38816681489E+03  0.25000000000E+03 0.  0.
<mgrwt>
<rscale>  0 0.79608543E+03</rscale>
<asrwt>0</asrwt>
<pdfrwt beam="1">  1        2 0.41195116E-01 0.79608543E+03</pdfrwt>
<pdfrwt beam="2">  1       -2 0.91030497E-01 0.79608543E+03</pdfrwt>
<totfact> 0.12925490E+02</totfact>
</mgrwt>
</event>
<event>
 4    1  0.1804641E-005  0.1279673E+04  0.7818608E-02  0.9045842E-01
          2   -1    0    0  501    0  0.00000000000E+00  0.00000000000E+00  0.37339570088E+04  0.37339570088E+04  0.25500000000E-02 0.  1.
         -2   -1    0    0    0  501 -0.00000000000E+00 -0.00000000000E+00 -0.10963996420E+03  0.10963996423E+03  0.25500000000E-02 0. -1.
   -5000001    1    1    2    0    0  0.49677745033E+03 -0.28362132177E+03  0.22333240854E+04  0.23189362560E+04  0.25000000000E+03 0.  0.
    5000001    1    1    2    0    0 -0.49677745033E+03  0.28362132177E+03  0.13909929593E+04  0.15246607170E+04  0.25000000000E+03 0.  0.
<mgrwt>
<rscale>  0 0.12796733E+04</rscale>
<asrwt>0</asrwt>
<pdfrwt beam="1">  1        2 0.57445499E+00 0.12796733E+04</pdfrwt>
<pdfrwt beam="2">  1       -2 0.16867685E-01 0.12796733E+04</pdfrwt>
<totfact> 0.15969764E+01</totfact>
</mgrwt>
</event>
<event>
 4    1  0.1804641E-005  0.6403819E+03  0.7818608E-02  0.9824996E-01
         -2   -1    0    0    0  501 -0.00000000000E+00  0.00000000000E+00  0.23873831160E+03  0.23873831162E+03  0.25500000000E-02 0. -1.
          2   -1    0    0  501    0  0.00000000000E+00 -0.00000000000E+00 -0.42943360652E+03  0.42943360653E+03  0.25500000000E-02 0.  1.
   -5000001    1    1    2    0    0 -0.75925522964E+02  0.17911644009E+03 -0.14400694156E+03  0.34797325093E+03  0.25000000000E+03 0.  0.
    5000001    1    1    2    0    0  0.75925522964E+02 -0.17911644009E+03 -0.46688353352E+02  0.32019866721E+03  0.25000000000E+03 0.  0.
<mgrwt>
<rscale>  0 0.64038193E+03</rscale>
<asrwt>0</asrwt>
<pdfrwt beam="1">  1        2 0.66066709E-01 0.64038193E+03</pdfrwt>
<pdfrwt beam="2">  1       -2 0.36728971E-01 0.64038193E+03</pdfrwt>
<totfact> 0.51608063E+02</totfact>
</mgrwt>
</event>
<event>
 4    1  0.1804641E-005  0.8049569E+03  0.7818608E-02  0.9552870E-01
         -2   -1    0    0    0  501 -0.00000000000E+00  0.00000000000E+00  0.26297788308E+03  0.26297788310E+03  0.25500000000E-02 0. -1.
          2   -1    0    0  501    0  0.00000000000E+00 -0.00000000000E+00 -0.61597914201E+03  0.61597914202E+03  0.25500000000E-02 0.  1.
   -5000001    1    1    2    0    0 -0.29341616591E+03  0.11544687958E+03 -0.16750545577E+03  0.43586592679E+03  0.25000000000E+03 0.  0.
    5000001    1    1    2    0    0  0.29341616591E+03 -0.11544687958E+03 -0.18549580316E+03  0.44309109832E+03  0.25000000000E+03 0.  0.
<mgrwt>
<rscale>  0 0.80495687E+03</rscale>
<asrwt>0</asrwt>
<pdfrwt beam="1">  1        2 0.94766021E-01 0.80495687E+03</pdfrwt>
<pdfrwt beam="2">  1       -2 0.40458136E-01 0.80495687E+03</pdfrwt>
<totfact> 0.27944014E+02</totfact>
</mgrwt>
</event>
<event>
 4    1  0.1804641E-005  0.8722551E+03  0.7818608E-02  0.9460944E-01
         -2   -1    0    0    0  501 -0.00000000000E+00  0.00000000000E+00  0.15422959704E+03  0.15422959706E+03  0.25500000000E-02 0. -1.
          2   -1    0    0  501    0  0.00000000000E+00 -0.00000000000E+00 -0.12332733527E+04  0.12332733527E+04  0.25500000000E-02 0.  1.
   -5000001    1    1    2    0    0  0.13437758257E+03 -0.30424476378E+03 -0.33160085664E+03  0.53205388741E+03  0.25000000000E+03 0.  0.
    5000001    1    1    2    0    0 -0.13437758257E+03  0.30424476378E+03 -0.74744289905E+03  0.85544906238E+03  0.25000000000E+03 0.  0.
<mgrwt>
<rscale>  0 0.87225513E+03</rscale>
<asrwt>0</asrwt>
<pdfrwt beam="1">  1        2 0.18973436E+00 0.87225513E+03</pdfrwt>
<pdfrwt beam="2">  1       -2 0.23727631E-01 0.87225513E+03</pdfrwt>
<totfact> 0.28594695E+02</totfact>
</mgrwt>
</event>
<event>
 4    1  0.1804641E-005  0.8903712E+03  0.7818608E-02  0.9437699E-01
         -2   -1    0    0    0  501 -0.00000000000E+00  0.00000000000E+00  0.38766051451E+03  0.38766051452E+03  0.25500000000E-02 0. -1.
          2   -1    0    0  501    0  0.00000000000E+00 -0.00000000000E+00 -0.51124680718E+03  0.51124680719E+03  0.25500000000E-02 0.  1.
   -5000001    1    1    2    0    0  0.26792182793E+03  0.40285546317E+02 -0.31375579098E+03  0.48409475053E+03  0.25000000000E+03 0.  0.
    5000001    1    1    2    0    0 -0.26792182793E+03 -0.40285546317E+02  0.19016949831E+03  0.41481257118E+03  0.25000000000E+03 0.  0.
<mgrwt>
<rscale>  0 0.89037116E+03</rscale>
<asrwt>0</asrwt>
<pdfrwt beam="1">  1        2 0.78653355E-01 0.89037116E+03</pdfrwt>
<pdfrwt beam="2">  1       -2 0.59640079E-01 0.89037116E+03</pdfrwt>
<totfact> 0.15806534E+02</totfact>
</mgrwt>
</event>
<event>
 4    1  0.1804641E-005  0.7783226E+03  0.7818608E-02  0.9591935E-01
          2   -1    0    0  501    0  0.00000000000E+00  0.00000000000E+00  0.12890906604E+04  0.12890906604E+04  0.25500000000E-02 0.  1.
         -2   -1    0    0    0  501 -0.00000000000E+00 -0.00000000000E+00 -0.11748321561E+03  0.11748321563E+03  0.25500000000E-02 0. -1.
   -5000001    1    1    2    0    0 -0.20482468230E+03  0.19895188856E+03  0.74138463102E+03  0.83287824774E+03  0.25000000000E+03 0.  0.
    5000001    1    1    2    0    0  0.20482468230E+03 -0.19895188856E+03  0.43022281377E+03  0.57369562830E+03  0.25000000000E+03 0.  0.
<mgrwt>
<rscale>  0 0.77832260E+03</rscale>
<asrwt>0</asrwt>
<pdfrwt beam="1">  1        2 0.19832165E+00 0.77832260E+03</pdfrwt>
<pdfrwt beam="2">  1       -2 0.18074340E-01 0.77832260E+03</pdfrwt>
<totfact> 0.43045882E+02</totfact>
</mgrwt>
</event>
<event>
 4    1  0.1804641E-005  0.6705095E+03  0.7818608E-02  0.9769038E-01
         -2   -1    0    0    0  501 -0.00000000000E+00  0.00000000000E+00  0.13279547027E+03  0.13279547030E+03  0.25500000000E-02 0. -1.
          2   -1    0    0  501    0  0.00000000000E+00 -0.00000000000E+00 -0.84638232935E+03  0.84638232936E+03  0.25500000000E-02 0.  1.
   -5000001    1    1    2    0    0  0.22160012330E+03 -0.26548623358E+02 -0.37020126391E+03  0.49936001026E+03  0.25000000000E+03 0.  0.
    5000001    1    1    2    0    0 -0.22160012330E+03  0.26548623358E+02 -0.34338559517E+03  0.47981778939E+03  0.25000000000E+03 0.  0.
<mgrwt>
<rscale>  0 0.67050948E+03</rscale>
<asrwt>0</asrwt>
<pdfrwt beam="1">  1        2 0.13021266E+00 0.67050948E+03</pdfrwt>
<pdfrwt beam="2">  1       -2 0.20430073E-01 0.67050948E+03</pdfrwt>
<totfact> 0.66028511E+02</totfact>
</mgrwt>
</event>
<event>
 4    1  0.1804641E-005  0.7272262E+03  0.7818608E-02  0.9671772E-01
          2   -1    0    0  501    0  0.00000000000E+00  0.00000000000E+00  0.16303615395E+04  0.16303615395E+04  0.25500000000E-02 0.  1.
         -2   -1    0    0    0  501 -0.00000000000E+00 -0.00000000000E+00 -0.81095204259E+02  0.81095204299E+02  0.25500000000E-02 0. -1.
   -5000001    1    1    2    0    0 -0.25413614557E+03 -0.86244661221E+01  0.60731064808E+03  0.70426258255E+03  0.25000000000E+03 0.  0.
    5000001    1    1    2    0    0  0.25413614557E+03  0.86244661221E+01  0.94195568719E+03  0.10071941613E+04  0.25000000000E+03 0.  0.
<mgrwt>
<rscale>  0 0.72722624E+03</rscale>
<asrwt>0</asrwt>
<pdfrwt beam="1">  1        2 0.25082485E+00 0.72722624E+03</pdfrwt>
<pdfrwt beam="2">  1       -2 0.12476185E-01 0.72722624E+03</pdfrwt>
<totfact> 0.52004158E+02</totfact>
</mgrwt>
</event>
<event>
 4    1  0.1804641E-005  0.5903669E+03  0.7818608E-02  0.9925596E-01
          2   -1    0    0  501    0  0.00000000000E+00  0.00000000000E+00  0.14227369198E+03  0.14227369201E+03  0.25500000000E-02 0.  1.
         -2   -1    0    0    0  501 -0.00000000000E+00 -0.00000000000E+00 -0.61243426378E+03  0.61243426379E+03  0.25500000000E-02 0. -1.
   -5000001    1    1    2    0    0  0.14916173701E+03  0.48739070037E+02 -0.23882114986E+03  0.37968442470E+03  0.25000000000E+03 0.  0.
    5000001    1    1    2    0    0 -0.14916173701E+03 -0.48739070037E+02 -0.23133942194E+03  0.37502353110E+03  0.25000000000E+03 0.  0.
<mgrwt>
<rscale>  0 0.59036695E+03</rscale>
<asrwt>0</asrwt>
<pdfrwt beam="1">  1        2 0.21888261E-01 0.59036695E+03</pdfrwt>
<pdfrwt beam="2">  1       -2 0.94220655E-01 0.59036695E+03</pdfrwt>
<totfact> 0.24576890E+02</totfact>
</mgrwt>
</event>
<event>
 4    1  0.1804641E-005  0.6617748E+03  0.7818608E-02  0.9784932E-01
          2   -1    0    0  501    0  0.00000000000E+00  0.00000000000E+00  0.95521373359E+03  0.95521373359E+03  0.25500000000E-02 0.  1.
         -2   -1    0    0    0  501 -0.00000000000E+00 -0.00000000000E+00 -0.11461985084E+03  0.11461985087E+03  0.25500000000E-02 0. -1.
   -5000001    1    1    2    0    0  0.79952397828E+02  0.20089911969E+03  0.44500593013E+03  0.55433123677E+03  0.25000000000E+03 0.  0.
    5000001    1    1    2    0    0 -0.79952397828E+02 -0.20089911969E+03  0.39558795262E+03  0.51550234769E+03  0.25000000000E+03 0.  0.
<mgrwt>
<rscale>  0 0.66177475E+03</rscale>
<asrwt>0</asrwt>
<pdfrwt beam="1">  1        2 0.14695596E+00 0.66177475E+03</pdfrwt>
<pdfrwt beam="2">  1       -2 0.17633823E-01 0.66177475E+03</pdfrwt>
<totfact> 0.72075843E+02</totfact>
</mgrwt>
</event>
<event>
 4    1  0.1804641E-005  0.6579934E+03  0.7818608E-02  0.9791895E-01
          2   -1    0    0  501    0  0.00000000000E+00  0.00000000000E+00  0.24394818983E+04  0.24394818983E+04  0.25500000000E-02 0.  1.
         -2   -1    0    0    0  501 -0.00000000000E+00 -0.00000000000E+00 -0.44369592400E+02  0.44369592473E+02  0.25500000000E-02 0. -1.
   -5000001    1    1    2    0    0  0.44399733371E+02 -0.18190945105E+03  0.80750892332E+03  0.86581351684E+03  0.25000000000E+03 0.  0.
    5000001    1    1    2    0    0 -0.44399733371E+02  0.18190945105E+03  0.15876033826E+04  0.16180379739E+04  0.25000000000E+03 0.  0.
<mgrwt>
<rscale>  0 0.65799337E+03</rscale>
<asrwt>0</asrwt>
<pdfrwt beam="1">  1        2 0.37530496E+00 0.65799337E+03</pdfrwt>
<pdfrwt beam="2">  1       -2 0.68260901E-02 0.65799337E+03</pdfrwt>
<totfact> 0.49909370E+02</totfact>
</mgrwt>
</event>
<event>
 4    1  0.1804641E-005  0.5860591E+03  0.7818608E-02  0.9934759E-01
          2   -1    0    0  501    0  0.00000000000E+00  0.00000000000E+00  0.48613174968E+03  0.48613174969E+03  0.25500000000E-02 0.  1.
         -2   -1    0    0    0  501 -0.00000000000E+00 -0.00000000000E+00 -0.17663180895E+03  0.17663180897E+03  0.25500000000E-02 0. -1.
   -5000001    1    1    2    0    0  0.10948320744E+03  0.10040796698E+03  0.11400686265E+03  0.31235540219E+03  0.25000000000E+03 0.  0.
    5000001    1    1    2    0    0 -0.10948320744E+03 -0.10040796698E+03  0.19549307808E+03  0.35040815647E+03  0.25000000000E+03 0.  0.
<mgrwt>
<rscale>  0 0.58605914E+03</rscale>
<asrwt>0</asrwt>
<pdfrwt beam="1">  1        2 0.74789500E-01 0.58605914E+03</pdfrwt>
<pdfrwt beam="2">  1       -2 0.27174124E-01 0.58605914E+03</pdfrwt>
<totfact> 0.78704819E+02</totfact>
</mgrwt>
</event>
<event>
 4    1  0.1804641E-005  0.7628598E+03  0.7818608E-02  0.9615389E-01
          2   -1    0    0  501    0  0.00000000000E+00  0.00000000000E+00  0.13146692589E+04  0.13146692589E+04  0.25500000000E-02 0.  1.
         -2   -1    0    0    0  501 -0.00000000000E+00 -0.00000000000E+00 -0.11066566951E+03  0.11066566954E+03  0.25500000000E-02 0. -1.
   -5000001    1    1    2    0    0 -0.13204045977E+03 -0.14337611537E+02  0.12437350272E+03  0.30920707996E+03  0.25000000000E+03 0.  0.
    5000001    1    1    2    0    0  0.13204045977E+03  0.14337611537E+02  0.10796300867E+04  0.11161278485E+04  0.25000000000E+03 0.  0.
<mgrwt>
<rscale>  0 0.76285976E+03</rscale>
<asrwt>0</asrwt>
<pdfrwt beam="1">  1        2 0.20225681E+00 0.76285976E+03</pdfrwt>
<pdfrwt beam="2">  1       -2 0.17025487E-01 0.76285976E+03</pdfrwt>
<totfact> 0.46155448E+02</totfact>
</mgrwt>
</event>
<event>
 4    1  0.1804641E-005  0.6813009E+03  0.7818608E-02  0.9749755E-01
          2   -1    0    0  501    0  0.00000000000E+00  0.00000000000E+00  0.17197642868E+04  0.17197642868E+04  0.25500000000E-02 0.  1.
         -2   -1    0    0    0  501 -0.00000000000E+00 -0.00000000000E+00 -0.67475951174E+02  0.67475951222E+02  0.25500000000E-02 0. -1.
   -5000001    1    1    2    0    0  0.18817028993E+03  0.12582722793E+03  0.95201171664E+03  0.10099835929E+04  0.25000000000E+03 0.  0.
    5000001    1    1    2    0    0 -0.18817028993E+03 -0.12582722793E+03  0.70027661903E+03  0.77725664517E+03  0.25000000000E+03 0.  0.
<mgrwt>
<rscale>  0 0.68130091E+03</rscale>
<asrwt>0</asrwt>
<pdfrwt beam="1">  1        2 0.26457913E+00 0.68130091E+03</pdfrwt>
<pdfrwt beam="2">  1       -2 0.10380915E-01 0.68130091E+03</pdfrwt>
<totfact> 0.63043032E+02</totfact>
</mgrwt>
</event>
<event>
 4    1  0.1804641E-005  0.8162234E+03  0.7818608E-02  0.9536827E-01
         -2   -1    0    0    0  501 -0.00000000000E+00  0.00000000000E+00  0.17130856738E+03  0.17130856740E+03  0.25500000000E-02 0. -1.
          2   -1    0    0  501    0  0.00000000000E+00 -0.00000000000E+00 -0.97225246640E+03  0.97225246640E+03  0.25500000000E-02 0.  1.
   -5000001    1    1    2    0    0  0.16649522692E+03 -0.25069826843E+03 -0.23777700218E+03  0.45782986485E+03  0.25000000000E+03 0.  0.
    5000001    1    1    2    0    0 -0.16649522692E+03  0.25069826843E+03 -0.56316689684E+03  0.68573116895E+03  0.25000000000E+03 0.  0.
<mgrwt>
<rscale>  0 0.81622344E+03</rscale>
<asrwt>0</asrwt>
<pdfrwt beam="1">  1        2 0.14957730E+00 0.81622344E+03</pdfrwt>
<pdfrwt beam="2">  1       -2 0.26355165E-01 0.81622344E+03</pdfrwt>
<totfact> 0.34325963E+02</totfact>
</mgrwt>
</event>
<event>
 4    1  0.1804641E-005  0.5370202E+03  0.7818608E-02  0.1004544E+00
         -2   -1    0    0    0  501 -0.00000000000E+00  0.00000000000E+00  0.30118416112E+03  0.30118416113E+03  0.25500000000E-02 0. -1.
          2   -1    0    0  501    0  0.00000000000E+00 -0.00000000000E+00 -0.23938070753E+03  0.23938070754E+03  0.25500000000E-02 0.  1.
   -5000001    1    1    2    0    0 -0.57064608299E+02  0.78805501091E+02  0.19380609328E+02  0.26896521065E+03  0.25000000000E+03 0.  0.
    5000001    1    1    2    0    0  0.57064608299E+02 -0.78805501091E+02  0.42422844270E+02  0.27159965802E+03  0.25000000000E+03 0.  0.
<mgrwt>
<rscale>  0 0.53702021E+03</rscale>
<asrwt>0</asrwt>
<pdfrwt beam="1">  1        2 0.36827801E-01 0.53702021E+03</pdfrwt>
<pdfrwt beam="2">  1       -2 0.46336025E-01 0.53702021E+03</pdfrwt>
<totfact> 0.62797924E+02</totfact>
</mgrwt>
</event>
<event>
 4    1  0.1804641E-005  0.9477582E+03  0.7818608E-02  0.9367775E-01
          2   -1    0    0  501    0  0.00000000000E+00  0.00000000000E+00  0.14930458835E+03  0.14930458837E+03  0.25500000000E-02 0.  1.
         -2   -1    0    0    0  501 -0.00000000000E+00 -0.00000000000E+00 -0.15040488064E+04  0.15040488064E+04  0.25500000000E-02 0. -1.
   -5000001    1    1    2    0    0 -0.39952706090E+03 -0.34469769843E+02 -0.61566181171E+03  0.77611178565E+03  0.25000000000E+03 0.  0.
    5000001    1    1    2    0    0  0.39952706090E+03  0.34469769843E+02 -0.73908240637E+03  0.87724160915E+03  0.25000000000E+03 0.  0.
<mgrwt>
<rscale>  0 0.94775817E+03</rscale>
<asrwt>0</asrwt>
<pdfrwt beam="1">  1        2 0.22969938E-01 0.94775817E+03</pdfrwt>
<pdfrwt beam="2">  1       -2 0.23139211E+00 0.94775817E+03</pdfrwt>
<totfact> 0.20411278E+01</totfact>
</mgrwt>
</event>
<event>
 4    1  0.1804641E-005  0.1271169E+04  0.7818608E-02  0.9052746E-01
          2   -1    0    0  501    0  0.00000000000E+00  0.00000000000E+00  0.39769855859E+03  0.39769855860E+03  0.25500000000E-02 0.  1.
         -2   -1    0    0    0  501 -0.00000000000E+00 -0.00000000000E+00 -0.10157639597E+04  0.10157639597E+04  0.25500000000E-02 0. -1.
   -5000001    1    1    2    0    0 -0.49286314669E+03  0.13274244379E+03  0.73001650075E+01  0.56840824251E+03  0.25000000000E+03 0.  0.
    5000001    1    1    2    0    0  0.49286314669E+03 -0.13274244379E+03 -0.62536556611E+03  0.84505427578E+03  0.25000000000E+03 0.  0.
<mgrwt>
<rscale>  0 0.12711693E+04</rscale>
<asrwt>0</asrwt>
<pdfrwt beam="1">  1        2 0.61184394E-01 0.12711693E+04</pdfrwt>
<pdfrwt beam="2">  1       -2 0.15627138E+00 0.12711693E+04</pdfrwt>
<totfact> 0.21085451E+01</totfact>
</mgrwt>
</event>
<event>
 4    1  0.1804641E-005  0.7032199E+03  0.7818608E-02  0.9711742E-01
          2   -1    0    0  501    0  0.00000000000E+00  0.00000000000E+00  0.14133162757E+04  0.14133162757E+04  0.25500000000E-02 0.  1.
         -2   -1    0    0    0  501 -0.00000000000E+00 -0.00000000000E+00 -0.87474793711E+02  0.87474793748E+02  0.25500000000E-02 0. -1.
   -5000001    1    1    2    0    0  0.16883829101E+03  0.15654126132E+03  0.85520955192E+03  0.92026893499E+03  0.25000000000E+03 0.  0.
    5000001    1    1    2    0    0 -0.16883829101E+03 -0.15654126132E+03  0.47063193009E+03  0.58052213449E+03  0.25000000000E+03 0.  0.
<mgrwt>
<rscale>  0 0.70321988E+03</rscale>
<asrwt>0</asrwt>
<pdfrwt beam="1">  1        2 0.21743328E+00 0.70321988E+03</pdfrwt>
<pdfrwt beam="2">  1       -2 0.13457660E-01 0.70321988E+03</pdfrwt>
<totfact> 0.60578640E+02</totfact>
</mgrwt>
</event>
<event>
 4    1  0.1804641E-005  0.8364614E+03  0.7818608E-02  0.9508690E-01
         -2   -1    0    0    0  501 -0.00000000000E+00  0.00000000000E+00  0.12068792028E+03  0.12068792031E+03  0.25500000000E-02 0. -1.
          2   -1    0    0  501    0  0.00000000000E+00 -0.00000000000E+00 -0.14493325580E+04  0.14493325580E+04  0.25500000000E-02 0.  1.
   -5000001    1    1    2    0    0 -0.25018558578E+03 -0.22017808901E+03 -0.59546727056E+03  0.72674100512E+03  0.25000000000E+03 0.  0.
    5000001    1    1    2    0    0  0.25018558578E+03  0.22017808901E+03 -0.73317736718E+03  0.84327947322E+03  0.25000000000E+03 0.  0.
<mgrwt>
<rscale>  0 0.83646143E+03</rscale>
<asrwt>0</asrwt>
<pdfrwt beam="1">  1        2 0.22297423E+00 0.83646143E+03</pdfrwt>
<pdfrwt beam="2">  1       -2 0.18567373E-01 0.83646143E+03</pdfrwt>
<totfact> 0.33186752E+02</totfact>
</mgrwt>
</event>
<event>
 4    1  0.1804641E-005  0.1665558E+04  0.7818608E-02  0.8781255E-01
          2   -1    0    0  501    0  0.00000000000E+00  0.00000000000E+00  0.12399818295E+04  0.12399818295E+04  0.25500000000E-02 0.  1.
         -2   -1    0    0    0  501 -0.00000000000E+00 -0.00000000000E+00 -0.55929947953E+03  0.55929947954E+03  0.25500000000E-02 0. -1.
   -5000001    1    1    2    0    0 -0.45939918817E+03  0.64672037736E+03  0.29545617052E+03  0.88266030232E+03  0.25000000000E+03 0.  0.
    5000001    1    1    2    0    0  0.45939918817E+03 -0.64672037736E+03  0.38522617940E+03  0.91662100668E+03  0.25000000000E+03 0.  0.
<mgrwt>
<rscale>  0 0.16655584E+04</rscale>
<asrwt>0</asrwt>
<pdfrwt beam="1">  1        2 0.19076643E+00 0.16655584E+04</pdfrwt>
<pdfrwt beam="2">  1       -2 0.86046074E-01 0.16655584E+04</pdfrwt>
<totfact> 0.20048348E+01</totfact>
</mgrwt>
</event>
<event>
 4    1  0.1804641E-005  0.1295371E+04  0.7818608E-02  0.9033244E-01
         -2   -1    0    0    0  501 -0.00000000000E+00  0.00000000000E+00  0.16393641834E+03  0.16393641836E+03  0.25500000000E-02 0. -1.
          2   -1    0    0  501    0  0.00000000000E+00 -0.00000000000E+00 -0.25588966200E+04  0.25588966200E+04  0.25500000000E-02 0.  1.
   -5000001    1    1    2    0    0 -0.23335603698E+02 -0.44200018215E+03 -0.35383842120E+03  0.61936284982E+03  0.25000000000E+03 0.  0.
    5000001    1    1    2    0    0  0.23335603698E+02  0.44200018215E+03 -0.20411217805E+04  0.21034701886E+04  0.25000000000E+03 0.  0.
<mgrwt>
<rscale>  0 0.12953708E+04</rscale>
<asrwt>0</asrwt>
<pdfrwt beam="1">  1        2 0.39367637E+00 0.12953708E+04</pdfrwt>
<pdfrwt beam="2">  1       -2 0.25220989E-01 0.12953708E+04</pdfrwt>
<totfact> 0.44775329E+01</totfact>
</mgrwt>
</event>
<event>
 4    1  0.1804641E-005  0.7828223E+03  0.7818608E-02  0.9585219E-01
          2   -1    0    0  501    0  0.00000000000E+00  0.00000000000E+00  0.19737197272E+04  0.19737197272E+04  0.25500000000E-02 0. -1.
         -2   -1    0    0    0  501 -0.00000000000E+00 -0.00000000000E+00 -0.77621303623E+02  0.77621303665E+02  0.25500000000E-02 0.  1.
   -5000001    1    1    2    0    0 -0.17329789112E+03 -0.89429354911E+02  0.15494561045E+04  0.15815637795E+04  0.25000000000E+03 0.  0.
    5000001    1    1    2    0    0  0.17329789112E+03  0.89429354911E+02  0.34664231899E+03  0.46977725137E+03  0.25000000000E+03 0.  0.
<mgrwt>
<rscale>  0 0.78282233E+03</rscale>
<asrwt>0</asrwt>
<pdfrwt beam="1">  1        2 0.30364915E+00 0.78282233E+03</pdfrwt>
<pdfrwt beam="2">  1       -2 0.11941741E-01 0.78282233E+03</pdfrwt>
<totfact> 0.36176240E+02</totfact>
</mgrwt>
</event>
<event>
 4    1  0.1804641E-005  0.7524631E+03  0.7818608E-02  0.9631494E-01
          2   -1    0    0  501    0  0.00000000000E+00  0.00000000000E+00  0.10210547250E+04  0.10210547250E+04  0.25500000000E-02 0.  1.
         -2   -1    0    0    0  501 -0.00000000000E+00 -0.00000000000E+00 -0.13863132461E+03  0.13863132463E+03  0.25500000000E-02 0. -1.
   -5000001    1    1    2    0    0  0.16982565189E+02 -0.24132633692E+03  0.66200174072E+03  0.74784564793E+03  0.25000000000E+03 0.  0.
    5000001    1    1    2    0    0 -0.16982565189E+02  0.24132633692E+03  0.22042165963E+03  0.41184040167E+03  0.25000000000E+03 0.  0.
<mgrwt>
<rscale>  0 0.75246307E+03</rscale>
<asrwt>0</asrwt>
<pdfrwt beam="1">  1        2 0.15708534E+00 0.75246307E+03</pdfrwt>
<pdfrwt beam="2">  1       -2 0.21327896E-01 0.75246307E+03</pdfrwt>
<totfact> 0.46805297E+02</totfact>
</mgrwt>
</event>
<event>
 4    1  0.1804641E-005  0.5226091E+03  0.7818608E-02  0.1008040E+00
         -2   -1    0    0    0  501 -0.00000000000E+00  0.00000000000E+00  0.39977978712E+03  0.39977978713E+03  0.25500000000E-02 0. -1.
          2   -1    0    0  501    0  0.00000000000E+00 -0.00000000000E+00 -0.17079418666E+03  0.17079418668E+03  0.25500000000E-02 0.  1.
   -5000001    1    1    2    0    0  0.47199768370E+02  0.48379020892E+02  0.76488268252E+02  0.27003481808E+03  0.25000000000E+03 0.  0.
    5000001    1    1    2    0    0 -0.47199768370E+02 -0.48379020892E+02  0.15249733221E+03  0.30053915573E+03  0.25000000000E+03 0.  0.
<mgrwt>
<rscale>  0 0.52260908E+03</rscale>
<asrwt>0</asrwt>
<pdfrwt beam="1">  1        2 0.26276029E-01 0.52260908E+03</pdfrwt>
<pdfrwt beam="2">  1       -2 0.61504582E-01 0.52260908E+03</pdfrwt>
<totfact> 0.51281413E+02</totfact>
</mgrwt>
</event>
<event>
 4    1  0.1804641E-005  0.9326493E+03  0.7818608E-02  0.9385664E-01
         -2   -1    0    0    0  501 -0.00000000000E+00  0.00000000000E+00  0.71097344820E+03  0.71097344820E+03  0.25500000000E-02 0. -1.
          2   -1    0    0  501    0  0.00000000000E+00 -0.00000000000E+00 -0.30586048935E+03  0.30586048936E+03  0.25500000000E-02 0.  1.
   -5000001    1    1    2    0    0  0.31168123815E+03 -0.16738850038E+03  0.14364847326E+02  0.43344025322E+03  0.25000000000E+03 0.  0.
    5000001    1    1    2    0    0 -0.31168123815E+03  0.16738850038E+03  0.39074811153E+03  0.58339368434E+03  0.25000000000E+03 0.  0.
<mgrwt>
<rscale>  0 0.93264932E+03</rscale>
<asrwt>0</asrwt>
<pdfrwt beam="1">  1        2 0.47055460E-01 0.93264932E+03</pdfrwt>
<pdfrwt beam="2">  1       -2 0.10938053E+00 0.93264932E+03</pdfrwt>
<totfact> 0.71683269E+01</totfact>
</mgrwt>
</event>
<event>
 4    1  0.1804641E-005  0.9009936E+03  0.7818608E-02  0.9424340E-01
         -2   -1    0    0    0  501 -0.00000000000E+00  0.00000000000E+00  0.87395554571E+02  0.87395554609E+02  0.25500000000E-02 0. -1.
          2   -1    0    0  501    0  0.00000000000E+00 -0.00000000000E+00 -0.23221704854E+04  0.23221704854E+04  0.25500000000E-02 0.  1.
   -5000001    1    1    2    0    0  0.28037955944E+03 -0.15714640220E+03 -0.60199716157E+03  0.72677938304E+03  0.25000000000E+03 0.  0.
    5000001    1    1    2    0    0 -0.28037955944E+03  0.15714640220E+03 -0.16327777692E+04  0.16827866569E+04  0.25000000000E+03 0.  0.
<mgrwt>
<rscale>  0 0.90099362E+03</rscale>
<asrwt>0</asrwt>
<pdfrwt beam="1">  1        2 0.35725695E+00 0.90099362E+03</pdfrwt>
<pdfrwt beam="2">  1       -2 0.13445472E-01 0.90099362E+03</pdfrwt>
<totfact> 0.18893865E+02</totfact>
</mgrwt>
</event>
<event>
 4    1  0.1804641E-005  0.7022446E+03  0.7818608E-02  0.9713401E-01
          2   -1    0    0  501    0  0.00000000000E+00  0.00000000000E+00  0.49359194597E+03  0.49359194598E+03  0.25500000000E-02 0.  1.
         -2   -1    0    0    0  501 -0.00000000000E+00 -0.00000000000E+00 -0.24977488814E+03  0.24977488816E+03  0.25500000000E-02 0. -1.
   -5000001    1    1    2    0    0  0.12782462416E+03  0.20714067200E+03  0.16345583582E+03  0.38531052776E+03  0.25000000000E+03 0.  0.
    5000001    1    1    2    0    0 -0.12782462416E+03 -0.20714067200E+03  0.80361222002E+02  0.35805630638E+03  0.25000000000E+03 0.  0.
<mgrwt>
<rscale>  0 0.70224461E+03</rscale>
<asrwt>0</asrwt>
<pdfrwt beam="1">  1        2 0.75937222E-01 0.70224461E+03</pdfrwt>
<pdfrwt beam="2">  1       -2 0.38426906E-01 0.70224461E+03</pdfrwt>
<totfact> 0.40291998E+02</totfact>
</mgrwt>
</event>
<event>
 4    1  0.1804641E-005  0.6087184E+03  0.7818608E-02  0.9887481E-01
         -2   -1    0    0    0  501 -0.00000000000E+00  0.00000000000E+00  0.17009605281E+03  0.17009605283E+03  0.25500000000E-02 0. -1.
          2   -1    0    0  501    0  0.00000000000E+00 -0.00000000000E+00 -0.54460131437E+03  0.54460131437E+03  0.25500000000E-02 0.  1.
   -5000001    1    1    2    0    0 -0.15351036243E+03 -0.75431890709E+02 -0.22206494355E+03  0.37559052260E+03  0.25000000000E+03 0.  0.
    5000001    1    1    2    0    0  0.15351036243E+03  0.75431890709E+02 -0.15244031800E+03  0.33910684461E+03  0.25000000000E+03 0.  0.
<mgrwt>
<rscale>  0 0.60871844E+03</rscale>
<asrwt>0</asrwt>
<pdfrwt beam="1">  1        2 0.83784817E-01 0.60871844E+03</pdfrwt>
<pdfrwt beam="2">  1       -2 0.26168624E-01 0.60871844E+03</pdfrwt>
<totfact> 0.73852806E+02</totfact>
</mgrwt>
</event>
<event>
 4    1  0.1804641E-005  0.7620308E+03  0.7818608E-02  0.9616663E-01
         -2   -1    0    0    0  501 -0.00000000000E+00  0.00000000000E+00  0.10588075435E+03  0.10588075438E+03  0.25500000000E-02 0. -1.
          2   -1    0    0  501    0  0.00000000000E+00 -0.00000000000E+00 -0.13710963626E+04  0.13710963626E+04  0.25500000000E-02 0.  1.
   -5000001    1    1    2    0    0 -0.23219328752E+03 -0.13357940742E+03 -0.43010837281E+03  0.56502247143E+03  0.25000000000E+03 0.  0.
    5000001    1    1    2    0    0  0.23219328752E+03  0.13357940742E+03 -0.83510723547E+03  0.91195464558E+03  0.25000000000E+03 0.  0.
<mgrwt>
<rscale>  0 0.76203075E+03</rscale>
<asrwt>0</asrwt>
<pdfrwt beam="1">  1        2 0.21093789E+00 0.76203075E+03</pdfrwt>
<pdfrwt beam="2">  1       -2 0.16289348E-01 0.76203075E+03</pdfrwt>
<totfact> 0.46220453E+02</totfact>
</mgrwt>
</event>
<event>
 4    1  0.1804641E-005  0.8523157E+03  0.7818608E-02  0.9487234E-01
          2   -1    0    0  501    0  0.00000000000E+00  0.00000000000E+00  0.84781173789E+03  0.84781173789E+03  0.25500000000E-02 0.  1.
         -2   -1    0    0    0  501 -0.00000000000E+00 -0.00000000000E+00 -0.21421088528E+03  0.21421088529E+03  0.25500000000E-02 0. -1.
   -5000001    1    1    2    0    0 -0.10485403430E+03 -0.32241385863E+03  0.39722034670E+03  0.57898969644E+03  0.25000000000E+03 0.  0.
    5000001    1    1    2    0    0  0.10485403430E+03  0.32241385863E+03  0.23638050591E+03  0.48303292675E+03  0.25000000000E+03 0.  0.
<mgrwt>
<rscale>  0 0.85231568E+03</rscale>
<asrwt>0</asrwt>
<pdfrwt beam="1">  1        2 0.13043258E+00 0.85231568E+03</pdfrwt>
<pdfrwt beam="2">  1       -2 0.32955521E-01 0.85231568E+03</pdfrwt>
<totfact> 0.27453133E+02</totfact>
</mgrwt>
</event>
<event>
 4    1  0.1804641E-005  0.1024418E+04  0.7818608E-02  0.9282162E-01
         -2   -1    0    0    0  501 -0.00000000000E+00  0.00000000000E+00  0.22246729086E+03  0.22246729087E+03  0.25500000000E-02 0. -1.
          2   -1    0    0  501    0  0.00000000000E+00 -0.00000000000E+00 -0.11793110782E+04  0.11793110782E+04  0.25500000000E-02 0.  1.
   -5000001    1    1    2    0    0  0.70808034102E+02  0.43861212394E+03 -0.41050122313E+03  0.65452702553E+03  0.25000000000E+03 0.  0.
    5000001    1    1    2    0    0 -0.70808034102E+02 -0.43861212394E+03 -0.54634256419E+03  0.74725134353E+03  0.25000000000E+03 0.  0.
<mgrwt>
<rscale>  0 0.10244182E+04</rscale>
<asrwt>0</asrwt>
<pdfrwt beam="1">  1        2 0.18143247E+00 0.10244182E+04</pdfrwt>
<pdfrwt beam="2">  1       -2 0.34225738E-01 0.10244182E+04</pdfrwt>
<totfact> 0.15519173E+02</totfact>
</mgrwt>
</event>
<event>
 4    1  0.1804641E-005  0.7911206E+03  0.7818608E-02  0.9572959E-01
          2   -1    0    0  501    0  0.00000000000E+00  0.00000000000E+00  0.31722826652E+03  0.31722826653E+03  0.25500000000E-02 0.  1.
         -2   -1    0    0    0  501 -0.00000000000E+00 -0.00000000000E+00 -0.49323463972E+03  0.49323463973E+03  0.25500000000E-02 0. -1.
   -5000001    1    1    2    0    0  0.61062006864E+02 -0.30034974372E+03 -0.82445370976E+02  0.40402447504E+03  0.25000000000E+03 0.  0.
    5000001    1    1    2    0    0 -0.61062006864E+02  0.30034974372E+03 -0.93561002223E+02  0.40643843122E+03  0.25000000000E+03 0.  0.
<mgrwt>
<rscale>  0 0.79112065E+03</rscale>
<asrwt>0</asrwt>
<pdfrwt beam="1">  1        2 0.48804349E-01 0.79112065E+03</pdfrwt>
<pdfrwt beam="2">  1       -2 0.75882252E-01 0.79112065E+03</pdfrwt>
<totfact> 0.16176612E+02</totfact>
</mgrwt>
</event>
<event>
 4    1  0.1804641E-005  0.7505877E+03  0.7818608E-02  0.9634429E-01
         -2   -1    0    0    0  501 -0.00000000000E+00  0.00000000000E+00  0.23919017455E+03  0.23919017456E+03  0.25500000000E-02 0. -1.
          2   -1    0    0  501    0  0.00000000000E+00 -0.00000000000E+00 -0.58884311071E+03  0.58884311072E+03  0.25500000000E-02 0.  1.
   -5000001    1    1    2    0    0 -0.23116235820E+03 -0.15743299249E+03 -0.18712598213E+03  0.41921034835E+03  0.25000000000E+03 0.  0.
    5000001    1    1    2    0    0  0.23116235820E+03  0.15743299249E+03 -0.16252695403E+03  0.40882293693E+03  0.25000000000E+03 0.  0.
<mgrwt>
<rscale>  0 0.75058773E+03</rscale>
<asrwt>0</asrwt>
<pdfrwt beam="1">  1        2 0.90591247E-01 0.75058773E+03</pdfrwt>
<pdfrwt beam="2">  1       -2 0.36798489E-01 0.75058773E+03</pdfrwt>
<totfact> 0.35529722E+02</totfact>
</mgrwt>
</event>
<event>
 4    1  0.1804641E-005  0.6385181E+03  0.7818608E-02  0.9828566E-01
          2   -1    0    0  501    0  0.00000000000E+00  0.00000000000E+00  0.48633301457E+03  0.48633301458E+03  0.25500000000E-02 0.  1.
         -2   -1    0    0    0  501 -0.00000000000E+00 -0.00000000000E+00 -0.20958139993E+03  0.20958139995E+03  0.25500000000E-02 0. -1.
   -5000001    1    1    2    0    0 -0.15872125779E+03  0.24757154401E+01  0.83734366022E+01  0.29625779531E+03  0.25000000000E+03 0.  0.
    5000001    1    1    2    0    0  0.15872125779E+03 -0.24757154401E+01  0.26837817804E+03  0.39965661922E+03  0.25000000000E+03 0.  0.
<mgrwt>
<rscale>  0 0.63851814E+03</rscale>
<asrwt>0</asrwt>
<pdfrwt beam="1">  1        2 0.74820463E-01 0.63851814E+03</pdfrwt>
<pdfrwt beam="2">  1       -2 0.32243293E-01 0.63851814E+03</pdfrwt>
<totfact> 0.57317671E+02</totfact>
</mgrwt>
</event>
<event>
 4    1  0.1804641E-005  0.8536472E+03  0.7818608E-02  0.9485455E-01
          2   -1    0    0  501    0  0.00000000000E+00  0.00000000000E+00  0.16862361668E+04  0.16862361668E+04  0.25500000000E-02 0.  1.
         -2   -1    0    0    0  501 -0.00000000000E+00 -0.00000000000E+00 -0.10803847788E+03  0.10803847791E+03  0.25500000000E-02 0. -1.
   -5000001    1    1    2    0    0  0.11984048692E+02  0.19146041632E+03  0.13942018215E+04  0.14293702906E+04  0.25000000000E+03 0.  0.
    5000001    1    1    2    0    0 -0.11984048692E+02 -0.19146041632E+03  0.18399586739E+03  0.36490435412E+03  0.25000000000E+03 0.  0.
<mgrwt>
<rscale>  0 0.85364721E+03</rscale>
<asrwt>0</asrwt>
<pdfrwt beam="1">  1        2 0.25942096E+00 0.85364721E+03</pdfrwt>
<pdfrwt beam="2">  1       -2 0.16621303E-01 0.85364721E+03</pdfrwt>
<totfact> 0.29640001E+02</totfact>
</mgrwt>
</event>
<event>
 4    1  0.1804641E-005  0.8138399E+03  0.7818608E-02  0.9540198E-01
          2   -1    0    0  501    0  0.00000000000E+00  0.00000000000E+00  0.38211846191E+04  0.38211846191E+04  0.25500000000E-02 0.  1.
         -2   -1    0    0    0  501 -0.00000000000E+00 -0.00000000000E+00 -0.43333120713E+02  0.43333120788E+02  0.25500000000E-02 0. -1.
   -5000001    1    1    2    0    0 -0.37461834104E+01  0.32101569024E+03  0.19094858399E+04  0.19523578770E+04  0.25000000000E+03 0.  0.
    5000001    1    1    2    0    0  0.37461834104E+01 -0.32101569024E+03  0.18683656585E+04  0.19121598629E+04  0.25000000000E+03 0.  0.
<mgrwt>
<rscale>  0 0.81383992E+03</rscale>
<asrwt>0</asrwt>
<pdfrwt beam="1">  1        2 0.58787451E+00 0.81383992E+03</pdfrwt>
<pdfrwt beam="2">  1       -2 0.66666345E-02 0.81383992E+03</pdfrwt>
<totfact> 0.67302498E+01</totfact>
</mgrwt>
</event>
<event>
 4    1  0.1804641E-005  0.9805849E+03  0.7818608E-02  0.9330099E-01
         -2   -1    0    0    0  501 -0.00000000000E+00  0.00000000000E+00  0.22867832910E+03  0.22867832912E+03  0.25500000000E-02 0. -1.
          2   -1    0    0  501    0  0.00000000000E+00 -0.00000000000E+00 -0.10512001307E+04  0.10512001307E+04  0.25500000000E-02 0.  1.
   -5000001    1    1    2    0    0  0.36275109709E+03  0.21142477462E+03 -0.46343533382E+03  0.67346945171E+03  0.25000000000E+03 0.  0.
    5000001    1    1    2    0    0 -0.36275109709E+03 -0.21142477462E+03 -0.35908646777E+03  0.60640900809E+03  0.25000000000E+03 0.  0.
<mgrwt>
<rscale>  0 0.98058491E+03</rscale>
<asrwt>0</asrwt>
<pdfrwt beam="1">  1        2 0.16172310E+00 0.98058491E+03</pdfrwt>
<pdfrwt beam="2">  1       -2 0.35181282E-01 0.98058491E+03</pdfrwt>
<totfact> 0.17690845E+02</totfact>
</mgrwt>
</event>
<event>
 4    1  0.1804641E-005  0.6986262E+03  0.7818608E-02  0.9719584E-01
         -2   -1    0    0    0  501 -0.00000000000E+00  0.00000000000E+00  0.17471367163E+03  0.17471367165E+03  0.25500000000E-02 0. -1.
          2   -1    0    0  501    0  0.00000000000E+00 -0.00000000000E+00 -0.69839785330E+03  0.69839785331E+03  0.25500000000E-02 0.  1.
   -5000001    1    1    2    0    0  0.12105065055E+03 -0.12962241717E+03 -0.47120651384E+03  0.56213059845E+03  0.25000000000E+03 0.  0.
    5000001    1    1    2    0    0 -0.12105065055E+03  0.12962241717E+03 -0.52477667831E+02  0.31098092651E+03  0.25000000000E+03 0.  0.
<mgrwt>
<rscale>  0 0.69862623E+03</rscale>
<asrwt>0</asrwt>
<pdfrwt beam="1">  1        2 0.10744582E+00 0.69862623E+03</pdfrwt>
<pdfrwt beam="2">  1       -2 0.26879027E-01 0.69862623E+03</pdfrwt>
<totfact> 0.51921388E+02</totfact>
</mgrwt>
</event>
<event>
 4    1  0.1804641E-005  0.5896389E+03  0.7818608E-02  0.9927138E-01
          2   -1    0    0  501    0  0.00000000000E+00  0.00000000000E+00  0.75269035406E+03  0.75269035406E+03  0.25500000000E-02 0.  1.
         -2   -1    0    0    0  501 -0.00000000000E+00 -0.00000000000E+00 -0.11547709345E+03  0.11547709347E+03  0.25500000000E-02 0. -1.
   -5000001    1    1    2    0    0  0.38809571391E+02  0.14065006771E+03  0.40097880909E+03  0.49454284923E+03  0.25000000000E+03 0.  0.
    5000001    1    1    2    0    0 -0.38809571391E+02 -0.14065006771E+03  0.23623445152E+03  0.37362459831E+03  0.25000000000E+03 0.  0.
<mgrwt>
<rscale>  0 0.58963885E+03</rscale>
<asrwt>0</asrwt>
<pdfrwt beam="1">  1        2 0.11579852E+00 0.58963885E+03</pdfrwt>
<pdfrwt beam="2">  1       -2 0.17765706E-01 0.58963885E+03</pdfrwt>
<totfact> 0.98382310E+02</totfact>
</mgrwt>
</event>
<event>
 4    1  0.1804641E-005  0.5993460E+03  0.7818608E-02  0.9906764E-01
         -2   -1    0    0    0  501 -0.00000000000E+00  0.00000000000E+00  0.54675896039E+02  0.54675896099E+02  0.25500000000E-02 0. -1.
          2   -1    0    0  501    0  0.00000000000E+00 -0.00000000000E+00 -0.16424769199E+04  0.16424769199E+04  0.25500000000E-02 0.  1.
   -5000001    1    1    2    0    0  0.11196267984E+03  0.75937831137E+02 -0.52523887000E+03  0.59722530626E+03  0.25000000000E+03 0.  0.
    5000001    1    1    2    0    0 -0.11196267984E+03 -0.75937831137E+02 -0.10625621539E+04  0.10999275098E+04  0.25000000000E+03 0.  0.
<mgrwt>
<rscale>  0 0.59934597E+03</rscale>
<asrwt>0</asrwt>
<pdfrwt beam="1">  1        2 0.25268872E+00 0.59934597E+03</pdfrwt>
<pdfrwt beam="2">  1       -2 0.84116776E-02 0.59934597E+03</pdfrwt>
<totfact> 0.98016467E+02</totfact>
</mgrwt>
</event>
<event>
 4    1  0.1804641E-005  0.6905504E+03  0.7818608E-02  0.9733530E-01
         -2   -1    0    0    0  501 -0.00000000000E+00  0.00000000000E+00  0.24646640893E+03  0.24646640895E+03  0.25500000000E-02 0. -1.
          2   -1    0    0  501    0  0.00000000000E+00 -0.00000000000E+00 -0.48369653506E+03  0.48369653506E+03  0.25500000000E-02 0.  1.
   -5000001    1    1    2    0    0  0.13477194071E+03 -0.14874098868E+03  0.16907425410E+02  0.32105018105E+03  0.25000000000E+03 0.  0.
    5000001    1    1    2    0    0 -0.13477194071E+03  0.14874098868E+03 -0.25413755153E+03  0.40911276296E+03  0.25000000000E+03 0.  0.
<mgrwt>
<rscale>  0 0.69055035E+03</rscale>
<asrwt>0</asrwt>
<pdfrwt beam="1">  1        2 0.74414851E-01 0.69055035E+03</pdfrwt>
<pdfrwt beam="2">  1       -2 0.37917909E-01 0.69055035E+03</pdfrwt>
<totfact> 0.42333720E+02</totfact>
</mgrwt>
</event>
<event>
 4    1  0.1804641E-005  0.8474456E+03  0.7818608E-02  0.9493772E-01
         -2   -1    0    0    0  501 -0.00000000000E+00  0.00000000000E+00  0.20109382902E+03  0.20109382904E+03  0.25500000000E-02 0. -1.
          2   -1    0    0  501    0  0.00000000000E+00 -0.00000000000E+00 -0.89282207935E+03  0.89282207935E+03  0.25500000000E-02 0.  1.
   -5000001    1    1    2    0    0 -0.27762813907E+03 -0.19572210784E+03 -0.29332707744E+03  0.51373660709E+03  0.25000000000E+03 0.  0.
    5000001    1    1    2    0    0  0.27762813907E+03  0.19572210784E+03 -0.39840117288E+03  0.58017930130E+03  0.25000000000E+03 0.  0.
<mgrwt>
<rscale>  0 0.84744560E+03</rscale>
<asrwt>0</asrwt>
<pdfrwt beam="1">  1        2 0.13735724E+00 0.84744560E+03</pdfrwt>
<pdfrwt beam="2">  1       -2 0.30937513E-01 0.84744560E+03</pdfrwt>
<totfact> 0.28791790E+02</totfact>
</mgrwt>
</event>
<event>
 4    1  0.1804641E-005  0.5834228E+03  0.7818608E-02  0.9940408E-01
         -2   -1    0    0    0  501 -0.00000000000E+00  0.00000000000E+00  0.61445519231E+02  0.61445519284E+02  0.25500000000E-02 0.  1.
          2   -1    0    0  501    0  0.00000000000E+00 -0.00000000000E+00 -0.13848940863E+04  0.13848940863E+04  0.25500000000E-02 0. -1.
   -5000001    1    1    2    0    0  0.11968570346E+03 -0.15694984632E+02 -0.88379784676E+03  0.92637445674E+03  0.25000000000E+03 0.  0.
    5000001    1    1    2    0    0 -0.11968570346E+03  0.15694984632E+02 -0.43965072035E+03  0.51996514889E+03  0.25000000000E+03 0.  0.
<mgrwt>
<rscale>  0 0.58342278E+03</rscale>
<asrwt>0</asrwt>
<pdfrwt beam="1">  1        2 0.21306061E+00 0.58342278E+03</pdfrwt>
<pdfrwt beam="2">  1       -2 0.94531578E-02 0.58342278E+03</pdfrwt>
<totfact> 0.11281458E+03</totfact>
</mgrwt>
</event>
<event>
 4    1  0.1804641E-005  0.9656224E+03  0.7818608E-02  0.9347074E-01
          2   -1    0    0  501    0  0.00000000000E+00  0.00000000000E+00  0.13016089279E+04  0.13016089279E+04  0.25500000000E-02 0.  1.
         -2   -1    0    0    0  501 -0.00000000000E+00 -0.00000000000E+00 -0.17909116893E+03  0.17909116895E+03  0.25500000000E-02 0. -1.
   -5000001    1    1    2    0    0  0.19047408894E+02 -0.39896854066E+03  0.39993686495E+03  0.61805193646E+03  0.25000000000E+03 0.  0.
    5000001    1    1    2    0    0 -0.19047408894E+02  0.39896854066E+03  0.72258089400E+03  0.86264816037E+03  0.25000000000E+03 0.  0.
<mgrwt>
<rscale>  0 0.96562242E+03</rscale>
<asrwt>0</asrwt>
<pdfrwt beam="1">  1        2 0.20024753E+00 0.96562242E+03</pdfrwt>
<pdfrwt beam="2">  1       -2 0.27552487E-01 0.96562242E+03</pdfrwt>
<totfact> 0.19781357E+02</totfact>
</mgrwt>
</event>
<event>
 4    1  0.1804641E-005  0.1127745E+04  0.7818608E-02  0.9178563E-01
         -2   -1    0    0    0  501 -0.00000000000E+00  0.00000000000E+00  0.54256857731E+03  0.54256857731E+03  0.25500000000E-02 0. -1.
          2   -1    0    0  501    0  0.00000000000E+00 -0.00000000000E+00 -0.58601333773E+03  0.58601333773E+03  0.25500000000E-02 0.  1.
   -5000001    1    1    2    0    0  0.46169001293E+03 -0.16055938441E+03  0.10688535266E+03  0.55934020289E+03  0.25000000000E+03 0.  0.
    5000001    1    1    2    0    0 -0.46169001293E+03  0.16055938441E+03 -0.15033011308E+03  0.56924171215E+03  0.25000000000E+03 0.  0.
<mgrwt>
<rscale>  0 0.11277454E+04</rscale>
<asrwt>0</asrwt>
<pdfrwt beam="1">  1        2 0.90155897E-01 0.11277454E+04</pdfrwt>
<pdfrwt beam="2">  1       -2 0.83472089E-01 0.11277454E+04</pdfrwt>
<totfact> 0.63550600E+01</totfact>
</mgrwt>
</event>
<event>
 4    1  0.1804641E-005  0.1914699E+04  0.7818608E-02  0.8647574E-01
          2   -1    0    0  501    0  0.00000000000E+00  0.00000000000E+00  0.45863373082E+04  0.45863373082E+04  0.25500000000E-02 0. -1.
         -2   -1    0    0    0  501 -0.00000000000E+00 -0.00000000000E+00 -0.19983662271E+03  0.19983662273E+03  0.25500000000E-02 0.  1.
   -5000001    1    1    2    0    0  0.90259510750E+03  0.72374404674E+02  0.26548643608E+04  0.28161535393E+04  0.25000000000E+03 0.  0.
    5000001    1    1    2    0    0 -0.90259510750E+03 -0.72374404674E+02  0.17316363247E+04  0.19700203916E+04  0.25000000000E+03 0.  0.
<mgrwt>
<rscale>  0 0.19146991E+04</rscale>
<asrwt>0</asrwt>
<pdfrwt beam="1">  1        2 0.70559033E+00 0.19146991E+04</pdfrwt>
<pdfrwt beam="2">  1       -2 0.30744097E-01 0.19146991E+04</pdfrwt>
<totfact> 0.94375490E-01</totfact>
</mgrwt>
</event>
<event>
 4    1  0.1804641E-005  0.1168234E+04  0.7818608E-02  0.9141125E-01
          2   -1    0    0  501    0  0.00000000000E+00  0.00000000000E+00  0.59335407358E+03  0.59335407358E+03  0.25500000000E-02 0.  1.
         -2   -1    0    0    0  501 -0.00000000000E+00 -0.00000000000E+00 -0.57502335525E+03  0.57502335526E+03  0.25500000000E-02 0. -1.
   -5000001    1    1    2    0    0  0.97206279257E+02  0.18710803268E+03  0.49320217962E+03  0.59178278668E+03  0.25000000000E+03 0.  0.
    5000001    1    1    2    0    0 -0.97206279257E+02 -0.18710803268E+03 -0.47487146130E+03  0.57659464217E+03  0.25000000000E+03 0.  0.
<mgrwt>
<rscale>  0 0.11682336E+04</rscale>
<asrwt>0</asrwt>
<pdfrwt beam="1">  1        2 0.91285242E-01 0.11682336E+04</pdfrwt>
<pdfrwt beam="2">  1       -2 0.88465132E-01 0.11682336E+04</pdfrwt>
<totfact> 0.54677651E+01</totfact>
</mgrwt>
</event>
<event>
 4    1  0.1804641E-005  0.7919654E+03  0.7818608E-02  0.9571720E-01
          2   -1    0    0  501    0  0.00000000000E+00  0.00000000000E+00  0.16710526918E+04  0.16710526918E+04  0.25500000000E-02 0.  1.
         -2   -1    0    0    0  501 -0.00000000000E+00 -0.00000000000E+00 -0.93834452183E+02  0.93834452218E+02  0.25500000000E-02 0. -1.
   -5000001    1    1    2    0    0 -0.17896881320E+03 -0.10520621485E+03  0.28433903277E+03  0.43179493894E+03  0.25000000000E+03 0.  0.
    5000001    1    1    2    0    0  0.17896881320E+03  0.10520621485E+03  0.12928792069E+04  0.13330922051E+04  0.25000000000E+03 0.  0.
<mgrwt>
<rscale>  0 0.79196544E+03</rscale>
<asrwt>0</asrwt>
<pdfrwt beam="1">  1        2 0.25708503E+00 0.79196544E+03</pdfrwt>
<pdfrwt beam="2">  1       -2 0.14436069E-01 0.79196544E+03</pdfrwt>
<totfact> 0.38547371E+02</totfact>
</mgrwt>
</event>
<event>
 4    1  0.1804641E-005  0.6929577E+03  0.7818608E-02  0.9729352E-01
          2   -1    0    0  501    0  0.00000000000E+00  0.00000000000E+00  0.10222728175E+04  0.10222728175E+04  0.25500000000E-02 0.  1.
         -2   -1    0    0    0  501 -0.00000000000E+00 -0.00000000000E+00 -0.11743205341E+03  0.11743205343E+03  0.25500000000E-02 0. -1.
   -5000001    1    1    2    0    0  0.16699161541E+03 -0.16336654612E+03  0.36274645457E+03  0.49865801740E+03  0.25000000000E+03 0.  0.
    5000001    1    1    2    0    0 -0.16699161541E+03  0.16336654612E+03  0.54209430951E+03  0.64104685352E+03  0.25000000000E+03 0.  0.
<mgrwt>
<rscale>  0 0.69295771E+03</rscale>
<asrwt>0</asrwt>
<pdfrwt beam="1">  1        2 0.15727274E+00 0.69295771E+03</pdfrwt>
<pdfrwt beam="2">  1       -2 0.18066470E-01 0.69295771E+03</pdfrwt>
<totfact> 0.62561910E+02</totfact>
</mgrwt>
</event>
<event>
 4    1  0.1804641E-005  0.5708493E+03  0.7818608E-02  0.9967801E-01
         -2   -1    0    0    0  501 -0.00000000000E+00  0.00000000000E+00  0.34514699978E+02  0.34514700072E+02  0.25500000000E-02 0. -1.
          2   -1    0    0  501    0  0.00000000000E+00 -0.00000000000E+00 -0.23603636896E+04  0.23603636896E+04  0.25500000000E-02 0.  1.
   -5000001    1    1    2    0    0  0.11784157615E+03  0.59815203128E+02 -0.10002927976E+04  0.10394951547E+04  0.25000000000E+03 0.  0.
    5000001    1    1    2    0    0 -0.11784157615E+03 -0.59815203128E+02 -0.13255561919E+04  0.13553832350E+04  0.25000000000E+03 0.  0.
<mgrwt>
<rscale>  0 0.57084935E+03</rscale>
<asrwt>0</asrwt>
<pdfrwt beam="1">  1        2 0.36313275E+00 0.57084935E+03</pdfrwt>
<pdfrwt beam="2">  1       -2 0.53099557E-02 0.57084935E+03</pdfrwt>
<totfact> 0.82504807E+02</totfact>
</mgrwt>
</event>
<event>
 4    1  0.1804641E-005  0.7664324E+03  0.7818608E-02  0.9609917E-01
         -2   -1    0    0    0  501 -0.00000000000E+00  0.00000000000E+00  0.11816883858E+03  0.11816883861E+03  0.25500000000E-02 0. -1.
          2   -1    0    0  501    0  0.00000000000E+00 -0.00000000000E+00 -0.12427527463E+04  0.12427527463E+04  0.25500000000E-02 0.  1.
   -5000001    1    1    2    0    0  0.66914778651E+02  0.28247598916E+03 -0.57860257024E+03  0.69393890678E+03  0.25000000000E+03 0.  0.
    5000001    1    1    2    0    0 -0.66914778651E+02 -0.28247598916E+03 -0.54598133749E+03  0.66698267814E+03  0.25000000000E+03 0.  0.
<mgrwt>
<rscale>  0 0.76643238E+03</rscale>
<asrwt>0</asrwt>
<pdfrwt beam="1">  1        2 0.19119272E+00 0.76643238E+03</pdfrwt>
<pdfrwt beam="2">  1       -2 0.18179822E-01 0.76643238E+03</pdfrwt>
<totfact> 0.45371610E+02</totfact>
</mgrwt>
</event>
<event>
 4    1  0.1804641E-005  0.1016697E+04  0.7818608E-02  0.9290419E-01
          2   -1    0    0  501    0  0.00000000000E+00  0.00000000000E+00  0.73343453161E+03  0.73343453161E+03  0.25500000000E-02 0.  1.
         -2   -1    0    0    0  501 -0.00000000000E+00 -0.00000000000E+00 -0.35234012644E+03  0.35234012645E+03  0.25500000000E-02 0. -1.
   -5000001    1    1    2    0    0  0.38861746639E+03 -0.29847750069E+02 -0.33476522967E+02  0.46425758040E+03  0.25000000000E+03 0.  0.
    5000001    1    1    2    0    0 -0.38861746639E+03  0.29847750069E+02  0.41457092814E+03  0.62151707766E+03  0.25000000000E+03 0.  0.
<mgrwt>
<rscale>  0 0.10166974E+04</rscale>
<asrwt>0</asrwt>
<pdfrwt beam="1">  1        2 0.11283608E+00 0.10166974E+04</pdfrwt>
<pdfrwt beam="2">  1       -2 0.54206174E-01 0.10166974E+04</pdfrwt>
<totfact> 0.12341424E+02</totfact>
</mgrwt>
</event>
<event>
 4    1  0.1804641E-005  0.5837135E+03  0.7818608E-02  0.9939784E-01
          2   -1    0    0  501    0  0.00000000000E+00  0.00000000000E+00  0.12551802931E+04  0.12551802931E+04  0.25500000000E-02 0.  1.
         -2   -1    0    0    0  501 -0.00000000000E+00 -0.00000000000E+00 -0.67863043261E+02  0.67863043309E+02  0.25500000000E-02 0. -1.
   -5000001    1    1    2    0    0 -0.11180154522E+03 -0.10074152337E+03  0.58085395121E+03  0.65003057827E+03  0.25000000000E+03 0.  0.
    5000001    1    1    2    0    0  0.11180154522E+03  0.10074152337E+03  0.60646329866E+03  0.67301275818E+03  0.25000000000E+03 0.  0.
<mgrwt>
<rscale>  0 0.58371347E+03</rscale>
<asrwt>0</asrwt>
<pdfrwt beam="1">  1        2 0.19310465E+00 0.58371347E+03</pdfrwt>
<pdfrwt beam="2">  1       -2 0.10440469E-01 0.58371347E+03</pdfrwt>
<totfact> 0.11384474E+03</totfact>
</mgrwt>
</event>
<event>
 4    1  0.1804641E-005  0.5782287E+03  0.7818608E-02  0.9951633E-01
          2   -1    0    0  501    0  0.00000000000E+00  0.00000000000E+00  0.16369924278E+04  0.16369924278E+04  0.25500000000E-02 0.  1.
         -2   -1    0    0    0  501 -0.00000000000E+00 -0.00000000000E+00 -0.51061382402E+02  0.51061382466E+02  0.25500000000E-02 0. -1.
   -5000001    1    1    2    0    0 -0.55799168285E+01  0.14374279329E+03  0.85091084967E+03  0.89846669397E+03  0.25000000000E+03 0.  0.
    5000001    1    1    2    0    0  0.55799168285E+01 -0.14374279329E+03  0.73502019574E+03  0.78958711631E+03  0.25000000000E+03 0.  0.
<mgrwt>
<rscale>  0 0.57822866E+03</rscale>
<asrwt>0</asrwt>
<pdfrwt beam="1">  1        2 0.25184494E+00 0.57822866E+03</pdfrwt>
<pdfrwt beam="2">  1       -2 0.78555988E-02 0.57822866E+03</pdfrwt>
<totfact> 0.11019121E+03</totfact>
</mgrwt>
</event>
<event>
 4    1  0.1804641E-005  0.8980737E+03  0.7818608E-02  0.9427993E-01
         -2   -1    0    0    0  501 -0.00000000000E+00  0.00000000000E+00  0.34894228788E+03  0.34894228789E+03  0.25500000000E-02 0. -1.
          2   -1    0    0  501    0  0.00000000000E+00 -0.00000000000E+00 -0.57784371527E+03  0.57784371528E+03  0.25500000000E-02 0.  1.
   -5000001    1    1    2    0    0 -0.56798704953E+02  0.30308954552E+03  0.10212737128E+03  0.40990165339E+03  0.25000000000E+03 0.  0.
    5000001    1    1    2    0    0  0.56798704953E+02 -0.30308954552E+03 -0.33102879867E+03  0.51688434977E+03  0.25000000000E+03 0.  0.
<mgrwt>
<rscale>  0 0.89807373E+03</rscale>
<asrwt>0</asrwt>
<pdfrwt beam="1">  1        2 0.88899033E-01 0.89807373E+03</pdfrwt>
<pdfrwt beam="2">  1       -2 0.53683429E-01 0.89807373E+03</pdfrwt>
<totfact> 0.17030251E+02</totfact>
</mgrwt>
</event>
<event>
 4    1  0.1804641E-005  0.1169339E+04  0.7818608E-02  0.9140126E-01
         -2   -1    0    0    0  501 -0.00000000000E+00  0.00000000000E+00  0.32051352582E+03  0.32051352583E+03  0.25500000000E-02 0. -1.
          2   -1    0    0  501    0  0.00000000000E+00 -0.00000000000E+00 -0.10665331911E+04  0.10665331911E+04  0.25500000000E-02 0.  1.
   -5000001    1    1    2    0    0  0.14736179505E+03  0.50727406352E+03 -0.39341211134E+03  0.70449667388E+03  0.25000000000E+03 0.  0.
    5000001    1    1    2    0    0 -0.14736179505E+03 -0.50727406352E+03 -0.35260755389E+03  0.68255004302E+03  0.25000000000E+03 0.  0.
<mgrwt>
<rscale>  0 0.11693388E+04</rscale>
<asrwt>0</asrwt>
<pdfrwt beam="1">  1        2 0.16408203E+00 0.11693388E+04</pdfrwt>
<pdfrwt beam="2">  1       -2 0.49309774E-01 0.11693388E+04</pdfrwt>
<totfact> 0.87949170E+01</totfact>
</mgrwt>
</event>
<event>
 4    1  0.1804641E-005  0.7600654E+03  0.7818608E-02  0.9619690E-01
         -2   -1    0    0    0  501 -0.00000000000E+00  0.00000000000E+00  0.61441104635E+02  0.61441104687E+02  0.25500000000E-02 0. -1.
          2   -1    0    0  501    0  0.00000000000E+00 -0.00000000000E+00 -0.23506229572E+04  0.23506229572E+04  0.25500000000E-02 0.  1.
   -5000001    1    1    2    0    0 -0.25875735383E+03  0.10936695534E+03 -0.13186527866E+04  0.13712263383E+04  0.25000000000E+03 0.  0.
    5000001    1    1    2    0    0  0.25875735383E+03 -0.10936695534E+03 -0.97052906598E+03  0.10408377237E+04  0.25000000000E+03 0.  0.
<mgrwt>
<rscale>  0 0.76006545E+03</rscale>
<asrwt>0</asrwt>
<pdfrwt beam="1">  1        2 0.36163423E+00 0.76006545E+03</pdfrwt>
<pdfrwt beam="2">  1       -2 0.94524795E-02 0.76006545E+03</pdfrwt>
<totfact> 0.32945142E+02</totfact>
</mgrwt>
</event>
<event>
 4    1  0.1804641E-005  0.6890368E+03  0.7818608E-02  0.9736167E-01
          2   -1    0    0  501    0  0.00000000000E+00  0.00000000000E+00  0.90470517637E+03  0.90470517637E+03  0.25500000000E-02 0.  1.
         -2   -1    0    0    0  501 -0.00000000000E+00 -0.00000000000E+00 -0.13119512764E+03  0.13119512766E+03  0.25500000000E-02 0. -1.
   -5000001    1    1    2    0    0 -0.29398443838E+02  0.22981158465E+03  0.46215454496E+03  0.57425121364E+03  0.25000000000E+03 0.  0.
    5000001    1    1    2    0    0  0.29398443838E+02 -0.22981158465E+03  0.31135550377E+03  0.46164909040E+03  0.25000000000E+03 0.  0.
<mgrwt>
<rscale>  0 0.68903675E+03</rscale>
<asrwt>0</asrwt>
<pdfrwt beam="1">  1        2 0.13918541E+00 0.68903675E+03</pdfrwt>
<pdfrwt beam="2">  1       -2 0.20183866E-01 0.68903675E+03</pdfrwt>
<totfact> 0.61515070E+02</totfact>
</mgrwt>
</event>
<event>
 4    1  0.1804641E-005  0.6875059E+03  0.7818608E-02  0.9738841E-01
          2   -1    0    0  501    0  0.00000000000E+00  0.00000000000E+00  0.41659054265E+03  0.41659054265E+03  0.25500000000E-02 0.  1.
         -2   -1    0    0    0  501 -0.00000000000E+00 -0.00000000000E+00 -0.28365042195E+03  0.28365042196E+03  0.25500000000E-02 0. -1.
   -5000001    1    1    2    0    0  0.20501724250E+03  0.55924475306E+02  0.17086980558E+03  0.36994068054E+03  0.25000000000E+03 0.  0.
    5000001    1    1    2    0    0 -0.20501724250E+03 -0.55924475306E+02 -0.37929684886E+02  0.33030028407E+03  0.25000000000E+03 0.  0.
<mgrwt>
<rscale>  0 0.68750588E+03</rscale>
<asrwt>0</asrwt>
<pdfrwt beam="1">  1        2 0.64090853E-01 0.68750588E+03</pdfrwt>
<pdfrwt beam="2">  1       -2 0.43638527E-01 0.68750588E+03</pdfrwt>
<totfact> 0.38141309E+02</totfact>
</mgrwt>
</event>
<event>
 4    1  0.1804641E-005  0.6893989E+03  0.7818608E-02  0.9735535E-01
          2   -1    0    0  501    0  0.00000000000E+00  0.00000000000E+00  0.72366327051E+03  0.72366327052E+03  0.25500000000E-02 0.  1.
         -2   -1    0    0    0  501 -0.00000000000E+00 -0.00000000000E+00 -0.16418920584E+03  0.16418920586E+03  0.25500000000E-02 0. -1.
   -5000001    1    1    2    0    0  0.22490625322E+03 -0.70801787238E+02  0.31434159757E+03  0.46573206437E+03  0.25000000000E+03 0.  0.
    5000001    1    1    2    0    0 -0.22490625322E+03  0.70801787238E+02  0.24513246710E+03  0.42212041201E+03  0.25000000000E+03 0.  0.
<mgrwt>
<rscale>  0 0.68939886E+03</rscale>
<asrwt>0</asrwt>
<pdfrwt beam="1">  1        2 0.11133281E+00 0.68939886E+03</pdfrwt>
<pdfrwt beam="2">  1       -2 0.25259878E-01 0.68939886E+03</pdfrwt>
<totfact> 0.55569995E+02</totfact>
</mgrwt>
</event>
<event>
 4    1  0.1804641E-005  0.9448034E+03  0.7818608E-02  0.9371245E-01
         -2   -1    0    0    0  501 -0.00000000000E+00  0.00000000000E+00  0.24555548116E+03  0.24555548117E+03  0.25500000000E-02 0. -1.
          2   -1    0    0  501    0  0.00000000000E+00 -0.00000000000E+00 -0.90881036999E+03  0.90881036999E+03  0.25500000000E-02 0.  1.
   -5000001    1    1    2    0    0 -0.11737911278E+03  0.38083932091E+03 -0.27911932759E+03  0.54701375074E+03  0.25000000000E+03 0.  0.
    5000001    1    1    2    0    0  0.11737911278E+03 -0.38083932091E+03 -0.38413556124E+03  0.60735210042E+03  0.25000000000E+03 0.  0.
<mgrwt>
<rscale>  0 0.94480340E+03</rscale>
<asrwt>0</asrwt>
<pdfrwt beam="1">  1        2 0.13981698E+00 0.94480340E+03</pdfrwt>
<pdfrwt beam="2">  1       -2 0.37777767E-01 0.94480340E+03</pdfrwt>
<totfact> 0.19122863E+02</totfact>
</mgrwt>
</event>
<event>
 4    1  0.1804641E-005  0.8879606E+03  0.7818608E-02  0.9440758E-01
         -2   -1    0    0    0  501 -0.00000000000E+00  0.00000000000E+00  0.85180861754E+02  0.85180861792E+02  0.25500000000E-02 0. -1.
          2   -1    0    0  501    0  0.00000000000E+00 -0.00000000000E+00 -0.23141171361E+04  0.23141171361E+04  0.25500000000E-02 0.  1.
   -5000001    1    1    2    0    0  0.36447520153E+03  0.36300622463E+02 -0.10566052574E+04  0.11458946626E+04  0.25000000000E+03 0.  0.
    5000001    1    1    2    0    0 -0.36447520153E+03 -0.36300622463E+02 -0.11723310169E+04  0.12534033353E+04  0.25000000000E+03 0.  0.
<mgrwt>
<rscale>  0 0.88796057E+03</rscale>
<asrwt>0</asrwt>
<pdfrwt beam="1">  1        2 0.35601797E+00 0.88796057E+03</pdfrwt>
<pdfrwt beam="2">  1       -2 0.13104750E-01 0.88796057E+03</pdfrwt>
<totfact> 0.19951051E+02</totfact>
</mgrwt>
</event>
<event>
 4    1  0.1804641E-005  0.7508555E+03  0.7818608E-02  0.9634009E-01
          2   -1    0    0  501    0  0.00000000000E+00  0.00000000000E+00  0.82676198776E+03  0.82676198777E+03  0.25500000000E-02 0.  1.
         -2   -1    0    0    0  501 -0.00000000000E+00 -0.00000000000E+00 -0.17047953248E+03  0.17047953250E+03  0.25500000000E-02 0. -1.
   -5000001    1    1    2    0    0 -0.12618848939E+01  0.27422295798E+03  0.25247015530E+03  0.44882179354E+03  0.25000000000E+03 0.  0.
    5000001    1    1    2    0    0  0.12618848939E+01 -0.27422295798E+03  0.40381229998E+03  0.54841972672E+03  0.25000000000E+03 0.  0.
<mgrwt>
<rscale>  0 0.75085550E+03</rscale>
<asrwt>0</asrwt>
<pdfrwt beam="1">  1        2 0.12719415E+00 0.75085550E+03</pdfrwt>
<pdfrwt beam="2">  1       -2 0.26227621E-01 0.75085550E+03</pdfrwt>
<totfact> 0.43531454E+02</totfact>
</mgrwt>
</event>
<event>
 4    1  0.1804641E-005  0.8526303E+03  0.7818608E-02  0.9486813E-01
          2   -1    0    0  501    0  0.00000000000E+00  0.00000000000E+00  0.12190477941E+04  0.12190477941E+04  0.25500000000E-02 0. -1.
         -2   -1    0    0    0  501 -0.00000000000E+00 -0.00000000000E+00 -0.14908734977E+03  0.14908734979E+03  0.25500000000E-02 0.  1.
   -5000001    1    1    2    0    0 -0.20269527235E+03 -0.24458078808E+03  0.75228117192E+03  0.85400942439E+03  0.25000000000E+03 0.  0.
    5000001    1    1    2    0    0  0.20269527235E+03  0.24458078808E+03  0.31767927242E+03  0.51412571951E+03  0.25000000000E+03 0.  0.
<mgrwt>
<rscale>  0 0.85263029E+03</rscale>
<asrwt>0</asrwt>
<pdfrwt beam="1">  1        2 0.18754580E+00 0.85263029E+03</pdfrwt>
<pdfrwt beam="2">  1       -2 0.22936517E-01 0.85263029E+03</pdfrwt>
<totfact> 0.31009085E+02</totfact>
</mgrwt>
</event>
<event>
 4    1  0.1804641E-005  0.5513626E+03  0.7818608E-02  0.1001179E+00
          2   -1    0    0  501    0  0.00000000000E+00  0.00000000000E+00  0.22962733522E+03  0.22962733523E+03  0.25500000000E-02 0.  1.
         -2   -1    0    0    0  501 -0.00000000000E+00 -0.00000000000E+00 -0.33097185671E+03  0.33097185672E+03  0.25500000000E-02 0. -1.
   -5000001    1    1    2    0    0 -0.16566095086E+02 -0.10525851961E+03 -0.35669501000E+01  0.27178394837E+03  0.25000000000E+03 0.  0.
    5000001    1    1    2    0    0  0.16566095086E+02  0.10525851961E+03 -0.97777571389E+02  0.28881524358E+03  0.25000000000E+03 0.  0.
<mgrwt>
<rscale>  0 0.55136262E+03</rscale>
<asrwt>0</asrwt>
<pdfrwt beam="1">  1        2 0.35327282E-01 0.55136262E+03</pdfrwt>
<pdfrwt beam="2">  1       -2 0.50918747E-01 0.55136262E+03</pdfrwt>
<totfact> 0.54387179E+02</totfact>
</mgrwt>
</event>
<event>
 4    1  0.1804641E-005  0.1260305E+04  0.7818608E-02  0.9061649E-01
         -2   -1    0    0    0  501 -0.00000000000E+00  0.00000000000E+00  0.28052067451E+03  0.28052067452E+03  0.25500000000E-02 0. -1.
          2   -1    0    0  501    0  0.00000000000E+00 -0.00000000000E+00 -0.14155549738E+04  0.14155549738E+04  0.25500000000E-02 0.  1.
   -5000001    1    1    2    0    0 -0.50226894179E+02 -0.37322027833E+03 -0.11583930233E+04  0.12434590920E+04  0.25000000000E+03 0.  0.
    5000001    1    1    2    0    0  0.50226894179E+02  0.37322027833E+03  0.23358724016E+02  0.45261655631E+03  0.25000000000E+03 0.  0.
<mgrwt>
<rscale>  0 0.12603054E+04</rscale>
<asrwt>0</asrwt>
<pdfrwt beam="1">  1        2 0.21777768E+00 0.12603054E+04</pdfrwt>
<pdfrwt beam="2">  1       -2 0.43157028E-01 0.12603054E+04</pdfrwt>
<totfact> 0.70898221E+01</totfact>
</mgrwt>
</event>
<event>
 4    1  0.1804641E-005  0.7380637E+03  0.7818608E-02  0.9654265E-01
         -2   -1    0    0    0  501 -0.00000000000E+00  0.00000000000E+00  0.66212724377E+02  0.66212724426E+02  0.25500000000E-02 0. -1.
          2   -1    0    0  501    0  0.00000000000E+00 -0.00000000000E+00 -0.20567723123E+04  0.20567723123E+04  0.25500000000E-02 0.  1.
   -5000001    1    1    2    0    0  0.77755551633E+02 -0.21649014116E+03 -0.14098303763E+04  0.14501846768E+04  0.25000000000E+03 0.  0.
    5000001    1    1    2    0    0 -0.77755551633E+02  0.21649014116E+03 -0.58072921169E+03  0.67280035994E+03  0.25000000000E+03 0.  0.
<mgrwt>
<rscale>  0 0.73806368E+03</rscale>
<asrwt>0</asrwt>
<pdfrwt beam="1">  1        2 0.31642646E+00 0.73806368E+03</pdfrwt>
<pdfrwt beam="2">  1       -2 0.10186575E-01 0.73806368E+03</pdfrwt>
<totfact> 0.42446637E+02</totfact>
</mgrwt>
</event>
<event>
 4    1  0.1804641E-005  0.7665789E+03  0.7818608E-02  0.9609694E-01
         -2   -1    0    0    0  501 -0.00000000000E+00  0.00000000000E+00  0.10787501245E+03  0.10787501248E+03  0.25500000000E-02 0. -1.
          2   -1    0    0  501    0  0.00000000000E+00 -0.00000000000E+00 -0.13618612135E+04  0.13618612135E+04  0.25500000000E-02 0.  1.
   -5000001    1    1    2    0    0 -0.22349855870E+03  0.18536888463E+03 -0.60805517643E+03  0.71871018269E+03  0.25000000000E+03 0.  0.
    5000001    1    1    2    0    0  0.22349855870E+03 -0.18536888463E+03 -0.64593102463E+03  0.75102604329E+03  0.25000000000E+03 0.  0.
<mgrwt>
<rscale>  0 0.76657888E+03</rscale>
<asrwt>0</asrwt>
<pdfrwt beam="1">  1        2 0.20951710E+00 0.76657888E+03</pdfrwt>
<pdfrwt beam="2">  1       -2 0.16596157E-01 0.76657888E+03</pdfrwt>
<totfact> 0.45304015E+02</totfact>
</mgrwt>
</event>
<event>
 4    1  0.1804641E-005  0.7014177E+03  0.7818608E-02  0.9714811E-01
          2   -1    0    0  501    0  0.00000000000E+00  0.00000000000E+00  0.95043683281E+03  0.95043683281E+03  0.25500000000E-02 0.  1.
         -2   -1    0    0    0  501 -0.00000000000E+00 -0.00000000000E+00 -0.12941069337E+03  0.12941069340E+03  0.25500000000E-02 0. -1.
   -5000001    1    1    2    0    0 -0.21607726209E+03 -0.94898511158E+02  0.30383435674E+03  0.45881415295E+03  0.25000000000E+03 0.  0.
    5000001    1    1    2    0    0  0.21607726209E+03  0.94898511158E+02  0.51719178270E+03  0.62103337326E+03  0.25000000000E+03 0.  0.
<mgrwt>
<rscale>  0 0.70141768E+03</rscale>
<asrwt>0</asrwt>
<pdfrwt beam="1">  1        2 0.14622106E+00 0.70141768E+03</pdfrwt>
<pdfrwt beam="2">  1       -2 0.19909337E-01 0.70141768E+03</pdfrwt>
<totfact> 0.58746428E+02</totfact>
</mgrwt>
</event>
<event>
 4    1  0.1804641E-005  0.9942636E+03  0.7818608E-02  0.9314859E-01
          2   -1    0    0  501    0  0.00000000000E+00  0.00000000000E+00  0.71045196985E+03  0.71045196985E+03  0.25500000000E-02 0.  1.
         -2   -1    0    0    0  501 -0.00000000000E+00 -0.00000000000E+00 -0.34786309554E+03  0.34786309555E+03  0.25500000000E-02 0. -1.
   -5000001    1    1    2    0    0 -0.40938069475E+03 -0.97236646184E+02  0.88546144158E+02  0.49738107950E+03  0.25000000000E+03 0.  0.
    5000001    1    1    2    0    0  0.40938069475E+03  0.97236646184E+02  0.27404273015E+03  0.56093398591E+03  0.25000000000E+03 0.  0.
<mgrwt>
<rscale>  0 0.99426359E+03</rscale>
<asrwt>0</asrwt>
<pdfrwt beam="1">  1        2 0.10930030E+00 0.99426359E+03</pdfrwt>
<pdfrwt beam="2">  1       -2 0.53517400E-01 0.99426359E+03</pdfrwt>
<totfact> 0.13216428E+02</totfact>
</mgrwt>
</event>
<event>
 4    1  0.1804641E-005  0.5387622E+03  0.7818608E-02  0.1004129E+00
          2   -1    0    0  501    0  0.00000000000E+00  0.00000000000E+00  0.47509757910E+03  0.47509757910E+03  0.25500000000E-02 0.  1.
         -2   -1    0    0    0  501 -0.00000000000E+00 -0.00000000000E+00 -0.15273951206E+03  0.15273951208E+03  0.25500000000E-02 0. -1.
   -5000001    1    1    2    0    0  0.79188556859E+02  0.60939001013E+02  0.15064046833E+03  0.30850760134E+03  0.25000000000E+03 0.  0.
    5000001    1    1    2    0    0 -0.79188556859E+02 -0.60939001013E+02  0.17171759870E+03  0.31932948985E+03  0.25000000000E+03 0.  0.
<mgrwt>
<rscale>  0 0.53876218E+03</rscale>
<asrwt>0</asrwt>
<pdfrwt beam="1">  1        2 0.73091935E-01 0.53876218E+03</pdfrwt>
<pdfrwt beam="2">  1       -2 0.23498387E-01 0.53876218E+03</pdfrwt>
<totfact> 0.10496375E+03</totfact>
</mgrwt>
</event>
<event>
 4    1  0.1804641E-005  0.5804854E+03  0.7818608E-02  0.9946741E-01
         -2   -1    0    0    0  501 -0.00000000000E+00  0.00000000000E+00  0.40653900446E+02  0.40653900526E+02  0.25500000000E-02 0. -1.
          2   -1    0    0  501    0  0.00000000000E+00 -0.00000000000E+00 -0.20721462044E+04  0.20721462044E+04  0.25500000000E-02 0.  1.
   -5000001    1    1    2    0    0  0.10031885435E+03 -0.41833709097E+02 -0.65310774732E+03  0.70771721850E+03  0.25000000000E+03 0.  0.
    5000001    1    1    2    0    0 -0.10031885435E+03  0.41833709097E+02 -0.13783845566E+04  0.14050828864E+04  0.25000000000E+03 0.  0.
<mgrwt>
<rscale>  0 0.58048540E+03</rscale>
<asrwt>0</asrwt>
<pdfrwt beam="1">  1        2 0.31879164E+00 0.58048540E+03</pdfrwt>
<pdfrwt beam="2">  1       -2 0.62544478E-02 0.58048540E+03</pdfrwt>
<totfact> 0.91819313E+02</totfact>
</mgrwt>
</event>
<event>
 4    1  0.1804641E-005  0.1051353E+04  0.7818608E-02  0.9253948E-01
          2   -1    0    0  501    0  0.00000000000E+00  0.00000000000E+00  0.23441725489E+04  0.23441725489E+04  0.25500000000E-02 0.  1.
         -2   -1    0    0    0  501 -0.00000000000E+00 -0.00000000000E+00 -0.11788203981E+03  0.11788203984E+03  0.25500000000E-02 0. -1.
   -5000001    1    1    2    0    0  0.19620780746E+03  0.39020701393E+03  0.75740165481E+03  0.90934937408E+03  0.25000000000E+03 0.  0.
    5000001    1    1    2    0    0 -0.19620780746E+03 -0.39020701393E+03  0.14688888543E+04  0.15527052147E+04  0.25000000000E+03 0.  0.
<mgrwt>
<rscale>  0 0.10513531E+04</rscale>
<asrwt>0</asrwt>
<pdfrwt beam="1">  1        2 0.36064195E+00 0.10513531E+04</pdfrwt>
<pdfrwt beam="2">  1       -2 0.18135698E-01 0.10513531E+04</pdfrwt>
<totfact> 0.10885666E+02</totfact>
</mgrwt>
</event>
<event>
 4    1  0.1804641E-005  0.1266762E+04  0.7818608E-02  0.9056346E-01
          2   -1    0    0  501    0  0.00000000000E+00  0.00000000000E+00  0.78690894495E+03  0.78690894495E+03  0.25500000000E-02 0. -1.
         -2   -1    0    0    0  501 -0.00000000000E+00 -0.00000000000E+00 -0.50980685736E+03  0.50980685736E+03  0.25500000000E-02 0.  1.
   -5000001    1    1    2    0    0 -0.42433965038E+03 -0.39703160618E+03  0.10661491630E+03  0.64153330044E+03  0.25000000000E+03 0.  0.
    5000001    1    1    2    0    0  0.42433965038E+03  0.39703160618E+03  0.17048717130E+03  0.65518250188E+03  0.25000000000E+03 0.  0.
<mgrwt>
<rscale>  0 0.12667621E+04</rscale>
<asrwt>0</asrwt>
<pdfrwt beam="1">  1        2 0.12106291E+00 0.12667621E+04</pdfrwt>
<pdfrwt beam="2">  1       -2 0.78431825E-01 0.12667621E+04</pdfrwt>
<totfact> 0.50009612E+01</totfact>
</mgrwt>
</event>
<event>
 4    1  0.1804641E-005  0.7152675E+03  0.7818608E-02  0.9691473E-01
         -2   -1    0    0    0  501 -0.00000000000E+00  0.00000000000E+00  0.72843736525E+02  0.72843736570E+02  0.25500000000E-02 0. -1.
          2   -1    0    0  501    0  0.00000000000E+00 -0.00000000000E+00 -0.17558393592E+04  0.17558393593E+04  0.25500000000E-02 0.  1.
   -5000001    1    1    2    0    0 -0.11001625008E+03 -0.22651852002E+03 -0.72751386628E+03  0.80943847254E+03  0.25000000000E+03 0.  0.
    5000001    1    1    2    0    0  0.11001625008E+03  0.22651852002E+03 -0.95548175644E+03  0.10192446233E+04  0.25000000000E+03 0.  0.
<mgrwt>
<rscale>  0 0.71526750E+03</rscale>
<asrwt>0</asrwt>
<pdfrwt beam="1">  1        2 0.27012910E+00 0.71526750E+03</pdfrwt>
<pdfrwt beam="2">  1       -2 0.11206730E-01 0.71526750E+03</pdfrwt>
<totfact> 0.53046259E+02</totfact>
</mgrwt>
</event>
<event>
 4    1  0.1804641E-005  0.6513694E+03  0.7818608E-02  0.9804213E-01
         -2   -1    0    0    0  501 -0.00000000000E+00  0.00000000000E+00  0.85077016395E+02  0.85077016433E+02  0.25500000000E-02 0. -1.
          2   -1    0    0  501    0  0.00000000000E+00 -0.00000000000E+00 -0.12467589993E+04  0.12467589993E+04  0.25500000000E-02 0.  1.
   -5000001    1    1    2    0    0  0.20534601752E+03 -0.19117287684E+02 -0.51496329204E+03  0.60845677722E+03  0.25000000000E+03 0.  0.
    5000001    1    1    2    0    0 -0.20534601752E+03  0.19117287684E+02 -0.64671869085E+03  0.72337923850E+03  0.25000000000E+03 0.  0.
<mgrwt>
<rscale>  0 0.65136944E+03</rscale>
<asrwt>0</asrwt>
<pdfrwt beam="1">  1        2 0.19180906E+00 0.65136944E+03</pdfrwt>
<pdfrwt beam="2">  1       -2 0.13088773E-01 0.65136944E+03</pdfrwt>
<totfact> 0.79182377E+02</totfact>
</mgrwt>
</event>
<event>
 4    1  0.1804641E-005  0.5892033E+03  0.7818608E-02  0.9928062E-01
         -2   -1    0    0    0  501 -0.00000000000E+00  0.00000000000E+00  0.13042177590E+03  0.13042177592E+03  0.25500000000E-02 0. -1.
          2   -1    0    0  501    0  0.00000000000E+00 -0.00000000000E+00 -0.66545745849E+03  0.66545745849E+03  0.25500000000E-02 0.  1.
   -5000001    1    1    2    0    0  0.15411410351E+03 -0.23172157007E+02 -0.26558960797E+03  0.39664334814E+03  0.25000000000E+03 0.  0.
    5000001    1    1    2    0    0 -0.15411410351E+03  0.23172157007E+02 -0.26944607462E+03  0.39923588627E+03  0.25000000000E+03 0.  0.
<mgrwt>
<rscale>  0 0.58920334E+03</rscale>
<asrwt>0</asrwt>
<pdfrwt beam="1">  1        2 0.10237807E+00 0.58920334E+03</pdfrwt>
<pdfrwt beam="2">  1       -2 0.20064889E-01 0.58920334E+03</pdfrwt>
<totfact> 0.93062400E+02</totfact>
</mgrwt>
</event>
<event>
 4    1  0.1804641E-005  0.8426166E+03  0.7818608E-02  0.9500301E-01
         -2   -1    0    0    0  501 -0.00000000000E+00  0.00000000000E+00  0.22579043723E+03  0.22579043724E+03  0.25500000000E-02 0. -1.
          2   -1    0    0  501    0  0.00000000000E+00 -0.00000000000E+00 -0.78613028624E+03  0.78613028624E+03  0.25500000000E-02 0.  1.
   -5000001    1    1    2    0    0 -0.23105995743E+03  0.24063945289E+03 -0.35326533329E+03  0.54643613160E+03  0.25000000000E+03 0.  0.
    5000001    1    1    2    0    0  0.23105995743E+03 -0.24063945289E+03 -0.20707451573E+03  0.46548459189E+03  0.25000000000E+03 0.  0.
<mgrwt>
<rscale>  0 0.84261664E+03</rscale>
<asrwt>0</asrwt>
<pdfrwt beam="1">  1        2 0.12094312E+00 0.84261664E+03</pdfrwt>
<pdfrwt beam="2">  1       -2 0.34736991E-01 0.84261664E+03</pdfrwt>
<totfact> 0.27504616E+02</totfact>
</mgrwt>
</event>
<event>
 4    1  0.1804641E-005  0.6230380E+03  0.7818608E-02  0.9858730E-01
         -2   -1    0    0    0  501 -0.00000000000E+00  0.00000000000E+00  0.69299969839E+02  0.69299969886E+02  0.25500000000E-02 0. -1.
          2   -1    0    0  501    0  0.00000000000E+00 -0.00000000000E+00 -0.14003481158E+04  0.14003481158E+04  0.25500000000E-02 0.  1.
   -5000001    1    1    2    0    0 -0.41321588071E+02 -0.12269551644E+03 -0.98007737361E+03  0.10197123720E+04  0.25000000000E+03 0.  0.
    5000001    1    1    2    0    0  0.41321588071E+02  0.12269551644E+03 -0.35097077239E+03  0.44993571370E+03  0.25000000000E+03 0.  0.
<mgrwt>
<rscale>  0 0.62303798E+03</rscale>
<asrwt>0</asrwt>
<pdfrwt beam="1">  1        2 0.21543815E+00 0.62303798E+03</pdfrwt>
<pdfrwt beam="2">  1       -2 0.10661535E-01 0.62303798E+03</pdfrwt>
<totfact> 0.90825045E+02</totfact>
</mgrwt>
</event>
<event>
 4    1  0.1804641E-005  0.1618021E+04  0.7818608E-02  0.8809553E-01
         -2   -1    0    0    0  501 -0.00000000000E+00  0.00000000000E+00  0.18599670144E+03  0.18599670146E+03  0.25500000000E-02 0. -1.
          2   -1    0    0  501    0  0.00000000000E+00 -0.00000000000E+00 -0.35188674588E+04  0.35188674588E+04  0.25500000000E-02 0.  1.
   -5000001    1    1    2    0    0 -0.57200555297E+03  0.47736926393E+03 -0.12264338412E+04  0.14566096710E+04  0.25000000000E+03 0.  0.
    5000001    1    1    2    0    0  0.57200555297E+03 -0.47736926393E+03 -0.21064369161E+04  0.22482544892E+04  0.25000000000E+03 0.  0.
<mgrwt>
<rscale>  0 0.16180207E+04</rscale>
<asrwt>0</asrwt>
<pdfrwt beam="1">  1        2 0.54136417E+00 0.16180207E+04</pdfrwt>
<pdfrwt beam="2">  1       -2 0.28614880E-01 0.16180207E+04</pdfrwt>
<totfact> 0.85557062E+00</totfact>
</mgrwt>
</event>
<event>
 4    1  0.1804641E-005  0.1154564E+04  0.7818608E-02  0.9153583E-01
         -2   -1    0    0    0  501 -0.00000000000E+00  0.00000000000E+00  0.54784367338E+03  0.54784367339E+03  0.25500000000E-02 0. -1.
          2   -1    0    0  501    0  0.00000000000E+00 -0.00000000000E+00 -0.60830235146E+03  0.60830235146E+03  0.25500000000E-02 0.  1.
   -5000001    1    1    2    0    0  0.19400877512E+03 -0.45551186823E+03  0.13006536273E+03  0.56969067528E+03  0.25000000000E+03 0.  0.
    5000001    1    1    2    0    0 -0.19400877512E+03  0.45551186823E+03 -0.19052404080E+03  0.58645534957E+03  0.25000000000E+03 0.  0.
<mgrwt>
<rscale>  0 0.11545642E+04</rscale>
<asrwt>0</asrwt>
<pdfrwt beam="1">  1        2 0.93584977E-01 0.11545642E+04</pdfrwt>
<pdfrwt beam="2">  1       -2 0.84283642E-01 0.11545642E+04</pdfrwt>
<totfact> 0.59321615E+01</totfact>
</mgrwt>
</event>
<event>
 4    1  0.1804641E-005  0.7327627E+03  0.7818608E-02  0.9662788E-01
         -2   -1    0    0    0  501 -0.00000000000E+00  0.00000000000E+00  0.10731187504E+03  0.10731187507E+03  0.25500000000E-02 0. -1.
          2   -1    0    0  501    0  0.00000000000E+00 -0.00000000000E+00 -0.12508893711E+04  0.12508893711E+04  0.25500000000E-02 0.  1.
   -5000001    1    1    2    0    0 -0.23538064731E+03 -0.23259895713E+01 -0.80861963884E+03  0.87850735892E+03  0.25000000000E+03 0.  0.
    5000001    1    1    2    0    0  0.23538064731E+03  0.23259895713E+01 -0.33495785720E+03  0.47969388724E+03  0.25000000000E+03 0.  0.
<mgrwt>
<rscale>  0 0.73276267E+03</rscale>
<asrwt>0</asrwt>
<pdfrwt beam="1">  1        2 0.19244451E+00 0.73276267E+03</pdfrwt>
<pdfrwt beam="2">  1       -2 0.16509520E-01 0.73276267E+03</pdfrwt>
<totfact> 0.53048217E+02</totfact>
</mgrwt>
</event>
<event>
 4    1  0.1804641E-005  0.5478766E+03  0.7818608E-02  0.1001987E+00
         -2   -1    0    0    0  501 -0.00000000000E+00  0.00000000000E+00  0.23268694276E+02  0.23268694416E+02  0.25500000000E-02 0. -1.
          2   -1    0    0  501    0  0.00000000000E+00 -0.00000000000E+00 -0.32250280555E+04  0.32250280555E+04  0.25500000000E-02 0.  1.
   -5000001    1    1    2    0    0 -0.98216968676E+02  0.53289849802E+02 -0.15565868874E+04  0.15804901515E+04  0.25000000000E+03 0.  0.
    5000001    1    1    2    0    0  0.98216968676E+02 -0.53289849802E+02 -0.16451724739E+04  0.16678065985E+04  0.25000000000E+03 0.  0.
<mgrwt>
<rscale>  0 0.54787660E+03</rscale>
<asrwt>0</asrwt>
<pdfrwt beam="1">  1        2 0.49615781E+00 0.54787660E+03</pdfrwt>
<pdfrwt beam="2">  1       -2 0.35798017E-02 0.54787660E+03</pdfrwt>
<totfact> 0.47060704E+02</totfact>
</mgrwt>
</event>
<event>
 4    1  0.1804641E-005  0.6524285E+03  0.7818608E-02  0.9802233E-01
         -2   -1    0    0    0  501 -0.00000000000E+00  0.00000000000E+00  0.10333474912E+03  0.10333474915E+03  0.25500000000E-02 0. -1.
          2   -1    0    0  501    0  0.00000000000E+00 -0.00000000000E+00 -0.10298157051E+04  0.10298157051E+04  0.25500000000E-02 0.  1.
   -5000001    1    1    2    0    0 -0.17556412404E+03  0.98961632122E+02 -0.36347413673E+03  0.48500475704E+03  0.25000000000E+03 0.  0.
    5000001    1    1    2    0    0  0.17556412404E+03 -0.98961632122E+02 -0.56300681925E+03  0.64814569720E+03  0.25000000000E+03 0.  0.
<mgrwt>
<rscale>  0 0.65242853E+03</rscale>
<asrwt>0</asrwt>
<pdfrwt beam="1">  1        2 0.15843318E+00 0.65242853E+03</pdfrwt>
<pdfrwt beam="2">  1       -2 0.15897654E-01 0.65242853E+03</pdfrwt>
<totfact> 0.77133508E+02</totfact>
</mgrwt>
</event>
<event>
 4    1  0.1804641E-005  0.8327913E+03  0.7818608E-02  0.9513729E-01
         -2   -1    0    0    0  501 -0.00000000000E+00  0.00000000000E+00  0.74399211481E+02  0.74399211525E+02  0.25500000000E-02 0. -1.
          2   -1    0    0  501    0  0.00000000000E+00 -0.00000000000E+00 -0.23304727689E+04  0.23304727689E+04  0.25500000000E-02 0.  1.
   -5000001    1    1    2    0    0  0.14805154886E+03  0.23849183733E+03 -0.16453162052E+04  0.16877094041E+04  0.25000000000E+03 0.  0.
    5000001    1    1    2    0    0 -0.14805154886E+03 -0.23849183733E+03 -0.61075735223E+03  0.71716257634E+03  0.25000000000E+03 0.  0.
<mgrwt>
<rscale>  0 0.83279130E+03</rscale>
<asrwt>0</asrwt>
<pdfrwt beam="1">  1        2 0.35853422E+00 0.83279130E+03</pdfrwt>
<pdfrwt beam="2">  1       -2 0.11446034E-01 0.83279130E+03</pdfrwt>
<totfact> 0.24572546E+02</totfact>
</mgrwt>
</event>
<event>
 4    1  0.1804641E-005  0.8003750E+03  0.7818608E-02  0.9559474E-01
         -2   -1    0    0    0  501 -0.00000000000E+00  0.00000000000E+00  0.58583002348E+02  0.58583002403E+02  0.25500000000E-02 0. -1.
          2   -1    0    0  501    0  0.00000000000E+00 -0.00000000000E+00 -0.27337288222E+04  0.27337288222E+04  0.25500000000E-02 0.  1.
   -5000001    1    1    2    0    0  0.71807504175E+02  0.26762476488E+03 -0.18415827314E+04  0.18790173733E+04  0.25000000000E+03 0.  0.
    5000001    1    1    2    0    0 -0.71807504175E+02 -0.26762476488E+03 -0.83356308851E+03  0.91329445140E+03  0.25000000000E+03 0.  0.
<mgrwt>
<rscale>  0 0.80037502E+03</rscale>
<asrwt>0</asrwt>
<pdfrwt beam="1">  1        2 0.42057357E+00 0.80037502E+03</pdfrwt>
<pdfrwt beam="2">  1       -2 0.90127717E-02 0.80037502E+03</pdfrwt>
<totfact> 0.21424378E+02</totfact>
</mgrwt>
</event>
<event>
 4    1  0.1804641E-005  0.5055998E+03  0.7818608E-02  0.1012328E+00
          2   -1    0    0  501    0  0.00000000000E+00  0.00000000000E+00  0.16634063618E+04  0.16634063618E+04  0.25500000000E-02 0.  1.
         -2   -1    0    0    0  501 -0.00000000000E+00 -0.00000000000E+00 -0.38419823747E+02  0.38419823832E+02  0.25500000000E-02 0. -1.
   -5000001    1    1    2    0    0  0.27112473117E+02  0.19587988424E+02  0.86971488754E+03  0.90555108144E+03  0.25000000000E+03 0.  0.
    5000001    1    1    2    0    0 -0.27112473117E+02 -0.19587988424E+02  0.75527165049E+03  0.79627510417E+03  0.25000000000E+03 0.  0.
<mgrwt>
<rscale>  0 0.50559976E+03</rscale>
<asrwt>0</asrwt>
<pdfrwt beam="1">  1        2 0.25590862E+00 0.50559976E+03</pdfrwt>
<pdfrwt beam="2">  1       -2 0.59107432E-02 0.50559976E+03</pdfrwt>
<totfact> 0.16741809E+03</totfact>
</mgrwt>
</event>
<event>
 4    1  0.1804641E-005  0.1267674E+04  0.7818608E-02  0.9055600E-01
          2   -1    0    0  501    0  0.00000000000E+00  0.00000000000E+00  0.69206265923E+03  0.69206265923E+03  0.25500000000E-02 0.  1.
         -2   -1    0    0    0  501 -0.00000000000E+00 -0.00000000000E+00 -0.58050973408E+03  0.58050973409E+03  0.25500000000E-02 0. -1.
   -5000001    1    1    2    0    0 -0.21711545107E+03 -0.35001917736E+03  0.46918892857E+03  0.67252568301E+03  0.25000000000E+03 0.  0.
    5000001    1    1    2    0    0  0.21711545107E+03  0.35001917736E+03 -0.35763600342E+03  0.60004671031E+03  0.25000000000E+03 0.  0.
<mgrwt>
<rscale>  0 0.12676736E+04</rscale>
<asrwt>0</asrwt>
<pdfrwt beam="1">  1        2 0.10647118E+00 0.12676736E+04</pdfrwt>
<pdfrwt beam="2">  1       -2 0.89309189E-01 0.12676736E+04</pdfrwt>
<totfact> 0.43946507E+01</totfact>
</mgrwt>
</event>
<event>
 4    1  0.1804641E-005  0.6548464E+03  0.7818608E-02  0.9797727E-01
         -2   -1    0    0    0  501 -0.00000000000E+00  0.00000000000E+00  0.40018906076E+02  0.40018906157E+02  0.25500000000E-02 0. -1.
          2   -1    0    0  501    0  0.00000000000E+00 -0.00000000000E+00 -0.26788830030E+04  0.26788830030E+04  0.25500000000E-02 0.  1.
   -5000001    1    1    2    0    0 -0.23633841349E+02 -0.18910494906E+03 -0.93919859701E+03  0.99041064455E+03  0.25000000000E+03 0.  0.
    5000001    1    1    2    0    0  0.23633841349E+02  0.18910494906E+03 -0.16996654999E+04  0.17284912646E+04  0.25000000000E+03 0.  0.
<mgrwt>
<rscale>  0 0.65484645E+03</rscale>
<asrwt>0</asrwt>
<pdfrwt beam="1">  1        2 0.41213571E+00 0.65484645E+03</pdfrwt>
<pdfrwt beam="2">  1       -2 0.61567569E-02 0.65484645E+03</pdfrwt>
<totfact> 0.42928785E+02</totfact>
</mgrwt>
</event>
<event>
 4    1  0.1804641E-005  0.1184101E+04  0.7818608E-02  0.9126888E-01
         -2   -1    0    0    0  501 -0.00000000000E+00  0.00000000000E+00  0.43050084853E+03  0.43050084854E+03  0.25500000000E-02 0. -1.
          2   -1    0    0  501    0  0.00000000000E+00 -0.00000000000E+00 -0.81422297625E+03  0.81422297625E+03  0.25500000000E-02 0.  1.
   -5000001    1    1    2    0    0  0.26816734865E+03 -0.36846319015E+03  0.10610259574E+03  0.53050599450E+03  0.25000000000E+03 0.  0.
    5000001    1    1    2    0    0 -0.26816734865E+03  0.36846319015E+03 -0.48982472346E+03  0.71421783028E+03  0.25000000000E+03 0.  0.
<mgrwt>
<rscale>  0 0.11841008E+04</rscale>
<asrwt>0</asrwt>
<pdfrwt beam="1">  1        2 0.12526507E+00 0.11841008E+04</pdfrwt>
<pdfrwt beam="2">  1       -2 0.66230900E-01 0.11841008E+04</pdfrwt>
<totfact> 0.69700266E+01</totfact>
</mgrwt>
</event>
<event>
 4    1  0.1804641E-005  0.7669663E+03  0.7818608E-02  0.9609103E-01
          2   -1    0    0  501    0  0.00000000000E+00  0.00000000000E+00  0.95060823793E+02  0.95060823827E+02  0.25500000000E-02 0.  1.
         -2   -1    0    0    0  501 -0.00000000000E+00 -0.00000000000E+00 -0.15470024882E+04  0.15470024882E+04  0.25500000000E-02 0. -1.
   -5000001    1    1    2    0    0 -0.28707885866E+03 -0.43317832413E+02 -0.76106112950E+03  0.85205912268E+03  0.25000000000E+03 0.  0.
    5000001    1    1    2    0    0  0.28707885866E+03  0.43317832413E+02 -0.69088053494E+03  0.79000418939E+03  0.25000000000E+03 0.  0.
<mgrwt>
<rscale>  0 0.76696631E+03</rscale>
<asrwt>0</asrwt>
<pdfrwt beam="1">  1        2 0.14624743E-01 0.76696631E+03</pdfrwt>
<pdfrwt beam="2">  1       -2 0.23800036E+00 0.76696631E+03</pdfrwt>
<totfact> 0.32266252E+01</totfact>
</mgrwt>
</event>
<event>
 4    1  0.1804641E-005  0.6929203E+03  0.7818608E-02  0.9729417E-01
         -2   -1    0    0    0  501 -0.00000000000E+00  0.00000000000E+00  0.11503842197E+03  0.11503842200E+03  0.25500000000E-02 0. -1.
          2   -1    0    0  501    0  0.00000000000E+00 -0.00000000000E+00 -0.10434308840E+04  0.10434308840E+04  0.25500000000E-02 0.  1.
   -5000001    1    1    2    0    0  0.86900848649E+02  0.15049042473E+03 -0.18777914781E+03  0.35771515733E+03  0.25000000000E+03 0.  0.
    5000001    1    1    2    0    0 -0.86900848649E+02 -0.15049042473E+03 -0.74061331422E+03  0.80075414868E+03  0.25000000000E+03 0.  0.
<mgrwt>
<rscale>  0 0.69292032E+03</rscale>
<asrwt>0</asrwt>
<pdfrwt beam="1">  1        2 0.16052782E+00 0.69292032E+03</pdfrwt>
<pdfrwt beam="2">  1       -2 0.17698219E-01 0.69292032E+03</pdfrwt>
<totfact> 0.62871476E+02</totfact>
</mgrwt>
</event>
<event>
 4    1  0.1804641E-005  0.5484704E+03  0.7818608E-02  0.1001849E+00
          2   -1    0    0  501    0  0.00000000000E+00  0.00000000000E+00  0.11908134971E+04  0.11908134971E+04  0.25500000000E-02 0.  1.
         -2   -1    0    0    0  501 -0.00000000000E+00 -0.00000000000E+00 -0.63154256944E+02  0.63154256995E+02  0.25500000000E-02 0. -1.
   -5000001    1    1    2    0    0  0.11024988293E+03 -0.22181301969E+02  0.58122575621E+03  0.64262775113E+03  0.25000000000E+03 0.  0.
    5000001    1    1    2    0    0 -0.11024988293E+03  0.22181301969E+02  0.54643348392E+03  0.61134000294E+03  0.25000000000E+03 0.  0.
<mgrwt>
<rscale>  0 0.54847039E+03</rscale>
<asrwt>0</asrwt>
<pdfrwt beam="1">  1        2 0.18320208E+00 0.54847039E+03</pdfrwt>
<pdfrwt beam="2">  1       -2 0.97160395E-02 0.54847039E+03</pdfrwt>
<totfact> 0.13959412E+03</totfact>
</mgrwt>
</event>
<event>
 4    1  0.1804641E-005  0.1219295E+04  0.7818608E-02  0.9096133E-01
         -2   -1    0    0    0  501 -0.00000000000E+00  0.00000000000E+00  0.62942459062E+03  0.62942459062E+03  0.25500000000E-02 0. -1.
          2   -1    0    0  501    0  0.00000000000E+00 -0.00000000000E+00 -0.59049215851E+03  0.59049215852E+03  0.25500000000E-02 0.  1.
   -5000001    1    1    2    0    0  0.32934088384E+03 -0.43017834613E+03  0.14463576194E+03  0.61395303638E+03  0.25000000000E+03 0.  0.
    5000001    1    1    2    0    0 -0.32934088384E+03  0.43017834613E+03 -0.10570332984E+03  0.60596371276E+03  0.25000000000E+03 0.  0.
<mgrwt>
<rscale>  0 0.12192953E+04</rscale>
<asrwt>0</asrwt>
<pdfrwt beam="1">  1        2 0.90844948E-01 0.12192953E+04</pdfrwt>
<pdfrwt beam="2">  1       -2 0.96834552E-01 0.12192953E+04</pdfrwt>
<totfact> 0.44419940E+01</totfact>
</mgrwt>
</event>
<event>
 4    1  0.1804641E-005  0.6024269E+03  0.7818608E-02  0.9900384E-01
         -2   -1    0    0    0  501 -0.00000000000E+00  0.00000000000E+00  0.88784939750E+02  0.88784939787E+02  0.25500000000E-02 0. -1.
          2   -1    0    0  501    0  0.00000000000E+00 -0.00000000000E+00 -0.10219024618E+04  0.10219024618E+04  0.25500000000E-02 0.  1.
   -5000001    1    1    2    0    0  0.10529007797E+03 -0.12051182099E+03 -0.56093775242E+03  0.63463395875E+03  0.25000000000E+03 0.  0.
    5000001    1    1    2    0    0 -0.10529007797E+03  0.12051182099E+03 -0.37217976965E+03  0.47605344286E+03  0.25000000000E+03 0.  0.
<mgrwt>
<rscale>  0 0.60242692E+03</rscale>
<asrwt>0</asrwt>
<pdfrwt beam="1">  1        2 0.15721575E+00 0.60242692E+03</pdfrwt>
<pdfrwt beam="2">  1       -2 0.13659222E-01 0.60242692E+03</pdfrwt>
<totfact> 0.10088118E+03</totfact>
</mgrwt>
</event>
<event>
 4    1  0.1804641E-005  0.1067895E+04  0.7818608E-02  0.9237062E-01
          2   -1    0    0  501    0  0.00000000000E+00  0.00000000000E+00  0.17005270624E+04  0.17005270624E+04  0.25500000000E-02 0.  1.
         -2   -1    0    0    0  501 -0.00000000000E+00 -0.00000000000E+00 -0.16765374665E+03  0.16765374667E+03  0.25500000000E-02 0. -1.
   -5000001    1    1    2    0    0  0.23061345793E+03  0.36918998448E+03  0.44808367113E+03  0.67287650275E+03  0.25000000000E+03 0.  0.
    5000001    1    1    2    0    0 -0.23061345793E+03 -0.36918998448E+03  0.10847896446E+04  0.11953043063E+04  0.25000000000E+03 0.  0.
<mgrwt>
<rscale>  0 0.10678946E+04</rscale>
<asrwt>0</asrwt>
<pdfrwt beam="1">  1        2 0.26161954E+00 0.10678946E+04</pdfrwt>
<pdfrwt beam="2">  1       -2 0.25792885E-01 0.10678946E+04</pdfrwt>
<totfact> 0.13213499E+02</totfact>
</mgrwt>
</event>
<event>
 4    1  0.1804641E-005  0.5466919E+03  0.7818608E-02  0.1002263E+00
         -2   -1    0    0    0  501 -0.00000000000E+00  0.00000000000E+00  0.40325357222E+02  0.40325357303E+02  0.25500000000E-02 0. -1.
          2   -1    0    0  501    0  0.00000000000E+00 -0.00000000000E+00 -0.18528791161E+04  0.18528791161E+04  0.25500000000E-02 0.  1.
   -5000001    1    1    2    0    0 -0.72337230714E+02 -0.72620610959E+02 -0.76300729179E+03  0.80943594892E+03  0.25000000000E+03 0.  0.
    5000001    1    1    2    0    0  0.72337230714E+02  0.72620610959E+02 -0.10495464671E+04  0.10837685245E+04  0.25000000000E+03 0.  0.
<mgrwt>
<rscale>  0 0.54669191E+03</rscale>
<asrwt>0</asrwt>
<pdfrwt beam="1">  1        2 0.28505826E+00 0.54669191E+03</pdfrwt>
<pdfrwt beam="2">  1       -2 0.62039026E-02 0.54669191E+03</pdfrwt>
<totfact> 0.12242319E+03</totfact>
</mgrwt>
</event>
<event>
 4    1  0.1804641E-005  0.5661709E+03  0.7818608E-02  0.9978188E-01
         -2   -1    0    0    0  501 -0.00000000000E+00  0.00000000000E+00  0.18357901499E+03  0.18357901501E+03  0.25500000000E-02 0. -1.
          2   -1    0    0  501    0  0.00000000000E+00 -0.00000000000E+00 -0.43652800229E+03  0.43652800230E+03  0.25500000000E-02 0.  1.
   -5000001    1    1    2    0    0 -0.11148587311E+03  0.71672731331E+02 -0.11722612883E+03  0.30628099125E+03  0.25000000000E+03 0.  0.
    5000001    1    1    2    0    0  0.11148587311E+03 -0.71672731331E+02 -0.13572285847E+03  0.31382602606E+03  0.25000000000E+03 0.  0.
<mgrwt>
<rscale>  0 0.56617093E+03</rscale>
<asrwt>0</asrwt>
<pdfrwt beam="1">  1        2 0.67158154E-01 0.56617093E+03</pdfrwt>
<pdfrwt beam="2">  1       -2 0.28242926E-01 0.56617093E+03</pdfrwt>
<totfact> 0.82922852E+02</totfact>
</mgrwt>
</event>
<event>
 4    1  0.1804641E-005  0.7618393E+03  0.7818608E-02  0.9616957E-01
          2   -1    0    0  501    0  0.00000000000E+00  0.00000000000E+00  0.78554822836E+03  0.78554822837E+03  0.25500000000E-02 0.  1.
         -2   -1    0    0    0  501 -0.00000000000E+00 -0.00000000000E+00 -0.18471148080E+03  0.18471148082E+03  0.25500000000E-02 0. -1.
   -5000001    1    1    2    0    0 -0.15272482881E+03  0.23354928479E+03  0.38800512780E+03  0.53936826099E+03  0.25000000000E+03 0.  0.
    5000001    1    1    2    0    0  0.15272482881E+03 -0.23354928479E+03  0.21283161976E+03  0.43089144820E+03  0.25000000000E+03 0.  0.
<mgrwt>
<rscale>  0 0.76183929E+03</rscale>
<asrwt>0</asrwt>
<pdfrwt beam="1">  1        2 0.12085357E+00 0.76183929E+03</pdfrwt>
<pdfrwt beam="2">  1       -2 0.28417151E-01 0.76183929E+03</pdfrwt>
<totfact> 0.40223066E+02</totfact>
</mgrwt>
</event>
<event>
 4    1  0.1804641E-005  0.6749934E+03  0.7818608E-02  0.9760979E-01
         -2   -1    0    0    0  501 -0.00000000000E+00  0.00000000000E+00  0.72139442286E+02  0.72139442331E+02  0.25500000000E-02 0. -1.
          2   -1    0    0  501    0  0.00000000000E+00 -0.00000000000E+00 -0.15789422365E+04  0.15789422365E+04  0.25500000000E-02 0.  1.
   -5000001    1    1    2    0    0 -0.63636821043E+02  0.20366348211E+02 -0.22344681998E+03  0.34189605802E+03  0.25000000000E+03 0.  0.
    5000001    1    1    2    0    0  0.63636821043E+02 -0.20366348211E+02 -0.12833559742E+04  0.13091856208E+04  0.25000000000E+03 0.  0.
<mgrwt>
<rscale>  0 0.67499337E+03</rscale>
<asrwt>0</asrwt>
<pdfrwt beam="1">  1        2 0.24291416E+00 0.67499337E+03</pdfrwt>
<pdfrwt beam="2">  1       -2 0.11098377E-01 0.67499337E+03</pdfrwt>
<totfact> 0.67516245E+02</totfact>
</mgrwt>
</event>
<event>
 4    1  0.1804641E-005  0.5899839E+03  0.7818608E-02  0.9926407E-01
         -2   -1    0    0    0  501 -0.00000000000E+00  0.00000000000E+00  0.10679262137E+03  0.10679262140E+03  0.25500000000E-02 0. -1.
          2   -1    0    0  501    0  0.00000000000E+00 -0.00000000000E+00 -0.81485269654E+03  0.81485269654E+03  0.25500000000E-02 0.  1.
   -5000001    1    1    2    0    0  0.15335003655E+03 -0.30790391731E+02 -0.34234271112E+03  0.45184379357E+03  0.25000000000E+03 0.  0.
    5000001    1    1    2    0    0 -0.15335003655E+03  0.30790391731E+02 -0.36571736405E+03  0.46980152437E+03  0.25000000000E+03 0.  0.
<mgrwt>
<rscale>  0 0.58998392E+03</rscale>
<asrwt>0</asrwt>
<pdfrwt beam="1">  1        2 0.12536195E+00 0.58998392E+03</pdfrwt>
<pdfrwt beam="2">  1       -2 0.16429635E-01 0.58998392E+03</pdfrwt>
<totfact> 0.10139004E+03</totfact>
</mgrwt>
</event>
<event>
 4    1  0.1804641E-005  0.6153064E+03  0.7818608E-02  0.9874149E-01
         -2   -1    0    0    0  501 -0.00000000000E+00  0.00000000000E+00  0.46297199103E+02  0.46297199173E+02  0.25500000000E-02 0. -1.
          2   -1    0    0  501    0  0.00000000000E+00 -0.00000000000E+00 -0.20444110354E+04  0.20444110354E+04  0.25500000000E-02 0.  1.
   -5000001    1    1    2    0    0  0.27451228016E+02 -0.17515406879E+03 -0.10901027957E+04  0.11323677066E+04  0.25000000000E+03 0.  0.
    5000001    1    1    2    0    0 -0.27451228016E+02  0.17515406879E+03 -0.90801104058E+03  0.95834052797E+03  0.25000000000E+03 0.  0.
<mgrwt>
<rscale>  0 0.61530644E+03</rscale>
<asrwt>0</asrwt>
<pdfrwt beam="1">  1        2 0.31452471E+00 0.61530644E+03</pdfrwt>
<pdfrwt beam="2">  1       -2 0.71226476E-02 0.61530644E+03</pdfrwt>
<totfact> 0.77261857E+02</totfact>
</mgrwt>
</event>
<event>
 4    1  0.1804641E-005  0.8700723E+03  0.7818608E-02  0.9463786E-01
          2   -1    0    0  501    0  0.00000000000E+00  0.00000000000E+00  0.37186045920E+03  0.37186045921E+03  0.25500000000E-02 0.  1.
         -2   -1    0    0    0  501 -0.00000000000E+00 -0.00000000000E+00 -0.50894479076E+03  0.50894479076E+03  0.25500000000E-02 0. -1.
   -5000001    1    1    2    0    0 -0.26811153912E+03 -0.22938841934E+03 -0.20484473958E+02  0.43292315486E+03  0.25000000000E+03 0.  0.
    5000001    1    1    2    0    0  0.26811153912E+03  0.22938841934E+03 -0.11659985760E+03  0.44788209512E+03  0.25000000000E+03 0.  0.
<mgrwt>
<rscale>  0 0.87007228E+03</rscale>
<asrwt>0</asrwt>
<pdfrwt beam="1">  1        2 0.57209301E-01 0.87007228E+03</pdfrwt>
<pdfrwt beam="2">  1       -2 0.78299199E-01 0.87007228E+03</pdfrwt>
<totfact> 0.12588851E+02</totfact>
</mgrwt>
</event>
<event>
 4    1  0.1804641E-005  0.1682902E+04  0.7818608E-02  0.8771177E-01
         -2   -1    0    0    0  501 -0.00000000000E+00  0.00000000000E+00  0.48122819130E+03  0.48122819130E+03  0.25500000000E-02 0. -1.
          2   -1    0    0  501    0  0.00000000000E+00 -0.00000000000E+00 -0.14713173799E+04  0.14713173799E+04  0.25500000000E-02 0.  1.
   -5000001    1    1    2    0    0 -0.56500217593E+03 -0.10594355357E+03 -0.11463104910E+04  0.13065141550E+04  0.25000000000E+03 0.  0.
    5000001    1    1    2    0    0  0.56500217593E+03  0.10594355357E+03  0.15622130246E+03  0.64603141618E+03  0.25000000000E+03 0.  0.
<mgrwt>
<rscale>  0 0.16829015E+04</rscale>
<asrwt>0</asrwt>
<pdfrwt beam="1">  1        2 0.22635652E+00 0.16829015E+04</pdfrwt>
<pdfrwt beam="2">  1       -2 0.74035107E-01 0.16829015E+04</pdfrwt>
<totfact> 0.20632252E+01</totfact>
</mgrwt>
</event>
<event>
 4    1  0.1804641E-005  0.6487748E+03  0.7818608E-02  0.9809081E-01
         -2   -1    0    0    0  501 -0.00000000000E+00  0.00000000000E+00  0.86490221821E+02  0.86490221859E+02  0.25500000000E-02 0. -1.
          2   -1    0    0  501    0  0.00000000000E+00 -0.00000000000E+00 -0.12166369174E+04  0.12166369174E+04  0.25500000000E-02 0.  1.
   -5000001    1    1    2    0    0  0.70140096651E+02  0.19436456885E+03 -0.55407582494E+03  0.64202588621E+03  0.25000000000E+03 0.  0.
    5000001    1    1    2    0    0 -0.70140096651E+02 -0.19436456885E+03 -0.57607087060E+03  0.66110125301E+03  0.25000000000E+03 0.  0.
<mgrwt>
<rscale>  0 0.64877484E+03</rscale>
<asrwt>0</asrwt>
<pdfrwt beam="1">  1        2 0.18717490E+00 0.64877484E+03</pdfrwt>
<pdfrwt beam="2">  1       -2 0.13306189E-01 0.64877484E+03</pdfrwt>
<totfact> 0.80230714E+02</totfact>
</mgrwt>
</event>
<event>
 4    1  0.1804641E-005  0.6485532E+03  0.7818608E-02  0.9809498E-01
          2   -1    0    0  501    0  0.00000000000E+00  0.00000000000E+00  0.52933193057E+03  0.52933193058E+03  0.25500000000E-02 0.  1.
         -2   -1    0    0    0  501 -0.00000000000E+00 -0.00000000000E+00 -0.19865668092E+03  0.19865668094E+03  0.25500000000E-02 0. -1.
   -5000001    1    1    2    0    0 -0.15154449571E+03  0.13940566549E+03  0.18328506198E+03  0.37214659436E+03  0.25000000000E+03 0.  0.
    5000001    1    1    2    0    0  0.15154449571E+03 -0.13940566549E+03  0.14739018768E+03  0.35584201716E+03  0.25000000000E+03 0.  0.
<mgrwt>
<rscale>  0 0.64855323E+03</rscale>
<asrwt>0</asrwt>
<pdfrwt beam="1">  1        2 0.81435680E-01 0.64855323E+03</pdfrwt>
<pdfrwt beam="2">  1       -2 0.30562567E-01 0.64855323E+03</pdfrwt>
<totfact> 0.57399145E+02</totfact>
</mgrwt>
</event>
<event>
 4    1  0.1804641E-005  0.6474043E+03  0.7818608E-02  0.9811662E-01
          2   -1    0    0  501    0  0.00000000000E+00  0.00000000000E+00  0.74793414174E+03  0.74793414175E+03  0.25500000000E-02 0.  1.
         -2   -1    0    0    0  501 -0.00000000000E+00 -0.00000000000E+00 -0.14009667649E+03  0.14009667651E+03  0.25500000000E-02 0. -1.
   -5000001    1    1    2    0    0  0.20087671486E+03  0.35698725729E+02  0.26875358638E+03  0.41994564384E+03  0.25000000000E+03 0.  0.
    5000001    1    1    2    0    0 -0.20087671486E+03 -0.35698725729E+02  0.33908387888E+03  0.46808517442E+03  0.25000000000E+03 0.  0.
<mgrwt>
<rscale>  0 0.64740432E+03</rscale>
<asrwt>0</asrwt>
<pdfrwt beam="1">  1        2 0.11506679E+00 0.64740432E+03</pdfrwt>
<pdfrwt beam="2">  1       -2 0.21553335E-01 0.64740432E+03</pdfrwt>
<totfact> 0.70779636E+02</totfact>
</mgrwt>
</event>
<event>
 4    1  0.1804641E-005  0.6358221E+03  0.7818608E-02  0.9833753E-01
         -2   -1    0    0    0  501 -0.00000000000E+00  0.00000000000E+00  0.21897364245E+03  0.21897364247E+03  0.25500000000E-02 0. -1.
          2   -1    0    0  501    0  0.00000000000E+00 -0.00000000000E+00 -0.46155073952E+03  0.46155073953E+03  0.25500000000E-02 0.  1.
   -5000001    1    1    2    0    0  0.11320325293E+03 -0.12898971064E+03 -0.19108635143E+02  0.30383953308E+03  0.25000000000E+03 0.  0.
    5000001    1    1    2    0    0 -0.11320325293E+03  0.12898971064E+03 -0.22346846193E+03  0.37668484892E+03  0.25000000000E+03 0.  0.
<mgrwt>
<rscale>  0 0.63582213E+03</rscale>
<asrwt>0</asrwt>
<pdfrwt beam="1">  1        2 0.71007806E-01 0.63582213E+03</pdfrwt>
<pdfrwt beam="2">  1       -2 0.33688253E-01 0.63582213E+03</pdfrwt>
<totfact> 0.56045289E+02</totfact>
</mgrwt>
</event>
<event>
 4    1  0.1804641E-005  0.6571101E+03  0.7818608E-02  0.9793528E-01
          2   -1    0    0  501    0  0.00000000000E+00  0.00000000000E+00  0.65905341850E+03  0.65905341850E+03  0.25500000000E-02 0.  1.
         -2   -1    0    0    0  501 -0.00000000000E+00 -0.00000000000E+00 -0.16379312661E+03  0.16379312663E+03  0.25500000000E-02 0. -1.
   -5000001    1    1    2    0    0  0.60970134008E+01 -0.18338890904E+03  0.11172095447E+03  0.32962135428E+03  0.25000000000E+03 0.  0.
    5000001    1    1    2    0    0 -0.60970134008E+01  0.18338890904E+03  0.38353933743E+03  0.49322519085E+03  0.25000000000E+03 0.  0.
<mgrwt>
<rscale>  0 0.65711010E+03</rscale>
<asrwt>0</asrwt>
<pdfrwt beam="1">  1        2 0.10139283E+00 0.65711010E+03</pdfrwt>
<pdfrwt beam="2">  1       -2 0.25198943E-01 0.65711010E+03</pdfrwt>
<totfact> 0.62806278E+02</totfact>
</mgrwt>
</event>
<event>
 4    1  0.1804641E-005  0.5747761E+03  0.7818608E-02  0.9959165E-01
          2   -1    0    0  501    0  0.00000000000E+00  0.00000000000E+00  0.16541331884E+04  0.16541331884E+04  0.25500000000E-02 0.  1.
         -2   -1    0    0    0  501 -0.00000000000E+00 -0.00000000000E+00 -0.49930613757E+02  0.49930613822E+02  0.25500000000E-02 0. -1.
   -5000001    1    1    2    0    0  0.56440281203E+02  0.12659220262E+03  0.71411309226E+03  0.76919997377E+03  0.25000000000E+03 0.  0.
    5000001    1    1    2    0    0 -0.56440281203E+02 -0.12659220262E+03  0.89008948241E+03  0.93486382848E+03  0.25000000000E+03 0.  0.
<mgrwt>
<rscale>  0 0.57477608E+03</rscale>
<asrwt>0</asrwt>
<pdfrwt beam="1">  1        2 0.25448198E+00 0.57477608E+03</pdfrwt>
<pdfrwt beam="2">  1       -2 0.76816345E-02 0.57477608E+03</pdfrwt>
<totfact> 0.11177861E+03</totfact>
</mgrwt>
</event>
<event>
 4    1  0.1804641E-005  0.5641821E+03  0.7818608E-02  0.9982636E-01
          2   -1    0    0  501    0  0.00000000000E+00  0.00000000000E+00  0.19239715472E+04  0.19239715472E+04  0.25500000000E-02 0.  1.
         -2   -1    0    0    0  501 -0.00000000000E+00 -0.00000000000E+00 -0.41359945546E+02  0.41359945624E+02  0.25500000000E-02 0. -1.
   -5000001    1    1    2    0    0  0.12546353653E+03  0.20753084923E+02  0.83659362834E+03  0.88236086071E+03  0.25000000000E+03 0.  0.
    5000001    1    1    2    0    0 -0.12546353653E+03 -0.20753084923E+02  0.10460179733E+04  0.10829706321E+04  0.25000000000E+03 0.  0.
<mgrwt>
<rscale>  0 0.56418209E+03</rscale>
<asrwt>0</asrwt>
<pdfrwt beam="1">  1        2 0.29599564E+00 0.56418209E+03</pdfrwt>
<pdfrwt beam="2">  1       -2 0.63630682E-02 0.56418209E+03</pdfrwt>
<totfact> 0.10760269E+03</totfact>
</mgrwt>
</event>
<event>
 4    1  0.1804641E-005  0.7104259E+03  0.7818608E-02  0.9699567E-01
          2   -1    0    0  501    0  0.00000000000E+00  0.00000000000E+00  0.16994026273E+04  0.16994026273E+04  0.25500000000E-02 0.  1.
         -2   -1    0    0    0  501 -0.00000000000E+00 -0.00000000000E+00 -0.74247398113E+02  0.74247398157E+02  0.25500000000E-02 0. -1.
   -5000001    1    1    2    0    0 -0.24145094757E+03 -0.61566041199E+02  0.91204409669E+03  0.97796389086E+03  0.25000000000E+03 0.  0.
    5000001    1    1    2    0    0  0.24145094757E+03  0.61566041199E+02  0.71311113254E+03  0.79568613464E+03  0.25000000000E+03 0.  0.
<mgrwt>
<rscale>  0 0.71042585E+03</rscale>
<asrwt>0</asrwt>
<pdfrwt beam="1">  1        2 0.26144654E+00 0.71042585E+03</pdfrwt>
<pdfrwt beam="2">  1       -2 0.11422677E-01 0.71042585E+03</pdfrwt>
<totfact> 0.55202376E+02</totfact>
</mgrwt>
</event>
<event>
 4    1  0.1804641E-005  0.6468423E+03  0.7818608E-02  0.9812722E-01
         -2   -1    0    0    0  501 -0.00000000000E+00  0.00000000000E+00  0.63223110781E+03  0.63223110781E+03  0.25500000000E-02 0. -1.
          2   -1    0    0  501    0  0.00000000000E+00 -0.00000000000E+00 -0.16544780908E+03  0.16544780910E+03  0.25500000000E-02 0.  1.
   -5000001    1    1    2    0    0  0.10427683075E+03 -0.16365526488E+03  0.15117808053E+03  0.35072997475E+03  0.25000000000E+03 0.  0.
    5000001    1    1    2    0    0 -0.10427683075E+03  0.16365526488E+03  0.31560521819E+03  0.44694894217E+03  0.25000000000E+03 0.  0.
<mgrwt>
<rscale>  0 0.64684234E+03</rscale>
<asrwt>0</asrwt>
<pdfrwt beam="1">  1        2 0.25453509E-01 0.64684234E+03</pdfrwt>
<pdfrwt beam="2">  1       -2 0.97266325E-01 0.64684234E+03</pdfrwt>
<totfact> 0.19145788E+02</totfact>
</mgrwt>
</event>
<event>
 4    1  0.1804641E-005  0.7461209E+03  0.7818608E-02  0.9641456E-01
          2   -1    0    0  501    0  0.00000000000E+00  0.00000000000E+00  0.25578815432E+04  0.25578815432E+04  0.25500000000E-02 0.  1.
         -2   -1    0    0    0  501 -0.00000000000E+00 -0.00000000000E+00 -0.54409913757E+02  0.54409913817E+02  0.25500000000E-02 0. -1.
   -5000001    1    1    2    0    0 -0.16402603868E+03 -0.16989274391E+03  0.74550547502E+03  0.82100334901E+03  0.25000000000E+03 0.  0.
    5000001    1    1    2    0    0  0.16402603868E+03  0.16989274391E+03  0.17579661544E+04  0.17912881080E+04  0.25000000000E+03 0.  0.
<mgrwt>
<rscale>  0 0.74612094E+03</rscale>
<asrwt>0</asrwt>
<pdfrwt beam="1">  1        2 0.39352031E+00 0.74612094E+03</pdfrwt>
<pdfrwt beam="2">  1       -2 0.83707544E-02 0.74612094E+03</pdfrwt>
<totfact> 0.30658771E+02</totfact>
</mgrwt>
</event>
<event>
 4    1  0.1804641E-005  0.5557700E+03  0.7818608E-02  0.1000167E+00
         -2   -1    0    0    0  501 -0.00000000000E+00  0.00000000000E+00  0.37360203109E+02  0.37360203196E+02  0.25500000000E-02 0. -1.
          2   -1    0    0  501    0  0.00000000000E+00 -0.00000000000E+00 -0.20669071412E+04  0.20669071412E+04  0.25500000000E-02 0.  1.
   -5000001    1    1    2    0    0 -0.95600277858E+02  0.74166540414E+02 -0.10486346073E+04  0.10847924356E+04  0.25000000000E+03 0.  0.
    5000001    1    1    2    0    0  0.95600277858E+02 -0.74166540414E+02 -0.98091233083E+03  0.10194749088E+04  0.25000000000E+03 0.  0.
<mgrwt>
<rscale>  0 0.55576999E+03</rscale>
<asrwt>0</asrwt>
<pdfrwt beam="1">  1        2 0.31798562E+00 0.55576999E+03</pdfrwt>
<pdfrwt beam="2">  1       -2 0.57477252E-02 0.55576999E+03</pdfrwt>
<totfact> 0.10566029E+03</totfact>
</mgrwt>
</event>
<event>
 4    1  0.1804641E-005  0.8578192E+03  0.7818608E-02  0.9479902E-01
         -2   -1    0    0    0  501 -0.00000000000E+00  0.00000000000E+00  0.11675390819E+03  0.11675390822E+03  0.25500000000E-02 0. -1.
          2   -1    0    0  501    0  0.00000000000E+00 -0.00000000000E+00 -0.15756511963E+04  0.15756511963E+04  0.25500000000E-02 0.  1.
   -5000001    1    1    2    0    0  0.17416923215E+03  0.29059530604E+03 -0.89073233965E+03  0.98523329938E+03  0.25000000000E+03 0.  0.
    5000001    1    1    2    0    0 -0.17416923215E+03 -0.29059530604E+03 -0.56816494845E+03  0.70717180513E+03  0.25000000000E+03 0.  0.
<mgrwt>
<rscale>  0 0.85781918E+03</rscale>
<asrwt>0</asrwt>
<pdfrwt beam="1">  1        2 0.24240786E+00 0.85781918E+03</pdfrwt>
<pdfrwt beam="2">  1       -2 0.17962141E-01 0.85781918E+03</pdfrwt>
<totfact> 0.29840871E+02</totfact>
</mgrwt>
</event>
<event>
 4    1  0.1804641E-005  0.5915468E+03  0.7818608E-02  0.9923101E-01
          2   -1    0    0  501    0  0.00000000000E+00  0.00000000000E+00  0.77096782581E+03  0.77096782582E+03  0.25500000000E-02 0.  1.
         -2   -1    0    0    0  501 -0.00000000000E+00 -0.00000000000E+00 -0.11347022260E+03  0.11347022262E+03  0.25500000000E-02 0. -1.
   -5000001    1    1    2    0    0  0.37299425617E+02 -0.11138881956E+03  0.17063823571E+03  0.32467849291E+03  0.25000000000E+03 0.  0.
    5000001    1    1    2    0    0 -0.37299425617E+02  0.11138881956E+03  0.48685936751E+03  0.55975955553E+03  0.25000000000E+03 0.  0.
<mgrwt>
<rscale>  0 0.59154675E+03</rscale>
<asrwt>0</asrwt>
<pdfrwt beam="1">  1        2 0.11861043E+00 0.59154675E+03</pdfrwt>
<pdfrwt beam="2">  1       -2 0.17456957E-01 0.59154675E+03</pdfrwt>
<totfact> 0.98291745E+02</totfact>
</mgrwt>
</event>
<event>
 4    1  0.1804641E-005  0.6089021E+03  0.7818608E-02  0.9887107E-01
          2   -1    0    0  501    0  0.00000000000E+00  0.00000000000E+00  0.10533113093E+04  0.10533113093E+04  0.25500000000E-02 0.  1.
         -2   -1    0    0    0  501 -0.00000000000E+00 -0.00000000000E+00 -0.87999100444E+02  0.87999100481E+02  0.25500000000E-02 0. -1.
   -5000001    1    1    2    0    0 -0.86791774135E+02 -0.14995825388E+03  0.45820591769E+03  0.54997541124E+03  0.25000000000E+03 0.  0.
    5000001    1    1    2    0    0  0.86791774135E+02  0.14995825388E+03  0.50710629119E+03  0.59133499857E+03  0.25000000000E+03 0.  0.
<mgrwt>
<rscale>  0 0.60890212E+03</rscale>
<asrwt>0</asrwt>
<pdfrwt beam="1">  1        2 0.16204789E+00 0.60890212E+03</pdfrwt>
<pdfrwt beam="2">  1       -2 0.13538324E-01 0.60890212E+03</pdfrwt>
<totfact> 0.97860717E+02</totfact>
</mgrwt>
</event>
<event>
 4    1  0.1804641E-005  0.1013933E+04  0.7818608E-02  0.9293394E-01
         -2   -1    0    0    0  501 -0.00000000000E+00  0.00000000000E+00  0.15166838130E+03  0.15166838133E+03  0.25500000000E-02 0. -1.
          2   -1    0    0  501    0  0.00000000000E+00 -0.00000000000E+00 -0.16945853302E+04  0.16945853302E+04  0.25500000000E-02 0.  1.
   -5000001    1    1    2    0    0  0.30455819424E+03  0.30272773249E+03 -0.58832394301E+03  0.77008105782E+03  0.25000000000E+03 0.  0.
    5000001    1    1    2    0    0 -0.30455819424E+03 -0.30272773249E+03 -0.95459300589E+03  0.10761726537E+04  0.25000000000E+03 0.  0.
<mgrwt>
<rscale>  0 0.10139330E+04</rscale>
<asrwt>0</asrwt>
<pdfrwt beam="1">  1        2 0.26070542E+00 0.10139330E+04</pdfrwt>
<pdfrwt beam="2">  1       -2 0.23333598E-01 0.10139330E+04</pdfrwt>
<totfact> 0.16014616E+02</totfact>
</mgrwt>
</event>
<event>
 4    1  0.1804641E-005  0.1133778E+04  0.7818608E-02  0.9172881E-01
          2   -1    0    0  501    0  0.00000000000E+00  0.00000000000E+00  0.42548303658E+03  0.42548303659E+03  0.25500000000E-02 0.  1.
         -2   -1    0    0    0  501 -0.00000000000E+00 -0.00000000000E+00 -0.75529036199E+03  0.75529036200E+03  0.25500000000E-02 0. -1.
   -5000001    1    1    2    0    0  0.98042661017E+02  0.49811216271E+03 -0.12981518993E+03  0.58058597430E+03  0.25000000000E+03 0.  0.
    5000001    1    1    2    0    0 -0.98042661017E+02 -0.49811216271E+03 -0.19999213547E+03  0.60018742428E+03  0.25000000000E+03 0.  0.
<mgrwt>
<rscale>  0 0.11337782E+04</rscale>
<asrwt>0</asrwt>
<pdfrwt beam="1">  1        2 0.65458929E-01 0.11337782E+04</pdfrwt>
<pdfrwt beam="2">  1       -2 0.11619852E+00 0.11337782E+04</pdfrwt>
<totfact> 0.42221986E+01</totfact>
</mgrwt>
</event>
<event>
 4    1  0.1804641E-005  0.8042344E+03  0.7818608E-02  0.9553908E-01
         -2   -1    0    0    0  501 -0.00000000000E+00  0.00000000000E+00  0.13516675966E+03  0.13516675969E+03  0.25500000000E-02 0. -1.
          2   -1    0    0  501    0  0.00000000000E+00 -0.00000000000E+00 -0.11962869059E+04  0.11962869059E+04  0.25500000000E-02 0.  1.
   -5000001    1    1    2    0    0 -0.27007815092E+03 -0.92046693350E+02 -0.75133569655E+03  0.84167697502E+03  0.25000000000E+03 0.  0.
    5000001    1    1    2    0    0  0.27007815092E+03  0.92046693350E+02 -0.30978444967E+03  0.48977669056E+03  0.25000000000E+03 0.  0.
<mgrwt>
<rscale>  0 0.80423436E+03</rscale>
<asrwt>0</asrwt>
<pdfrwt beam="1">  1        2 0.18404413E+00 0.80423436E+03</pdfrwt>
<pdfrwt beam="2">  1       -2 0.20794887E-01 0.80423436E+03</pdfrwt>
<totfact> 0.38152100E+02</totfact>
</mgrwt>
</event>
<event>
 4    1  0.1804641E-005  0.6184157E+03  0.7818608E-02  0.9867919E-01
          2   -1    0    0  501    0  0.00000000000E+00  0.00000000000E+00  0.44958725115E+03  0.44958725115E+03  0.25500000000E-02 0.  1.
         -2   -1    0    0    0  501 -0.00000000000E+00 -0.00000000000E+00 -0.21266059653E+03  0.21266059654E+03  0.25500000000E-02 0. -1.
   -5000001    1    1    2    0    0 -0.32641449933E+02 -0.10148843110E+03 -0.39447184608E+02  0.27462965294E+03  0.25000000000E+03 0.  0.
    5000001    1    1    2    0    0  0.32641449933E+02  0.10148843110E+03  0.27637383922E+03  0.38761819476E+03  0.25000000000E+03 0.  0.
<mgrwt>
<rscale>  0 0.61841570E+03</rscale>
<asrwt>0</asrwt>
<pdfrwt beam="1">  1        2 0.69167269E-01 0.61841570E+03</pdfrwt>
<pdfrwt beam="2">  1       -2 0.32717015E-01 0.61841570E+03</pdfrwt>
<totfact> 0.61033627E+02</totfact>
</mgrwt>
</event>
<event>
 4    1  0.1804641E-005  0.1100951E+04  0.7818608E-02  0.9204265E-01
          2   -1    0    0  501    0  0.00000000000E+00  0.00000000000E+00  0.77520385004E+03  0.77520385004E+03  0.25500000000E-02 0.  1.
         -2   -1    0    0    0  501 -0.00000000000E+00 -0.00000000000E+00 -0.39089511562E+03  0.39089511563E+03  0.25500000000E-02 0. -1.
   -5000001    1    1    2    0    0 -0.42689277042E+02  0.36434768105E+03  0.53691802868E+03  0.69667250311E+03  0.25000000000E+03 0.  0.
    5000001    1    1    2    0    0  0.42689277042E+02 -0.36434768105E+03 -0.15260929426E+03  0.46942646256E+03  0.25000000000E+03 0.  0.
<mgrwt>
<rscale>  0 0.11009512E+04</rscale>
<asrwt>0</asrwt>
<pdfrwt beam="1">  1        2 0.11926213E+00 0.11009512E+04</pdfrwt>
<pdfrwt beam="2">  1       -2 0.60137711E-01 0.11009512E+04</pdfrwt>
<totfact> 0.91932069E+01</totfact>
</mgrwt>
</event>
<event>
 4    1  0.1804641E-005  0.7143462E+03  0.7818608E-02  0.9693008E-01
         -2   -1    0    0    0  501 -0.00000000000E+00  0.00000000000E+00  0.11298099857E+03  0.11298099860E+03  0.25500000000E-02 0. -1.
          2   -1    0    0  501    0  0.00000000000E+00 -0.00000000000E+00 -0.11291510137E+04  0.11291510137E+04  0.25500000000E-02 0.  1.
   -5000001    1    1    2    0    0  0.20637546753E+03  0.14993923693E+03 -0.50813161586E+03  0.62110413572E+03  0.25000000000E+03 0.  0.
    5000001    1    1    2    0    0 -0.20637546753E+03 -0.14993923693E+03 -0.50803839926E+03  0.62102787658E+03  0.25000000000E+03 0.  0.
<mgrwt>
<rscale>  0 0.71434616E+03</rscale>
<asrwt>0</asrwt>
<pdfrwt beam="1">  1        2 0.17371553E+00 0.71434616E+03</pdfrwt>
<pdfrwt beam="2">  1       -2 0.17381693E-01 0.71434616E+03</pdfrwt>
<totfact> 0.57403066E+02</totfact>
</mgrwt>
</event>
<event>
 4    1  0.1804641E-005  0.1511721E+04  0.7818608E-02  0.8876696E-01
          2   -1    0    0  501    0  0.00000000000E+00  0.00000000000E+00  0.21260971925E+04  0.21260971925E+04  0.25500000000E-02 0.  1.
         -2   -1    0    0    0  501 -0.00000000000E+00 -0.00000000000E+00 -0.26872019788E+03  0.26872019789E+03  0.25500000000E-02 0. -1.
   -5000001    1    1    2    0    0 -0.70181382619E+03 -0.12553628868E+03  0.96492581948E+03  0.12255137060E+04  0.25000000000E+03 0.  0.
    5000001    1    1    2    0    0  0.70181382619E+03  0.12553628868E+03  0.89245117518E+03  0.11693036845E+04  0.25000000000E+03 0.  0.
<mgrwt>
<rscale>  0 0.15117212E+04</rscale>
<asrwt>0</asrwt>
<pdfrwt beam="1">  1        2 0.32709188E+00 0.15117212E+04</pdfrwt>
<pdfrwt beam="2">  1       -2 0.41341568E-01 0.15117212E+04</pdfrwt>
<totfact> 0.30423088E+01</totfact>
</mgrwt>
</event>
<event>
 4    1  0.1804641E-005  0.6420544E+03  0.7818608E-02  0.9821804E-01
          2   -1    0    0  501    0  0.00000000000E+00  0.00000000000E+00  0.42527658934E+03  0.42527658935E+03  0.25500000000E-02 0.  1.
         -2   -1    0    0    0  501 -0.00000000000E+00 -0.00000000000E+00 -0.24233279075E+03  0.24233279077E+03  0.25500000000E-02 0. -1.
   -5000001    1    1    2    0    0 -0.23184568109E+02 -0.18776625213E+03  0.19697144631E+02  0.31413638303E+03  0.25000000000E+03 0.  0.
    5000001    1    1    2    0    0  0.23184568109E+02  0.18776625213E+03  0.16324665396E+03  0.35347299708E+03  0.25000000000E+03 0.  0.
<mgrwt>
<rscale>  0 0.64205440E+03</rscale>
<asrwt>0</asrwt>
<pdfrwt beam="1">  1        2 0.65427167E-01 0.64205440E+03</pdfrwt>
<pdfrwt beam="2">  1       -2 0.37281968E-01 0.64205440E+03</pdfrwt>
<totfact> 0.50702199E+02</totfact>
</mgrwt>
</event>
<event>
 4    1  0.1804641E-005  0.1133938E+04  0.7818608E-02  0.9172731E-01
          2   -1    0    0  501    0  0.00000000000E+00  0.00000000000E+00  0.14681464925E+04  0.14681464925E+04  0.25500000000E-02 0.  1.
         -2   -1    0    0    0  501 -0.00000000000E+00 -0.00000000000E+00 -0.21895202225E+03  0.21895202226E+03  0.25500000000E-02 0. -1.
   -5000001    1    1    2    0    0  0.91202425218E+02 -0.40206816118E+03  0.10684000377E+04  0.11721584062E+04  0.25000000000E+03 0.  0.
    5000001    1    1    2    0    0 -0.91202425218E+02  0.40206816118E+03  0.18079443255E+03  0.51494010859E+03  0.25000000000E+03 0.  0.
<mgrwt>
<rscale>  0 0.11339376E+04</rscale>
<asrwt>0</asrwt>
<pdfrwt beam="1">  1        2 0.22586869E+00 0.11339376E+04</pdfrwt>
<pdfrwt beam="2">  1       -2 0.33684926E-01 0.11339376E+04</pdfrwt>
<totfact> 0.10798152E+02</totfact>
</mgrwt>
</event>
<event>
 4    1  0.1804641E-005  0.8698370E+03  0.7818608E-02  0.9464092E-01
          2   -1    0    0  501    0  0.00000000000E+00  0.00000000000E+00  0.18828952750E+04  0.18828952750E+04  0.25500000000E-02 0.  1.
         -2   -1    0    0    0  501 -0.00000000000E+00 -0.00000000000E+00 -0.10045916920E+03  0.10045916923E+03  0.25500000000E-02 0. -1.
   -5000001    1    1    2    0    0 -0.20105690080E+03  0.26594823113E+03  0.11751098952E+04  0.12468101719E+04  0.25000000000E+03 0.  0.
    5000001    1    1    2    0    0  0.20105690080E+03 -0.26594823113E+03  0.60732621061E+03  0.73654427233E+03  0.25000000000E+03 0.  0.
<mgrwt>
<rscale>  0 0.86983698E+03</rscale>
<asrwt>0</asrwt>
<pdfrwt beam="1">  1        2 0.28967617E+00 0.86983698E+03</pdfrwt>
<pdfrwt beam="2">  1       -2 0.15455258E-01 0.86983698E+03</pdfrwt>
<totfact> 0.26153207E+02</totfact>
</mgrwt>
</event>
<event>
 4    1  0.1804641E-005  0.8883864E+03  0.7818608E-02  0.9440217E-01
         -2   -1    0    0    0  501 -0.00000000000E+00  0.00000000000E+00  0.70963215825E+02  0.70963215870E+02  0.25500000000E-02 0. -1.
          2   -1    0    0  501    0  0.00000000000E+00 -0.00000000000E+00 -0.27804205935E+04  0.27804205935E+04  0.25500000000E-02 0.  1.
   -5000001    1    1    2    0    0  0.20673636433E+03  0.26797656079E+03 -0.89792137342E+03  0.99162198156E+03  0.25000000000E+03 0.  0.
    5000001    1    1    2    0    0 -0.20673636433E+03 -0.26797656079E+03 -0.18115360043E+04  0.18597618278E+04  0.25000000000E+03 0.  0.
<mgrwt>
<rscale>  0 0.88838637E+03</rscale>
<asrwt>0</asrwt>
<pdfrwt beam="1">  1        2 0.42775693E+00 0.88838637E+03</pdfrwt>
<pdfrwt beam="2">  1       -2 0.10917420E-01 0.88838637E+03</pdfrwt>
<totfact> 0.14583403E+02</totfact>
</mgrwt>
</event>
<event>
 4    1  0.1804641E-005  0.6514931E+03  0.7818608E-02  0.9803982E-01
         -2   -1    0    0    0  501 -0.00000000000E+00  0.00000000000E+00  0.77519504758E+02  0.77519504800E+02  0.25500000000E-02 0. -1.
          2   -1    0    0  501    0  0.00000000000E+00 -0.00000000000E+00 -0.13688271054E+04  0.13688271054E+04  0.25500000000E-02 0.  1.
   -5000001    1    1    2    0    0 -0.69465940247E+02 -0.17096590312E+03 -0.86267359900E+03  0.91692998385E+03  0.25000000000E+03 0.  0.
    5000001    1    1    2    0    0  0.69465940247E+02  0.17096590312E+03 -0.42863400164E+03  0.52941662634E+03  0.25000000000E+03 0.  0.
<mgrwt>
<rscale>  0 0.65149305E+03</rscale>
<asrwt>0</asrwt>
<pdfrwt beam="1">  1        2 0.21058877E+00 0.65149305E+03</pdfrwt>
<pdfrwt beam="2">  1       -2 0.11926079E-01 0.65149305E+03</pdfrwt>
<totfact> 0.78629077E+02</totfact>
</mgrwt>
</event>
<event>
 4    1  0.1804641E-005  0.7404167E+03  0.7818608E-02  0.9650506E-01
         -2   -1    0    0    0  501 -0.00000000000E+00  0.00000000000E+00  0.23030075241E+03  0.23030075243E+03  0.25500000000E-02 0. -1.
          2   -1    0    0  501    0  0.00000000000E+00 -0.00000000000E+00 -0.59510971770E+03  0.59510971771E+03  0.25500000000E-02 0.  1.
   -5000001    1    1    2    0    0 -0.23319251384E+03 -0.14578544153E+02 -0.24895271561E+02  0.34309045018E+03  0.25000000000E+03 0.  0.
    5000001    1    1    2    0    0  0.23319251384E+03  0.14578544153E+02 -0.33991369373E+03  0.48232001995E+03  0.25000000000E+03 0.  0.
<mgrwt>
<rscale>  0 0.74041668E+03</rscale>
<asrwt>0</asrwt>
<pdfrwt beam="1">  1        2 0.91555341E-01 0.74041668E+03</pdfrwt>
<pdfrwt beam="2">  1       -2 0.35430885E-01 0.74041668E+03</pdfrwt>
<totfact> 0.37730410E+02</totfact>
</mgrwt>
</event>
<event>
 4    1  0.1804641E-005  0.1100959E+04  0.7818608E-02  0.9204258E-01
         -2   -1    0    0    0  501 -0.00000000000E+00  0.00000000000E+00  0.31704720510E+03  0.31704720511E+03  0.25500000000E-02 0. -1.
          2   -1    0    0  501    0  0.00000000000E+00 -0.00000000000E+00 -0.95578099554E+03  0.95578099554E+03  0.25500000000E-02 0.  1.
   -5000001    1    1    2    0    0 -0.24093403989E+03  0.26913154583E+03  0.64152322605E+02  0.44395553948E+03  0.25000000000E+03 0.  0.
    5000001    1    1    2    0    0  0.24093403989E+03 -0.26913154583E+03 -0.70288611305E+03  0.82887266118E+03  0.25000000000E+03 0.  0.
<mgrwt>
<rscale>  0 0.11009590E+04</rscale>
<asrwt>0</asrwt>
<pdfrwt beam="1">  1        2 0.14704323E+00 0.11009590E+04</pdfrwt>
<pdfrwt beam="2">  1       -2 0.48776493E-01 0.11009590E+04</pdfrwt>
<totfact> 0.10632656E+02</totfact>
</mgrwt>
</event>
<event>
 4    1  0.1804641E-005  0.7820592E+03  0.7818608E-02  0.9586355E-01
          2   -1    0    0  501    0  0.00000000000E+00  0.00000000000E+00  0.84309154457E+03  0.84309154458E+03  0.25500000000E-02 0.  1.
         -2   -1    0    0    0  501 -0.00000000000E+00 -0.00000000000E+00 -0.18136128485E+03  0.18136128487E+03  0.25500000000E-02 0. -1.
   -5000001    1    1    2    0    0 -0.24584633897E+03  0.15327184932E+03  0.22548608951E+03  0.44415837124E+03  0.25000000000E+03 0.  0.
    5000001    1    1    2    0    0  0.24584633897E+03 -0.15327184932E+03  0.43624417021E+03  0.58029445820E+03  0.25000000000E+03 0.  0.
<mgrwt>
<rscale>  0 0.78205925E+03</rscale>
<asrwt>0</asrwt>
<pdfrwt beam="1">  1        2 0.12970639E+00 0.78205925E+03</pdfrwt>
<pdfrwt beam="2">  1       -2 0.27901736E-01 0.78205925E+03</pdfrwt>
<totfact> 0.37822074E+02</totfact>
</mgrwt>
</event>
<event>
 4    1  0.1804641E-005  0.7717407E+03  0.7818608E-02  0.9601847E-01
          2   -1    0    0  501    0  0.00000000000E+00  0.00000000000E+00  0.14319924318E+04  0.14319924318E+04  0.25500000000E-02 0.  1.
         -2   -1    0    0    0  501 -0.00000000000E+00 -0.00000000000E+00 -0.10397814836E+03  0.10397814839E+03  0.25500000000E-02 0. -1.
   -5000001    1    1    2    0    0  0.19625660367E+03 -0.72663351040E+02  0.25322386496E+03  0.41281829278E+03  0.25000000000E+03 0.  0.
    5000001    1    1    2    0    0 -0.19625660367E+03  0.72663351040E+02  0.10747904184E+04  0.11231522874E+04  0.25000000000E+03 0.  0.
<mgrwt>
<rscale>  0 0.77174069E+03</rscale>
<asrwt>0</asrwt>
<pdfrwt beam="1">  1        2 0.22030652E+00 0.77174069E+03</pdfrwt>
<pdfrwt beam="2">  1       -2 0.15996639E-01 0.77174069E+03</pdfrwt>
<totfact> 0.44015068E+02</totfact>
</mgrwt>
</event>
<event>
 4    1  0.1804641E-005  0.9782127E+03  0.7818608E-02  0.9332769E-01
          2   -1    0    0  501    0  0.00000000000E+00  0.00000000000E+00  0.19872571484E+04  0.19872571484E+04  0.25500000000E-02 0. -1.
         -2   -1    0    0    0  501 -0.00000000000E+00 -0.00000000000E+00 -0.12037948811E+03  0.12037948813E+03  0.25500000000E-02 0.  1.
   -5000001    1    1    2    0    0 -0.37851174519E+03 -0.17180330879E+03  0.10686372609E+04  0.11735727986E+04  0.25000000000E+03 0.  0.
    5000001    1    1    2    0    0  0.37851174519E+03  0.17180330879E+03  0.79824039932E+03  0.93406383789E+03  0.25000000000E+03 0.  0.
<mgrwt>
<rscale>  0 0.97821265E+03</rscale>
<asrwt>0</asrwt>
<pdfrwt beam="1">  1        2 0.30573186E+00 0.97821265E+03</pdfrwt>
<pdfrwt beam="2">  1       -2 0.18519922E-01 0.97821265E+03</pdfrwt>
<totfact> 0.16664448E+02</totfact>
</mgrwt>
</event>
<event>
 4    1  0.1804641E-005  0.1011113E+04  0.7818608E-02  0.9296439E-01
         -2   -1    0    0    0  501 -0.00000000000E+00  0.00000000000E+00  0.19322155694E+03  0.19322155696E+03  0.25500000000E-02 0. -1.
          2   -1    0    0  501    0  0.00000000000E+00 -0.00000000000E+00 -0.13227693425E+04  0.13227693425E+04  0.25500000000E-02 0.  1.
   -5000001    1    1    2    0    0  0.27458005504E+03  0.88813048320E+02 -0.10616052174E+04  0.11281788873E+04  0.25000000000E+03 0.  0.
    5000001    1    1    2    0    0 -0.27458005504E+03 -0.88813048320E+02 -0.67942568126E+02  0.38781201211E+03  0.25000000000E+03 0.  0.
<mgrwt>
<rscale>  0 0.10111134E+04</rscale>
<asrwt>0</asrwt>
<pdfrwt beam="1">  1        2 0.20350297E+00 0.10111134E+04</pdfrwt>
<pdfrwt beam="2">  1       -2 0.29726394E-01 0.10111134E+04</pdfrwt>
<totfact> 0.16667073E+02</totfact>
</mgrwt>
</event>
<event>
 4    1  0.1804641E-005  0.8611793E+03  0.7818608E-02  0.9475454E-01
          2   -1    0    0  501    0  0.00000000000E+00  0.00000000000E+00  0.65585516158E+03  0.65585516158E+03  0.25500000000E-02 0.  1.
         -2   -1    0    0    0  501 -0.00000000000E+00 -0.00000000000E+00 -0.28269569683E+03  0.28269569684E+03  0.25500000000E-02 0. -1.
   -5000001    1    1    2    0    0 -0.47813040902E+02 -0.14964590216E+03 -0.15499102213E+03  0.33346993846E+03  0.25000000000E+03 0.  0.
    5000001    1    1    2    0    0  0.47813040902E+02  0.14964590216E+03  0.52815048688E+03  0.60508091997E+03  0.25000000000E+03 0.  0.
<mgrwt>
<rscale>  0 0.86117927E+03</rscale>
<asrwt>0</asrwt>
<pdfrwt beam="1">  1        2 0.10090079E+00 0.86117927E+03</pdfrwt>
<pdfrwt beam="2">  1       -2 0.43491646E-01 0.86117927E+03</pdfrwt>
<totfact> 0.22386275E+02</totfact>
</mgrwt>
</event>
<event>
 4    1  0.1804641E-005  0.1022622E+04  0.7818608E-02  0.9284076E-01
         -2   -1    0    0    0  501 -0.00000000000E+00  0.00000000000E+00  0.76647508729E+03  0.76647508730E+03  0.25500000000E-02 0. -1.
          2   -1    0    0  501    0  0.00000000000E+00 -0.00000000000E+00 -0.34109237033E+03  0.34109237034E+03  0.25500000000E-02 0.  1.
   -5000001    1    1    2    0    0 -0.33423883740E+03  0.51359663973E+01 -0.10712855736E+03  0.43095070064E+03  0.25000000000E+03 0.  0.
    5000001    1    1    2    0    0  0.33423883740E+03 -0.51359663973E+01  0.53251127432E+03  0.67661675700E+03  0.25000000000E+03 0.  0.
<mgrwt>
<rscale>  0 0.10226217E+04</rscale>
<asrwt>0</asrwt>
<pdfrwt beam="1">  1        2 0.52475749E-01 0.10226217E+04</pdfrwt>
<pdfrwt beam="2">  1       -2 0.11791924E+00 0.10226217E+04</pdfrwt>
<totfact> 0.52578888E+01</totfact>
</mgrwt>
</event>
<event>
 4    1  0.1804641E-005  0.7927946E+03  0.7818608E-02  0.9570506E-01
         -2   -1    0    0    0  501 -0.00000000000E+00  0.00000000000E+00  0.10290034993E+04  0.10290034993E+04  0.25500000000E-02 0. -1.
          2   -1    0    0  501    0  0.00000000000E+00 -0.00000000000E+00 -0.15270193095E+03  0.15270193097E+03  0.25500000000E-02 0.  1.
   -5000001    1    1    2    0    0  0.10541846097E+03 -0.18200329653E+03  0.77275529913E+03  0.83898093197E+03  0.25000000000E+03 0.  0.
    5000001    1    1    2    0    0 -0.10541846097E+03  0.18200329653E+03  0.10354626920E+03  0.34272449829E+03  0.25000000000E+03 0.  0.
<mgrwt>
<rscale>  0 0.79279460E+03</rscale>
<asrwt>0</asrwt>
<pdfrwt beam="1">  1        2 0.23492604E-01 0.79279460E+03</pdfrwt>
<pdfrwt beam="2">  1       -2 0.15830824E+00 0.79279460E+03</pdfrwt>
<totfact> 0.61626405E+01</totfact>
</mgrwt>
</event>
<event>
 4    1  0.1804641E-005  0.6964931E+03  0.7818608E-02  0.9723248E-01
         -2   -1    0    0    0  501 -0.00000000000E+00  0.00000000000E+00  0.81720723285E+03  0.81720723286E+03  0.25500000000E-02 0. -1.
          2   -1    0    0  501    0  0.00000000000E+00 -0.00000000000E+00 -0.14840257226E+03  0.14840257228E+03  0.25500000000E-02 0.  1.
   -5000001    1    1    2    0    0 -0.16361299239E+03  0.17741724486E+03  0.30249836599E+03  0.46070744674E+03  0.25000000000E+03 0.  0.
    5000001    1    1    2    0    0  0.16361299239E+03 -0.17741724486E+03  0.36630629460E+03  0.50490235840E+03  0.25000000000E+03 0.  0.
<mgrwt>
<rscale>  0 0.69649309E+03</rscale>
<asrwt>0</asrwt>
<pdfrwt beam="1">  1        2 0.22831165E-01 0.69649309E+03</pdfrwt>
<pdfrwt beam="2">  1       -2 0.12572419E+00 0.69649309E+03</pdfrwt>
<totfact> 0.11633590E+02</totfact>
</mgrwt>
</event>
<event>
 4    1  0.1804641E-005  0.1112380E+04  0.7818608E-02  0.9193209E-01
         -2   -1    0    0    0  501 -0.00000000000E+00  0.00000000000E+00  0.47546441086E+03  0.47546441087E+03  0.25500000000E-02 0. -1.
          2   -1    0    0  501    0  0.00000000000E+00 -0.00000000000E+00 -0.65062091947E+03  0.65062091947E+03  0.25500000000E-02 0.  1.
   -5000001    1    1    2    0    0 -0.72985979705E+02  0.30853750202E+03 -0.47481555113E+03  0.62327534123E+03  0.25000000000E+03 0.  0.
    5000001    1    1    2    0    0  0.72985979705E+02 -0.30853750202E+03  0.29965904253E+03  0.50280998912E+03  0.25000000000E+03 0.  0.
<mgrwt>
<rscale>  0 0.11123796E+04</rscale>
<asrwt>0</asrwt>
<pdfrwt beam="1">  1        2 0.10009553E+00 0.11123796E+04</pdfrwt>
<pdfrwt beam="2">  1       -2 0.73148371E-01 0.11123796E+04</pdfrwt>
<totfact> 0.75242150E+01</totfact>
</mgrwt>
</event>
<event>
 4    1  0.1804641E-005  0.5558280E+03  0.7818608E-02  0.1000154E+00
         -2   -1    0    0    0  501 -0.00000000000E+00  0.00000000000E+00  0.35329377903E+02  0.35329377995E+02  0.25500000000E-02 0. -1.
          2   -1    0    0  501    0  0.00000000000E+00 -0.00000000000E+00 -0.21861749612E+04  0.21861749612E+04  0.25500000000E-02 0.  1.
   -5000001    1    1    2    0    0  0.93663803691E+02 -0.76927057228E+02 -0.11023886121E+04  0.11368602958E+04  0.25000000000E+03 0.  0.
    5000001    1    1    2    0    0 -0.93663803691E+02  0.76927057228E+02 -0.10484569713E+04  0.10846440434E+04  0.25000000000E+03 0.  0.
<mgrwt>
<rscale>  0 0.55582804E+03</rscale>
<asrwt>0</asrwt>
<pdfrwt beam="1">  1        2 0.33633450E+00 0.55582804E+03</pdfrwt>
<pdfrwt beam="2">  1       -2 0.54352906E-02 0.55582804E+03</pdfrwt>
<totfact> 0.99291586E+02</totfact>
</mgrwt>
</event>
<event>
 4    1  0.1804641E-005  0.7913189E+03  0.7818608E-02  0.9572668E-01
          2   -1    0    0  501    0  0.00000000000E+00  0.00000000000E+00  0.30797238237E+03  0.30797238238E+03  0.25500000000E-02 0.  1.
         -2   -1    0    0    0  501 -0.00000000000E+00 -0.00000000000E+00 -0.50831314739E+03  0.50831314739E+03  0.25500000000E-02 0. -1.
   -5000001    1    1    2    0    0 -0.18437444136E+03  0.24342650503E+03 -0.71066519961E+02  0.40099981077E+03  0.25000000000E+03 0.  0.
    5000001    1    1    2    0    0  0.18437444136E+03 -0.24342650503E+03 -0.12927424505E+03  0.41528571901E+03  0.25000000000E+03 0.  0.
<mgrwt>
<rscale>  0 0.79131893E+03</rscale>
<asrwt>0</asrwt>
<pdfrwt beam="1">  1        2 0.47380366E-01 0.79131893E+03</pdfrwt>
<pdfrwt beam="2">  1       -2 0.78202023E-01 0.79131893E+03</pdfrwt>
<totfact> 0.15632641E+02</totfact>
</mgrwt>
</event>
<event>
 4    1  0.1804641E-005  0.8858143E+03  0.7818608E-02  0.9443490E-01
          2   -1    0    0  501    0  0.00000000000E+00  0.00000000000E+00  0.15868165043E+04  0.15868165043E+04  0.25500000000E-02 0.  1.
         -2   -1    0    0    0  501 -0.00000000000E+00 -0.00000000000E+00 -0.12362282533E+03  0.12362282535E+03  0.25500000000E-02 0. -1.
   -5000001    1    1    2    0    0  0.20226950026E+03 -0.27420290252E+03  0.47567442935E+03  0.63629108529E+03  0.25000000000E+03 0.  0.
    5000001    1    1    2    0    0 -0.20226950026E+03  0.27420290252E+03  0.98751924959E+03  0.10741482443E+04  0.25000000000E+03 0.  0.
<mgrwt>
<rscale>  0 0.88581429E+03</rscale>
<asrwt>0</asrwt>
<pdfrwt beam="1">  1        2 0.24412561E+00 0.88581429E+03</pdfrwt>
<pdfrwt beam="2">  1       -2 0.19018896E-01 0.88581429E+03</pdfrwt>
<totfact> 0.26592595E+02</totfact>
</mgrwt>
</event>
<event>
 4    1  0.1804641E-005  0.1197378E+04  0.7818608E-02  0.9115155E-01
          2   -1    0    0  501    0  0.00000000000E+00  0.00000000000E+00  0.12067844817E+04  0.12067844817E+04  0.25500000000E-02 0. -1.
         -2   -1    0    0    0  501 -0.00000000000E+00 -0.00000000000E+00 -0.29701111332E+03  0.29701111333E+03  0.25500000000E-02 0.  1.
   -5000001    1    1    2    0    0  0.15281453650E+03 -0.51417424767E+03  0.56862060948E+03  0.82070508531E+03  0.25000000000E+03 0.  0.
    5000001    1    1    2    0    0 -0.15281453650E+03  0.51417424767E+03  0.34115275885E+03  0.68309050967E+03  0.25000000000E+03 0.  0.
<mgrwt>
<rscale>  0 0.11973778E+04</rscale>
<asrwt>0</asrwt>
<pdfrwt beam="1">  1        2 0.18565915E+00 0.11973778E+04</pdfrwt>
<pdfrwt beam="2">  1       -2 0.45694017E-01 0.11973778E+04</pdfrwt>
<totfact> 0.84069239E+01</totfact>
</mgrwt>
</event>
<event>
 4    1  0.1804641E-005  0.9086910E+03  0.7818608E-02  0.9414782E-01
          2   -1    0    0  501    0  0.00000000000E+00  0.00000000000E+00  0.24559447975E+04  0.24559447975E+04  0.25500000000E-02 0.  1.
         -2   -1    0    0    0  501 -0.00000000000E+00 -0.00000000000E+00 -0.84053116779E+02  0.84053116818E+02  0.25500000000E-02 0. -1.
   -5000001    1    1    2    0    0  0.26266204310E+03 -0.90531981353E+02  0.19080804308E+04  0.19443400728E+04  0.25000000000E+03 0.  0.
    5000001    1    1    2    0    0 -0.26266204310E+03  0.90531981353E+02  0.46381124991E+03  0.59565784145E+03  0.25000000000E+03 0.  0.
<mgrwt>
<rscale>  0 0.90869096E+03</rscale>
<asrwt>0</asrwt>
<pdfrwt beam="1">  1        2 0.37783763E+00 0.90869096E+03</pdfrwt>
<pdfrwt beam="2">  1       -2 0.12931250E-01 0.90869096E+03</pdfrwt>
<totfact> 0.16944832E+02</totfact>
</mgrwt>
</event>
<event>
 4    1  0.1804641E-005  0.7496487E+03  0.7818608E-02  0.9635902E-01
          2   -1    0    0  501    0  0.00000000000E+00  0.00000000000E+00  0.20161625342E+03  0.20161625344E+03  0.25500000000E-02 0.  1.
         -2   -1    0    0    0  501 -0.00000000000E+00 -0.00000000000E+00 -0.69683517127E+03  0.69683517128E+03  0.25500000000E-02 0. -1.
   -5000001    1    1    2    0    0 -0.24204257476E+03  0.51400842155E+02 -0.92420846729E+02  0.36368704607E+03  0.25000000000E+03 0.  0.
    5000001    1    1    2    0    0  0.24204257476E+03 -0.51400842155E+02 -0.40279807112E+03  0.53476437865E+03  0.25000000000E+03 0.  0.
<mgrwt>
<rscale>  0 0.74964871E+03</rscale>
<asrwt>0</asrwt>
<pdfrwt beam="1">  1        2 0.31017885E-01 0.74964871E+03</pdfrwt>
<pdfrwt beam="2">  1       -2 0.10720541E+00 0.74964871E+03</pdfrwt>
<totfact> 0.12090619E+02</totfact>
</mgrwt>
</event>
<event>
 4    1  0.1804641E-005  0.7106257E+03  0.7818608E-02  0.9699231E-01
          2   -1    0    0  501    0  0.00000000000E+00  0.00000000000E+00  0.90723943685E+03  0.90723943686E+03  0.25500000000E-02 0.  1.
         -2   -1    0    0    0  501 -0.00000000000E+00 -0.00000000000E+00 -0.13915533744E+03  0.13915533747E+03  0.25500000000E-02 0. -1.
   -5000001    1    1    2    0    0 -0.10681520297E+03  0.20643725069E+03  0.23885806240E+03  0.41662813159E+03  0.25000000000E+03 0.  0.
    5000001    1    1    2    0    0  0.10681520297E+03 -0.20643725069E+03  0.52922603701E+03  0.62976664274E+03  0.25000000000E+03 0.  0.
<mgrwt>
<rscale>  0 0.71062567E+03</rscale>
<asrwt>0</asrwt>
<pdfrwt beam="1">  1        2 0.13957530E+00 0.71062567E+03</pdfrwt>
<pdfrwt beam="2">  1       -2 0.21408513E-01 0.71062567E+03</pdfrwt>
<totfact> 0.55210118E+02</totfact>
</mgrwt>
</event>
<event>
 4    1  0.1804641E-005  0.6966544E+03  0.7818608E-02  0.9722971E-01
          2   -1    0    0  501    0  0.00000000000E+00  0.00000000000E+00  0.86202514744E+03  0.86202514745E+03  0.25500000000E-02 0.  1.
         -2   -1    0    0    0  501 -0.00000000000E+00 -0.00000000000E+00 -0.14075206906E+03  0.14075206909E+03  0.25500000000E-02 0. -1.
   -5000001    1    1    2    0    0 -0.10568408219E+03  0.16512516622E+03  0.56620837767E+03  0.64925139407E+03  0.25000000000E+03 0.  0.
    5000001    1    1    2    0    0  0.10568408219E+03 -0.16512516622E+03  0.15506470071E+03  0.35352582247E+03  0.25000000000E+03 0.  0.
<mgrwt>
<rscale>  0 0.69665436E+03</rscale>
<asrwt>0</asrwt>
<pdfrwt beam="1">  1        2 0.13261925E+00 0.69665436E+03</pdfrwt>
<pdfrwt beam="2">  1       -2 0.21654165E-01 0.69665436E+03</pdfrwt>
<totfact> 0.58093020E+02</totfact>
</mgrwt>
</event>
<event>
 4    1  0.1804641E-005  0.6725701E+03  0.7818608E-02  0.9765326E-01
         -2   -1    0    0    0  501 -0.00000000000E+00  0.00000000000E+00  0.35049730606E+02  0.35049730699E+02  0.25500000000E-02 0. -1.
          2   -1    0    0  501    0  0.00000000000E+00 -0.00000000000E+00 -0.32264904855E+04  0.32264904855E+04  0.25500000000E-02 0.  1.
   -5000001    1    1    2    0    0 -0.11441107976E+03 -0.90676980545E+02 -0.24254502325E+04  0.24426667886E+04  0.25000000000E+03 0.  0.
    5000001    1    1    2    0    0  0.11441107976E+03  0.90676980545E+02 -0.76599052241E+03  0.81887342758E+03  0.25000000000E+03 0.  0.
<mgrwt>
<rscale>  0 0.67257006E+03</rscale>
<asrwt>0</asrwt>
<pdfrwt beam="1">  1        2 0.49638292E+00 0.67257006E+03</pdfrwt>
<pdfrwt beam="2">  1       -2 0.53922688E-02 0.67257006E+03</pdfrwt>
<totfact> 0.24569871E+02</totfact>
</mgrwt>
</event>
<event>
 4    1  0.1804641E-005  0.6381681E+03  0.7818608E-02  0.9829238E-01
          2   -1    0    0  501    0  0.00000000000E+00  0.00000000000E+00  0.41122684076E+03  0.41122684077E+03  0.25500000000E-02 0.  1.
         -2   -1    0    0    0  501 -0.00000000000E+00 -0.00000000000E+00 -0.24758747715E+03  0.24758747716E+03  0.25500000000E-02 0. -1.
   -5000001    1    1    2    0    0 -0.90615604290E+02  0.14273386208E+03  0.18875899755E+03  0.35596924345E+03  0.25000000000E+03 0.  0.
    5000001    1    1    2    0    0  0.90615604290E+02 -0.14273386208E+03 -0.25119633944E+02  0.30284507448E+03  0.25000000000E+03 0.  0.
<mgrwt>
<rscale>  0 0.63816805E+03</rscale>
<asrwt>0</asrwt>
<pdfrwt beam="1">  1        2 0.63265666E-01 0.63816805E+03</pdfrwt>
<pdfrwt beam="2">  1       -2 0.38090382E-01 0.63816805E+03</pdfrwt>
<totfact> 0.50532838E+02</totfact>
</mgrwt>
</event>
<event>
 4    1  0.1804641E-005  0.7612085E+03  0.7818608E-02  0.9617928E-01
         -2   -1    0    0    0  501 -0.00000000000E+00  0.00000000000E+00  0.68309632760E+02  0.68309632807E+02  0.25500000000E-02 0. -1.
          2   -1    0    0  501    0  0.00000000000E+00 -0.00000000000E+00 -0.21206323028E+04  0.21206323028E+04  0.25500000000E-02 0.  1.
   -5000001    1    1    2    0    0  0.87584125575E+02 -0.22221993455E+03 -0.14836184255E+04  0.15233766149E+04  0.25000000000E+03 0.  0.
    5000001    1    1    2    0    0 -0.87584125575E+02  0.22221993455E+03 -0.56870424455E+03  0.66556532071E+03  0.25000000000E+03 0.  0.
<mgrwt>
<rscale>  0 0.76120855E+03</rscale>
<asrwt>0</asrwt>
<pdfrwt beam="1">  1        2 0.32625107E+00 0.76120855E+03</pdfrwt>
<pdfrwt beam="2">  1       -2 0.10509176E-01 0.76120855E+03</pdfrwt>
<totfact> 0.37153947E+02</totfact>
</mgrwt>
</event>
<event>
 4    1  0.1804641E-005  0.1552399E+04  0.7818608E-02  0.8850337E-01
          2   -1    0    0  501    0  0.00000000000E+00  0.00000000000E+00  0.22087513821E+04  0.22087513821E+04  0.25500000000E-02 0.  1.
         -2   -1    0    0    0  501 -0.00000000000E+00 -0.00000000000E+00 -0.27277223512E+03  0.27277223513E+03  0.25500000000E-02 0. -1.
   -5000001    1    1    2    0    0  0.35195358349E+03 -0.58589273381E+03  0.53655683653E+03  0.90417634303E+03  0.25000000000E+03 0.  0.
    5000001    1    1    2    0    0 -0.35195358349E+03  0.58589273381E+03  0.13994223104E+04  0.15773472742E+04  0.25000000000E+03 0.  0.
<mgrwt>
<rscale>  0 0.15523995E+04</rscale>
<asrwt>0</asrwt>
<pdfrwt beam="1">  1        2 0.33980791E+00 0.15523995E+04</pdfrwt>
<pdfrwt beam="2">  1       -2 0.41964959E-01 0.15523995E+04</pdfrwt>
<totfact> 0.26466597E+01</totfact>
</mgrwt>
</event>
<event>
 4    1  0.1804641E-005  0.7473272E+03  0.7818608E-02  0.9639553E-01
         -2   -1    0    0    0  501 -0.00000000000E+00  0.00000000000E+00  0.36426486827E+03  0.36426486828E+03  0.25500000000E-02 0. -1.
          2   -1    0    0  501    0  0.00000000000E+00 -0.00000000000E+00 -0.38330479554E+03  0.38330479555E+03  0.25500000000E-02 0.  1.
   -5000001    1    1    2    0    0 -0.20497567865E+03  0.18701369140E+03 -0.21156504792E+02  0.37408120416E+03  0.25000000000E+03 0.  0.
    5000001    1    1    2    0    0  0.20497567865E+03 -0.18701369140E+03  0.21165775139E+01  0.37348845967E+03  0.25000000000E+03 0.  0.
<mgrwt>
<rscale>  0 0.74732716E+03</rscale>
<asrwt>0</asrwt>
<pdfrwt beam="1">  1        2 0.58969969E-01 0.74732716E+03</pdfrwt>
<pdfrwt beam="2">  1       -2 0.56040749E-01 0.74732716E+03</pdfrwt>
<totfact> 0.25166183E+02</totfact>
</mgrwt>
</event>
<event>
 4    1  0.1804641E-005  0.8520079E+03  0.7818608E-02  0.9487646E-01
         -2   -1    0    0    0  501 -0.00000000000E+00  0.00000000000E+00  0.21797826342E+03  0.21797826344E+03  0.25500000000E-02 0. -1.
          2   -1    0    0  501    0  0.00000000000E+00 -0.00000000000E+00 -0.83255722888E+03  0.83255722888E+03  0.25500000000E-02 0.  1.
   -5000001    1    1    2    0    0  0.58487354755E+02 -0.19034170160E+03 -0.65457135137E+03  0.72843283017E+03  0.25000000000E+03 0.  0.
    5000001    1    1    2    0    0 -0.58487354755E+02  0.19034170160E+03  0.39992385919E+02  0.32210266215E+03  0.25000000000E+03 0.  0.
<mgrwt>
<rscale>  0 0.85200793E+03</rscale>
<asrwt>0</asrwt>
<pdfrwt beam="1">  1        2 0.12808573E+00 0.85200793E+03</pdfrwt>
<pdfrwt beam="2">  1       -2 0.33535118E-01 0.85200793E+03</pdfrwt>
<totfact> 0.27225934E+02</totfact>
</mgrwt>
</event>
<event>
 4    1  0.1804641E-005  0.1422374E+04  0.7818608E-02  0.8937781E-01
          2   -1    0    0  501    0  0.00000000000E+00  0.00000000000E+00  0.83955895174E+03  0.83955895175E+03  0.25500000000E-02 0.  1.
         -2   -1    0    0    0  501 -0.00000000000E+00 -0.00000000000E+00 -0.60244328417E+03  0.60244328418E+03  0.25500000000E-02 0. -1.
   -5000001    1    1    2    0    0 -0.91232801785E+02  0.42495016237E+03  0.62987955143E+03  0.80508031521E+03  0.25000000000E+03 0.  0.
    5000001    1    1    2    0    0  0.91232801785E+02 -0.42495016237E+03 -0.39276388386E+03  0.63692192072E+03  0.25000000000E+03 0.  0.
<mgrwt>
<rscale>  0 0.14223736E+04</rscale>
<asrwt>0</asrwt>
<pdfrwt beam="1">  1        2 0.12916291E+00 0.14223736E+04</pdfrwt>
<pdfrwt beam="2">  1       -2 0.92683583E-01 0.14223736E+04</pdfrwt>
<totfact> 0.30974991E+01</totfact>
</mgrwt>
</event>
<event>
 4    1  0.1804641E-005  0.6833045E+03  0.7818608E-02  0.9746217E-01
          2   -1    0    0  501    0  0.00000000000E+00  0.00000000000E+00  0.31223144880E+03  0.31223144881E+03  0.25500000000E-02 0.  1.
         -2   -1    0    0    0  501 -0.00000000000E+00 -0.00000000000E+00 -0.37384533666E+03  0.37384533667E+03  0.25500000000E-02 0. -1.
   -5000001    1    1    2    0    0  0.11380837129E+03  0.19466231470E+03 -0.89184978420E+02  0.34828109698E+03  0.25000000000E+03 0.  0.
    5000001    1    1    2    0    0 -0.11380837129E+03 -0.19466231470E+03  0.27571090559E+02  0.33779568851E+03  0.25000000000E+03 0.  0.
<mgrwt>
<rscale>  0 0.68330453E+03</rscale>
<asrwt>0</asrwt>
<pdfrwt beam="1">  1        2 0.48035607E-01 0.68330453E+03</pdfrwt>
<pdfrwt beam="2">  1       -2 0.57514667E-01 0.68330453E+03</pdfrwt>
<totfact> 0.30021712E+02</totfact>
</mgrwt>
</event>
<event>
 4    1  0.1804641E-005  0.8378712E+03  0.7818608E-02  0.9506762E-01
         -2   -1    0    0    0  501 -0.00000000000E+00  0.00000000000E+00  0.71300485746E+03  0.71300485747E+03  0.25500000000E-02 0. -1.
          2   -1    0    0  501    0  0.00000000000E+00 -0.00000000000E+00 -0.24615127842E+03  0.24615127844E+03  0.25500000000E-02 0.  1.
   -5000001    1    1    2    0    0 -0.31972874416E+03 -0.15828039744E+02  0.11595665798E+03  0.42240140058E+03  0.25000000000E+03 0.  0.
    5000001    1    1    2    0    0  0.31972874416E+03  0.15828039744E+02  0.35089692106E+03  0.53675473532E+03  0.25000000000E+03 0.  0.
<mgrwt>
<rscale>  0 0.83787125E+03</rscale>
<asrwt>0</asrwt>
<pdfrwt beam="1">  1        2 0.37869428E-01 0.83787125E+03</pdfrwt>
<pdfrwt beam="2">  1       -2 0.10969305E+00 0.83787125E+03</pdfrwt>
<totfact> 0.91095649E+01</totfact>
</mgrwt>
</event>
<event>
 4    1  0.1804641E-005  0.1055812E+04  0.7818608E-02  0.9249364E-01
          2   -1    0    0  501    0  0.00000000000E+00  0.00000000000E+00  0.11024220218E+04  0.11024220218E+04  0.25500000000E-02 0.  1.
         -2   -1    0    0    0  501 -0.00000000000E+00 -0.00000000000E+00 -0.25279306897E+03  0.25279306899E+03  0.25500000000E-02 0. -1.
   -5000001    1    1    2    0    0 -0.35271684833E+03 -0.19536406122E+03  0.72200704894E+03  0.86392735240E+03  0.25000000000E+03 0.  0.
    5000001    1    1    2    0    0  0.35271684833E+03  0.19536406122E+03  0.12762190385E+03  0.49128773835E+03  0.25000000000E+03 0.  0.
<mgrwt>
<rscale>  0 0.10558118E+04</rscale>
<asrwt>0</asrwt>
<pdfrwt beam="1">  1        2 0.16960339E+00 0.10558118E+04</pdfrwt>
<pdfrwt beam="2">  1       -2 0.38891241E-01 0.10558118E+04</pdfrwt>
<totfact> 0.13491324E+02</totfact>
</mgrwt>
</event>
<event>
 4    1  0.1804641E-005  0.5612154E+03  0.7818608E-02  0.9989308E-01
          2   -1    0    0  501    0  0.00000000000E+00  0.00000000000E+00  0.12675155015E+04  0.12675155015E+04  0.25500000000E-02 0.  1.
         -2   -1    0    0    0  501 -0.00000000000E+00 -0.00000000000E+00 -0.62122058219E+02  0.62122058271E+02  0.25500000000E-02 0. -1.
   -5000001    1    1    2    0    0  0.11194919941E+02  0.85389938277E+02  0.82525005776E+03  0.86657626648E+03  0.25000000000E+03 0.  0.
    5000001    1    1    2    0    0 -0.11194919941E+02 -0.85389938277E+02  0.38014338551E+03  0.46306129329E+03  0.25000000000E+03 0.  0.
<mgrwt>
<rscale>  0 0.56121537E+03</rscale>
<asrwt>0</asrwt>
<pdfrwt beam="1">  1        2 0.19500240E+00 0.56121537E+03</pdfrwt>
<pdfrwt beam="2">  1       -2 0.95572391E-02 0.56121537E+03</pdfrwt>
<totfact> 0.12933376E+03</totfact>
</mgrwt>
</event>
<event>
 4    1  0.1804641E-005  0.1375783E+04  0.7818608E-02  0.8971537E-01
          2   -1    0    0  501    0  0.00000000000E+00  0.00000000000E+00  0.43606828281E+03  0.43606828282E+03  0.25500000000E-02 0.  1.
         -2   -1    0    0    0  501 -0.00000000000E+00 -0.00000000000E+00 -0.10851392140E+04  0.10851392140E+04  0.25500000000E-02 0. -1.
   -5000001    1    1    2    0    0  0.58309890604E+03 -0.12824123641E+03 -0.58205899572E+03  0.87048424652E+03  0.25000000000E+03 0.  0.
    5000001    1    1    2    0    0 -0.58309890604E+03  0.12824123641E+03 -0.67011935432E+02  0.65072325026E+03  0.25000000000E+03 0.  0.
<mgrwt>
<rscale>  0 0.13757831E+04</rscale>
<asrwt>0</asrwt>
<pdfrwt beam="1">  1        2 0.67087429E-01 0.13757831E+04</pdfrwt>
<pdfrwt beam="2">  1       -2 0.16694449E+00 0.13757831E+04</pdfrwt>
<totfact> 0.15737566E+01</totfact>
</mgrwt>
</event>
<event>
 4    1  0.1804641E-005  0.1004840E+04  0.7818608E-02  0.9303252E-01
          2   -1    0    0  501    0  0.00000000000E+00  0.00000000000E+00  0.61695398654E+03  0.61695398655E+03  0.25500000000E-02 0.  1.
         -2   -1    0    0    0  501 -0.00000000000E+00 -0.00000000000E+00 -0.40914842199E+03  0.40914842200E+03  0.25500000000E-02 0. -1.
   -5000001    1    1    2    0    0 -0.29807239104E+03  0.30417688640E+03  0.19835332047E+03  0.53217926328E+03  0.25000000000E+03 0.  0.
    5000001    1    1    2    0    0  0.29807239104E+03 -0.30417688640E+03  0.94522440820E+01  0.49392314528E+03  0.25000000000E+03 0.  0.
<mgrwt>
<rscale>  0 0.10048398E+04</rscale>
<asrwt>0</asrwt>
<pdfrwt beam="1">  1        2 0.94915998E-01 0.10048398E+04</pdfrwt>
<pdfrwt beam="2">  1       -2 0.62945911E-01 0.10048398E+04</pdfrwt>
<totfact> 0.11199663E+02</totfact>
</mgrwt>
</event>
<event>
 4    1  0.1804641E-005  0.1044448E+04  0.7818608E-02  0.9261095E-01
          2   -1    0    0  501    0  0.00000000000E+00  0.00000000000E+00  0.43614504118E+03  0.43614504119E+03  0.25500000000E-02 0.  1.
         -2   -1    0    0    0  501 -0.00000000000E+00 -0.00000000000E+00 -0.62529161272E+03  0.62529161273E+03  0.25500000000E-02 0. -1.
   -5000001    1    1    2    0    0  0.11252997073E+03  0.43871635783E+03 -0.22119882086E+02  0.51780722873E+03  0.25000000000E+03 0.  0.
    5000001    1    1    2    0    0 -0.11252997073E+03 -0.43871635783E+03 -0.16702668946E+03  0.54362942519E+03  0.25000000000E+03 0.  0.
<mgrwt>
<rscale>  0 0.10444479E+04</rscale>
<asrwt>0</asrwt>
<pdfrwt beam="1">  1        2 0.67099238E-01 0.10444479E+04</pdfrwt>
<pdfrwt beam="2">  1       -2 0.96198709E-01 0.10444479E+04</pdfrwt>
<totfact> 0.64998453E+01</totfact>
</mgrwt>
</event>
<event>
 4    1  0.1804641E-005  0.7936365E+03  0.7818608E-02  0.9569274E-01
         -2   -1    0    0    0  501 -0.00000000000E+00  0.00000000000E+00  0.33482512845E+03  0.33482512846E+03  0.25500000000E-02 0. -1.
          2   -1    0    0  501    0  0.00000000000E+00 -0.00000000000E+00 -0.47028948860E+03  0.47028948860E+03  0.25500000000E-02 0.  1.
   -5000001    1    1    2    0    0  0.18243372424E+03  0.22007144003E+03  0.49046685412E+02  0.38290870949E+03  0.25000000000E+03 0.  0.
    5000001    1    1    2    0    0 -0.18243372424E+03 -0.22007144003E+03 -0.18451104556E+03  0.42220590757E+03  0.25000000000E+03 0.  0.
<mgrwt>
<rscale>  0 0.79363654E+03</rscale>
<asrwt>0</asrwt>
<pdfrwt beam="1">  1        2 0.72352229E-01 0.79363654E+03</pdfrwt>
<pdfrwt beam="2">  1       -2 0.51511558E-01 0.79363654E+03</pdfrwt>
<totfact> 0.23710729E+02</totfact>
</mgrwt>
</event>
<event>
 4    1  0.1804641E-005  0.7434529E+03  0.7818608E-02  0.9645678E-01
          2   -1    0    0  501    0  0.00000000000E+00  0.00000000000E+00  0.96459640302E+03  0.96459640302E+03  0.25500000000E-02 0.  1.
         -2   -1    0    0    0  501 -0.00000000000E+00 -0.00000000000E+00 -0.14325221420E+03  0.14325221422E+03  0.25500000000E-02 0. -1.
   -5000001    1    1    2    0    0 -0.47187617931E+02 -0.22298767818E+03  0.64022321327E+03  0.72411044649E+03  0.25000000000E+03 0.  0.
    5000001    1    1    2    0    0  0.47187617931E+02  0.22298767818E+03  0.18112097555E+03  0.38373817075E+03  0.25000000000E+03 0.  0.
<mgrwt>
<rscale>  0 0.74345295E+03</rscale>
<asrwt>0</asrwt>
<pdfrwt beam="1">  1        2 0.14839945E+00 0.74345295E+03</pdfrwt>
<pdfrwt beam="2">  1       -2 0.22038802E-01 0.74345295E+03</pdfrwt>
<totfact> 0.48019748E+02</totfact>
</mgrwt>
</event>
<event>
 4    1  0.1804641E-005  0.1154101E+04  0.7818608E-02  0.9154008E-01
         -2   -1    0    0    0  501 -0.00000000000E+00  0.00000000000E+00  0.35961784316E+03  0.35961784317E+03  0.25500000000E-02 0. -1.
          2   -1    0    0  501    0  0.00000000000E+00 -0.00000000000E+00 -0.92594828710E+03  0.92594828710E+03  0.25500000000E-02 0.  1.
   -5000001    1    1    2    0    0 -0.42648677781E+03  0.73696913228E+02 -0.60439927212E+03  0.78429630039E+03  0.25000000000E+03 0.  0.
    5000001    1    1    2    0    0  0.42648677781E+03 -0.73696913228E+02  0.38068828180E+02  0.50126982988E+03  0.25000000000E+03 0.  0.
<mgrwt>
<rscale>  0 0.11541014E+04</rscale>
<asrwt>0</asrwt>
<pdfrwt beam="1">  1        2 0.14245358E+00 0.11541014E+04</pdfrwt>
<pdfrwt beam="2">  1       -2 0.55325822E-01 0.11541014E+04</pdfrwt>
<totfact> 0.85605636E+01</totfact>
</mgrwt>
</event>
<event>
 4    1  0.1804641E-005  0.1081688E+04  0.7818608E-02  0.9223226E-01
         -2   -1    0    0    0  501 -0.00000000000E+00  0.00000000000E+00  0.14724099775E+03  0.14724099777E+03  0.25500000000E-02 0. -1.
          2   -1    0    0  501    0  0.00000000000E+00 -0.00000000000E+00 -0.19866213422E+04  0.19866213422E+04  0.25500000000E-02 0.  1.
   -5000001    1    1    2    0    0  0.30632644687E+03  0.31079653366E+03 -0.52721528671E+03  0.72861947265E+03  0.25000000000E+03 0.  0.
    5000001    1    1    2    0    0 -0.30632644687E+03 -0.31079653366E+03 -0.13121650577E+04  0.14052428673E+04  0.25000000000E+03 0.  0.
<mgrwt>
<rscale>  0 0.10816878E+04</rscale>
<asrwt>0</asrwt>
<pdfrwt beam="1">  1        2 0.30563403E+00 0.10816878E+04</pdfrwt>
<pdfrwt beam="2">  1       -2 0.22652463E-01 0.10816878E+04</pdfrwt>
<totfact> 0.11603014E+02</totfact>
</mgrwt>
</event>
<event>
 4    1  0.1804641E-005  0.8829063E+03  0.7818608E-02  0.9447205E-01
          2   -1    0    0  501    0  0.00000000000E+00  0.00000000000E+00  0.23037584652E+04  0.23037584652E+04  0.25500000000E-02 0.  1.
         -2   -1    0    0    0  501 -0.00000000000E+00 -0.00000000000E+00 -0.84592591990E+02  0.84592592028E+02  0.25500000000E-02 0. -1.
   -5000001    1    1    2    0    0 -0.35180317075E+03 -0.91169428235E+02  0.10624516921E+04  0.11503829509E+04  0.25000000000E+03 0.  0.
    5000001    1    1    2    0    0  0.35180317075E+03  0.91169428235E+02  0.11567141811E+04  0.12379681064E+04  0.25000000000E+03 0.  0.
<mgrwt>
<rscale>  0 0.88290634E+03</rscale>
<asrwt>0</asrwt>
<pdfrwt beam="1">  1        2 0.35442434E+00 0.88290634E+03</pdfrwt>
<pdfrwt beam="2">  1       -2 0.13014246E-01 0.88290634E+03</pdfrwt>
<totfact> 0.20462876E+02</totfact>
</mgrwt>
</event>
<event>
 4    1  0.1804641E-005  0.5855981E+03  0.7818608E-02  0.9935744E-01
          2   -1    0    0  501    0  0.00000000000E+00  0.00000000000E+00  0.68042922263E+02  0.68042922311E+02  0.25500000000E-02 0.  1.
         -2   -1    0    0    0  501 -0.00000000000E+00 -0.00000000000E+00 -0.12599587371E+04  0.12599587371E+04  0.25500000000E-02 0. -1.
   -5000001    1    1    2    0    0 -0.48212059872E+02 -0.92899466385E+02 -0.34468981491E+03  0.43848122204E+03  0.25000000000E+03 0.  0.
    5000001    1    1    2    0    0  0.48212059872E+02  0.92899466385E+02 -0.84722599995E+03  0.88952043741E+03  0.25000000000E+03 0.  0.
<mgrwt>
<rscale>  0 0.58559807E+03</rscale>
<asrwt>0</asrwt>
<pdfrwt beam="1">  1        2 0.10468143E-01 0.58559807E+03</pdfrwt>
<pdfrwt beam="2">  1       -2 0.19383979E+00 0.58559807E+03</pdfrwt>
<totfact> 0.93894309E+01</totfact>
</mgrwt>
</event>
<event>
 4    1  0.1804641E-005  0.1478398E+04  0.7818608E-02  0.8898947E-01
         -2   -1    0    0    0  501 -0.00000000000E+00  0.00000000000E+00  0.58357440830E+03  0.58357440831E+03  0.25500000000E-02 0. -1.
          2   -1    0    0  501    0  0.00000000000E+00 -0.00000000000E+00 -0.93632455932E+03  0.93632455933E+03  0.25500000000E-02 0.  1.
   -5000001    1    1    2    0    0 -0.59373186149E+03  0.32201996403E+03 -0.52677766752E+01  0.72023755112E+03  0.25000000000E+03 0.  0.
    5000001    1    1    2    0    0  0.59373186149E+03 -0.32201996403E+03 -0.34748237435E+03  0.79966141651E+03  0.25000000000E+03 0.  0.
<mgrwt>
<rscale>  0 0.14783978E+04</rscale>
<asrwt>0</asrwt>
<pdfrwt beam="1">  1        2 0.14404993E+00 0.14783978E+04</pdfrwt>
<pdfrwt beam="2">  1       -2 0.89780678E-01 0.14783978E+04</pdfrwt>
<totfact> 0.28519425E+01</totfact>
</mgrwt>
</event>
<event>
 4    1  0.1804641E-005  0.7351689E+03  0.7818608E-02  0.9658910E-01
          2   -1    0    0  501    0  0.00000000000E+00  0.00000000000E+00  0.17418950037E+04  0.17418950037E+04  0.25500000000E-02 0. -1.
         -2   -1    0    0    0  501 -0.00000000000E+00 -0.00000000000E+00 -0.77569739464E+02  0.77569739506E+02  0.25500000000E-02 0.  1.
   -5000001    1    1    2    0    0  0.65398564534E+02 -0.93590040648E+02  0.14362712507E+04  0.14623307333E+04  0.25000000000E+03 0.  0.
    5000001    1    1    2    0    0 -0.65398564534E+02  0.93590040648E+02  0.22805401356E+03  0.35713400993E+03  0.25000000000E+03 0.  0.
<mgrwt>
<rscale>  0 0.73516894E+03</rscale>
<asrwt>0</asrwt>
<pdfrwt beam="1">  1        2 0.26798386E+00 0.73516894E+03</pdfrwt>
<pdfrwt beam="2">  1       -2 0.11933806E-01 0.73516894E+03</pdfrwt>
<totfact> 0.48611625E+02</totfact>
</mgrwt>
</event>
<event>
 4    1  0.1804641E-005  0.7436590E+03  0.7818608E-02  0.9645351E-01
          2   -1    0    0  501    0  0.00000000000E+00  0.00000000000E+00  0.69419180905E+03  0.69419180906E+03  0.25500000000E-02 0.  1.
         -2   -1    0    0    0  501 -0.00000000000E+00 -0.00000000000E+00 -0.19916280053E+03  0.19916280054E+03  0.25500000000E-02 0. -1.
   -5000001    1    1    2    0    0  0.22707670795E+03 -0.10057412359E+03  0.39005018191E+03  0.52565970935E+03  0.25000000000E+03 0.  0.
    5000001    1    1    2    0    0 -0.22707670795E+03  0.10057412359E+03  0.10497882661E+03  0.36769490024E+03  0.25000000000E+03 0.  0.
<mgrwt>
<rscale>  0 0.74365902E+03</rscale>
<asrwt>0</asrwt>
<pdfrwt beam="1">  1        2 0.10679874E+00 0.74365902E+03</pdfrwt>
<pdfrwt beam="2">  1       -2 0.30640432E-01 0.74365902E+03</pdfrwt>
<totfact> 0.41044692E+02</totfact>
</mgrwt>
</event>
<event>
 4    1  0.1804641E-005  0.7409688E+03  0.7818608E-02  0.9649626E-01
         -2   -1    0    0    0  501 -0.00000000000E+00  0.00000000000E+00  0.93590592813E+02  0.93590592848E+02  0.25500000000E-02 0. -1.
          2   -1    0    0  501    0  0.00000000000E+00 -0.00000000000E+00 -0.14665865419E+04  0.14665865419E+04  0.25500000000E-02 0.  1.
   -5000001    1    1    2    0    0  0.24554648224E+03  0.61745849100E+02 -0.90382390200E+03  0.97134096519E+03  0.25000000000E+03 0.  0.
    5000001    1    1    2    0    0 -0.24554648224E+03 -0.61745849100E+02 -0.46917204710E+03  0.58883616958E+03  0.25000000000E+03 0.  0.
<mgrwt>
<rscale>  0 0.74096884E+03</rscale>
<asrwt>0</asrwt>
<pdfrwt beam="1">  1        2 0.22562868E+00 0.74096884E+03</pdfrwt>
<pdfrwt beam="2">  1       -2 0.14398554E-01 0.74096884E+03</pdfrwt>
<totfact> 0.50390536E+02</totfact>
</mgrwt>
</event>
<event>
 4    1  0.1804641E-005  0.1101278E+04  0.7818608E-02  0.9203948E-01
          2   -1    0    0  501    0  0.00000000000E+00  0.00000000000E+00  0.27065151418E+03  0.27065151419E+03  0.25500000000E-02 0.  1.
         -2   -1    0    0    0  501 -0.00000000000E+00 -0.00000000000E+00 -0.11202711166E+04  0.11202711166E+04  0.25500000000E-02 0. -1.
   -5000001    1    1    2    0    0 -0.76062923994E+02 -0.41194440608E+03 -0.74735774964E+03  0.89248381949E+03  0.25000000000E+03 0.  0.
    5000001    1    1    2    0    0  0.76062923994E+02  0.41194440608E+03 -0.10226185282E+03  0.49843881134E+03  0.25000000000E+03 0.  0.
<mgrwt>
<rscale>  0 0.11012776E+04</rscale>
<asrwt>0</asrwt>
<pdfrwt beam="1">  1        2 0.41638695E-01 0.11012776E+04</pdfrwt>
<pdfrwt beam="2">  1       -2 0.17234940E+00 0.11012776E+04</pdfrwt>
<totfact> 0.25054144E+01</totfact>
</mgrwt>
</event>
<event>
 4    1  0.1804641E-005  0.6557480E+03  0.7818608E-02  0.9796053E-01
          2   -1    0    0  501    0  0.00000000000E+00  0.00000000000E+00  0.14998173028E+03  0.14998173031E+03  0.25500000000E-02 0.  1.
         -2   -1    0    0    0  501 -0.00000000000E+00 -0.00000000000E+00 -0.71676313932E+03  0.71676313933E+03  0.25500000000E-02 0. -1.
   -5000001    1    1    2    0    0  0.15964123008E+03 -0.13317408791E+03 -0.33916724593E+03  0.46984580528E+03  0.25000000000E+03 0.  0.
    5000001    1    1    2    0    0 -0.15964123008E+03  0.13317408791E+03 -0.22761416311E+03  0.39689906435E+03  0.25000000000E+03 0.  0.
<mgrwt>
<rscale>  0 0.65574805E+03</rscale>
<asrwt>0</asrwt>
<pdfrwt beam="1">  1        2 0.23074113E-01 0.65574805E+03</pdfrwt>
<pdfrwt beam="2">  1       -2 0.11027125E+00 0.65574805E+03</pdfrwt>
<totfact> 0.15887661E+02</totfact>
</mgrwt>
</event>
<event>
 4    1  0.1804641E-005  0.8276788E+03  0.7818608E-02  0.9520795E-01
          2   -1    0    0  501    0  0.00000000000E+00  0.00000000000E+00  0.29056421121E+04  0.29056421121E+04  0.25500000000E-02 0. -1.
         -2   -1    0    0    0  501 -0.00000000000E+00 -0.00000000000E+00 -0.58941550774E+02  0.58941550829E+02  0.25500000000E-02 0.  1.
   -5000001    1    1    2    0    0 -0.25636974925E+03  0.13926671985E+03  0.87260914690E+03  0.95345025609E+03  0.25000000000E+03 0.  0.
    5000001    1    1    2    0    0  0.25636974925E+03 -0.13926671985E+03  0.19740914144E+04  0.20111334068E+04  0.25000000000E+03 0.  0.
<mgrwt>
<rscale>  0 0.82767881E+03</rscale>
<asrwt>0</asrwt>
<pdfrwt beam="1">  1        2 0.44702192E+00 0.82767881E+03</pdfrwt>
<pdfrwt beam="2">  1       -2 0.90679298E-02 0.82767881E+03</pdfrwt>
<totfact> 0.16719450E+02</totfact>
</mgrwt>
</event>
<event>
 4    1  0.1804641E-005  0.7172814E+03  0.7818608E-02  0.9688127E-01
          2   -1    0    0  501    0  0.00000000000E+00  0.00000000000E+00  0.19398115588E+04  0.19398115588E+04  0.25500000000E-02 0.  1.
         -2   -1    0    0    0  501 -0.00000000000E+00 -0.00000000000E+00 -0.66307041158E+02  0.66307041207E+02  0.25500000000E-02 0. -1.
   -5000001    1    1    2    0    0  0.13521040495E+03  0.21424595523E+03  0.10599395376E+04  0.11181033075E+04  0.25000000000E+03 0.  0.
    5000001    1    1    2    0    0 -0.13521040495E+03 -0.21424595523E+03  0.81356498013E+03  0.88801529256E+03  0.25000000000E+03 0.  0.
<mgrwt>
<rscale>  0 0.71728144E+03</rscale>
<asrwt>0</asrwt>
<pdfrwt beam="1">  1        2 0.29843251E+00 0.71728144E+03</pdfrwt>
<pdfrwt beam="2">  1       -2 0.10201085E-01 0.71728144E+03</pdfrwt>
<totfact> 0.49120386E+02</totfact>
</mgrwt>
</event>
<event>
 4    1  0.1804641E-005  0.7708221E+03  0.7818608E-02  0.9603238E-01
          2   -1    0    0  501    0  0.00000000000E+00  0.00000000000E+00  0.33972434171E+04  0.33972434171E+04  0.25500000000E-02 0.  1.
         -2   -1    0    0    0  501 -0.00000000000E+00 -0.00000000000E+00 -0.43724183740E+02  0.43724183814E+02  0.25500000000E-02 0. -1.
   -5000001    1    1    2    0    0  0.16303618191E+03 -0.18477522743E+03  0.23870726701E+04  0.24127450370E+04  0.25000000000E+03 0.  0.
    5000001    1    1    2    0    0 -0.16303618191E+03  0.18477522743E+03  0.96644656324E+03  0.10282225639E+04  0.25000000000E+03 0.  0.
<mgrwt>
<rscale>  0 0.77082215E+03</rscale>
<asrwt>0</asrwt>
<pdfrwt beam="1">  1        2 0.52265305E+00 0.77082215E+03</pdfrwt>
<pdfrwt beam="2">  1       -2 0.67267947E-02 0.77082215E+03</pdfrwt>
<totfact> 0.13267928E+02</totfact>
</mgrwt>
</event>
<event>
 4    1  0.1804641E-005  0.8026800E+03  0.7818608E-02  0.9556146E-01
         -2   -1    0    0    0  501 -0.00000000000E+00  0.00000000000E+00  0.22531973090E+03  0.22531973091E+03  0.25500000000E-02 0. -1.
          2   -1    0    0  501    0  0.00000000000E+00 -0.00000000000E+00 -0.71486767182E+03  0.71486767182E+03  0.25500000000E-02 0.  1.
   -5000001    1    1    2    0    0  0.22218067752E+03  0.14787393036E+03 -0.51089949889E+02  0.36924400567E+03  0.25000000000E+03 0.  0.
    5000001    1    1    2    0    0 -0.22218067752E+03 -0.14787393036E+03 -0.43845799104E+03  0.57094339706E+03  0.25000000000E+03 0.  0.
<mgrwt>
<rscale>  0 0.80267999E+03</rscale>
<asrwt>0</asrwt>
<pdfrwt beam="1">  1        2 0.10997964E+00 0.80267999E+03</pdfrwt>
<pdfrwt beam="2">  1       -2 0.34664574E-01 0.80267999E+03</pdfrwt>
<totfact> 0.31283953E+02</totfact>
</mgrwt>
</event>
<event>
 4    1  0.1804641E-005  0.7350229E+03  0.7818608E-02  0.9659145E-01
         -2   -1    0    0    0  501 -0.00000000000E+00  0.00000000000E+00  0.66644191218E+02  0.66644191267E+02  0.25500000000E-02 0. -1.
          2   -1    0    0  501    0  0.00000000000E+00 -0.00000000000E+00 -0.20266532150E+04  0.20266532150E+04  0.25500000000E-02 0.  1.
   -5000001    1    1    2    0    0  0.18631769254E+02  0.26132310311E+03 -0.11584897880E+04  0.12137691279E+04  0.25000000000E+03 0.  0.
    5000001    1    1    2    0    0 -0.18631769254E+02 -0.26132310311E+03 -0.80151923578E+03  0.87952827832E+03  0.25000000000E+03 0.  0.
<mgrwt>
<rscale>  0 0.73502290E+03</rscale>
<asrwt>0</asrwt>
<pdfrwt beam="1">  1        2 0.31179276E+00 0.73502290E+03</pdfrwt>
<pdfrwt beam="2">  1       -2 0.10252954E-01 0.73502290E+03</pdfrwt>
<totfact> 0.43630701E+02</totfact>
</mgrwt>
</event>
<event>
 4    1  0.1804641E-005  0.2485855E+04  0.7818608E-02  0.8408042E-01
          2   -1    0    0  501    0  0.00000000000E+00  0.00000000000E+00  0.17166069287E+04  0.17166069287E+04  0.25500000000E-02 0.  1.
         -2   -1    0    0    0  501 -0.00000000000E+00 -0.00000000000E+00 -0.89995477746E+03  0.89995477747E+03  0.25500000000E-02 0. -1.
   -5000001    1    1    2    0    0  0.45896534007E+03 -0.10865847474E+04  0.72594207038E+03  0.14074116264E+04  0.25000000000E+03 0.  0.
    5000001    1    1    2    0    0 -0.45896534007E+03  0.10865847474E+04  0.90710080816E+02  0.12091500797E+04  0.25000000000E+03 0.  0.
<mgrwt>
<rscale>  0 0.24858549E+04</rscale>
<asrwt>0</asrwt>
<pdfrwt beam="1">  1        2 0.26409337E+00 0.24858549E+04</pdfrwt>
<pdfrwt beam="2">  1       -2 0.13845458E+00 0.24858549E+04</pdfrwt>
<totfact> 0.31693617E+00</totfact>
</mgrwt>
</event>
<event>
 4    1  0.1804641E-005  0.6009218E+03  0.7818608E-02  0.9903495E-01
         -2   -1    0    0    0  501 -0.00000000000E+00  0.00000000000E+00  0.16242491558E+03  0.16242491560E+03  0.25500000000E-02 0. -1.
          2   -1    0    0  501    0  0.00000000000E+00 -0.00000000000E+00 -0.55580610155E+03  0.55580610156E+03  0.25500000000E-02 0.  1.
   -5000001    1    1    2    0    0 -0.18249989972E+02 -0.16082226469E+03 -0.24419790464E+03  0.38513566387E+03  0.25000000000E+03 0.  0.
    5000001    1    1    2    0    0  0.18249989972E+02  0.16082226469E+03 -0.14918328133E+03  0.33309535329E+03  0.25000000000E+03 0.  0.
<mgrwt>
<rscale>  0 0.60092182E+03</rscale>
<asrwt>0</asrwt>
<pdfrwt beam="1">  1        2 0.85508630E-01 0.60092182E+03</pdfrwt>
<pdfrwt beam="2">  1       -2 0.24988449E-01 0.60092182E+03</pdfrwt>
<totfact> 0.78374231E+02</totfact>
</mgrwt>
</event>
<event>
 4    1  0.1804641E-005  0.5924091E+03  0.7818608E-02  0.9921281E-01
         -2   -1    0    0    0  501 -0.00000000000E+00  0.00000000000E+00  0.99939694409E+03  0.99939694409E+03  0.25500000000E-02 0. -1.
          2   -1    0    0  501    0  0.00000000000E+00 -0.00000000000E+00 -0.87790064392E+02  0.87790064429E+02  0.25500000000E-02 0.  1.
   -5000001    1    1    2    0    0  0.26535650812E+02  0.15632192829E+03  0.47382541200E+03  0.55870493741E+03  0.25000000000E+03 0.  0.
    5000001    1    1    2    0    0 -0.26535650812E+02 -0.15632192829E+03  0.43778146770E+03  0.52848207112E+03  0.25000000000E+03 0.  0.
<mgrwt>
<rscale>  0 0.59240905E+03</rscale>
<asrwt>0</asrwt>
<pdfrwt beam="1">  1        2 0.13506164E-01 0.59240905E+03</pdfrwt>
<pdfrwt beam="2">  1       -2 0.15375337E+00 0.59240905E+03</pdfrwt>
<totfact> 0.13013839E+02</totfact>
</mgrwt>
</event>
<event>
 4    1  0.1804641E-005  0.7093122E+03  0.7818608E-02  0.9701438E-01
          2   -1    0    0  501    0  0.00000000000E+00  0.00000000000E+00  0.18364857395E+03  0.18364857397E+03  0.25500000000E-02 0.  1.
         -2   -1    0    0    0  501 -0.00000000000E+00 -0.00000000000E+00 -0.68490016504E+03  0.68490016505E+03  0.25500000000E-02 0. -1.
   -5000001    1    1    2    0    0 -0.18509146725E+03 -0.17016346931E+03 -0.24064176658E+03  0.42851244714E+03  0.25000000000E+03 0.  0.
    5000001    1    1    2    0    0  0.18509146725E+03  0.17016346931E+03 -0.26060982451E+03  0.44003629187E+03  0.25000000000E+03 0.  0.
<mgrwt>
<rscale>  0 0.70931217E+03</rscale>
<asrwt>0</asrwt>
<pdfrwt beam="1">  1        2 0.28253627E-01 0.70931217E+03</pdfrwt>
<pdfrwt beam="2">  1       -2 0.10536925E+00 0.70931217E+03</pdfrwt>
<totfact> 0.14028666E+02</totfact>
</mgrwt>
</event>
<event>
 4    1  0.1804641E-005  0.9266913E+03  0.7818608E-02  0.9392818E-01
          2   -1    0    0  501    0  0.00000000000E+00  0.00000000000E+00  0.10928261117E+04  0.10928261118E+04  0.25500000000E-02 0.  1.
         -2   -1    0    0    0  501 -0.00000000000E+00 -0.00000000000E+00 -0.19645320955E+03  0.19645320957E+03  0.25500000000E-02 0. -1.
   -5000001    1    1    2    0    0  0.78729342092E+02 -0.36993308429E+03  0.31517330989E+03  0.55216212422E+03  0.25000000000E+03 0.  0.
    5000001    1    1    2    0    0 -0.78729342092E+02  0.36993308429E+03  0.58119959231E+03  0.73711719710E+03  0.25000000000E+03 0.  0.
<mgrwt>
<rscale>  0 0.92669131E+03</rscale>
<asrwt>0</asrwt>
<pdfrwt beam="1">  1        2 0.16812709E+00 0.92669131E+03</pdfrwt>
<pdfrwt beam="2">  1       -2 0.30223571E-01 0.92669131E+03</pdfrwt>
<totfact> 0.22261147E+02</totfact>
</mgrwt>
</event>
<event>
 4    1  0.1804641E-005  0.6077280E+03  0.7818608E-02  0.9889501E-01
         -2   -1    0    0    0  501 -0.00000000000E+00  0.00000000000E+00  0.23003532501E+02  0.23003532642E+02  0.25500000000E-02 0. -1.
          2   -1    0    0  501    0  0.00000000000E+00 -0.00000000000E+00 -0.40138761408E+04  0.40138761408E+04  0.25500000000E-02 0.  1.
   -5000001    1    1    2    0    0  0.15674651590E+03 -0.80177055968E+01 -0.24744198036E+04  0.24919645099E+04  0.25000000000E+03 0.  0.
    5000001    1    1    2    0    0 -0.15674651590E+03  0.80177055968E+01 -0.15164528046E+04  0.15449151635E+04  0.25000000000E+03 0.  0.
<mgrwt>
<rscale>  0 0.60772800E+03</rscale>
<asrwt>0</asrwt>
<pdfrwt beam="1">  1        2 0.61751885E+00 0.60772800E+03</pdfrwt>
<pdfrwt beam="2">  1       -2 0.35390082E-02 0.60772800E+03</pdfrwt>
<totfact> 0.13238398E+02</totfact>
</mgrwt>
</event>
<event>
 4    1  0.1804641E-005  0.7133130E+03  0.7818608E-02  0.9694732E-01
          2   -1    0    0  501    0  0.00000000000E+00  0.00000000000E+00  0.14604761804E+04  0.14604761804E+04  0.25500000000E-02 0.  1.
         -2   -1    0    0    0  501 -0.00000000000E+00 -0.00000000000E+00 -0.87097529405E+02  0.87097529442E+02  0.25500000000E-02 0. -1.
   -5000001    1    1    2    0    0  0.23831892081E+03 -0.16213007009E+02  0.87638730460E+03  0.94213240964E+03  0.25000000000E+03 0.  0.
    5000001    1    1    2    0    0 -0.23831892081E+03  0.16213007009E+02  0.49699134640E+03  0.60544130022E+03  0.25000000000E+03 0.  0.
<mgrwt>
<rscale>  0 0.71331302E+03</rscale>
<asrwt>0</asrwt>
<pdfrwt beam="1">  1        2 0.22468863E+00 0.71331302E+03</pdfrwt>
<pdfrwt beam="2">  1       -2 0.13399620E-01 0.71331302E+03</pdfrwt>
<totfact> 0.57382817E+02</totfact>
</mgrwt>
</event>
<event>
 4    1  0.1804641E-005  0.6830376E+03  0.7818608E-02  0.9746688E-01
         -2   -1    0    0    0  501 -0.00000000000E+00  0.00000000000E+00  0.38610696400E+03  0.38610696400E+03  0.25500000000E-02 0. -1.
          2   -1    0    0  501    0  0.00000000000E+00 -0.00000000000E+00 -0.30207972322E+03  0.30207972323E+03  0.25500000000E-02 0.  1.
   -5000001    1    1    2    0    0  0.36325063198E+02 -0.22491298739E+03  0.89589529453E+02  0.34990233766E+03  0.25000000000E+03 0.  0.
    5000001    1    1    2    0    0 -0.36325063198E+02  0.22491298739E+03 -0.55622886764E+01  0.33828434957E+03  0.25000000000E+03 0.  0.
<mgrwt>
<rscale>  0 0.68303758E+03</rscale>
<asrwt>0</asrwt>
<pdfrwt beam="1">  1        2 0.46473804E-01 0.68303758E+03</pdfrwt>
<pdfrwt beam="2">  1       -2 0.59401071E-01 0.68303758E+03</pdfrwt>
<totfact> 0.29105473E+02</totfact>
</mgrwt>
</event>
<event>
 4    1  0.1804641E-005  0.9445439E+03  0.7818608E-02  0.9371551E-01
          2   -1    0    0  501    0  0.00000000000E+00  0.00000000000E+00  0.13039430489E+04  0.13039430489E+04  0.25500000000E-02 0.  1.
         -2   -1    0    0    0  501 -0.00000000000E+00 -0.00000000000E+00 -0.17105103963E+03  0.17105103965E+03  0.25500000000E-02 0. -1.
   -5000001    1    1    2    0    0 -0.69611132421E+02 -0.32352631427E+03  0.21369915386E+03  0.46656437299E+03  0.25000000000E+03 0.  0.
    5000001    1    1    2    0    0  0.69611132421E+02  0.32352631427E+03  0.91919285540E+03  0.10084297156E+04  0.25000000000E+03 0.  0.
<mgrwt>
<rscale>  0 0.94454394E+03</rscale>
<asrwt>0</asrwt>
<pdfrwt beam="1">  1        2 0.20060663E+00 0.94454394E+03</pdfrwt>
<pdfrwt beam="2">  1       -2 0.26315544E-01 0.94454394E+03</pdfrwt>
<totfact> 0.21474999E+02</totfact>
</mgrwt>
</event>
<event>
 4    1  0.1804641E-005  0.8847094E+03  0.7818608E-02  0.9444900E-01
          2   -1    0    0  501    0  0.00000000000E+00  0.00000000000E+00  0.20190337444E+03  0.20190337446E+03  0.25500000000E-02 0.  1.
         -2   -1    0    0    0  501 -0.00000000000E+00 -0.00000000000E+00 -0.96916495232E+03  0.96916495232E+03  0.25500000000E-02 0. -1.
   -5000001    1    1    2    0    0  0.30996350262E+03 -0.19218957261E+03 -0.40055467026E+03  0.59662236686E+03  0.25000000000E+03 0.  0.
    5000001    1    1    2    0    0 -0.30996350262E+03  0.19218957261E+03 -0.36670690762E+03  0.57444595992E+03  0.25000000000E+03 0.  0.
<mgrwt>
<rscale>  0 0.88470939E+03</rscale>
<asrwt>0</asrwt>
<pdfrwt beam="1">  1        2 0.31062058E-01 0.88470939E+03</pdfrwt>
<pdfrwt beam="2">  1       -2 0.14910230E+00 0.88470939E+03</pdfrwt>
<totfact> 0.52292412E+01</totfact>
</mgrwt>
</event>
<event>
 4    1  0.1804641E-005  0.6236555E+03  0.7818608E-02  0.9857508E-01
          2   -1    0    0  501    0  0.00000000000E+00  0.00000000000E+00  0.48240739506E+03  0.48240739506E+03  0.25500000000E-02 0.  1.
         -2   -1    0    0    0  501 -0.00000000000E+00 -0.00000000000E+00 -0.20156520028E+03  0.20156520030E+03  0.25500000000E-02 0. -1.
   -5000001    1    1    2    0    0 -0.14933282755E+03 -0.10118164353E+03  0.19184436128E+03  0.36310091893E+03  0.25000000000E+03 0.  0.
    5000001    1    1    2    0    0  0.14933282755E+03  0.10118164353E+03  0.88997833493E+02  0.32087167643E+03  0.25000000000E+03 0.  0.
<mgrwt>
<rscale>  0 0.62365549E+03</rscale>
<asrwt>0</asrwt>
<pdfrwt beam="1">  1        2 0.74216522E-01 0.62365549E+03</pdfrwt>
<pdfrwt beam="2">  1       -2 0.31010031E-01 0.62365549E+03</pdfrwt>
<totfact> 0.62240738E+02</totfact>
</mgrwt>
</event>
<event>
 4    1  0.1804641E-005  0.7620764E+03  0.7818608E-02  0.9616593E-01
         -2   -1    0    0    0  501 -0.00000000000E+00  0.00000000000E+00  0.14596215154E+03  0.14596215157E+03  0.25500000000E-02 0. -1.
          2   -1    0    0  501    0  0.00000000000E+00 -0.00000000000E+00 -0.99471068706E+03  0.99471068706E+03  0.25500000000E-02 0.  1.
   -5000001    1    1    2    0    0  0.18689689073E+03 -0.15983235192E+03 -0.64745854615E+03  0.73632832178E+03  0.25000000000E+03 0.  0.
    5000001    1    1    2    0    0 -0.18689689073E+03  0.15983235192E+03 -0.20128998937E+03  0.40434451685E+03  0.25000000000E+03 0.  0.
<mgrwt>
<rscale>  0 0.76207641E+03</rscale>
<asrwt>0</asrwt>
<pdfrwt beam="1">  1        2 0.15303241E+00 0.76207641E+03</pdfrwt>
<pdfrwt beam="2">  1       -2 0.22455716E-01 0.76207641E+03</pdfrwt>
<totfact> 0.44385052E+02</totfact>
</mgrwt>
</event>
<event>
 4    1  0.1804641E-005  0.9868150E+03  0.7818608E-02  0.9323125E-01
         -2   -1    0    0    0  501 -0.00000000000E+00  0.00000000000E+00  0.92196869759E+02  0.92196869794E+02  0.25500000000E-02 0. -1.
          2   -1    0    0  501    0  0.00000000000E+00 -0.00000000000E+00 -0.26405554527E+04  0.26405554527E+04  0.25500000000E-02 0.  1.
   -5000001    1    1    2    0    0 -0.31176773849E+03 -0.23878297215E+03 -0.17269733406E+04  0.17886177204E+04  0.25000000000E+03 0.  0.
    5000001    1    1    2    0    0  0.31176773849E+03  0.23878297215E+03 -0.82138524231E+03  0.94413460208E+03  0.25000000000E+03 0.  0.
<mgrwt>
<rscale>  0 0.98681497E+03</rscale>
<asrwt>0</asrwt>
<pdfrwt beam="1">  1        2 0.40623924E+00 0.98681497E+03</pdfrwt>
<pdfrwt beam="2">  1       -2 0.14184136E-01 0.98681497E+03</pdfrwt>
<totfact> 0.11285740E+02</totfact>
</mgrwt>
</event>
<event>
 4    1  0.1804641E-005  0.6965791E+03  0.7818608E-02  0.9723100E-01
          2   -1    0    0  501    0  0.00000000000E+00  0.00000000000E+00  0.72237701318E+03  0.72237701318E+03  0.25500000000E-02 0.  1.
         -2   -1    0    0    0  501 -0.00000000000E+00 -0.00000000000E+00 -0.16792560879E+03  0.16792560881E+03  0.25500000000E-02 0. -1.
   -5000001    1    1    2    0    0 -0.23572979149E+03  0.54186226399E+02  0.29939701010E+03  0.45895887767E+03  0.25000000000E+03 0.  0.
    5000001    1    1    2    0    0  0.23572979149E+03 -0.54186226399E+02  0.25505439428E+03  0.43134374433E+03  0.25000000000E+03 0.  0.
<mgrwt>
<rscale>  0 0.69657907E+03</rscale>
<asrwt>0</asrwt>
<pdfrwt beam="1">  1        2 0.11113492E+00 0.69657907E+03</pdfrwt>
<pdfrwt beam="2">  1       -2 0.25834709E-01 0.69657907E+03</pdfrwt>
<totfact> 0.53464947E+02</totfact>
</mgrwt>
</event>
<event>
 4    1  0.1804641E-005  0.6556649E+03  0.7818608E-02  0.9796207E-01
         -2   -1    0    0    0  501 -0.00000000000E+00  0.00000000000E+00  0.25247356425E+03  0.25247356426E+03  0.25500000000E-02 0. -1.
          2   -1    0    0  501    0  0.00000000000E+00 -0.00000000000E+00 -0.42568461838E+03  0.42568461838E+03  0.25500000000E-02 0.  1.
   -5000001    1    1    2    0    0  0.18271307101E+03 -0.10249966489E+03 -0.12065706401E+03  0.34777632857E+03  0.25000000000E+03 0.  0.
    5000001    1    1    2    0    0 -0.18271307101E+03  0.10249966489E+03 -0.52553990117E+02  0.33038185407E+03  0.25000000000E+03 0.  0.
<mgrwt>
<rscale>  0 0.65566489E+03</rscale>
<asrwt>0</asrwt>
<pdfrwt beam="1">  1        2 0.65489941E-01 0.65566489E+03</pdfrwt>
<pdfrwt beam="2">  1       -2 0.38842087E-01 0.65566489E+03</pdfrwt>
<totfact> 0.46784969E+02</totfact>
</mgrwt>
</event>
<event>
 4    1  0.1804641E-005  0.7738752E+03  0.7818608E-02  0.9598621E-01
         -2   -1    0    0    0  501 -0.00000000000E+00  0.00000000000E+00  0.93869251039E+02  0.93869251074E+02  0.25500000000E-02 0. -1.
          2   -1    0    0  501    0  0.00000000000E+00 -0.00000000000E+00 -0.15949919847E+04  0.15949919847E+04  0.25500000000E-02 0.  1.
   -5000001    1    1    2    0    0  0.20628468244E+03 -0.20423535390E+03 -0.86919842805E+03  0.94987965412E+03  0.25000000000E+03 0.  0.
    5000001    1    1    2    0    0 -0.20628468244E+03  0.20423535390E+03 -0.63192430557E+03  0.73898158161E+03  0.25000000000E+03 0.  0.
<mgrwt>
<rscale>  0 0.77387519E+03</rscale>
<asrwt>0</asrwt>
<pdfrwt beam="1">  1        2 0.24538336E+00 0.77387519E+03</pdfrwt>
<pdfrwt beam="2">  1       -2 0.14441424E-01 0.77387519E+03</pdfrwt>
<totfact> 0.42468704E+02</totfact>
</mgrwt>
</event>
<event>
 4    1  0.1804641E-005  0.1408051E+04  0.7818608E-02  0.8948011E-01
         -2   -1    0    0    0  501 -0.00000000000E+00  0.00000000000E+00  0.29535748701E+03  0.29535748702E+03  0.25500000000E-02 0. -1.
          2   -1    0    0  501    0  0.00000000000E+00 -0.00000000000E+00 -0.16781421913E+04  0.16781421914E+04  0.25500000000E-02 0.  1.
   -5000001    1    1    2    0    0  0.52171293467E+03 -0.30101712857E+03 -0.31962626895E+03  0.72626210812E+03  0.25000000000E+03 0.  0.
    5000001    1    1    2    0    0 -0.52171293467E+03  0.30101712857E+03 -0.10631584354E+04  0.12472375702E+04  0.25000000000E+03 0.  0.
<mgrwt>
<rscale>  0 0.14080509E+04</rscale>
<asrwt>0</asrwt>
<pdfrwt beam="1">  1        2 0.25817572E+00 0.14080509E+04</pdfrwt>
<pdfrwt beam="2">  1       -2 0.45439614E-01 0.14080509E+04</pdfrwt>
<totfact> 0.45052280E+01</totfact>
</mgrwt>
</event>
<event>
 4    1  0.1804641E-005  0.8910685E+03  0.7818608E-02  0.9436816E-01
         -2   -1    0    0    0  501 -0.00000000000E+00  0.00000000000E+00  0.62280538411E+02  0.62280538463E+02  0.25500000000E-02 0. -1.
          2   -1    0    0  501    0  0.00000000000E+00 -0.00000000000E+00 -0.31872038752E+04  0.31872038752E+04  0.25500000000E-02 0.  1.
   -5000001    1    1    2    0    0 -0.45609347099E+02  0.29718185319E+03 -0.78370373824E+03  0.87583606670E+03  0.25000000000E+03 0.  0.
    5000001    1    1    2    0    0  0.45609347099E+02 -0.29718185319E+03 -0.23412195986E+04  0.23736483470E+04  0.25000000000E+03 0.  0.
<mgrwt>
<rscale>  0 0.89106851E+03</rscale>
<asrwt>0</asrwt>
<pdfrwt beam="1">  1        2 0.49033893E+00 0.89106851E+03</pdfrwt>
<pdfrwt beam="2">  1       -2 0.95816238E-02 0.89106851E+03</pdfrwt>
<totfact> 0.10159745E+02</totfact>
</mgrwt>
</event>
<event>
 4    1  0.1804641E-005  0.7752105E+03  0.7818608E-02  0.9596609E-01
         -2   -1    0    0    0  501 -0.00000000000E+00  0.00000000000E+00  0.10636498671E+03  0.10636498674E+03  0.25500000000E-02 0. -1.
          2   -1    0    0  501    0  0.00000000000E+00 -0.00000000000E+00 -0.14124745253E+04  0.14124745253E+04  0.25500000000E-02 0.  1.
   -5000001    1    1    2    0    0 -0.61230111082E+02 -0.24635043612E+03 -0.35398550583E+03  0.50223839182E+03  0.25000000000E+03 0.  0.
    5000001    1    1    2    0    0  0.61230111082E+02  0.24635043612E+03 -0.95212403272E+03  0.10166011202E+04  0.25000000000E+03 0.  0.
<mgrwt>
<rscale>  0 0.77521051E+03</rscale>
<asrwt>0</asrwt>
<pdfrwt beam="1">  1        2 0.21730376E+00 0.77521051E+03</pdfrwt>
<pdfrwt beam="2">  1       -2 0.16363845E-01 0.77521051E+03</pdfrwt>
<totfact> 0.43421426E+02</totfact>
</mgrwt>
</event>
<event>
 4    1  0.1804641E-005  0.5838095E+03  0.7818608E-02  0.9939577E-01
          2   -1    0    0  501    0  0.00000000000E+00  0.00000000000E+00  0.11676437988E+04  0.11676437988E+04  0.25500000000E-02 0.  1.
         -2   -1    0    0    0  501 -0.00000000000E+00 -0.00000000000E+00 -0.72974648804E+02  0.72974648848E+02  0.25500000000E-02 0. -1.
   -5000001    1    1    2    0    0 -0.82024598481E+02  0.11936897924E+03  0.45891126242E+03  0.54228823953E+03  0.25000000000E+03 0.  0.
    5000001    1    1    2    0    0  0.82024598481E+02 -0.11936897924E+03  0.63575788763E+03  0.69833020817E+03  0.25000000000E+03 0.  0.
<mgrwt>
<rscale>  0 0.58380954E+03</rscale>
<asrwt>0</asrwt>
<pdfrwt beam="1">  1        2 0.17963750E+00 0.58380954E+03</pdfrwt>
<pdfrwt beam="2">  1       -2 0.11226869E-01 0.58380954E+03</pdfrwt>
<totfact> 0.11377629E+03</totfact>
</mgrwt>
</event>
<event>
 4    1  0.1804641E-005  0.7559408E+03  0.7818608E-02  0.9626076E-01
         -2   -1    0    0    0  501 -0.00000000000E+00  0.00000000000E+00  0.39111732382E+02  0.39111732465E+02  0.25500000000E-02 0. -1.
          2   -1    0    0  501    0  0.00000000000E+00 -0.00000000000E+00 -0.36526537656E+04  0.36526537656E+04  0.25500000000E-02 0.  1.
   -5000001    1    1    2    0    0 -0.66599716027E+02  0.26745289911E+03 -0.14830075726E+04  0.15289794099E+04  0.25000000000E+03 0.  0.
    5000001    1    1    2    0    0  0.66599716027E+02 -0.26745289911E+03 -0.21305344606E+04  0.21627860882E+04  0.25000000000E+03 0.  0.
<mgrwt>
<rscale>  0 0.75594078E+03</rscale>
<asrwt>0</asrwt>
<pdfrwt beam="1">  1        2 0.56194646E+00 0.75594078E+03</pdfrwt>
<pdfrwt beam="2">  1       -2 0.60171925E-02 0.75594078E+03</pdfrwt>
<totfact> 0.10581371E+02</totfact>
</mgrwt>
</event>
<event>
 4    1  0.1804641E-005  0.7798566E+03  0.7818608E-02  0.9589640E-01
         -2   -1    0    0    0  501 -0.00000000000E+00  0.00000000000E+00  0.19380708401E+03  0.19380708403E+03  0.25500000000E-02 0. -1.
          2   -1    0    0  501    0  0.00000000000E+00 -0.00000000000E+00 -0.78451256005E+03  0.78451256006E+03  0.25500000000E-02 0.  1.
   -5000001    1    1    2    0    0  0.19137861513E+03 -0.22489216946E+03 -0.35606041772E+03  0.52581487549E+03  0.25000000000E+03 0.  0.
    5000001    1    1    2    0    0 -0.19137861513E+03  0.22489216946E+03 -0.23464505832E+03  0.45250476860E+03  0.25000000000E+03 0.  0.
<mgrwt>
<rscale>  0 0.77985663E+03</rscale>
<asrwt>0</asrwt>
<pdfrwt beam="1">  1        2 0.12069424E+00 0.77985663E+03</pdfrwt>
<pdfrwt beam="2">  1       -2 0.29816475E-01 0.77985663E+03</pdfrwt>
<totfact> 0.36843432E+02</totfact>
</mgrwt>
</event>
<event>
 4    1  0.1804641E-005  0.1774303E+04  0.7818608E-02  0.8720085E-01
         -2   -1    0    0    0  501 -0.00000000000E+00  0.00000000000E+00  0.43473983687E+03  0.43473983688E+03  0.25500000000E-02 0.  1.
          2   -1    0    0  501    0  0.00000000000E+00 -0.00000000000E+00 -0.18103650801E+04  0.18103650801E+04  0.25500000000E-02 0. -1.
   -5000001    1    1    2    0    0 -0.74613578544E+03  0.40861220396E+03 -0.65080748598E+03  0.10998785966E+04  0.25000000000E+03 0.  0.
    5000001    1    1    2    0    0  0.74613578544E+03 -0.40861220396E+03 -0.72481775721E+03  0.11452263203E+04  0.25000000000E+03 0.  0.
<mgrwt>
<rscale>  0 0.17743030E+04</rscale>
<asrwt>0</asrwt>
<pdfrwt beam="1">  1        2 0.27851770E+00 0.17743030E+04</pdfrwt>
<pdfrwt beam="2">  1       -2 0.66883052E-01 0.17743030E+04</pdfrwt>
<totfact> 0.16532897E+01</totfact>
</mgrwt>
</event>
<event>
 4    1  0.1804641E-005  0.9313337E+03  0.7818608E-02  0.9387239E-01
         -2   -1    0    0    0  501 -0.00000000000E+00  0.00000000000E+00  0.11949504631E+04  0.11949504631E+04  0.25500000000E-02 0. -1.
          2   -1    0    0  501    0  0.00000000000E+00 -0.00000000000E+00 -0.18146828640E+03  0.18146828642E+03  0.25500000000E-02 0.  1.
   -5000001    1    1    2    0    0 -0.25807703454E+03 -0.26084381099E+03  0.71418678338E+03  0.84095541561E+03  0.25000000000E+03 0.  0.
    5000001    1    1    2    0    0  0.25807703454E+03  0.26084381099E+03  0.29929539328E+03  0.53546333387E+03  0.25000000000E+03 0.  0.
<mgrwt>
<rscale>  0 0.93133370E+03</rscale>
<asrwt>0</asrwt>
<pdfrwt beam="1">  1        2 0.27918199E-01 0.93133370E+03</pdfrwt>
<pdfrwt beam="2">  1       -2 0.18383853E+00 0.93133370E+03</pdfrwt>
<totfact> 0.33061561E+01</totfact>
</mgrwt>
</event>
<event>
 4    1  0.1804641E-005  0.6496504E+03  0.7818608E-02  0.9807435E-01
          2   -1    0    0  501    0  0.00000000000E+00  0.00000000000E+00  0.41070362535E+03  0.41070362536E+03  0.25500000000E-02 0.  1.
         -2   -1    0    0    0  501 -0.00000000000E+00 -0.00000000000E+00 -0.25690398656E+03  0.25690398657E+03  0.25500000000E-02 0. -1.
   -5000001    1    1    2    0    0  0.15729753475E+03  0.56300205685E+02 -0.49375404341E+02  0.30471323921E+03  0.25000000000E+03 0.  0.
    5000001    1    1    2    0    0 -0.15729753475E+03 -0.56300205685E+02  0.20317504313E+03  0.36289437272E+03  0.25000000000E+03 0.  0.
<mgrwt>
<rscale>  0 0.64965036E+03</rscale>
<asrwt>0</asrwt>
<pdfrwt beam="1">  1        2 0.63185173E-01 0.64965036E+03</pdfrwt>
<pdfrwt beam="2">  1       -2 0.39523691E-01 0.64965036E+03</pdfrwt>
<totfact> 0.47104178E+02</totfact>
</mgrwt>
</event>
<event>
 4    1  0.1804641E-005  0.1860195E+04  0.7818608E-02  0.8674927E-01
          2   -1    0    0  501    0  0.00000000000E+00  0.00000000000E+00  0.18593567089E+04  0.18593567089E+04  0.25500000000E-02 0. -1.
         -2   -1    0    0    0  501 -0.00000000000E+00 -0.00000000000E+00 -0.46525847093E+03  0.46525847094E+03  0.25500000000E-02 0.  1.
   -5000001    1    1    2    0    0  0.27215535175E+03 -0.74865550965E+03  0.12093005839E+04  0.14695106362E+04  0.25000000000E+03 0.  0.
    5000001    1    1    2    0    0 -0.27215535175E+03  0.74865550965E+03  0.18479765404E+03  0.85510454364E+03  0.25000000000E+03 0.  0.
<mgrwt>
<rscale>  0 0.18601951E+04</rscale>
<asrwt>0</asrwt>
<pdfrwt beam="1">  1        2 0.28605488E+00 0.18601951E+04</pdfrwt>
<pdfrwt beam="2">  1       -2 0.71578226E-01 0.18601951E+04</pdfrwt>
<totfact> 0.13301812E+01</totfact>
</mgrwt>
</event>
<event>
 4    1  0.1804641E-005  0.8026080E+03  0.7818608E-02  0.9556250E-01
          2   -1    0    0  501    0  0.00000000000E+00  0.00000000000E+00  0.10726960293E+04  0.10726960293E+04  0.25500000000E-02 0.  1.
         -2   -1    0    0    0  501 -0.00000000000E+00 -0.00000000000E+00 -0.15013095792E+03  0.15013095795E+03  0.25500000000E-02 0. -1.
   -5000001    1    1    2    0    0  0.27233927737E+03 -0.14671607359E+03  0.37993783723E+03  0.55004276962E+03  0.25000000000E+03 0.  0.
    5000001    1    1    2    0    0 -0.27233927737E+03  0.14671607359E+03  0.54262723411E+03  0.67278421760E+03  0.25000000000E+03 0.  0.
<mgrwt>
<rscale>  0 0.80260796E+03</rscale>
<asrwt>0</asrwt>
<pdfrwt beam="1">  1        2 0.16503015E+00 0.80260796E+03</pdfrwt>
<pdfrwt beam="2">  1       -2 0.23097071E-01 0.80260796E+03</pdfrwt>
<totfact> 0.37634788E+02</totfact>
</mgrwt>
</event>
<event>
 4    1  0.1804641E-005  0.7968036E+03  0.7818608E-02  0.9564655E-01
          2   -1    0    0  501    0  0.00000000000E+00  0.00000000000E+00  0.40910863178E+03  0.40910863179E+03  0.25500000000E-02 0.  1.
         -2   -1    0    0    0  501 -0.00000000000E+00 -0.00000000000E+00 -0.38797522220E+03  0.38797522221E+03  0.25500000000E-02 0. -1.
   -5000001    1    1    2    0    0 -0.24068616223E+03  0.68913644159E+02 -0.17265090016E+03  0.39368420386E+03  0.25000000000E+03 0.  0.
    5000001    1    1    2    0    0  0.24068616223E+03 -0.68913644159E+02  0.19378430974E+03  0.40339965015E+03  0.25000000000E+03 0.  0.
<mgrwt>
<rscale>  0 0.79680365E+03</rscale>
<asrwt>0</asrwt>
<pdfrwt beam="1">  1        2 0.62939790E-01 0.79680365E+03</pdfrwt>
<pdfrwt beam="2">  1       -2 0.59688496E-01 0.79680365E+03</pdfrwt>
<totfact> 0.20455925E+02</totfact>
</mgrwt>
</event>
<event>
 4    1  0.1804641E-005  0.8800225E+03  0.7818608E-02  0.9450905E-01
         -2   -1    0    0    0  501 -0.00000000000E+00  0.00000000000E+00  0.16132510310E+03  0.16132510312E+03  0.25500000000E-02 0.  1.
          2   -1    0    0  501    0  0.00000000000E+00 -0.00000000000E+00 -0.12001226326E+04  0.12001226326E+04  0.25500000000E-02 0. -1.
   -5000001    1    1    2    0    0 -0.56820375812E+02  0.33040463905E+03 -0.30776158087E+03  0.51924269015E+03  0.25000000000E+03 0.  0.
    5000001    1    1    2    0    0  0.56820375812E+02 -0.33040463905E+03 -0.73103594866E+03  0.84220504561E+03  0.25000000000E+03 0.  0.
<mgrwt>
<rscale>  0 0.88002252E+03</rscale>
<asrwt>0</asrwt>
<pdfrwt beam="1">  1        2 0.18463425E+00 0.88002252E+03</pdfrwt>
<pdfrwt beam="2">  1       -2 0.24819247E-01 0.88002252E+03</pdfrwt>
<totfact> 0.27577895E+02</totfact>
</mgrwt>
</event>
<event>
 4    1  0.1804641E-005  0.1071102E+04  0.7818608E-02  0.9233825E-01
         -2   -1    0    0    0  501 -0.00000000000E+00  0.00000000000E+00  0.93346925905E+02  0.93346925940E+02  0.25500000000E-02 0. -1.
          2   -1    0    0  501    0  0.00000000000E+00 -0.00000000000E+00 -0.30725676390E+04  0.30725676390E+04  0.25500000000E-02 0.  1.
   -5000001    1    1    2    0    0  0.33410666283E+03 -0.29905733027E+03 -0.19403237210E+04  0.20070920983E+04  0.25000000000E+03 0.  0.
    5000001    1    1    2    0    0 -0.33410666283E+03  0.29905733027E+03 -0.10388969922E+04  0.11588224667E+04  0.25000000000E+03 0.  0.
<mgrwt>
<rscale>  0 0.10711018E+04</rscale>
<asrwt>0</asrwt>
<pdfrwt beam="1">  1        2 0.47270264E+00 0.10711018E+04</pdfrwt>
<pdfrwt beam="2">  1       -2 0.14361068E-01 0.10711018E+04</pdfrwt>
<totfact> 0.60202186E+01</totfact>
</mgrwt>
</event>
<event>
 4    1  0.1804641E-005  0.7777987E+03  0.7818608E-02  0.9592720E-01
         -2   -1    0    0    0  501 -0.00000000000E+00  0.00000000000E+00  0.48405071518E+02  0.48405071585E+02  0.25500000000E-02 0. -1.
          2   -1    0    0  501    0  0.00000000000E+00 -0.00000000000E+00 -0.31245214992E+04  0.31245214992E+04  0.25500000000E-02 0.  1.
   -5000001    1    1    2    0    0  0.29599870421E+03 -0.26403827376E+02 -0.16226784712E+04  0.16685016679E+04  0.25000000000E+03 0.  0.
    5000001    1    1    2    0    0 -0.29599870421E+03  0.26403827376E+02 -0.14534379565E+04  0.15044249029E+04  0.25000000000E+03 0.  0.
<mgrwt>
<rscale>  0 0.77779865E+03</rscale>
<asrwt>0</asrwt>
<pdfrwt beam="1">  1        2 0.48069546E+00 0.77779865E+03</pdfrwt>
<pdfrwt beam="2">  1       -2 0.74469365E-02 0.77779865E+03</pdfrwt>
<totfact> 0.16919192E+02</totfact>
</mgrwt>
</event>
<event>
 4    1  0.1804641E-005  0.9867956E+03  0.7818608E-02  0.9323147E-01
          2   -1    0    0  501    0  0.00000000000E+00  0.00000000000E+00  0.77646277106E+03  0.77646277106E+03  0.25500000000E-02 0.  1.
         -2   -1    0    0    0  501 -0.00000000000E+00 -0.00000000000E+00 -0.31352613711E+03  0.31352613712E+03  0.25500000000E-02 0. -1.
   -5000001    1    1    2    0    0 -0.20556290996E+02  0.41160135691E+03  0.34785886169E+03  0.59442747730E+03  0.25000000000E+03 0.  0.
    5000001    1    1    2    0    0  0.20556290996E+02 -0.41160135691E+03  0.11507777225E+03  0.49556143088E+03  0.25000000000E+03 0.  0.
<mgrwt>
<rscale>  0 0.98679557E+03</rscale>
<asrwt>0</asrwt>
<pdfrwt beam="1">  1        2 0.11945581E+00 0.98679557E+03</pdfrwt>
<pdfrwt beam="2">  1       -2 0.48234790E-01 0.98679557E+03</pdfrwt>
<totfact> 0.14576221E+02</totfact>
</mgrwt>
</event>
<event>
 4    1  0.1804641E-005  0.6349411E+03  0.7818608E-02  0.9835454E-01
         -2   -1    0    0    0  501 -0.00000000000E+00  0.00000000000E+00  0.66909825870E+02  0.66909825919E+02  0.25500000000E-02 0. -1.
          2   -1    0    0  501    0  0.00000000000E+00 -0.00000000000E+00 -0.15063193324E+04  0.15063193324E+04  0.25500000000E-02 0.  1.
   -5000001    1    1    2    0    0 -0.15682510311E+03 -0.71250737231E+02 -0.94970648904E+03  0.99705225332E+03  0.25000000000E+03 0.  0.
    5000001    1    1    2    0    0  0.15682510311E+03  0.71250737231E+02 -0.48970301749E+03  0.57617690500E+03  0.25000000000E+03 0.  0.
<mgrwt>
<rscale>  0 0.63494114E+03</rscale>
<asrwt>0</asrwt>
<pdfrwt beam="1">  1        2 0.23174141E+00 0.63494114E+03</pdfrwt>
<pdfrwt beam="2">  1       -2 0.10293820E-01 0.63494114E+03</pdfrwt>
<totfact> 0.83898911E+02</totfact>
</mgrwt>
</event>
<event>
 4    1  0.1804641E-005  0.1058745E+04  0.7818608E-02  0.9246362E-01
          2   -1    0    0  501    0  0.00000000000E+00  0.00000000000E+00  0.32458709577E+04  0.32458709577E+04  0.25500000000E-02 0.  1.
         -2   -1    0    0    0  501 -0.00000000000E+00 -0.00000000000E+00 -0.86335870143E+02  0.86335870181E+02  0.25500000000E-02 0. -1.
   -5000001    1    1    2    0    0 -0.37524041773E+03  0.96228853206E-01  0.70682079730E+03  0.83839192497E+03  0.25000000000E+03 0.  0.
    5000001    1    1    2    0    0  0.37524041773E+03 -0.96228853206E-01  0.24527142903E+04  0.24938149029E+04  0.25000000000E+03 0.  0.
<mgrwt>
<rscale>  0 0.10587447E+04</rscale>
<asrwt>0</asrwt>
<pdfrwt beam="1">  1        2 0.49936463E+00 0.10587447E+04</pdfrwt>
<pdfrwt beam="2">  1       -2 0.13282445E-01 0.10587447E+04</pdfrwt>
<totfact> 0.53320820E+01</totfact>
</mgrwt>
</event>
<event>
 4    1  0.1804641E-005  0.8375288E+03  0.7818608E-02  0.9507230E-01
         -2   -1    0    0    0  501 -0.00000000000E+00  0.00000000000E+00  0.72245054953E+02  0.72245054998E+02  0.25500000000E-02 0. -1.
          2   -1    0    0  501    0  0.00000000000E+00 -0.00000000000E+00 -0.24273444136E+04  0.24273444136E+04  0.25500000000E-02 0.  1.
   -5000001    1    1    2    0    0 -0.30038608711E+03  0.14957185692E+03 -0.11294181309E+04  0.12044454559E+04  0.25000000000E+03 0.  0.
    5000001    1    1    2    0    0  0.30038608711E+03 -0.14957185692E+03 -0.12256812277E+04  0.12951440127E+04  0.25000000000E+03 0.  0.
<mgrwt>
<rscale>  0 0.83752882E+03</rscale>
<asrwt>0</asrwt>
<pdfrwt beam="1">  1        2 0.37343754E+00 0.83752882E+03</pdfrwt>
<pdfrwt beam="2">  1       -2 0.11114626E-01 0.83752882E+03</pdfrwt>
<totfact> 0.22746457E+02</totfact>
</mgrwt>
</event>
<event>
 4    1  0.1804641E-005  0.6756810E+03  0.7818608E-02  0.9759749E-01
         -2   -1    0    0    0  501 -0.00000000000E+00  0.00000000000E+00  0.84937857792E+02  0.84937857830E+02  0.25500000000E-02 0. -1.
          2   -1    0    0  501    0  0.00000000000E+00 -0.00000000000E+00 -0.13437613967E+04  0.13437613967E+04  0.25500000000E-02 0.  1.
   -5000001    1    1    2    0    0 -0.22662700204E+03 -0.14528847989E+02 -0.61232137882E+03  0.69929132444E+03  0.25000000000E+03 0.  0.
    5000001    1    1    2    0    0  0.22662700204E+03  0.14528847989E+02 -0.64650216007E+03  0.72940793007E+03  0.25000000000E+03 0.  0.
<mgrwt>
<rscale>  0 0.67568103E+03</rscale>
<asrwt>0</asrwt>
<pdfrwt beam="1">  1        2 0.20673251E+00 0.67568103E+03</pdfrwt>
<pdfrwt beam="2">  1       -2 0.13067364E-01 0.67568103E+03</pdfrwt>
<totfact> 0.69755134E+02</totfact>
</mgrwt>
</event>
<event>
 4    1  0.1804641E-005  0.8821159E+03  0.7818608E-02  0.9448218E-01
          2   -1    0    0  501    0  0.00000000000E+00  0.00000000000E+00  0.76199247094E+03  0.76199247095E+03  0.25500000000E-02 0.  1.
         -2   -1    0    0    0  501 -0.00000000000E+00 -0.00000000000E+00 -0.25529399692E+03  0.25529399694E+03  0.25500000000E-02 0. -1.
   -5000001    1    1    2    0    0 -0.10082053464E+03 -0.34482461141E+03  0.31612705626E+03  0.53991213038E+03  0.25000000000E+03 0.  0.
    5000001    1    1    2    0    0  0.10082053464E+03  0.34482461141E+03  0.19057141776E+03  0.47737433750E+03  0.25000000000E+03 0.  0.
<mgrwt>
<rscale>  0 0.88211587E+03</rscale>
<asrwt>0</asrwt>
<pdfrwt beam="1">  1        2 0.11722961E+00 0.88211587E+03</pdfrwt>
<pdfrwt beam="2">  1       -2 0.39276001E-01 0.88211587E+03</pdfrwt>
<totfact> 0.22581177E+02</totfact>
</mgrwt>
</event>
<event>
 4    1  0.1804641E-005  0.5666703E+03  0.7818608E-02  0.9977074E-01
         -2   -1    0    0    0  501 -0.00000000000E+00  0.00000000000E+00  0.15761724250E+03  0.15761724252E+03  0.25500000000E-02 0. -1.
          2   -1    0    0  501    0  0.00000000000E+00 -0.00000000000E+00 -0.50932763006E+03  0.50932763006E+03  0.25500000000E-02 0.  1.
   -5000001    1    1    2    0    0  0.10817072780E+03  0.14106405597E+02 -0.85613295912E+02  0.28588377616E+03  0.25000000000E+03 0.  0.
    5000001    1    1    2    0    0 -0.10817072780E+03 -0.14106405597E+02 -0.26609709164E+03  0.38106109643E+03  0.25000000000E+03 0.  0.
<mgrwt>
<rscale>  0 0.56667033E+03</rscale>
<asrwt>0</asrwt>
<pdfrwt beam="1">  1        2 0.78358096E-01 0.56667033E+03</pdfrwt>
<pdfrwt beam="2">  1       -2 0.24248807E-01 0.56667033E+03</pdfrwt>
<totfact> 0.91614179E+02</totfact>
</mgrwt>
</event>
<event>
 4    1  0.1804641E-005  0.7188457E+03  0.7818608E-02  0.9685535E-01
          2   -1    0    0  501    0  0.00000000000E+00  0.00000000000E+00  0.33590352199E+03  0.33590352200E+03  0.25500000000E-02 0.  1.
         -2   -1    0    0    0  501 -0.00000000000E+00 -0.00000000000E+00 -0.38458896585E+03  0.38458896585E+03  0.25500000000E-02 0. -1.
   -5000001    1    1    2    0    0  0.56562356927E+02  0.19128970463E+03  0.14002606429E+03  0.34913944206E+03  0.25000000000E+03 0.  0.
    5000001    1    1    2    0    0 -0.56562356927E+02 -0.19128970463E+03 -0.18871150814E+03  0.37135304580E+03  0.25000000000E+03 0.  0.
<mgrwt>
<rscale>  0 0.71884571E+03</rscale>
<asrwt>0</asrwt>
<pdfrwt beam="1">  1        2 0.51677465E-01 0.71884571E+03</pdfrwt>
<pdfrwt beam="2">  1       -2 0.59167533E-01 0.71884571E+03</pdfrwt>
<totfact> 0.26057210E+02</totfact>
</mgrwt>
</event>
<event>
 4    1  0.1804641E-005  0.1704247E+04  0.7818608E-02  0.8758946E-01
          2   -1    0    0  501    0  0.00000000000E+00  0.00000000000E+00  0.16918194752E+04  0.16918194752E+04  0.25500000000E-02 0. -1.
         -2   -1    0    0    0  501 -0.00000000000E+00 -0.00000000000E+00 -0.42919164111E+03  0.42919164112E+03  0.25500000000E-02 0.  1.
   -5000001    1    1    2    0    0  0.23141431740E+03 -0.76165561641E+03  0.41595773969E+03  0.93230504961E+03  0.25000000000E+03 0.  0.
    5000001    1    1    2    0    0 -0.23141431740E+03  0.76165561641E+03  0.84667009440E+03  0.11887060667E+04  0.25000000000E+03 0.  0.
<mgrwt>
<rscale>  0 0.17042474E+04</rscale>
<asrwt>0</asrwt>
<pdfrwt beam="1">  1        2 0.26027991E+00 0.17042474E+04</pdfrwt>
<pdfrwt beam="2">  1       -2 0.66029485E-01 0.17042474E+04</pdfrwt>
<totfact> 0.19892824E+01</totfact>
</mgrwt>
</event>
<event>
 4    1  0.1804641E-005  0.5674339E+03  0.7818608E-02  0.9975373E-01
          2   -1    0    0  501    0  0.00000000000E+00  0.00000000000E+00  0.29003616366E+04  0.29003616366E+04  0.25500000000E-02 0.  1.
         -2   -1    0    0    0  501 -0.00000000000E+00 -0.00000000000E+00 -0.27753545561E+02  0.27753545678E+02  0.25500000000E-02 0. -1.
   -5000001    1    1    2    0    0  0.12180723691E+03 -0.27796883808E+02  0.11842601711E+04  0.12167916101E+04  0.25000000000E+03 0.  0.
    5000001    1    1    2    0    0 -0.12180723691E+03  0.27796883808E+02  0.16883479200E+04  0.17113235722E+04  0.25000000000E+03 0.  0.
<mgrwt>
<rscale>  0 0.56743394E+03</rscale>
<asrwt>0</asrwt>
<pdfrwt beam="1">  1        2 0.44620921E+00 0.56743394E+03</pdfrwt>
<pdfrwt beam="2">  1       -2 0.42697789E-02 0.56743394E+03</pdfrwt>
<totfact> 0.56727039E+02</totfact>
</mgrwt>
</event>
<event>
 4    1  0.1804641E-005  0.1013870E+04  0.7818608E-02  0.9293462E-01
         -2   -1    0    0    0  501 -0.00000000000E+00  0.00000000000E+00  0.67544558929E+03  0.67544558930E+03  0.25500000000E-02 0. -1.
          2   -1    0    0  501    0  0.00000000000E+00 -0.00000000000E+00 -0.38046481981E+03  0.38046481982E+03  0.25500000000E-02 0.  1.
   -5000001    1    1    2    0    0 -0.42872390598E+03 -0.10312854633E+03  0.14061357669E+03  0.52603408880E+03  0.25000000000E+03 0.  0.
    5000001    1    1    2    0    0  0.42872390598E+03  0.10312854633E+03  0.15436719279E+03  0.52987632032E+03  0.25000000000E+03 0.  0.
<mgrwt>
<rscale>  0 0.10138704E+04</rscale>
<asrwt>0</asrwt>
<pdfrwt beam="1">  1        2 0.58533050E-01 0.10138704E+04</pdfrwt>
<pdfrwt beam="2">  1       -2 0.10391470E+00 0.10138704E+04</pdfrwt>
<totfact> 0.63271278E+01</totfact>
</mgrwt>
</event>
<event>
 4    1  0.1804641E-005  0.8357036E+03  0.7818608E-02  0.9509728E-01
         -2   -1    0    0    0  501 -0.00000000000E+00  0.00000000000E+00  0.14281778350E+03  0.14281778353E+03  0.25500000000E-02 0. -1.
          2   -1    0    0  501    0  0.00000000000E+00 -0.00000000000E+00 -0.12225378614E+04  0.12225378614E+04  0.25500000000E-02 0.  1.
   -5000001    1    1    2    0    0  0.29222107665E+03  0.40109318714E+02 -0.28102977172E+03  0.47799544734E+03  0.25000000000E+03 0.  0.
    5000001    1    1    2    0    0 -0.29222107665E+03 -0.40109318714E+02 -0.79869030619E+03  0.88736019761E+03  0.25000000000E+03 0.  0.
<mgrwt>
<rscale>  0 0.83570365E+03</rscale>
<asrwt>0</asrwt>
<pdfrwt beam="1">  1        2 0.18808274E+00 0.83570365E+03</pdfrwt>
<pdfrwt beam="2">  1       -2 0.21971968E-01 0.83570365E+03</pdfrwt>
<totfact> 0.33344320E+02</totfact>
</mgrwt>
</event>
<event>
 4    1  0.1804641E-005  0.8509694E+03  0.7818608E-02  0.9489037E-01
          2   -1    0    0  501    0  0.00000000000E+00  0.00000000000E+00  0.18383947099E+03  0.18383947101E+03  0.25500000000E-02 0.  1.
         -2   -1    0    0    0  501 -0.00000000000E+00 -0.00000000000E+00 -0.98475708724E+03  0.98475708724E+03  0.25500000000E-02 0. -1.
   -5000001    1    1    2    0    0 -0.17439513818E+03 -0.26438008072E+03 -0.58585681338E+03  0.71136396949E+03  0.25000000000E+03 0.  0.
    5000001    1    1    2    0    0  0.17439513818E+03  0.26438008072E+03 -0.21506080287E+03  0.45723258877E+03  0.25000000000E+03 0.  0.
<mgrwt>
<rscale>  0 0.85096938E+03</rscale>
<asrwt>0</asrwt>
<pdfrwt beam="1">  1        2 0.28282996E-01 0.85096938E+03</pdfrwt>
<pdfrwt beam="2">  1       -2 0.15150109E+00 0.85096938E+03</pdfrwt>
<totfact> 0.55849332E+01</totfact>
</mgrwt>
</event>
<event>
 4    1  0.1804641E-005  0.9496204E+03  0.7818608E-02  0.9365594E-01
         -2   -1    0    0    0  501 -0.00000000000E+00  0.00000000000E+00  0.46521676453E+03  0.46521676453E+03  0.25500000000E-02 0. -1.
          2   -1    0    0  501    0  0.00000000000E+00 -0.00000000000E+00 -0.48460148929E+03  0.48460148929E+03  0.25500000000E-02 0.  1.
   -5000001    1    1    2    0    0  0.27865275894E+03 -0.23237386975E+03  0.16726188032E+03  0.47129768938E+03  0.25000000000E+03 0.  0.
    5000001    1    1    2    0    0 -0.27865275894E+03  0.23237386975E+03 -0.18664660508E+03  0.47852056444E+03  0.25000000000E+03 0.  0.
<mgrwt>
<rscale>  0 0.94962042E+03</rscale>
<asrwt>0</asrwt>
<pdfrwt beam="1">  1        2 0.74554075E-01 0.94962042E+03</pdfrwt>
<pdfrwt beam="2">  1       -2 0.71571810E-01 0.94962042E+03</pdfrwt>
<totfact> 0.11326687E+02</totfact>
</mgrwt>
</event>
<event>
 4    1  0.1804641E-005  0.1098982E+04  0.7818608E-02  0.9206185E-01
         -2   -1    0    0    0  501 -0.00000000000E+00  0.00000000000E+00  0.35832576448E+03  0.35832576449E+03  0.25500000000E-02 0. -1.
          2   -1    0    0  501    0  0.00000000000E+00 -0.00000000000E+00 -0.84264211917E+03  0.84264211917E+03  0.25500000000E-02 0.  1.
   -5000001    1    1    2    0    0  0.23120444808E+03 -0.28537807713E+03 -0.59549658587E+03  0.74297532092E+03  0.25000000000E+03 0.  0.
    5000001    1    1    2    0    0 -0.23120444808E+03  0.28537807713E+03  0.11118023118E+03  0.45799256274E+03  0.25000000000E+03 0.  0.
<mgrwt>
<rscale>  0 0.10989820E+04</rscale>
<asrwt>0</asrwt>
<pdfrwt beam="1">  1        2 0.12963725E+00 0.10989820E+04</pdfrwt>
<pdfrwt beam="2">  1       -2 0.55127041E-01 0.10989820E+04</pdfrwt>
<totfact> 0.98687055E+01</totfact>
</mgrwt>
</event>
<event>
 4    1  0.1804641E-005  0.6999108E+03  0.7818608E-02  0.9717385E-01
          2   -1    0    0  501    0  0.00000000000E+00  0.00000000000E+00  0.98962503483E+03  0.98962503483E+03  0.25500000000E-02 0.  1.
         -2   -1    0    0    0  501 -0.00000000000E+00 -0.00000000000E+00 -0.12375269743E+03  0.12375269745E+03  0.25500000000E-02 0. -1.
   -5000001    1    1    2    0    0  0.17926821210E+03  0.16575502943E+03  0.46299008289E+03  0.58006175405E+03  0.25000000000E+03 0.  0.
    5000001    1    1    2    0    0 -0.17926821210E+03 -0.16575502943E+03  0.40288225450E+03  0.53331597824E+03  0.25000000000E+03 0.  0.
<mgrwt>
<rscale>  0 0.69991076E+03</rscale>
<asrwt>0</asrwt>
<pdfrwt beam="1">  1        2 0.15225001E+00 0.69991076E+03</pdfrwt>
<pdfrwt beam="2">  1       -2 0.19038876E-01 0.69991076E+03</pdfrwt>
<totfact> 0.59911867E+02</totfact>
</mgrwt>
</event>
<event>
 4    1  0.1804641E-005  0.6791749E+03  0.7818608E-02  0.9753524E-01
         -2   -1    0    0    0  501 -0.00000000000E+00  0.00000000000E+00  0.89487318401E+02  0.89487318438E+02  0.25500000000E-02 0. -1.
          2   -1    0    0  501    0  0.00000000000E+00 -0.00000000000E+00 -0.12886701746E+04  0.12886701746E+04  0.25500000000E-02 0.  1.
   -5000001    1    1    2    0    0 -0.15360604546E+03  0.17082399639E+03 -0.58613402811E+03  0.67736899386E+03  0.25000000000E+03 0.  0.
    5000001    1    1    2    0    0  0.15360604546E+03 -0.17082399639E+03 -0.61304882805E+03  0.70078849913E+03  0.25000000000E+03 0.  0.
<mgrwt>
<rscale>  0 0.67917491E+03</rscale>
<asrwt>0</asrwt>
<pdfrwt beam="1">  1        2 0.19825694E+00 0.67917491E+03</pdfrwt>
<pdfrwt beam="2">  1       -2 0.13767281E-01 0.67917491E+03</pdfrwt>
<totfact> 0.68742536E+02</totfact>
</mgrwt>
</event>
<event>
 4    1  0.1804641E-005  0.6518477E+03  0.7818608E-02  0.9803318E-01
         -2   -1    0    0    0  501 -0.00000000000E+00  0.00000000000E+00  0.19055833634E+03  0.19055833636E+03  0.25500000000E-02 0. -1.
          2   -1    0    0  501    0  0.00000000000E+00 -0.00000000000E+00 -0.55744789685E+03  0.55744789686E+03  0.25500000000E-02 0.  1.
   -5000001    1    1    2    0    0  0.33103247462E+02 -0.15057836977E+03 -0.34555230676E+03  0.45351523364E+03  0.25000000000E+03 0.  0.
    5000001    1    1    2    0    0 -0.33103247462E+02  0.15057836977E+03 -0.21337253751E+02  0.29449099958E+03  0.25000000000E+03 0.  0.
<mgrwt>
<rscale>  0 0.65184766E+03</rscale>
<asrwt>0</asrwt>
<pdfrwt beam="1">  1        2 0.85761214E-01 0.65184766E+03</pdfrwt>
<pdfrwt beam="2">  1       -2 0.29316667E-01 0.65184766E+03</pdfrwt>
<totfact> 0.58334443E+02</totfact>
</mgrwt>
</event>
<event>
 4    1  0.1804641E-005  0.8098863E+03  0.7818608E-02  0.9545816E-01
         -2   -1    0    0    0  501 -0.00000000000E+00  0.00000000000E+00  0.52211881031E+03  0.52211881032E+03  0.25500000000E-02 0.  1.
          2   -1    0    0  501    0  0.00000000000E+00 -0.00000000000E+00 -0.31406447656E+03  0.31406447657E+03  0.25500000000E-02 0. -1.
   -5000001    1    1    2    0    0  0.53207372068E+02  0.31137069819E+03  0.14654982305E+03  0.42867188708E+03  0.25000000000E+03 0.  0.
    5000001    1    1    2    0    0 -0.53207372068E+02 -0.31137069819E+03  0.61504510704E+02  0.40751139980E+03  0.25000000000E+03 0.  0.
<mgrwt>
<rscale>  0 0.80988634E+03</rscale>
<asrwt>0</asrwt>
<pdfrwt beam="1">  1        2 0.48317612E-01 0.80988634E+03</pdfrwt>
<pdfrwt beam="2">  1       -2 0.80325970E-01 0.80988634E+03</pdfrwt>
<totfact> 0.14392317E+02</totfact>
</mgrwt>
</event>
<event>
 4    1  0.1804641E-005  0.6311878E+03  0.7818608E-02  0.9842734E-01
         -2   -1    0    0    0  501 -0.00000000000E+00  0.00000000000E+00  0.12523700763E+03  0.12523700766E+03  0.25500000000E-02 0.  1.
          2   -1    0    0  501    0  0.00000000000E+00 -0.00000000000E+00 -0.79528809777E+03  0.79528809777E+03  0.25500000000E-02 0. -1.
   -5000001    1    1    2    0    0  0.24356093424E+02 -0.13669341141E+03 -0.52971635555E+03  0.60197817680E+03  0.25000000000E+03 0.  0.
    5000001    1    1    2    0    0 -0.24356093424E+02  0.13669341141E+03 -0.14033473459E+03  0.31854692863E+03  0.25000000000E+03 0.  0.
<mgrwt>
<rscale>  0 0.63118777E+03</rscale>
<asrwt>0</asrwt>
<pdfrwt beam="1">  1        2 0.12235201E+00 0.63118777E+03</pdfrwt>
<pdfrwt beam="2">  1       -2 0.19267232E-01 0.63118777E+03</pdfrwt>
<totfact> 0.79548695E+02</totfact>
</mgrwt>
</event>
<event>
 4    1  0.1804641E-005  0.5790529E+03  0.7818608E-02  0.9949843E-01
         -2   -1    0    0    0  501 -0.00000000000E+00  0.00000000000E+00  0.56950924891E+03  0.56950924892E+03  0.25500000000E-02 0. -1.
          2   -1    0    0  501    0  0.00000000000E+00 -0.00000000000E+00 -0.14718914341E+03  0.14718914343E+03  0.25500000000E-02 0.  1.
   -5000001    1    1    2    0    0  0.13656045859E+03  0.32427301100E+02  0.26105810131E+03  0.38775200962E+03  0.25000000000E+03 0.  0.
    5000001    1    1    2    0    0 -0.13656045859E+03 -0.32427301100E+02  0.16126200419E+03  0.32894638272E+03  0.25000000000E+03 0.  0.
<mgrwt>
<rscale>  0 0.57905295E+03</rscale>
<asrwt>0</asrwt>
<pdfrwt beam="1">  1        2 0.22644484E-01 0.57905295E+03</pdfrwt>
<pdfrwt beam="2">  1       -2 0.87616806E-01 0.57905295E+03</pdfrwt>
<totfact> 0.27939979E+02</totfact>
</mgrwt>
</event>
<event>
 4    1  0.1804641E-005  0.6324674E+03  0.7818608E-02  0.9840246E-01
          2   -1    0    0  501    0  0.00000000000E+00  0.00000000000E+00  0.65042020490E+03  0.65042020491E+03  0.25500000000E-02 0.  1.
         -2   -1    0    0    0  501 -0.00000000000E+00 -0.00000000000E+00 -0.15375255042E+03  0.15375255045E+03  0.25500000000E-02 0. -1.
   -5000001    1    1    2    0    0 -0.19101358504E+03 -0.29601766976E+02  0.26344851905E+03  0.41142140983E+03  0.25000000000E+03 0.  0.
    5000001    1    1    2    0    0  0.19101358504E+03  0.29601766976E+02  0.23321913543E+03  0.39275134552E+03  0.25000000000E+03 0.  0.
<mgrwt>
<rscale>  0 0.63246744E+03</rscale>
<asrwt>0</asrwt>
<pdfrwt beam="1">  1        2 0.10006465E+00 0.63246744E+03</pdfrwt>
<pdfrwt beam="2">  1       -2 0.23654239E-01 0.63246744E+03</pdfrwt>
<totfact> 0.71543873E+02</totfact>
</mgrwt>
</event>
<event>
 4    1  0.1804641E-005  0.6106168E+03  0.7818608E-02  0.9883621E-01
         -2   -1    0    0    0  501 -0.00000000000E+00  0.00000000000E+00  0.96565646471E+02  0.96565646505E+02  0.25500000000E-02 0. -1.
          2   -1    0    0  501    0  0.00000000000E+00 -0.00000000000E+00 -0.96528340850E+03  0.96528340850E+03  0.25500000000E-02 0.  1.
   -5000001    1    1    2    0    0 -0.16560007663E+03  0.54932658777E+02 -0.46305117241E+03  0.55439820585E+03  0.25000000000E+03 0.  0.
    5000001    1    1    2    0    0  0.16560007663E+03 -0.54932658777E+02 -0.40566658962E+03  0.50745084916E+03  0.25000000000E+03 0.  0.
<mgrwt>
<rscale>  0 0.61061679E+03</rscale>
<asrwt>0</asrwt>
<pdfrwt beam="1">  1        2 0.14850513E+00 0.61061679E+03</pdfrwt>
<pdfrwt beam="2">  1       -2 0.14856254E-01 0.61061679E+03</pdfrwt>
<totfact> 0.95179285E+02</totfact>
</mgrwt>
</event>
<event>
 4    1  0.1804641E-005  0.5604651E+03  0.7818608E-02  0.9991003E-01
         -2   -1    0    0    0  501 -0.00000000000E+00  0.00000000000E+00  0.16535650322E+03  0.16535650324E+03  0.25500000000E-02 0. -1.
          2   -1    0    0  501    0  0.00000000000E+00 -0.00000000000E+00 -0.47491493873E+03  0.47491493873E+03  0.25500000000E-02 0.  1.
   -5000001    1    1    2    0    0  0.88638509698E+02 -0.88766455634E+01 -0.25756091417E+03  0.36982861537E+03  0.25000000000E+03 0.  0.
    5000001    1    1    2    0    0 -0.88638509698E+02  0.88766455634E+01 -0.51997521331E+02  0.27044282661E+03  0.25000000000E+03 0.  0.
<mgrwt>
<rscale>  0 0.56046507E+03</rscale>
<asrwt>0</asrwt>
<pdfrwt beam="1">  1        2 0.73063836E-01 0.56046507E+03</pdfrwt>
<pdfrwt beam="2">  1       -2 0.25439462E-01 0.56046507E+03</pdfrwt>
<totfact> 0.91102755E+02</totfact>
</mgrwt>
</event>
<event>
 4    1  0.1804641E-005  0.9834573E+03  0.7818608E-02  0.9326877E-01
         -2   -1    0    0    0  501 -0.00000000000E+00  0.00000000000E+00  0.32747582762E+03  0.32747582763E+03  0.25500000000E-02 0. -1.
          2   -1    0    0  501    0  0.00000000000E+00 -0.00000000000E+00 -0.73836616183E+03  0.73836616184E+03  0.25500000000E-02 0.  1.
   -5000001    1    1    2    0    0 -0.37575383641E+03  0.28052840669E+02  0.39194356187E+01  0.45220932036E+03  0.25000000000E+03 0.  0.
    5000001    1    1    2    0    0  0.37575383641E+03 -0.28052840669E+02 -0.41480976983E+03  0.61363266911E+03  0.25000000000E+03 0.  0.
<mgrwt>
<rscale>  0 0.98345731E+03</rscale>
<asrwt>0</asrwt>
<pdfrwt beam="1">  1        2 0.11359479E+00 0.98345731E+03</pdfrwt>
<pdfrwt beam="2">  1       -2 0.50380897E-01 0.98345731E+03</pdfrwt>
<totfact> 0.14248618E+02</totfact>
</mgrwt>
</event>
<event>
 4    1  0.1804641E-005  0.1845190E+04  0.7818608E-02  0.8682630E-01
         -2   -1    0    0    0  501 -0.00000000000E+00  0.00000000000E+00  0.53475624261E+03  0.53475624262E+03  0.25500000000E-02 0. -1.
          2   -1    0    0  501    0  0.00000000000E+00 -0.00000000000E+00 -0.15917188340E+04  0.15917188340E+04  0.25500000000E-02 0.  1.
   -5000001    1    1    2    0    0  0.30071054332E+02  0.88626612547E+03 -0.47309604636E+03  0.10357083482E+04  0.25000000000E+03 0.  0.
    5000001    1    1    2    0    0 -0.30071054332E+02 -0.88626612547E+03 -0.58386654507E+03  0.10907667285E+04  0.25000000000E+03 0.  0.
<mgrwt>
<rscale>  0 0.18451901E+04</rscale>
<asrwt>0</asrwt>
<pdfrwt beam="1">  1        2 0.24487982E+00 0.18451901E+04</pdfrwt>
<pdfrwt beam="2">  1       -2 0.82270192E-01 0.18451901E+04</pdfrwt>
<totfact> 0.13758479E+01</totfact>
</mgrwt>
</event>
<event>
 4    1  0.1804641E-005  0.6120990E+03  0.7818608E-02  0.9880618E-01
          2   -1    0    0  501    0  0.00000000000E+00  0.00000000000E+00  0.11139538913E+04  0.11139538913E+04  0.25500000000E-02 0.  1.
         -2   -1    0    0    0  501 -0.00000000000E+00 -0.00000000000E+00 -0.84084547872E+02  0.84084547910E+02  0.25500000000E-02 0. -1.
   -5000001    1    1    2    0    0 -0.10253801353E+03  0.12487034779E+03  0.65415728373E+03  0.71869910243E+03  0.25000000000E+03 0.  0.
    5000001    1    1    2    0    0  0.10253801353E+03 -0.12487034779E+03  0.37571205966E+03  0.47933933674E+03  0.25000000000E+03 0.  0.
<mgrwt>
<rscale>  0 0.61209904E+03</rscale>
<asrwt>0</asrwt>
<pdfrwt beam="1">  1        2 0.17137753E+00 0.61209904E+03</pdfrwt>
<pdfrwt beam="2">  1       -2 0.12936084E-01 0.61209904E+03</pdfrwt>
<totfact> 0.96910607E+02</totfact>
</mgrwt>
</event>
<event>
 4    1  0.1804641E-005  0.5489198E+03  0.7818608E-02  0.1001744E+00
         -2   -1    0    0    0  501 -0.00000000000E+00  0.00000000000E+00  0.52021732094E+02  0.52021732157E+02  0.25500000000E-02 0. -1.
          2   -1    0    0  501    0  0.00000000000E+00 -0.00000000000E+00 -0.14480148360E+04  0.14480148360E+04  0.25500000000E-02 0.  1.
   -5000001    1    1    2    0    0 -0.60439141263E+02 -0.93233468972E+02 -0.63794721394E+03  0.69413400529E+03  0.25000000000E+03 0.  0.
    5000001    1    1    2    0    0  0.60439141263E+02  0.93233468972E+02 -0.75804588993E+03  0.80590256283E+03  0.25000000000E+03 0.  0.
<mgrwt>
<rscale>  0 0.54891981E+03</rscale>
<asrwt>0</asrwt>
<pdfrwt beam="1">  1        2 0.22277148E+00 0.54891981E+03</pdfrwt>
<pdfrwt beam="2">  1       -2 0.80033445E-02 0.54891981E+03</pdfrwt>
<totfact> 0.13600795E+03</totfact>
</mgrwt>
</event>
<event>
 4    1  0.1804641E-005  0.6550323E+03  0.7818608E-02  0.9797382E-01
          2   -1    0    0  501    0  0.00000000000E+00  0.00000000000E+00  0.86306794294E+03  0.86306794294E+03  0.25500000000E-02 0.  1.
         -2   -1    0    0    0  501 -0.00000000000E+00 -0.00000000000E+00 -0.12428549360E+03  0.12428549362E+03  0.25500000000E-02 0. -1.
   -5000001    1    1    2    0    0  0.20076979082E+02  0.18478173422E+03  0.21701271773E+03  0.37966023501E+03  0.25000000000E+03 0.  0.
    5000001    1    1    2    0    0 -0.20076979082E+02 -0.18478173422E+03  0.52176973161E+03  0.60769320155E+03  0.25000000000E+03 0.  0.
<mgrwt>
<rscale>  0 0.65503229E+03</rscale>
<asrwt>0</asrwt>
<pdfrwt beam="1">  1        2 0.13277968E+00 0.65503229E+03</pdfrwt>
<pdfrwt beam="2">  1       -2 0.19120846E-01 0.65503229E+03</pdfrwt>
<totfact> 0.72208439E+02</totfact>
</mgrwt>
</event>
<event>
 4    1  0.1804641E-005  0.5448314E+03  0.7818608E-02  0.1002697E+00
          2   -1    0    0  501    0  0.00000000000E+00  0.00000000000E+00  0.65147180354E+02  0.65147180404E+02  0.25500000000E-02 0.  1.
         -2   -1    0    0    0  501 -0.00000000000E+00 -0.00000000000E+00 -0.11391178667E+04  0.11391178667E+04  0.25500000000E-02 0. -1.
   -5000001    1    1    2    0    0  0.48319355925E+02 -0.89153565035E+02 -0.45348232338E+03  0.52766403699E+03  0.25000000000E+03 0.  0.
    5000001    1    1    2    0    0 -0.48319355925E+02  0.89153565035E+02 -0.62048836297E+03  0.67660101012E+03  0.25000000000E+03 0.  0.
<mgrwt>
<rscale>  0 0.54483141E+03</rscale>
<asrwt>0</asrwt>
<pdfrwt beam="1">  1        2 0.10022644E-01 0.54483141E+03</pdfrwt>
<pdfrwt beam="2">  1       -2 0.17524889E+00 0.54483141E+03</pdfrwt>
<totfact> 0.13255673E+02</totfact>
</mgrwt>
</event>
<event>
 4    1  0.1804641E-005  0.9160669E+03  0.7818608E-02  0.9405717E-01
          2   -1    0    0  501    0  0.00000000000E+00  0.00000000000E+00  0.44361311190E+03  0.44361311190E+03  0.25500000000E-02 0.  1.
         -2   -1    0    0    0  501 -0.00000000000E+00 -0.00000000000E+00 -0.47292256620E+03  0.47292256621E+03  0.25500000000E-02 0. -1.
   -5000001    1    1    2    0    0  0.74079192531E+02  0.30643547101E+03 -0.23363706633E+03  0.46527057012E+03  0.25000000000E+03 0.  0.
    5000001    1    1    2    0    0 -0.74079192531E+02 -0.30643547101E+03  0.20432761202E+03  0.45126510799E+03  0.25000000000E+03 0.  0.
<mgrwt>
<rscale>  0 0.91606692E+03</rscale>
<asrwt>0</asrwt>
<pdfrwt beam="1">  1        2 0.68248171E-01 0.91606692E+03</pdfrwt>
<pdfrwt beam="2">  1       -2 0.72757317E-01 0.91606692E+03</pdfrwt>
<totfact> 0.12113011E+02</totfact>
</mgrwt>
</event>
<event>
 4    1  0.1804641E-005  0.9767377E+03  0.7818608E-02  0.9334433E-01
          2   -1    0    0  501    0  0.00000000000E+00  0.00000000000E+00  0.11568339657E+04  0.11568339657E+04  0.25500000000E-02 0.  1.
         -2   -1    0    0    0  501 -0.00000000000E+00 -0.00000000000E+00 -0.20616970408E+03  0.20616970410E+03  0.25500000000E-02 0. -1.
   -5000001    1    1    2    0    0  0.26008929712E+03  0.25903269087E+03  0.75878595981E+03  0.87920447577E+03  0.25000000000E+03 0.  0.
    5000001    1    1    2    0    0 -0.26008929712E+03 -0.25903269087E+03  0.19187830177E+03  0.48379919399E+03  0.25000000000E+03 0.  0.
<mgrwt>
<rscale>  0 0.97673766E+03</rscale>
<asrwt>0</asrwt>
<pdfrwt beam="1">  1        2 0.17797446E+00 0.97673766E+03</pdfrwt>
<pdfrwt beam="2">  1       -2 0.31718415E-01 0.97673766E+03</pdfrwt>
<totfact> 0.18538081E+02</totfact>
</mgrwt>
</event>
<event>
 4    1  0.1804641E-005  0.1212972E+04  0.7818608E-02  0.9101578E-01
          2   -1    0    0  501    0  0.00000000000E+00  0.00000000000E+00  0.12366460461E+04  0.12366460461E+04  0.25500000000E-02 0.  1.
         -2   -1    0    0    0  501 -0.00000000000E+00 -0.00000000000E+00 -0.29743754906E+03  0.29743754907E+03  0.25500000000E-02 0. -1.
   -5000001    1    1    2    0    0  0.19318503304E+03  0.44969336867E+03  0.79397869642E+03  0.96563282524E+03  0.25000000000E+03 0.  0.
    5000001    1    1    2    0    0 -0.19318503304E+03 -0.44969336867E+03  0.14522980059E+03  0.56845076990E+03  0.25000000000E+03 0.  0.
<mgrwt>
<rscale>  0 0.12129715E+04</rscale>
<asrwt>0</asrwt>
<pdfrwt beam="1">  1        2 0.19025324E+00 0.12129715E+04</pdfrwt>
<pdfrwt beam="2">  1       -2 0.45759622E-01 0.12129715E+04</pdfrwt>
<totfact> 0.80385996E+01</totfact>
</mgrwt>
</event>
<event>
 4    1  0.1804641E-005  0.9987590E+03  0.7818608E-02  0.9309907E-01
         -2   -1    0    0    0  501 -0.00000000000E+00  0.00000000000E+00  0.64368691124E+02  0.64368691175E+02  0.25500000000E-02 0. -1.
          2   -1    0    0  501    0  0.00000000000E+00 -0.00000000000E+00 -0.38742420094E+04  0.38742420094E+04  0.25500000000E-02 0.  1.
   -5000001    1    1    2    0    0 -0.40808080213E+03  0.58302501411E+02 -0.13915116789E+04  0.14726621729E+04  0.25000000000E+03 0.  0.
    5000001    1    1    2    0    0  0.40808080213E+03 -0.58302501411E+02 -0.24183616393E+04  0.24659485277E+04  0.25000000000E+03 0.  0.
<mgrwt>
<rscale>  0 0.99875900E+03</rscale>
<asrwt>0</asrwt>
<pdfrwt beam="1">  1        2 0.59603705E+00 0.99875900E+03</pdfrwt>
<pdfrwt beam="2">  1       -2 0.99028786E-02 0.99875900E+03</pdfrwt>
<totfact> 0.31673947E+01</totfact>
</mgrwt>
</event>
<event>
 4    1  0.1804641E-005  0.8468728E+03  0.7818608E-02  0.9494544E-01
         -2   -1    0    0    0  501 -0.00000000000E+00  0.00000000000E+00  0.60255713301E+03  0.60255713302E+03  0.25500000000E-02 0. -1.
          2   -1    0    0  501    0  0.00000000000E+00 -0.00000000000E+00 -0.29756246765E+03  0.29756246766E+03  0.25500000000E-02 0.  1.
   -5000001    1    1    2    0    0 -0.33988294828E+03  0.98438270874E+01  0.18902479256E+03  0.46243668936E+03  0.25000000000E+03 0.  0.
    5000001    1    1    2    0    0  0.33988294828E+03 -0.98438270874E+01  0.11596987280E+03  0.43768291132E+03  0.25000000000E+03 0.  0.
<mgrwt>
<rscale>  0 0.84687281E+03</rscale>
<asrwt>0</asrwt>
<pdfrwt beam="1">  1        2 0.45778842E-01 0.84687281E+03</pdfrwt>
<pdfrwt beam="2">  1       -2 0.92701097E-01 0.84687281E+03</pdfrwt>
<totfact> 0.10995918E+02</totfact>
</mgrwt>
</event>
<event>
 4    1  0.1804641E-005  0.5966154E+03  0.7818608E-02  0.9912453E-01
         -2   -1    0    0    0  501 -0.00000000000E+00  0.00000000000E+00  0.58588109331E+02  0.58588109386E+02  0.25500000000E-02 0. -1.
          2   -1    0    0  501    0  0.00000000000E+00 -0.00000000000E+00 -0.15188657538E+04  0.15188657538E+04  0.25500000000E-02 0.  1.
   -5000001    1    1    2    0    0  0.50495958354E+02 -0.59473893960E+02 -0.11077827459E+04  0.11383187594E+04  0.25000000000E+03 0.  0.
    5000001    1    1    2    0    0 -0.50495958354E+02  0.59473893960E+02 -0.35249489860E+03  0.43913510382E+03  0.25000000000E+03 0.  0.
<mgrwt>
<rscale>  0 0.59661536E+03</rscale>
<asrwt>0</asrwt>
<pdfrwt beam="1">  1        2 0.23367162E+00 0.59661536E+03</pdfrwt>
<pdfrwt beam="2">  1       -2 0.90135564E-02 0.59661536E+03</pdfrwt>
<totfact> 0.10255006E+03</totfact>
</mgrwt>
</event>
<event>
 4    1  0.1804641E-005  0.7336512E+03  0.7818608E-02  0.9661354E-01
         -2   -1    0    0    0  501 -0.00000000000E+00  0.00000000000E+00  0.14767687861E+03  0.14767687863E+03  0.25500000000E-02 0. -1.
          2   -1    0    0  501    0  0.00000000000E+00 -0.00000000000E+00 -0.91118548384E+03  0.91118548385E+03  0.25500000000E-02 0.  1.
   -5000001    1    1    2    0    0  0.15772149075E+03  0.12907921582E+03 -0.63390904654E+03  0.71125114544E+03  0.25000000000E+03 0.  0.
    5000001    1    1    2    0    0 -0.15772149075E+03 -0.12907921582E+03 -0.12959955869E+03  0.34761121704E+03  0.25000000000E+03 0.  0.
<mgrwt>
<rscale>  0 0.73365122E+03</rscale>
<asrwt>0</asrwt>
<pdfrwt beam="1">  1        2 0.14018238E+00 0.73365122E+03</pdfrwt>
<pdfrwt beam="2">  1       -2 0.22719520E-01 0.73365122E+03</pdfrwt>
<totfact> 0.49349503E+02</totfact>
</mgrwt>
</event>
<event>
 4    1  0.1804641E-005  0.5137167E+03  0.7818608E-02  0.1010259E+00
          2   -1    0    0  501    0  0.00000000000E+00  0.00000000000E+00  0.28494148430E+03  0.28494148432E+03  0.25500000000E-02 0.  1.
         -2   -1    0    0    0  501 -0.00000000000E+00 -0.00000000000E+00 -0.23154303483E+03  0.23154303485E+03  0.25500000000E-02 0. -1.
   -5000001    1    1    2    0    0 -0.48801601837E+02 -0.31717813894E+02  0.17235754849E+02  0.25726384765E+03  0.25000000000E+03 0.  0.
    5000001    1    1    2    0    0  0.48801601837E+02  0.31717813894E+02  0.36162694621E+02  0.25922067152E+03  0.25000000000E+03 0.  0.
<mgrwt>
<rscale>  0 0.51371672E+03</rscale>
<asrwt>0</asrwt>
<pdfrwt beam="1">  1        2 0.43837151E-01 0.51371672E+03</pdfrwt>
<pdfrwt beam="2">  1       -2 0.35622006E-01 0.51371672E+03</pdfrwt>
<totfact> 0.86401576E+02</totfact>
</mgrwt>
</event>
<event>
 4    1  0.1804641E-005  0.7782192E+03  0.7818608E-02  0.9592090E-01
          2   -1    0    0  501    0  0.00000000000E+00  0.00000000000E+00  0.25550254784E+03  0.25550254785E+03  0.25500000000E-02 0.  1.
         -2   -1    0    0    0  501 -0.00000000000E+00 -0.00000000000E+00 -0.59258223010E+03  0.59258223011E+03  0.25500000000E-02 0. -1.
   -5000001    1    1    2    0    0 -0.76810324461E+02 -0.26062232989E+03 -0.34703758766E+02  0.37084791445E+03  0.25000000000E+03 0.  0.
    5000001    1    1    2    0    0  0.76810324461E+02  0.26062232989E+03 -0.30237592349E+03  0.47723686351E+03  0.25000000000E+03 0.  0.
<mgrwt>
<rscale>  0 0.77821917E+03</rscale>
<asrwt>0</asrwt>
<pdfrwt beam="1">  1        2 0.39308084E-01 0.77821917E+03</pdfrwt>
<pdfrwt beam="2">  1       -2 0.91166496E-01 0.77821917E+03</pdfrwt>
<totfact> 0.13580674E+02</totfact>
</mgrwt>
</event>
<event>
 4    1  0.1804641E-005  0.6211307E+03  0.7818608E-02  0.9862511E-01
          2   -1    0    0  501    0  0.00000000000E+00  0.00000000000E+00  0.46875973036E+03  0.46875973037E+03  0.25500000000E-02 0.  1.
         -2   -1    0    0    0  501 -0.00000000000E+00 -0.00000000000E+00 -0.20575752685E+03  0.20575752686E+03  0.25500000000E-02 0. -1.
   -5000001    1    1    2    0    0  0.12544902158E+03  0.10235833444E+03  0.22701634772E+03  0.37450114523E+03  0.25000000000E+03 0.  0.
    5000001    1    1    2    0    0 -0.12544902158E+03 -0.10235833444E+03  0.35985855795E+02  0.30001611200E+03  0.25000000000E+03 0.  0.
<mgrwt>
<rscale>  0 0.62113072E+03</rscale>
<asrwt>0</asrwt>
<pdfrwt beam="1">  1        2 0.72116882E-01 0.62113072E+03</pdfrwt>
<pdfrwt beam="2">  1       -2 0.31655004E-01 0.62113072E+03</pdfrwt>
<totfact> 0.61902797E+02</totfact>
</mgrwt>
</event>
<event>
 4    1  0.1804641E-005  0.6060142E+03  0.7818608E-02  0.9893006E-01
         -2   -1    0    0    0  501 -0.00000000000E+00  0.00000000000E+00  0.44462139040E+02  0.44462139113E+02  0.25500000000E-02 0. -1.
          2   -1    0    0  501    0  0.00000000000E+00 -0.00000000000E+00 -0.20649773403E+04  0.20649773403E+04  0.25500000000E-02 0.  1.
   -5000001    1    1    2    0    0 -0.96759825121E+02  0.12824217460E+03 -0.80418735449E+03  0.85733646850E+03  0.25000000000E+03 0.  0.
    5000001    1    1    2    0    0  0.96759825121E+02 -0.12824217460E+03 -0.12163278467E+04  0.12521030109E+04  0.25000000000E+03 0.  0.
<mgrwt>
<rscale>  0 0.60601422E+03</rscale>
<asrwt>0</asrwt>
<pdfrwt beam="1">  1        2 0.31768875E+00 0.60601422E+03</pdfrwt>
<pdfrwt beam="2">  1       -2 0.68403307E-02 0.60601422E+03</pdfrwt>
<totfact> 0.80323667E+02</totfact>
</mgrwt>
</event>
<event>
 4    1  0.1804641E-005  0.7491619E+03  0.7818608E-02  0.9636666E-01
          2   -1    0    0  501    0  0.00000000000E+00  0.00000000000E+00  0.14959751833E+04  0.14959751833E+04  0.25500000000E-02 0.  1.
         -2   -1    0    0    0  501 -0.00000000000E+00 -0.00000000000E+00 -0.93792246236E+02  0.93792246271E+02  0.25500000000E-02 0. -1.
   -5000001    1    1    2    0    0  0.27112185753E+03  0.20332752965E+02  0.83345078751E+03  0.91162530552E+03  0.25000000000E+03 0.  0.
    5000001    1    1    2    0    0 -0.27112185753E+03 -0.20332752965E+02  0.56873214957E+03  0.67814212407E+03  0.25000000000E+03 0.  0.
<mgrwt>
<rscale>  0 0.74916186E+03</rscale>
<asrwt>0</asrwt>
<pdfrwt beam="1">  1        2 0.23015001E+00 0.74916186E+03</pdfrwt>
<pdfrwt beam="2">  1       -2 0.14429577E-01 0.74916186E+03</pdfrwt>
<totfact> 0.48325472E+02</totfact>
</mgrwt>
</event>
<event>
 4    1  0.1804641E-005  0.5490319E+03  0.7818608E-02  0.1001718E+00
         -2   -1    0    0    0  501 -0.00000000000E+00  0.00000000000E+00  0.10214235747E+04  0.10214235747E+04  0.25500000000E-02 0. -1.
          2   -1    0    0  501    0  0.00000000000E+00 -0.00000000000E+00 -0.73778405470E+02  0.73778405514E+02  0.25500000000E-02 0.  1.
   -5000001    1    1    2    0    0  0.43981656828E+02  0.10018726168E+03  0.41440840900E+03  0.49619169984E+03  0.25000000000E+03 0.  0.
    5000001    1    1    2    0    0 -0.43981656828E+02 -0.10018726168E+03  0.53323676025E+03  0.59901028040E+03  0.25000000000E+03 0.  0.
<mgrwt>
<rscale>  0 0.54903188E+03</rscale>
<asrwt>0</asrwt>
<pdfrwt beam="1">  1        2 0.11350524E-01 0.54903188E+03</pdfrwt>
<pdfrwt beam="2">  1       -2 0.15714209E+00 0.54903188E+03</pdfrwt>
<totfact> 0.15257756E+02</totfact>
</mgrwt>
</event>
<event>
 4    1  0.1804641E-005  0.1139287E+04  0.7818608E-02  0.9167724E-01
          2   -1    0    0  501    0  0.00000000000E+00  0.00000000000E+00  0.22918834839E+04  0.22918834839E+04  0.25500000000E-02 0.  1.
         -2   -1    0    0    0  501 -0.00000000000E+00 -0.00000000000E+00 -0.14158379821E+03  0.14158379823E+03  0.25500000000E-02 0. -1.
   -5000001    1    1    2    0    0  0.44160441823E+03  0.48966099876E+02  0.16179579050E+04  0.16963784730E+04  0.25000000000E+03 0.  0.
    5000001    1    1    2    0    0 -0.44160441823E+03 -0.48966099876E+02  0.53234178067E+03  0.73708880916E+03  0.25000000000E+03 0.  0.
<mgrwt>
<rscale>  0 0.11392867E+04</rscale>
<asrwt>0</asrwt>
<pdfrwt beam="1">  1        2 0.35259748E+00 0.11392867E+04</pdfrwt>
<pdfrwt beam="2">  1       -2 0.21782122E-01 0.11392867E+04</pdfrwt>
<totfact> 0.83817327E+01</totfact>
</mgrwt>
</event>
<event>
 4    1  0.1804641E-005  0.7820917E+03  0.7818608E-02  0.9586307E-01
          2   -1    0    0  501    0  0.00000000000E+00  0.00000000000E+00  0.48899217060E+03  0.48899217061E+03  0.25500000000E-02 0.  1.
         -2   -1    0    0    0  501 -0.00000000000E+00 -0.00000000000E+00 -0.31271839774E+03  0.31271839775E+03  0.25500000000E-02 0. -1.
   -5000001    1    1    2    0    0 -0.20244686443E+03 -0.11265458826E+03  0.28462477176E+03  0.44405748487E+03  0.25000000000E+03 0.  0.
    5000001    1    1    2    0    0  0.20244686443E+03  0.11265458826E+03 -0.10835099890E+03  0.35765308349E+03  0.25000000000E+03 0.  0.
<mgrwt>
<rscale>  0 0.78209168E+03</rscale>
<asrwt>0</asrwt>
<pdfrwt beam="1">  1        2 0.75229564E-01 0.78209168E+03</pdfrwt>
<pdfrwt beam="2">  1       -2 0.48110523E-01 0.78209168E+03</pdfrwt>
<totfact> 0.26057333E+02</totfact>
</mgrwt>
</event>
<event>
 4    1  0.1804641E-005  0.9790798E+03  0.7818608E-02  0.9331792E-01
         -2   -1    0    0    0  501 -0.00000000000E+00  0.00000000000E+00  0.43419351519E+03  0.43419351519E+03  0.25500000000E-02 0. -1.
          2   -1    0    0  501    0  0.00000000000E+00 -0.00000000000E+00 -0.55194127619E+03  0.55194127619E+03  0.25500000000E-02 0.  1.
   -5000001    1    1    2    0    0  0.18834177526E+02  0.41964281742E+03 -0.85417189943E+02  0.49623675477E+03  0.25000000000E+03 0.  0.
    5000001    1    1    2    0    0 -0.18834177526E+02 -0.41964281742E+03 -0.32330571057E+02  0.48989803661E+03  0.25000000000E+03 0.  0.
<mgrwt>
<rscale>  0 0.97907982E+03</rscale>
<asrwt>0</asrwt>
<pdfrwt beam="1">  1        2 0.84914043E-01 0.97907982E+03</pdfrwt>
<pdfrwt beam="2">  1       -2 0.66799002E-01 0.97907982E+03</pdfrwt>
<totfact> 0.11286068E+02</totfact>
</mgrwt>
</event>
<event>
 4    1  0.1804641E-005  0.6190074E+03  0.7818608E-02  0.9866738E-01
         -2   -1    0    0    0  501 -0.00000000000E+00  0.00000000000E+00  0.69953372893E+03  0.69953372894E+03  0.25500000000E-02 0. -1.
          2   -1    0    0  501    0  0.00000000000E+00 -0.00000000000E+00 -0.13693768264E+03  0.13693768266E+03  0.25500000000E-02 0.  1.
   -5000001    1    1    2    0    0 -0.17461446972E+03 -0.50356763561E+02  0.25923764542E+03  0.40339828145E+03  0.25000000000E+03 0.  0.
    5000001    1    1    2    0    0  0.17461446972E+03  0.50356763561E+02  0.30335840087E+03  0.43307313014E+03  0.25000000000E+03 0.  0.
<mgrwt>
<rscale>  0 0.61900736E+03</rscale>
<asrwt>0</asrwt>
<pdfrwt beam="1">  1        2 0.21067335E-01 0.61900736E+03</pdfrwt>
<pdfrwt beam="2">  1       -2 0.10762058E+00 0.61900736E+03</pdfrwt>
<totfact> 0.18747060E+02</totfact>
</mgrwt>
</event>
<event>
 4    1  0.1804641E-005  0.6220455E+03  0.7818608E-02  0.9860695E-01
         -2   -1    0    0    0  501 -0.00000000000E+00  0.00000000000E+00  0.55937585225E+02  0.55937585283E+02  0.25500000000E-02 0. -1.
          2   -1    0    0  501    0  0.00000000000E+00 -0.00000000000E+00 -0.17293410354E+04  0.17293410354E+04  0.25500000000E-02 0.  1.
   -5000001    1    1    2    0    0 -0.55822693584E+02 -0.17536564188E+03 -0.89159931045E+03  0.94409671743E+03  0.25000000000E+03 0.  0.
    5000001    1    1    2    0    0  0.55822693584E+02  0.17536564188E+03 -0.78180413972E+03  0.84118190324E+03  0.25000000000E+03 0.  0.
<mgrwt>
<rscale>  0 0.62204553E+03</rscale>
<asrwt>0</asrwt>
<pdfrwt beam="1">  1        2 0.26605243E+00 0.62204553E+03</pdfrwt>
<pdfrwt beam="2">  1       -2 0.86057837E-02 0.62204553E+03</pdfrwt>
<totfact> 0.84653392E+02</totfact>
</mgrwt>
</event>
<event>
 4    1  0.1804641E-005  0.1356400E+04  0.7818608E-02  0.8985998E-01
         -2   -1    0    0    0  501 -0.00000000000E+00  0.00000000000E+00  0.14737315580E+04  0.14737315580E+04  0.25500000000E-02 0. -1.
          2   -1    0    0  501    0  0.00000000000E+00 -0.00000000000E+00 -0.31210234632E+03  0.31210234634E+03  0.25500000000E-02 0.  1.
   -5000001    1    1    2    0    0 -0.48519583242E+03  0.40131604750E+03  0.53948281981E+03  0.86603191549E+03  0.25000000000E+03 0.  0.
    5000001    1    1    2    0    0  0.48519583242E+03 -0.40131604750E+03  0.62214639186E+03  0.91980198884E+03  0.25000000000E+03 0.  0.
<mgrwt>
<rscale>  0 0.13563998E+04</rscale>
<asrwt>0</asrwt>
<pdfrwt beam="1">  1        2 0.48015745E-01 0.13563998E+04</pdfrwt>
<pdfrwt beam="2">  1       -2 0.22672793E+00 0.13563998E+04</pdfrwt>
<totfact> 0.91934833E+00</totfact>
</mgrwt>
</event>
<event>
 4    1  0.1804641E-005  0.6726722E+03  0.7818608E-02  0.9765143E-01
          2   -1    0    0  501    0  0.00000000000E+00  0.00000000000E+00  0.28856716668E+04  0.28856716668E+04  0.25500000000E-02 0.  1.
         -2   -1    0    0    0  501 -0.00000000000E+00 -0.00000000000E+00 -0.39201258055E+02  0.39201258138E+02  0.25500000000E-02 0. -1.
   -5000001    1    1    2    0    0 -0.29205353687E+02 -0.21828494926E+03  0.16234711023E+04  0.16573049484E+04  0.25000000000E+03 0.  0.
    5000001    1    1    2    0    0  0.29205353687E+02  0.21828494926E+03  0.12229993064E+04  0.12675679766E+04  0.25000000000E+03 0.  0.
<mgrwt>
<rscale>  0 0.67267216E+03</rscale>
<asrwt>0</asrwt>
<pdfrwt beam="1">  1        2 0.44394952E+00 0.67267216E+03</pdfrwt>
<pdfrwt beam="2">  1       -2 0.60309623E-02 0.67267216E+03</pdfrwt>
<totfact> 0.33461831E+02</totfact>
</mgrwt>
</event>
<event>
 4    1  0.1804641E-005  0.1227434E+04  0.7818608E-02  0.9089177E-01
         -2   -1    0    0    0  501 -0.00000000000E+00  0.00000000000E+00  0.44490801388E+03  0.44490801388E+03  0.25500000000E-02 0. -1.
          2   -1    0    0  501    0  0.00000000000E+00 -0.00000000000E+00 -0.84657623876E+03  0.84657623876E+03  0.25500000000E-02 0.  1.
   -5000001    1    1    2    0    0  0.43775968823E+02 -0.54303388002E+03 -0.33941263607E+03  0.68884183077E+03  0.25000000000E+03 0.  0.
    5000001    1    1    2    0    0 -0.43775968823E+02  0.54303388002E+03 -0.62255588808E+02  0.60264242187E+03  0.25000000000E+03 0.  0.
<mgrwt>
<rscale>  0 0.12274340E+04</rscale>
<asrwt>0</asrwt>
<pdfrwt beam="1">  1        2 0.13024250E+00 0.12274340E+04</pdfrwt>
<pdfrwt beam="2">  1       -2 0.68447387E-01 0.12274340E+04</pdfrwt>
<totfact> 0.61388502E+01</totfact>
</mgrwt>
</event>
<event>
 4    1  0.1804641E-005  0.1090923E+04  0.7818608E-02  0.9214085E-01
          2   -1    0    0  501    0  0.00000000000E+00  0.00000000000E+00  0.95853418003E+03  0.95853418004E+03  0.25500000000E-02 0.  1.
         -2   -1    0    0    0  501 -0.00000000000E+00 -0.00000000000E+00 -0.31039895394E+03  0.31039895395E+03  0.25500000000E-02 0. -1.
   -5000001    1    1    2    0    0 -0.58901255617E+02  0.42893527700E+03  0.57777078283E+03  0.76405098473E+03  0.25000000000E+03 0.  0.
    5000001    1    1    2    0    0  0.58901255617E+02 -0.42893527700E+03  0.70364443256E+02  0.50488214926E+03  0.25000000000E+03 0.  0.
<mgrwt>
<rscale>  0 0.10909226E+04</rscale>
<asrwt>0</asrwt>
<pdfrwt beam="1">  1        2 0.14746680E+00 0.10909226E+04</pdfrwt>
<pdfrwt beam="2">  1       -2 0.47753686E-01 0.10909226E+04</pdfrwt>
<totfact> 0.11059657E+02</totfact>
</mgrwt>
</event>
<event>
 4    1  0.1804641E-005  0.1400859E+04  0.7818608E-02  0.8953197E-01
         -2   -1    0    0    0  501 -0.00000000000E+00  0.00000000000E+00  0.53304425778E+03  0.53304425778E+03  0.25500000000E-02 0. -1.
          2   -1    0    0  501    0  0.00000000000E+00 -0.00000000000E+00 -0.92037713198E+03  0.92037713199E+03  0.25500000000E-02 0.  1.
   -5000001    1    1    2    0    0  0.62201279705E+03  0.20280519174E+03 -0.20246273955E+03  0.72905488573E+03  0.25000000000E+03 0.  0.
    5000001    1    1    2    0    0 -0.62201279705E+03 -0.20280519174E+03 -0.18487013466E+03  0.72436650405E+03  0.25000000000E+03 0.  0.
<mgrwt>
<rscale>  0 0.14008594E+04</rscale>
<asrwt>0</asrwt>
<pdfrwt beam="1">  1        2 0.14159648E+00 0.14008594E+04</pdfrwt>
<pdfrwt beam="2">  1       -2 0.82006809E-01 0.14008594E+04</pdfrwt>
<totfact> 0.36151613E+01</totfact>
</mgrwt>
</event>
<event>
 4    1  0.1804641E-005  0.6970573E+03  0.7818608E-02  0.9722278E-01
         -2   -1    0    0    0  501 -0.00000000000E+00  0.00000000000E+00  0.72786387438E+02  0.72786387483E+02  0.25500000000E-02 0. -1.
          2   -1    0    0  501    0  0.00000000000E+00 -0.00000000000E+00 -0.16688865061E+04  0.16688865061E+04  0.25500000000E-02 0.  1.
   -5000001    1    1    2    0    0  0.16516250258E+03  0.17792073949E+03 -0.78269264968E+03  0.85676264254E+03  0.25000000000E+03 0.  0.
    5000001    1    1    2    0    0 -0.16516250258E+03 -0.17792073949E+03 -0.81340746899E+03  0.88491025105E+03  0.25000000000E+03 0.  0.
<mgrwt>
<rscale>  0 0.69705730E+03</rscale>
<asrwt>0</asrwt>
<pdfrwt beam="1">  1        2 0.25675174E+00 0.69705730E+03</pdfrwt>
<pdfrwt beam="2">  1       -2 0.11197907E-01 0.69705730E+03</pdfrwt>
<totfact> 0.59316286E+02</totfact>
</mgrwt>
</event>
<event>
 4    1  0.1804641E-005  0.7226872E+03  0.7818608E-02  0.9679202E-01
          2   -1    0    0  501    0  0.00000000000E+00  0.00000000000E+00  0.19210968666E+03  0.19210968668E+03  0.25500000000E-02 0.  1.
         -2   -1    0    0    0  501 -0.00000000000E+00 -0.00000000000E+00 -0.67965968560E+03  0.67965968561E+03  0.25500000000E-02 0. -1.
   -5000001    1    1    2    0    0  0.73584262948E+02 -0.22207287001E+03 -0.10445934067E+03  0.35797033005E+03  0.25000000000E+03 0.  0.
    5000001    1    1    2    0    0 -0.73584262948E+02  0.22207287001E+03 -0.38309065827E+03  0.51379904224E+03  0.25000000000E+03 0.  0.
<mgrwt>
<rscale>  0 0.72268723E+03</rscale>
<asrwt>0</asrwt>
<pdfrwt beam="1">  1        2 0.29555337E-01 0.72268723E+03</pdfrwt>
<pdfrwt beam="2">  1       -2 0.10456303E+00 0.72268723E+03</pdfrwt>
<totfact> 0.13571628E+02</totfact>
</mgrwt>
</event>
<event>
 4    1  0.1804641E-005  0.5662987E+03  0.7818608E-02  0.9977903E-01
          2   -1    0    0  501    0  0.00000000000E+00  0.00000000000E+00  0.22195641565E+04  0.22195641565E+04  0.25500000000E-02 0.  1.
         -2   -1    0    0    0  501 -0.00000000000E+00 -0.00000000000E+00 -0.36121303595E+02  0.36121303685E+02  0.25500000000E-02 0. -1.
   -5000001    1    1    2    0    0 -0.11283467655E+03  0.56793240919E+02  0.12567442676E+04  0.12875804016E+04  0.25000000000E+03 0.  0.
    5000001    1    1    2    0    0  0.11283467655E+03 -0.56793240919E+02  0.92669858525E+03  0.96810505853E+03  0.25000000000E+03 0.  0.
<mgrwt>
<rscale>  0 0.56629869E+03</rscale>
<asrwt>0</asrwt>
<pdfrwt beam="1">  1        2 0.34147155E+00 0.56629869E+03</pdfrwt>
<pdfrwt beam="2">  1       -2 0.55571213E-02 0.56629869E+03</pdfrwt>
<totfact> 0.91907919E+02</totfact>
</mgrwt>
</event>
<event>
 4    1  0.1804641E-005  0.6129355E+03  0.7818608E-02  0.9878927E-01
          2   -1    0    0  501    0  0.00000000000E+00  0.00000000000E+00  0.22714436632E+04  0.22714436632E+04  0.25500000000E-02 0.  1.
         -2   -1    0    0    0  501 -0.00000000000E+00 -0.00000000000E+00 -0.41349245714E+02  0.41349245792E+02  0.25500000000E-02 0. -1.
   -5000001    1    1    2    0    0  0.15212398979E+03 -0.89826280687E+02  0.10601053306E+04  0.11034191321E+04  0.25000000000E+03 0.  0.
    5000001    1    1    2    0    0 -0.15212398979E+03  0.89826280687E+02  0.11699890869E+04  0.12093737770E+04  0.25000000000E+03 0.  0.
<mgrwt>
<rscale>  0 0.61293550E+03</rscale>
<asrwt>0</asrwt>
<pdfrwt beam="1">  1        2 0.34945292E+00 0.61293550E+03</pdfrwt>
<pdfrwt beam="2">  1       -2 0.63614216E-02 0.61293550E+03</pdfrwt>
<totfact> 0.69413151E+02</totfact>
</mgrwt>
</event>
<event>
 4    1  0.1804641E-005  0.7002257E+03  0.7818608E-02  0.9716846E-01
          2   -1    0    0  501    0  0.00000000000E+00  0.00000000000E+00  0.12130521624E+04  0.12130521624E+04  0.25500000000E-02 0.  1.
         -2   -1    0    0    0  501 -0.00000000000E+00 -0.00000000000E+00 -0.10105008282E+03  0.10105008285E+03  0.25500000000E-02 0. -1.
   -5000001    1    1    2    0    0  0.12400368994E+02  0.15467408640E+03  0.19991950725E+03  0.35573255619E+03  0.25000000000E+03 0.  0.
    5000001    1    1    2    0    0 -0.12400368994E+02 -0.15467408640E+03  0.91208257235E+03  0.95836968908E+03  0.25000000000E+03 0.  0.
<mgrwt>
<rscale>  0 0.70022574E+03</rscale>
<asrwt>0</asrwt>
<pdfrwt beam="1">  1        2 0.18662340E+00 0.70022574E+03</pdfrwt>
<pdfrwt beam="2">  1       -2 0.15546168E-01 0.70022574E+03</pdfrwt>
<totfact> 0.61932735E+02</totfact>
</mgrwt>
</event>
<event>
 4    1  0.1804641E-005  0.2641001E+04  0.7818608E-02  0.8354406E-01
          2   -1    0    0  501    0  0.00000000000E+00  0.00000000000E+00  0.29169727773E+04  0.29169727773E+04  0.25500000000E-02 0.  1.
         -2   -1    0    0    0  501 -0.00000000000E+00 -0.00000000000E+00 -0.59778477112E+03  0.59778477113E+03  0.25500000000E-02 0. -1.
   -5000001    1    1    2    0    0  0.12547435530E+03 -0.87616942567E+03 -0.10141396283E+03  0.92531155195E+03  0.25000000000E+03 0.  0.
    5000001    1    1    2    0    0 -0.12547435530E+03  0.87616942567E+03  0.24206019691E+04  0.25894459965E+04  0.25000000000E+03 0.  0.
<mgrwt>
<rscale>  0 0.26410013E+04</rscale>
<asrwt>0</asrwt>
<pdfrwt beam="1">  1        2 0.44876505E+00 0.26410013E+04</pdfrwt>
<pdfrwt beam="2">  1       -2 0.91966887E-01 0.26410013E+04</pdfrwt>
<totfact> 0.17375708E+00</totfact>
</mgrwt>
</event>
<event>
 4    1  0.1804641E-005  0.8294611E+03  0.7818608E-02  0.9518326E-01
          2   -1    0    0  501    0  0.00000000000E+00  0.00000000000E+00  0.12110747449E+03  0.12110747452E+03  0.25500000000E-02 0.  1.
         -2   -1    0    0    0  501 -0.00000000000E+00 -0.00000000000E+00 -0.14202378073E+04  0.14202378073E+04  0.25500000000E-02 0. -1.
   -5000001    1    1    2    0    0  0.24841091073E+03  0.16742481113E+03 -0.38833495424E+03  0.55049349191E+03  0.25000000000E+03 0.  0.
    5000001    1    1    2    0    0 -0.24841091073E+03 -0.16742481113E+03 -0.91079537854E+03  0.99085178989E+03  0.25000000000E+03 0.  0.
<mgrwt>
<rscale>  0 0.82946106E+03</rscale>
<asrwt>0</asrwt>
<pdfrwt beam="1">  1        2 0.18631920E-01 0.82946106E+03</pdfrwt>
<pdfrwt beam="2">  1       -2 0.21849811E+00 0.82946106E+03</pdfrwt>
<totfact> 0.31679049E+01</totfact>
</mgrwt>
</event>
<event>
 4    1  0.1804641E-005  0.1309193E+04  0.7818608E-02  0.9022306E-01
         -2   -1    0    0    0  501 -0.00000000000E+00  0.00000000000E+00  0.36972930641E+03  0.36972930642E+03  0.25500000000E-02 0. -1.
          2   -1    0    0  501    0  0.00000000000E+00 -0.00000000000E+00 -0.11589472846E+04  0.11589472846E+04  0.25500000000E-02 0.  1.
   -5000001    1    1    2    0    0  0.12257824035E+03  0.56938475083E+03 -0.58566255056E+03  0.86297453185E+03  0.25000000000E+03 0.  0.
    5000001    1    1    2    0    0 -0.12257824035E+03 -0.56938475083E+03 -0.20355542762E+03  0.66570205918E+03  0.25000000000E+03 0.  0.
<mgrwt>
<rscale>  0 0.13091933E+04</rscale>
<asrwt>0</asrwt>
<pdfrwt beam="1">  1        2 0.17829958E+00 0.13091933E+04</pdfrwt>
<pdfrwt beam="2">  1       -2 0.56881432E-01 0.13091933E+04</pdfrwt>
<totfact> 0.56915804E+01</totfact>
</mgrwt>
</event>
<event>
 4    1  0.1804641E-005  0.6312060E+03  0.7818608E-02  0.9842698E-01
          2   -1    0    0  501    0  0.00000000000E+00  0.00000000000E+00  0.55045315880E+03  0.55045315880E+03  0.25500000000E-02 0.  1.
         -2   -1    0    0    0  501 -0.00000000000E+00 -0.00000000000E+00 -0.18095137346E+03  0.18095137348E+03  0.25500000000E-02 0. -1.
   -5000001    1    1    2    0    0  0.84545891860E+02  0.17027379458E+03  0.14877235149E+03  0.34752609329E+03  0.25000000000E+03 0.  0.
    5000001    1    1    2    0    0 -0.84545891860E+02 -0.17027379458E+03  0.22072943385E+03  0.38387843899E+03  0.25000000000E+03 0.  0.
<mgrwt>
<rscale>  0 0.63120600E+03</rscale>
<asrwt>0</asrwt>
<pdfrwt beam="1">  1        2 0.84685101E-01 0.63120600E+03</pdfrwt>
<pdfrwt beam="2">  1       -2 0.27838673E-01 0.63120600E+03</pdfrwt>
<totfact> 0.65140633E+02</totfact>
</mgrwt>
</event>
<event>
 4    1  0.1804641E-005  0.6219767E+03  0.7818608E-02  0.9860832E-01
         -2   -1    0    0    0  501 -0.00000000000E+00  0.00000000000E+00  0.12749786239E+04  0.12749786239E+04  0.25500000000E-02 0. -1.
          2   -1    0    0  501    0  0.00000000000E+00 -0.00000000000E+00 -0.75855200696E+02  0.75855200739E+02  0.25500000000E-02 0.  1.
   -5000001    1    1    2    0    0 -0.15520116650E+03 -0.70487681391E+02  0.44358422972E+03  0.53695705989E+03  0.25000000000E+03 0.  0.
    5000001    1    1    2    0    0  0.15520116650E+03  0.70487681391E+02  0.75553919349E+03  0.81387676476E+03  0.25000000000E+03 0.  0.
<mgrwt>
<rscale>  0 0.62197672E+03</rscale>
<asrwt>0</asrwt>
<pdfrwt beam="1">  1        2 0.11670031E-01 0.62197672E+03</pdfrwt>
<pdfrwt beam="2">  1       -2 0.19615055E+00 0.62197672E+03</pdfrwt>
<totfact> 0.78941749E+01</totfact>
</mgrwt>
</event>
<event>
 4    1  0.1804641E-005  0.7265778E+03  0.7818608E-02  0.9672830E-01
         -2   -1    0    0    0  501 -0.00000000000E+00  0.00000000000E+00  0.41915862979E+03  0.41915862980E+03  0.25500000000E-02 0. -1.
          2   -1    0    0  501    0  0.00000000000E+00 -0.00000000000E+00 -0.31486606761E+03  0.31486606762E+03  0.25500000000E-02 0.  1.
   -5000001    1    1    2    0    0  0.19130292089E+03  0.17340670377E+03  0.10571938138E+03  0.37462418509E+03  0.25000000000E+03 0.  0.
    5000001    1    1    2    0    0 -0.19130292089E+03 -0.17340670377E+03 -0.14268192065E+01  0.35940051233E+03  0.25000000000E+03 0.  0.
<mgrwt>
<rscale>  0 0.72657781E+03</rscale>
<asrwt>0</asrwt>
<pdfrwt beam="1">  1        2 0.48440933E-01 0.72657781E+03</pdfrwt>
<pdfrwt beam="2">  1       -2 0.64485943E-01 0.72657781E+03</pdfrwt>
<totfact> 0.23318676E+02</totfact>
</mgrwt>
</event>
<event>
 4    1  0.1804641E-005  0.1003140E+04  0.7818608E-02  0.9305108E-01
         -2   -1    0    0    0  501 -0.00000000000E+00  0.00000000000E+00  0.19758354787E+03  0.19758354789E+03  0.25500000000E-02 0.  1.
          2   -1    0    0  501    0  0.00000000000E+00 -0.00000000000E+00 -0.12732457552E+04  0.12732457552E+04  0.25500000000E-02 0. -1.
   -5000001    1    1    2    0    0  0.62775848131E+02 -0.35332493877E+03 -0.89785767603E+03  0.99871303479E+03  0.25000000000E+03 0.  0.
    5000001    1    1    2    0    0 -0.62775848131E+02  0.35332493877E+03 -0.17780453134E+03  0.47211626834E+03  0.25000000000E+03 0.  0.
<mgrwt>
<rscale>  0 0.10031399E+04</rscale>
<asrwt>0</asrwt>
<pdfrwt beam="1">  1        2 0.19588396E+00 0.10031399E+04</pdfrwt>
<pdfrwt beam="2">  1       -2 0.30397470E-01 0.10031399E+04</pdfrwt>
<totfact> 0.17093101E+02</totfact>
</mgrwt>
</event>
<event>
 4    1  0.1804641E-005  0.5927715E+03  0.7818608E-02  0.9920517E-01
         -2   -1    0    0    0  501 -0.00000000000E+00  0.00000000000E+00  0.10113398072E+03  0.10113398075E+03  0.25500000000E-02 0. -1.
          2   -1    0    0  501    0  0.00000000000E+00 -0.00000000000E+00 -0.86859537438E+03  0.86859537438E+03  0.25500000000E-02 0.  1.
   -5000001    1    1    2    0    0  0.12999930897E+03  0.49020179896E+02 -0.51088854187E+03  0.58549970161E+03  0.25000000000E+03 0.  0.
    5000001    1    1    2    0    0 -0.12999930897E+03 -0.49020179896E+02 -0.25657285179E+03  0.38422965352E+03  0.25000000000E+03 0.  0.
<mgrwt>
<rscale>  0 0.59277148E+03</rscale>
<asrwt>0</asrwt>
<pdfrwt beam="1">  1        2 0.13363005E+00 0.59277148E+03</pdfrwt>
<pdfrwt beam="2">  1       -2 0.15559075E-01 0.59277148E+03</pdfrwt>
<totfact> 0.10205554E+03</totfact>
</mgrwt>
</event>
<event>
 4    1  0.1804641E-005  0.1169388E+04  0.7818608E-02  0.9140081E-01
          2   -1    0    0  501    0  0.00000000000E+00  0.00000000000E+00  0.72996229416E+03  0.72996229416E+03  0.25500000000E-02 0.  1.
         -2   -1    0    0    0  501 -0.00000000000E+00 -0.00000000000E+00 -0.46833539455E+03  0.46833539455E+03  0.25500000000E-02 0. -1.
   -5000001    1    1    2    0    0  0.50546064162E+03  0.15242742571E+03  0.10483723027E+03  0.59347740074E+03  0.25000000000E+03 0.  0.
    5000001    1    1    2    0    0 -0.50546064162E+03 -0.15242742571E+03  0.15678966935E+03  0.60482028798E+03  0.25000000000E+03 0.  0.
<mgrwt>
<rscale>  0 0.11693882E+04</rscale>
<asrwt>0</asrwt>
<pdfrwt beam="1">  1        2 0.11230189E+00 0.11693882E+04</pdfrwt>
<pdfrwt beam="2">  1       -2 0.72051599E-01 0.11693882E+04</pdfrwt>
<totfact> 0.67029191E+01</totfact>
</mgrwt>
</event>
<event>
 4    1  0.1804641E-005  0.1243245E+04  0.7818608E-02  0.9075824E-01
         -2   -1    0    0    0  501 -0.00000000000E+00  0.00000000000E+00  0.72714560121E+03  0.72714560121E+03  0.25500000000E-02 0. -1.
          2   -1    0    0  501    0  0.00000000000E+00 -0.00000000000E+00 -0.53141312450E+03  0.53141312450E+03  0.25500000000E-02 0.  1.
   -5000001    1    1    2    0    0 -0.49942637145E+03 -0.13853346625E+03  0.33591474390E+03  0.66630093572E+03  0.25000000000E+03 0.  0.
    5000001    1    1    2    0    0  0.49942637145E+03  0.13853346625E+03 -0.14018226719E+03  0.59225778999E+03  0.25000000000E+03 0.  0.
<mgrwt>
<rscale>  0 0.12432453E+04</rscale>
<asrwt>0</asrwt>
<pdfrwt beam="1">  1        2 0.81755866E-01 0.12432453E+04</pdfrwt>
<pdfrwt beam="2">  1       -2 0.11186855E+00 0.12432453E+04</pdfrwt>
<totfact> 0.35579424E+01</totfact>
</mgrwt>
</event>
<event>
 4    1  0.1804641E-005  0.1194632E+04  0.7818608E-02  0.9117568E-01
          2   -1    0    0  501    0  0.00000000000E+00  0.00000000000E+00  0.11239257967E+04  0.11239257967E+04  0.25500000000E-02 0.  1.
         -2   -1    0    0    0  501 -0.00000000000E+00 -0.00000000000E+00 -0.31744668164E+03  0.31744668165E+03  0.25500000000E-02 0. -1.
   -5000001    1    1    2    0    0  0.52586705522E+03  0.95732056046E+01  0.24290708731E+03  0.63097675004E+03  0.25000000000E+03 0.  0.
    5000001    1    1    2    0    0 -0.52586705522E+03 -0.95732056046E+01  0.56357202779E+03  0.81039572836E+03  0.25000000000E+03 0.  0.
<mgrwt>
<rscale>  0 0.11946322E+04</rscale>
<asrwt>0</asrwt>
<pdfrwt beam="1">  1        2 0.17291166E+00 0.11946322E+04</pdfrwt>
<pdfrwt beam="2">  1       -2 0.48837952E-01 0.11946322E+04</pdfrwt>
<totfact> 0.82505467E+01</totfact>
</mgrwt>
</event>
<event>
 4    1  0.1804641E-005  0.6507226E+03  0.7818608E-02  0.9805424E-01
         -2   -1    0    0    0  501 -0.00000000000E+00  0.00000000000E+00  0.17235755327E+04  0.17235755327E+04  0.25500000000E-02 0. -1.
          2   -1    0    0  501    0  0.00000000000E+00 -0.00000000000E+00 -0.61418823577E+02  0.61418823630E+02  0.25500000000E-02 0.  1.
   -5000001    1    1    2    0    0 -0.10439085008E+03  0.17124084223E+03  0.98476776133E+03  0.10356101677E+04  0.25000000000E+03 0.  0.
    5000001    1    1    2    0    0  0.10439085008E+03 -0.17124084223E+03  0.67738894783E+03  0.74938418870E+03  0.25000000000E+03 0.  0.
<mgrwt>
<rscale>  0 0.65072262E+03</rscale>
<asrwt>0</asrwt>
<pdfrwt beam="1">  1        2 0.94490500E-02 0.65072262E+03</pdfrwt>
<pdfrwt beam="2">  1       -2 0.26516546E+00 0.65072262E+03</pdfrwt>
<totfact> 0.38559172E+01</totfact>
</mgrwt>
</event>
<event>
 4    1  0.1804641E-005  0.7858501E+03  0.7818608E-02  0.9580727E-01
         -2   -1    0    0    0  501 -0.00000000000E+00  0.00000000000E+00  0.14033808353E+03  0.14033808356E+03  0.25500000000E-02 0. -1.
          2   -1    0    0  501    0  0.00000000000E+00 -0.00000000000E+00 -0.11001297491E+04  0.11001297491E+04  0.25500000000E-02 0.  1.
   -5000001    1    1    2    0    0 -0.18199613901E+03  0.23975552520E+03 -0.53647578334E+03  0.66401172624E+03  0.25000000000E+03 0.  0.
    5000001    1    1    2    0    0  0.18199613901E+03 -0.23975552520E+03 -0.42331588223E+03  0.57645610642E+03  0.25000000000E+03 0.  0.
<mgrwt>
<rscale>  0 0.78585011E+03</rscale>
<asrwt>0</asrwt>
<pdfrwt beam="1">  1        2 0.16925073E+00 0.78585011E+03</pdfrwt>
<pdfrwt beam="2">  1       -2 0.21590475E-01 0.78585011E+03</pdfrwt>
<totfact> 0.40840065E+02</totfact>
</mgrwt>
</event>
<event>
 4    1  0.1804641E-005  0.5614472E+03  0.7818608E-02  0.9988785E-01
         -2   -1    0    0    0  501 -0.00000000000E+00  0.00000000000E+00  0.20148010347E+03  0.20148010348E+03  0.25500000000E-02 0. -1.
          2   -1    0    0  501    0  0.00000000000E+00 -0.00000000000E+00 -0.39113409118E+03  0.39113409119E+03  0.25500000000E-02 0.  1.
   -5000001    1    1    2    0    0 -0.44190257915E+02  0.94246148917E+01 -0.22088947627E+03  0.33665080275E+03  0.25000000000E+03 0.  0.
    5000001    1    1    2    0    0  0.44190257915E+02 -0.94246148917E+01  0.31235488564E+02  0.25596339193E+03  0.25000000000E+03 0.  0.
<mgrwt>
<rscale>  0 0.56144719E+03</rscale>
<asrwt>0</asrwt>
<pdfrwt beam="1">  1        2 0.60174475E-01 0.56144719E+03</pdfrwt>
<pdfrwt beam="2">  1       -2 0.30996939E-01 0.56144719E+03</pdfrwt>
<totfact> 0.79010555E+02</totfact>
</mgrwt>
</event>
<event>
 4    1  0.1804641E-005  0.7872036E+03  0.7818608E-02  0.9578726E-01
          2   -1    0    0  501    0  0.00000000000E+00  0.00000000000E+00  0.11286027869E+03  0.11286027872E+03  0.25500000000E-02 0.  1.
         -2   -1    0    0    0  501 -0.00000000000E+00 -0.00000000000E+00 -0.13726919224E+04  0.13726919224E+04  0.25500000000E-02 0. -1.
   -5000001    1    1    2    0    0 -0.13211085474E+03  0.27247866336E+03 -0.57912117761E+03  0.69969939137E+03  0.25000000000E+03 0.  0.
    5000001    1    1    2    0    0  0.13211085474E+03 -0.27247866336E+03 -0.68071046605E+03  0.78585280970E+03  0.25000000000E+03 0.  0.
<mgrwt>
<rscale>  0 0.78720364E+03</rscale>
<asrwt>0</asrwt>
<pdfrwt beam="1">  1        2 0.17363121E-01 0.78720364E+03</pdfrwt>
<pdfrwt beam="2">  1       -2 0.21118336E+00 0.78720364E+03</pdfrwt>
<totfact> 0.38444315E+01</totfact>
</mgrwt>
</event>
<event>
 4    1  0.1804641E-005  0.1027279E+04  0.7818608E-02  0.9279121E-01
          2   -1    0    0  501    0  0.00000000000E+00  0.00000000000E+00  0.14182416283E+04  0.14182416283E+04  0.25500000000E-02 0.  1.
         -2   -1    0    0    0  501 -0.00000000000E+00 -0.00000000000E+00 -0.18602304270E+03  0.18602304271E+03  0.25500000000E-02 0. -1.
   -5000001    1    1    2    0    0 -0.30715240562E+03 -0.29521096164E+03  0.83604074232E+03  0.97105933648E+03  0.25000000000E+03 0.  0.
    5000001    1    1    2    0    0  0.30715240562E+03  0.29521096164E+03  0.39617784325E+03  0.63320533449E+03  0.25000000000E+03 0.  0.
<mgrwt>
<rscale>  0 0.10272792E+04</rscale>
<asrwt>0</asrwt>
<pdfrwt beam="1">  1        2 0.21819102E+00 0.10272792E+04</pdfrwt>
<pdfrwt beam="2">  1       -2 0.28618930E-01 0.10272792E+04</pdfrwt>
<totfact> 0.15748965E+02</totfact>
</mgrwt>
</event>
<event>
 4    1  0.1804641E-005  0.1267196E+04  0.7818608E-02  0.9055991E-01
         -2   -1    0    0    0  501 -0.00000000000E+00  0.00000000000E+00  0.15104472454E+03  0.15104472457E+03  0.25500000000E-02 0. -1.
          2   -1    0    0  501    0  0.00000000000E+00 -0.00000000000E+00 -0.26577979738E+04  0.26577979738E+04  0.25500000000E-02 0.  1.
   -5000001    1    1    2    0    0 -0.54059360841E+03  0.19472502383E+03 -0.14611576630E+04  0.15898556540E+04  0.25000000000E+03 0.  0.
    5000001    1    1    2    0    0  0.54059360841E+03 -0.19472502383E+03 -0.10455955862E+04  0.12189870443E+04  0.25000000000E+03 0.  0.
<mgrwt>
<rscale>  0 0.12671959E+04</rscale>
<asrwt>0</asrwt>
<pdfrwt beam="1">  1        2 0.40889196E+00 0.12671959E+04</pdfrwt>
<pdfrwt beam="2">  1       -2 0.23237652E-01 0.12671959E+04</pdfrwt>
<totfact> 0.45570177E+01</totfact>
</mgrwt>
</event>
<event>
 4    1  0.1804641E-005  0.8046969E+03  0.7818608E-02  0.9553243E-01
          2   -1    0    0  501    0  0.00000000000E+00  0.00000000000E+00  0.10007794454E+04  0.10007794454E+04  0.25500000000E-02 0.  1.
         -2   -1    0    0    0  501 -0.00000000000E+00 -0.00000000000E+00 -0.16175819655E+03  0.16175819657E+03  0.25500000000E-02 0. -1.
   -5000001    1    1    2    0    0  0.25249869621E+03 -0.75239675515E+02  0.16941779640E+03  0.40077299073E+03  0.25000000000E+03 0.  0.
    5000001    1    1    2    0    0 -0.25249869621E+03  0.75239675515E+02  0.66960345248E+03  0.76176465128E+03  0.25000000000E+03 0.  0.
<mgrwt>
<rscale>  0 0.80469691E+03</rscale>
<asrwt>0</asrwt>
<pdfrwt beam="1">  1        2 0.15396607E+00 0.80469691E+03</pdfrwt>
<pdfrwt beam="2">  1       -2 0.24885876E-01 0.80469691E+03</pdfrwt>
<totfact> 0.36528691E+02</totfact>
</mgrwt>
</event>
<event>
 4    1  0.1804641E-005  0.8691934E+03  0.7818608E-02  0.9464932E-01
          2   -1    0    0  501    0  0.00000000000E+00  0.00000000000E+00  0.27507514024E+03  0.27507514025E+03  0.25500000000E-02 0.  1.
         -2   -1    0    0    0  501 -0.00000000000E+00 -0.00000000000E+00 -0.68662806656E+03  0.68662806657E+03  0.25500000000E-02 0. -1.
   -5000001    1    1    2    0    0 -0.28982119737E+03 -0.20344338455E+03 -0.17098495454E+03  0.46596286530E+03  0.25000000000E+03 0.  0.
    5000001    1    1    2    0    0  0.28982119737E+03  0.20344338455E+03 -0.24056797178E+03  0.49574034152E+03  0.25000000000E+03 0.  0.
<mgrwt>
<rscale>  0 0.86919345E+03</rscale>
<asrwt>0</asrwt>
<pdfrwt beam="1">  1        2 0.42319253E-01 0.86919345E+03</pdfrwt>
<pdfrwt beam="2">  1       -2 0.10563509E+00 0.86919345E+03</pdfrwt>
<totfact> 0.88022992E+01</totfact>
</mgrwt>
</event>
<event>
 4    1  0.1804641E-005  0.6097090E+03  0.7818608E-02  0.9885465E-01
          2   -1    0    0  501    0  0.00000000000E+00  0.00000000000E+00  0.53131265143E+03  0.53131265144E+03  0.25500000000E-02 0.  1.
         -2   -1    0    0    0  501 -0.00000000000E+00 -0.00000000000E+00 -0.17491822295E+03  0.17491822297E+03  0.25500000000E-02 0. -1.
   -5000001    1    1    2    0    0 -0.86585371942E+02  0.13278436331E+03  0.93811061493E+02  0.31053056055E+03  0.25000000000E+03 0.  0.
    5000001    1    1    2    0    0  0.86585371942E+02 -0.13278436331E+03  0.26258336698E+03  0.39570031386E+03  0.25000000000E+03 0.  0.
<mgrwt>
<rscale>  0 0.60970900E+03</rscale>
<asrwt>0</asrwt>
<pdfrwt beam="1">  1        2 0.81740409E-01 0.60970900E+03</pdfrwt>
<pdfrwt beam="2">  1       -2 0.26910496E-01 0.60970900E+03</pdfrwt>
<totfact> 0.72259479E+02</totfact>
</mgrwt>
</event>
<event>
 4    1  0.1804641E-005  0.8094907E+03  0.7818608E-02  0.9546380E-01
         -2   -1    0    0    0  501 -0.00000000000E+00  0.00000000000E+00  0.30127284531E+03  0.30127284532E+03  0.25500000000E-02 0. -1.
          2   -1    0    0  501    0  0.00000000000E+00 -0.00000000000E+00 -0.54375562937E+03  0.54375562937E+03  0.25500000000E-02 0.  1.
   -5000001    1    1    2    0    0  0.20188469581E+03 -0.18005183922E+03 -0.29636408664E+03  0.47276608070E+03  0.25000000000E+03 0.  0.
    5000001    1    1    2    0    0 -0.20188469581E+03  0.18005183922E+03  0.53881302586E+02  0.37226239399E+03  0.25000000000E+03 0.  0.
<mgrwt>
<rscale>  0 0.80949072E+03</rscale>
<asrwt>0</asrwt>
<pdfrwt beam="1">  1        2 0.83654712E-01 0.80949072E+03</pdfrwt>
<pdfrwt beam="2">  1       -2 0.46349668E-01 0.80949072E+03</pdfrwt>
<totfact> 0.24785607E+02</totfact>
</mgrwt>
</event>
<event>
 4    1  0.1804641E-005  0.5984049E+03  0.7818608E-02  0.9908721E-01
         -2   -1    0    0    0  501 -0.00000000000E+00  0.00000000000E+00  0.14662642668E+03  0.14662642670E+03  0.25500000000E-02 0. -1.
          2   -1    0    0  501    0  0.00000000000E+00 -0.00000000000E+00 -0.61054555973E+03  0.61054555973E+03  0.25500000000E-02 0.  1.
   -5000001    1    1    2    0    0  0.52258988085E+02 -0.15584012661E+03 -0.23477950997E+03  0.38031377203E+03  0.25000000000E+03 0.  0.
    5000001    1    1    2    0    0 -0.52258988085E+02  0.15584012661E+03 -0.22913962308E+03  0.37685821440E+03  0.25000000000E+03 0.  0.
<mgrwt>
<rscale>  0 0.59840493E+03</rscale>
<asrwt>0</asrwt>
<pdfrwt beam="1">  1        2 0.93930085E-01 0.59840493E+03</pdfrwt>
<pdfrwt beam="2">  1       -2 0.22557912E-01 0.59840493E+03</pdfrwt>
<totfact> 0.84121712E+02</totfact>
</mgrwt>
</event>
<event>
 4    1  0.1804641E-005  0.1163096E+04  0.7818608E-02  0.9145787E-01
         -2   -1    0    0    0  501 -0.00000000000E+00  0.00000000000E+00  0.10444412721E+04  0.10444412721E+04  0.25500000000E-02 0.  1.
          2   -1    0    0  501    0  0.00000000000E+00 -0.00000000000E+00 -0.32380746035E+03  0.32380746036E+03  0.25500000000E-02 0. -1.
   -5000001    1    1    2    0    0 -0.12961509599E+03  0.46652882339E+03  0.12139578607E+03  0.55828859296E+03  0.25000000000E+03 0.  0.
    5000001    1    1    2    0    0  0.12961509599E+03 -0.46652882339E+03  0.59923802570E+03  0.80996013951E+03  0.25000000000E+03 0.  0.
<mgrwt>
<rscale>  0 0.11630957E+04</rscale>
<asrwt>0</asrwt>
<pdfrwt beam="1">  1        2 0.49816533E-01 0.11630957E+04</pdfrwt>
<pdfrwt beam="2">  1       -2 0.16068327E+00 0.11630957E+04</pdfrwt>
<totfact> 0.24797375E+01</totfact>
</mgrwt>
</event>
<event>
 4    1  0.1804641E-005  0.7700200E+03  0.7818608E-02  0.9604455E-01
         -2   -1    0    0    0  501 -0.00000000000E+00  0.00000000000E+00  0.16532777911E+03  0.16532777913E+03  0.25500000000E-02 0. -1.
          2   -1    0    0  501    0  0.00000000000E+00 -0.00000000000E+00 -0.89659886569E+03  0.89659886569E+03  0.25500000000E-02 0.  1.
   -5000001    1    1    2    0    0  0.17709276163E+03  0.23260331564E+03 -0.38815108039E+03  0.54646812339E+03  0.25000000000E+03 0.  0.
    5000001    1    1    2    0    0 -0.17709276163E+03 -0.23260331564E+03 -0.34312000619E+03  0.51545852143E+03  0.25000000000E+03 0.  0.
<mgrwt>
<rscale>  0 0.77002000E+03</rscale>
<asrwt>0</asrwt>
<pdfrwt beam="1">  1        2 0.13793828E+00 0.77002000E+03</pdfrwt>
<pdfrwt beam="2">  1       -2 0.25435043E-01 0.77002000E+03</pdfrwt>
<totfact> 0.41161317E+02</totfact>
</mgrwt>
</event>
<event>
 4    1  0.1804641E-005  0.9021222E+03  0.7818608E-02  0.9422932E-01
         -2   -1    0    0    0  501 -0.00000000000E+00  0.00000000000E+00  0.29557056082E+03  0.29557056083E+03  0.25500000000E-02 0. -1.
          2   -1    0    0  501    0  0.00000000000E+00 -0.00000000000E+00 -0.68835039958E+03  0.68835039959E+03  0.25500000000E-02 0.  1.
   -5000001    1    1    2    0    0 -0.34230763670E+03  0.15421242685E+03 -0.19677230374E+03  0.49211312750E+03  0.25000000000E+03 0.  0.
    5000001    1    1    2    0    0  0.34230763670E+03 -0.15421242685E+03 -0.19600753503E+03  0.49180783292E+03  0.25000000000E+03 0.  0.
<mgrwt>
<rscale>  0 0.90212219E+03</rscale>
<asrwt>0</asrwt>
<pdfrwt beam="1">  1        2 0.10590006E+00 0.90212219E+03</pdfrwt>
<pdfrwt beam="2">  1       -2 0.45472394E-01 0.90212219E+03</pdfrwt>
<totfact> 0.19248038E+02</totfact>
</mgrwt>
</event>
<event>
 4    1  0.1804641E-005  0.5938622E+03  0.7818608E-02  0.9918222E-01
          2   -1    0    0  501    0  0.00000000000E+00  0.00000000000E+00  0.33068319886E+04  0.33068319886E+04  0.25500000000E-02 0.  1.
         -2   -1    0    0    0  501 -0.00000000000E+00 -0.00000000000E+00 -0.26662402233E+02  0.26662402355E+02  0.25500000000E-02 0. -1.
   -5000001    1    1    2    0    0 -0.21060754048E+02 -0.12864112488E+03  0.21629305185E+04  0.21812291311E+04  0.25000000000E+03 0.  0.
    5000001    1    1    2    0    0  0.21060754048E+02  0.12864112488E+03  0.11172390679E+04  0.11522652599E+04  0.25000000000E+03 0.  0.
<mgrwt>
<rscale>  0 0.59386222E+03</rscale>
<asrwt>0</asrwt>
<pdfrwt beam="1">  1        2 0.50874350E+00 0.59386222E+03</pdfrwt>
<pdfrwt beam="2">  1       -2 0.41019071E-02 0.59386222E+03</pdfrwt>
<totfact> 0.33654468E+02</totfact>
</mgrwt>
</event>
<event>
 4    1  0.1804641E-005  0.5819208E+03  0.7818608E-02  0.9943641E-01
          2   -1    0    0  501    0  0.00000000000E+00  0.00000000000E+00  0.19869933690E+03  0.19869933692E+03  0.25500000000E-02 0.  1.
         -2   -1    0    0    0  501 -0.00000000000E+00 -0.00000000000E+00 -0.42606058506E+03  0.42606058507E+03  0.25500000000E-02 0. -1.
   -5000001    1    1    2    0    0 -0.47218222324E+00 -0.14668111466E+03 -0.86469503431E+02  0.30247735019E+03  0.25000000000E+03 0.  0.
    5000001    1    1    2    0    0  0.47218222324E+00  0.14668111466E+03 -0.14089174473E+03  0.32228257180E+03  0.25000000000E+03 0.  0.
<mgrwt>
<rscale>  0 0.58192080E+03</rscale>
<asrwt>0</asrwt>
<pdfrwt beam="1">  1        2 0.30569129E-01 0.58192080E+03</pdfrwt>
<pdfrwt beam="2">  1       -2 0.65547782E-01 0.58192080E+03</pdfrwt>
<totfact> 0.37726342E+02</totfact>
</mgrwt>
</event>
<event>
 4    1  0.1804641E-005  0.8539586E+03  0.7818608E-02  0.9485039E-01
         -2   -1    0    0    0  501 -0.00000000000E+00  0.00000000000E+00  0.39220075879E+03  0.39220075880E+03  0.25500000000E-02 0. -1.
          2   -1    0    0  501    0  0.00000000000E+00 -0.00000000000E+00 -0.46484182529E+03  0.46484182530E+03  0.25500000000E-02 0.  1.
   -5000001    1    1    2    0    0 -0.22603115189E+03  0.23369678657E+03  0.82881495637E+02  0.41841798718E+03  0.25000000000E+03 0.  0.
    5000001    1    1    2    0    0  0.22603115189E+03 -0.23369678657E+03 -0.15552256214E+03  0.43862459691E+03  0.25000000000E+03 0.  0.
<mgrwt>
<rscale>  0 0.85395859E+03</rscale>
<asrwt>0</asrwt>
<pdfrwt beam="1">  1        2 0.71514127E-01 0.85395859E+03</pdfrwt>
<pdfrwt beam="2">  1       -2 0.60338578E-01 0.85395859E+03</pdfrwt>
<totfact> 0.17247436E+02</totfact>
</mgrwt>
</event>
<event>
 4    1  0.1804641E-005  0.1692797E+04  0.7818608E-02  0.8765483E-01
         -2   -1    0    0    0  501 -0.00000000000E+00  0.00000000000E+00  0.18973235565E+03  0.18973235567E+03  0.25500000000E-02 0. -1.
          2   -1    0    0  501    0  0.00000000000E+00 -0.00000000000E+00 -0.37757959167E+04  0.37757959167E+04  0.25500000000E-02 0.  1.
   -5000001    1    1    2    0    0 -0.51938388139E+03  0.61019375170E+03 -0.20474440955E+04  0.22128315243E+04  0.25000000000E+03 0.  0.
    5000001    1    1    2    0    0  0.51938388139E+03 -0.61019375170E+03 -0.15386194656E+04  0.17526967481E+04  0.25000000000E+03 0.  0.
<mgrwt>
<rscale>  0 0.16927973E+04</rscale>
<asrwt>0</asrwt>
<pdfrwt beam="1">  1        2 0.58089162E+00 0.16927973E+04</pdfrwt>
<pdfrwt beam="2">  1       -2 0.29189596E-01 0.16927973E+04</pdfrwt>
<totfact> 0.53373601E+00</totfact>
</mgrwt>
</event>
<event>
 4    1  0.1804641E-005  0.7815597E+03  0.7818608E-02  0.9587099E-01
          2   -1    0    0  501    0  0.00000000000E+00  0.00000000000E+00  0.86273746276E+03  0.86273746277E+03  0.25500000000E-02 0.  1.
         -2   -1    0    0    0  501 -0.00000000000E+00 -0.00000000000E+00 -0.17700507016E+03  0.17700507018E+03  0.25500000000E-02 0. -1.
   -5000001    1    1    2    0    0  0.25863339620E+03 -0.13970595151E+03  0.42487316907E+03  0.57395661536E+03  0.25000000000E+03 0.  0.
    5000001    1    1    2    0    0 -0.25863339620E+03  0.13970595151E+03  0.26085922353E+03  0.46578591759E+03  0.25000000000E+03 0.  0.
<mgrwt>
<rscale>  0 0.78155974E+03</rscale>
<asrwt>0</asrwt>
<pdfrwt beam="1">  1        2 0.13272884E+00 0.78155974E+03</pdfrwt>
<pdfrwt beam="2">  1       -2 0.27231549E-01 0.78155974E+03</pdfrwt>
<totfact> 0.38324182E+02</totfact>
</mgrwt>
</event>
<event>
 4    1  0.1804641E-005  0.6126934E+03  0.7818608E-02  0.9879416E-01
         -2   -1    0    0    0  501 -0.00000000000E+00  0.00000000000E+00  0.32793777848E+03  0.32793777849E+03  0.25500000000E-02 0. -1.
          2   -1    0    0  501    0  0.00000000000E+00 -0.00000000000E+00 -0.28617717412E+03  0.28617717413E+03  0.25500000000E-02 0.  1.
   -5000001    1    1    2    0    0 -0.13604590618E+03 -0.70873183889E+02  0.10949815688E+03  0.31308360408E+03  0.25000000000E+03 0.  0.
    5000001    1    1    2    0    0  0.13604590618E+03  0.70873183889E+02 -0.67737552513E+02  0.30103134854E+03  0.25000000000E+03 0.  0.
<mgrwt>
<rscale>  0 0.61269342E+03</rscale>
<asrwt>0</asrwt>
<pdfrwt beam="1">  1        2 0.44027258E-01 0.61269342E+03</pdfrwt>
<pdfrwt beam="2">  1       -2 0.50451966E-01 0.61269342E+03</pdfrwt>
<totfact> 0.43385418E+02</totfact>
</mgrwt>
</event>
<event>
 4    1  0.1804641E-005  0.9952697E+03  0.7818608E-02  0.9313748E-01
          2   -1    0    0  501    0  0.00000000000E+00  0.00000000000E+00  0.57022474491E+03  0.57022474492E+03  0.25500000000E-02 0.  1.
         -2   -1    0    0    0  501 -0.00000000000E+00 -0.00000000000E+00 -0.43428566157E+03  0.43428566158E+03  0.25500000000E-02 0. -1.
   -5000001    1    1    2    0    0 -0.32430827159E+03  0.24676082834E+03 -0.71420193242E+02  0.48339177220E+03  0.25000000000E+03 0.  0.
    5000001    1    1    2    0    0  0.32430827159E+03 -0.24676082834E+03  0.20735927658E+03  0.52111863430E+03  0.25000000000E+03 0.  0.
<mgrwt>
<rscale>  0 0.99526967E+03</rscale>
<asrwt>0</asrwt>
<pdfrwt beam="1">  1        2 0.87726883E-01 0.99526967E+03</pdfrwt>
<pdfrwt beam="2">  1       -2 0.66813179E-01 0.99526967E+03</pdfrwt>
<totfact> 0.10841708E+02</totfact>
</mgrwt>
</event>
<event>
 4    1  0.1804641E-005  0.1568890E+04  0.7818608E-02  0.8839891E-01
          2   -1    0    0  501    0  0.00000000000E+00  0.00000000000E+00  0.12551914614E+04  0.12551914614E+04  0.25500000000E-02 0.  1.
         -2   -1    0    0    0  501 -0.00000000000E+00 -0.00000000000E+00 -0.49024709532E+03  0.49024709533E+03  0.25500000000E-02 0. -1.
   -5000001    1    1    2    0    0 -0.56241588606E+03 -0.40951277406E+03  0.90569807098E+02  0.74479207231E+03  0.25000000000E+03 0.  0.
    5000001    1    1    2    0    0  0.56241588606E+03  0.40951277406E+03  0.67437455903E+03  0.10006464845E+04  0.25000000000E+03 0.  0.
<mgrwt>
<rscale>  0 0.15688900E+04</rscale>
<asrwt>0</asrwt>
<pdfrwt beam="1">  1        2 0.19310638E+00 0.15688900E+04</pdfrwt>
<pdfrwt beam="2">  1       -2 0.75422630E-01 0.15688900E+04</pdfrwt>
<totfact> 0.26625009E+01</totfact>
</mgrwt>
</event>
<event>
 4    1  0.1804641E-005  0.6023148E+03  0.7818608E-02  0.9900615E-01
          2   -1    0    0  501    0  0.00000000000E+00  0.00000000000E+00  0.12695903994E+04  0.12695903994E+04  0.25500000000E-02 0.  1.
         -2   -1    0    0    0  501 -0.00000000000E+00 -0.00000000000E+00 -0.71437037186E+02  0.71437037231E+02  0.25500000000E-02 0. -1.
   -5000001    1    1    2    0    0 -0.12681107444E+03  0.10335998171E+03  0.51484003990E+03  0.59525171239E+03  0.25000000000E+03 0.  0.
    5000001    1    1    2    0    0  0.12681107444E+03 -0.10335998171E+03  0.68331332233E+03  0.74577572426E+03  0.25000000000E+03 0.  0.
<mgrwt>
<rscale>  0 0.60231479E+03</rscale>
<asrwt>0</asrwt>
<pdfrwt beam="1">  1        2 0.19532161E+00 0.60231479E+03</pdfrwt>
<pdfrwt beam="2">  1       -2 0.10990313E-01 0.60231479E+03</pdfrwt>
<totfact> 0.10265167E+03</totfact>
</mgrwt>
</event>
<event>
 4    1  0.1804641E-005  0.1119045E+04  0.7818608E-02  0.9186826E-01
          2   -1    0    0  501    0  0.00000000000E+00  0.00000000000E+00  0.11944913425E+04  0.11944913425E+04  0.25500000000E-02 0.  1.
         -2   -1    0    0    0  501 -0.00000000000E+00 -0.00000000000E+00 -0.26209091794E+03  0.26209091795E+03  0.25500000000E-02 0. -1.
   -5000001    1    1    2    0    0  0.26409784695E+03 -0.42293666319E+03  0.40883629202E+03  0.69157082609E+03  0.25000000000E+03 0.  0.
    5000001    1    1    2    0    0 -0.26409784695E+03  0.42293666319E+03  0.52356413255E+03  0.76501143437E+03  0.25000000000E+03 0.  0.
<mgrwt>
<rscale>  0 0.11190448E+04</rscale>
<asrwt>0</asrwt>
<pdfrwt beam="1">  1        2 0.18376790E+00 0.11190448E+04</pdfrwt>
<pdfrwt beam="2">  1       -2 0.40321679E-01 0.11190448E+04</pdfrwt>
<totfact> 0.11011517E+02</totfact>
</mgrwt>
</event>
<event>
 4    1  0.1804641E-005  0.6592499E+03  0.7818608E-02  0.9789575E-01
          2   -1    0    0  501    0  0.00000000000E+00  0.00000000000E+00  0.10242453738E+04  0.10242453738E+04  0.25500000000E-02 0.  1.
         -2   -1    0    0    0  501 -0.00000000000E+00 -0.00000000000E+00 -0.10608065411E+03  0.10608065414E+03  0.25500000000E-02 0. -1.
   -5000001    1    1    2    0    0 -0.19214575929E+03 -0.84899487770E+02  0.38193264250E+03  0.50249423802E+03  0.25000000000E+03 0.  0.
    5000001    1    1    2    0    0  0.19214575929E+03  0.84899487770E+02  0.53623207717E+03  0.62783178991E+03  0.25000000000E+03 0.  0.
<mgrwt>
<rscale>  0 0.65924994E+03</rscale>
<asrwt>0</asrwt>
<pdfrwt beam="1">  1        2 0.15757621E+00 0.65924994E+03</pdfrwt>
<pdfrwt beam="2">  1       -2 0.16320100E-01 0.65924994E+03</pdfrwt>
<totfact> 0.74347548E+02</totfact>
</mgrwt>
</event>
<event>
 4    1  0.1804641E-005  0.6161530E+03  0.7818608E-02  0.9872449E-01
         -2   -1    0    0    0  501 -0.00000000000E+00  0.00000000000E+00  0.30452174350E+02  0.30452174456E+02  0.25500000000E-02 0. -1.
          2   -1    0    0  501    0  0.00000000000E+00 -0.00000000000E+00 -0.31167277591E+04  0.31167277591E+04  0.25500000000E-02 0.  1.
   -5000001    1    1    2    0    0 -0.54148657865E+02 -0.14741533823E+03 -0.10935426827E+04  0.11326954392E+04  0.25000000000E+03 0.  0.
    5000001    1    1    2    0    0  0.54148657865E+02  0.14741533823E+03 -0.19927329021E+04  0.20144844944E+04  0.25000000000E+03 0.  0.
<mgrwt>
<rscale>  0 0.61615302E+03</rscale>
<asrwt>0</asrwt>
<pdfrwt beam="1">  1        2 0.47949633E+00 0.61615302E+03</pdfrwt>
<pdfrwt beam="2">  1       -2 0.46849524E-02 0.61615302E+03</pdfrwt>
<totfact> 0.36094413E+02</totfact>
</mgrwt>
</event>
<event>
 4    1  0.1804641E-005  0.7482129E+03  0.7818608E-02  0.9638158E-01
          2   -1    0    0  501    0  0.00000000000E+00  0.00000000000E+00  0.10177938946E+04  0.10177938946E+04  0.25500000000E-02 0.  1.
         -2   -1    0    0    0  501 -0.00000000000E+00 -0.00000000000E+00 -0.13750882803E+03  0.13750882806E+03  0.25500000000E-02 0. -1.
   -5000001    1    1    2    0    0 -0.18375400923E+03  0.17458575619E+03  0.61761081354E+03  0.71287364881E+03  0.25000000000E+03 0.  0.
    5000001    1    1    2    0    0  0.18375400923E+03 -0.17458575619E+03  0.26267425300E+03  0.44242907382E+03  0.25000000000E+03 0.  0.
<mgrwt>
<rscale>  0 0.74821293E+03</rscale>
<asrwt>0</asrwt>
<pdfrwt beam="1">  1        2 0.15658367E+00 0.74821293E+03</pdfrwt>
<pdfrwt beam="2">  1       -2 0.21155205E-01 0.74821293E+03</pdfrwt>
<totfact> 0.47715763E+02</totfact>
</mgrwt>
</event>
<event>
 4    1  0.1804641E-005  0.7059393E+03  0.7818608E-02  0.9707129E-01
         -2   -1    0    0    0  501 -0.00000000000E+00  0.00000000000E+00  0.15748287628E+03  0.15748287630E+03  0.25500000000E-02 0. -1.
          2   -1    0    0  501    0  0.00000000000E+00 -0.00000000000E+00 -0.79111816260E+03  0.79111816260E+03  0.25500000000E-02 0.  1.
   -5000001    1    1    2    0    0 -0.14343901870E+03  0.20094221273E+03 -0.27154648493E+03  0.44406082739E+03  0.25000000000E+03 0.  0.
    5000001    1    1    2    0    0  0.14343901870E+03 -0.20094221273E+03 -0.36208880139E+03  0.50454021151E+03  0.25000000000E+03 0.  0.
<mgrwt>
<rscale>  0 0.70593927E+03</rscale>
<asrwt>0</asrwt>
<pdfrwt beam="1">  1        2 0.12171048E+00 0.70593927E+03</pdfrwt>
<pdfrwt beam="2">  1       -2 0.24228135E-01 0.70593927E+03</pdfrwt>
<totfact> 0.53347102E+02</totfact>
</mgrwt>
</event>
<event>
 4    1  0.1804641E-005  0.8176776E+03  0.7818608E-02  0.9534776E-01
          2   -1    0    0  501    0  0.00000000000E+00  0.00000000000E+00  0.71178270242E+03  0.71178270243E+03  0.25500000000E-02 0.  1.
         -2   -1    0    0    0  501 -0.00000000000E+00 -0.00000000000E+00 -0.23483173318E+03  0.23483173319E+03  0.25500000000E-02 0. -1.
   -5000001    1    1    2    0    0 -0.16004879992E+03  0.26775708024E+03  0.33765682585E+03  0.52327966177E+03  0.25000000000E+03 0.  0.
    5000001    1    1    2    0    0  0.16004879992E+03 -0.26775708024E+03  0.13929414339E+03  0.42333477386E+03  0.25000000000E+03 0.  0.
<mgrwt>
<rscale>  0 0.81767760E+03</rscale>
<asrwt>0</asrwt>
<pdfrwt beam="1">  1        2 0.10950503E+00 0.81767760E+03</pdfrwt>
<pdfrwt beam="2">  1       -2 0.36127959E-01 0.81767760E+03</pdfrwt>
<totfact> 0.29051248E+02</totfact>
</mgrwt>
</event>
<event>
 4    1  0.1804641E-005  0.1003213E+04  0.7818608E-02  0.9305028E-01
          2   -1    0    0  501    0  0.00000000000E+00  0.00000000000E+00  0.15184494848E+03  0.15184494850E+03  0.25500000000E-02 0.  1.
         -2   -1    0    0    0  501 -0.00000000000E+00 -0.00000000000E+00 -0.16570131983E+04  0.16570131983E+04  0.25500000000E-02 0. -1.
   -5000001    1    1    2    0    0 -0.19768145966E+03 -0.19016085154E+03 -0.14414663122E+03  0.39814238689E+03  0.25000000000E+03 0.  0.
    5000001    1    1    2    0    0  0.19768145966E+03  0.19016085154E+03 -0.13610216186E+04  0.14107157599E+04  0.25000000000E+03 0.  0.
<mgrwt>
<rscale>  0 0.10032130E+04</rscale>
<asrwt>0</asrwt>
<pdfrwt beam="1">  1        2 0.23360762E-01 0.10032130E+04</pdfrwt>
<pdfrwt beam="2">  1       -2 0.25492509E+00 0.10032130E+04</pdfrwt>
<totfact> 0.14302343E+01</totfact>
</mgrwt>
</event>
<event>
 4    1  0.1804641E-005  0.6950216E+03  0.7818608E-02  0.9725784E-01
          2   -1    0    0  501    0  0.00000000000E+00  0.00000000000E+00  0.12255922548E+04  0.12255922548E+04  0.25500000000E-02 0.  1.
         -2   -1    0    0    0  501 -0.00000000000E+00 -0.00000000000E+00 -0.98535005050E+02  0.98535005083E+02  0.25500000000E-02 0. -1.
   -5000001    1    1    2    0    0  0.23729589487E+03 -0.35253592694E+02  0.51270755722E+03  0.61880626755E+03  0.25000000000E+03 0.  0.
    5000001    1    1    2    0    0 -0.23729589487E+03  0.35253592694E+02  0.61434969249E+03  0.70532099230E+03  0.25000000000E+03 0.  0.
<mgrwt>
<rscale>  0 0.69502155E+03</rscale>
<asrwt>0</asrwt>
<pdfrwt beam="1">  1        2 0.18855266E+00 0.69502155E+03</pdfrwt>
<pdfrwt beam="2">  1       -2 0.15159231E-01 0.69502155E+03</pdfrwt>
<totfact> 0.63561592E+02</totfact>
</mgrwt>
</event>
<event>
 4    1  0.1804641E-005  0.6490199E+03  0.7818608E-02  0.9808620E-01
          2   -1    0    0  501    0  0.00000000000E+00  0.00000000000E+00  0.98559185901E+03  0.98559185901E+03  0.25500000000E-02 0.  1.
         -2   -1    0    0    0  501 -0.00000000000E+00 -0.00000000000E+00 -0.10684617006E+03  0.10684617009E+03  0.25500000000E-02 0. -1.
   -5000001    1    1    2    0    0 -0.19227327804E+03  0.27884373695E+02  0.55910782894E+03  0.64253257981E+03  0.25000000000E+03 0.  0.
    5000001    1    1    2    0    0  0.19227327804E+03 -0.27884373695E+02  0.31963786001E+03  0.44990544929E+03  0.25000000000E+03 0.  0.
<mgrwt>
<rscale>  0 0.64901992E+03</rscale>
<asrwt>0</asrwt>
<pdfrwt beam="1">  1        2 0.15162952E+00 0.64901992E+03</pdfrwt>
<pdfrwt beam="2">  1       -2 0.16437872E-01 0.64901992E+03</pdfrwt>
<totfact> 0.77730090E+02</totfact>
</mgrwt>
</event>
<event>
 4    1  0.1804641E-005  0.1371117E+04  0.7818608E-02  0.8974995E-01
         -2   -1    0    0    0  501 -0.00000000000E+00  0.00000000000E+00  0.49517919463E+03  0.49517919463E+03  0.25500000000E-02 0. -1.
          2   -1    0    0  501    0  0.00000000000E+00 -0.00000000000E+00 -0.94913230946E+03  0.94913230946E+03  0.25500000000E-02 0.  1.
   -5000001    1    1    2    0    0 -0.60414032172E+03 -0.56414496707E+02 -0.43586123274E+03  0.78780907457E+03  0.25000000000E+03 0.  0.
    5000001    1    1    2    0    0  0.60414032172E+03  0.56414496707E+02 -0.18091882091E+02  0.65650242952E+03  0.25000000000E+03 0.  0.
<mgrwt>
<rscale>  0 0.13711172E+04</rscale>
<asrwt>0</asrwt>
<pdfrwt beam="1">  1        2 0.14602036E+00 0.13711172E+04</pdfrwt>
<pdfrwt beam="2">  1       -2 0.76181415E-01 0.13711172E+04</pdfrwt>
<totfact> 0.40905222E+01</totfact>
</mgrwt>
</event>
<event>
 4    1  0.1804641E-005  0.1442117E+04  0.7818608E-02  0.8923884E-01
          2   -1    0    0  501    0  0.00000000000E+00  0.00000000000E+00  0.17789636753E+04  0.17789636753E+04  0.25500000000E-02 0.  1.
         -2   -1    0    0    0  501 -0.00000000000E+00 -0.00000000000E+00 -0.29226319692E+03  0.29226319693E+03  0.25500000000E-02 0. -1.
   -5000001    1    1    2    0    0 -0.44111600805E+03  0.37686159717E+03  0.24412998155E+03  0.67727944297E+03  0.25000000000E+03 0.  0.
    5000001    1    1    2    0    0  0.44111600805E+03 -0.37686159717E+03  0.12425704968E+04  0.13939474292E+04  0.25000000000E+03 0.  0.
<mgrwt>
<rscale>  0 0.14421173E+04</rscale>
<asrwt>0</asrwt>
<pdfrwt beam="1">  1        2 0.27368671E+00 0.14421173E+04</pdfrwt>
<pdfrwt beam="2">  1       -2 0.44963570E-01 0.14421173E+04</pdfrwt>
<totfact> 0.40345006E+01</totfact>
</mgrwt>
</event>
<event>
 4    1  0.1804641E-005  0.7408543E+03  0.7818608E-02  0.9649809E-01
          2   -1    0    0  501    0  0.00000000000E+00  0.00000000000E+00  0.14301258618E+04  0.14301258618E+04  0.25500000000E-02 0.  1.
         -2   -1    0    0    0  501 -0.00000000000E+00 -0.00000000000E+00 -0.95946981580E+02  0.95946981614E+02  0.25500000000E-02 0. -1.
   -5000001    1    1    2    0    0  0.16085665849E+03  0.21801089205E+03  0.74171993267E+03  0.82828260404E+03  0.25000000000E+03 0.  0.
    5000001    1    1    2    0    0 -0.16085665849E+03 -0.21801089205E+03  0.59245894754E+03  0.69779023936E+03  0.25000000000E+03 0.  0.
<mgrwt>
<rscale>  0 0.74085426E+03</rscale>
<asrwt>0</asrwt>
<pdfrwt beam="1">  1        2 0.22001934E+00 0.74085426E+03</pdfrwt>
<pdfrwt beam="2">  1       -2 0.14761076E-01 0.74085426E+03</pdfrwt>
<totfact> 0.50650702E+02</totfact>
</mgrwt>
</event>
<event>
 4    1  0.1804641E-005  0.7449635E+03  0.7818608E-02  0.9643285E-01
         -2   -1    0    0    0  501 -0.00000000000E+00  0.00000000000E+00  0.11221034155E+03  0.11221034158E+03  0.25500000000E-02 0. -1.
          2   -1    0    0  501    0  0.00000000000E+00 -0.00000000000E+00 -0.12364515915E+04  0.12364515915E+04  0.25500000000E-02 0.  1.
   -5000001    1    1    2    0    0 -0.26546023161E+03 -0.56011719396E+02 -0.65507245641E+03  0.75181538320E+03  0.25000000000E+03 0.  0.
    5000001    1    1    2    0    0  0.26546023161E+03  0.56011719396E+02 -0.46916879353E+03  0.59684654987E+03  0.25000000000E+03 0.  0.
<mgrwt>
<rscale>  0 0.74496350E+03</rscale>
<asrwt>0</asrwt>
<pdfrwt beam="1">  1        2 0.19022331E+00 0.74496350E+03</pdfrwt>
<pdfrwt beam="2">  1       -2 0.17263130E-01 0.74496350E+03</pdfrwt>
<totfact> 0.50078020E+02</totfact>
</mgrwt>
</event>
<event>
 4    1  0.1804641E-005  0.1359511E+04  0.7818608E-02  0.8983660E-01
          2   -1    0    0  501    0  0.00000000000E+00  0.00000000000E+00  0.91749963105E+03  0.91749963105E+03  0.25500000000E-02 0.  1.
         -2   -1    0    0    0  501 -0.00000000000E+00 -0.00000000000E+00 -0.50361570261E+03  0.50361570262E+03  0.25500000000E-02 0. -1.
   -5000001    1    1    2    0    0 -0.24861528868E+03  0.43968970303E+03  0.60420338726E+03  0.82625560808E+03  0.25000000000E+03 0.  0.
    5000001    1    1    2    0    0  0.24861528868E+03 -0.43968970303E+03 -0.19031945882E+03  0.59485972558E+03  0.25000000000E+03 0.  0.
<mgrwt>
<rscale>  0 0.13595105E+04</rscale>
<asrwt>0</asrwt>
<pdfrwt beam="1">  1        2 0.14115379E+00 0.13595105E+04</pdfrwt>
<pdfrwt beam="2">  1       -2 0.77479340E-01 0.13595105E+04</pdfrwt>
<totfact> 0.41383040E+01</totfact>
</mgrwt>
</event>
<event>
 4    1  0.1804641E-005  0.5701564E+03  0.7818608E-02  0.9969333E-01
         -2   -1    0    0    0  501 -0.00000000000E+00  0.00000000000E+00  0.14829025947E+03  0.14829025949E+03  0.25500000000E-02 0. -1.
          2   -1    0    0  501    0  0.00000000000E+00 -0.00000000000E+00 -0.54804386057E+03  0.54804386058E+03  0.25500000000E-02 0.  1.
   -5000001    1    1    2    0    0  0.74082810809E+02  0.11287385944E+03 -0.17147537363E+03  0.33186228283E+03  0.25000000000E+03 0.  0.
    5000001    1    1    2    0    0 -0.74082810809E+02 -0.11287385944E+03 -0.22827822747E+03  0.36447183724E+03  0.25000000000E+03 0.  0.
<mgrwt>
<rscale>  0 0.57015635E+03</rscale>
<asrwt>0</asrwt>
<pdfrwt beam="1">  1        2 0.84314439E-01 0.57015635E+03</pdfrwt>
<pdfrwt beam="2">  1       -2 0.22813886E-01 0.57015635E+03</pdfrwt>
<totfact> 0.93772869E+02</totfact>
</mgrwt>
</event>
<event>
 4    1  0.1804641E-005  0.6151884E+03  0.7818608E-02  0.9874386E-01
          2   -1    0    0  501    0  0.00000000000E+00  0.00000000000E+00  0.68962472057E+03  0.68962472058E+03  0.25500000000E-02 0.  1.
         -2   -1    0    0    0  501 -0.00000000000E+00 -0.00000000000E+00 -0.13719664930E+03  0.13719664932E+03  0.25500000000E-02 0. -1.
   -5000001    1    1    2    0    0 -0.62261240579E+02 -0.15173429985E+03  0.37326669004E+03  0.47825493382E+03  0.25000000000E+03 0.  0.
    5000001    1    1    2    0    0  0.62261240579E+02  0.15173429985E+03  0.17916138123E+03  0.34856643607E+03  0.25000000000E+03 0.  0.
<mgrwt>
<rscale>  0 0.61518843E+03</rscale>
<asrwt>0</asrwt>
<pdfrwt beam="1">  1        2 0.10609611E+00 0.61518843E+03</pdfrwt>
<pdfrwt beam="2">  1       -2 0.21107176E-01 0.61518843E+03</pdfrwt>
<totfact> 0.81444340E+02</totfact>
</mgrwt>
</event>
<event>
 4    1  0.1804641E-005  0.7494065E+03  0.7818608E-02  0.9636282E-01
         -2   -1    0    0    0  501 -0.00000000000E+00  0.00000000000E+00  0.84728138130E+02  0.84728138168E+02  0.25500000000E-02 0. -1.
          2   -1    0    0  501    0  0.00000000000E+00 -0.00000000000E+00 -0.16570945553E+04  0.16570945553E+04  0.25500000000E-02 0.  1.
   -5000001    1    1    2    0    0  0.23281973383E+03  0.14253211651E+03 -0.65101332714E+03  0.74889170433E+03  0.25000000000E+03 0.  0.
    5000001    1    1    2    0    0 -0.23281973383E+03 -0.14253211651E+03 -0.92135309006E+03  0.99293098918E+03  0.25000000000E+03 0.  0.
<mgrwt>
<rscale>  0 0.74940653E+03</rscale>
<asrwt>0</asrwt>
<pdfrwt beam="1">  1        2 0.25493760E+00 0.74940653E+03</pdfrwt>
<pdfrwt beam="2">  1       -2 0.13035099E-01 0.74940653E+03</pdfrwt>
<totfact> 0.46680679E+02</totfact>
</mgrwt>
</event>
<event>
 4    1  0.1804641E-005  0.1022819E+04  0.7818608E-02  0.9283866E-01
         -2   -1    0    0    0  501 -0.00000000000E+00  0.00000000000E+00  0.22816243217E+03  0.22816243219E+03  0.25500000000E-02 0. -1.
          2   -1    0    0  501    0  0.00000000000E+00 -0.00000000000E+00 -0.11462867832E+04  0.11462867832E+04  0.25500000000E-02 0.  1.
   -5000001    1    1    2    0    0 -0.23353670009E+03 -0.20120236895E+03 -0.89245709530E+03  0.97672997830E+03  0.25000000000E+03 0.  0.
    5000001    1    1    2    0    0  0.23353670009E+03  0.20120236895E+03 -0.25667255767E+02  0.39771923713E+03  0.25000000000E+03 0.  0.
<mgrwt>
<rscale>  0 0.10228188E+04</rscale>
<asrwt>0</asrwt>
<pdfrwt beam="1">  1        2 0.17635181E+00 0.10228188E+04</pdfrwt>
<pdfrwt beam="2">  1       -2 0.35101913E-01 0.10228188E+04</pdfrwt>
<totfact> 0.15484988E+02</totfact>
</mgrwt>
</event>
<event>
 4    1  0.1804641E-005  0.2041646E+04  0.7818608E-02  0.8587393E-01
         -2   -1    0    0    0  501 -0.00000000000E+00  0.00000000000E+00  0.40272438556E+03  0.40272438557E+03  0.25500000000E-02 0. -1.
          2   -1    0    0  501    0  0.00000000000E+00 -0.00000000000E+00 -0.25875759512E+04  0.25875759512E+04  0.25500000000E-02 0.  1.
   -5000001    1    1    2    0    0  0.12422574412E+03 -0.98096341067E+03 -0.10292810152E+04  0.14490136841E+04  0.25000000000E+03 0.  0.
    5000001    1    1    2    0    0 -0.12422574412E+03  0.98096341067E+03 -0.11555705504E+04  0.15412866526E+04  0.25000000000E+03 0.  0.
<mgrwt>
<rscale>  0 0.20416463E+04</rscale>
<asrwt>0</asrwt>
<pdfrwt beam="1">  1        2 0.39808860E+00 0.20416463E+04</pdfrwt>
<pdfrwt beam="2">  1       -2 0.61957599E-01 0.20416463E+04</pdfrwt>
<totfact> 0.69369207E+00</totfact>
</mgrwt>
</event>
<event>
 4    1  0.1804641E-005  0.9444579E+03  0.7818608E-02  0.9371652E-01
         -2   -1    0    0    0  501 -0.00000000000E+00  0.00000000000E+00  0.58279250132E+03  0.58279250132E+03  0.25500000000E-02 0. -1.
          2   -1    0    0  501    0  0.00000000000E+00 -0.00000000000E+00 -0.38264075337E+03  0.38264075338E+03  0.25500000000E-02 0.  1.
   -5000001    1    1    2    0    0 -0.36618688631E+03 -0.53500670329E+02 -0.56775763464E+02  0.45019845041E+03  0.25000000000E+03 0.  0.
    5000001    1    1    2    0    0  0.36618688631E+03  0.53500670329E+02  0.25692751141E+03  0.51523480429E+03  0.25000000000E+03 0.  0.
<mgrwt>
<rscale>  0 0.94445786E+03</rscale>
<asrwt>0</asrwt>
<pdfrwt beam="1">  1        2 0.58867809E-01 0.94445786E+03</pdfrwt>
<pdfrwt beam="2">  1       -2 0.89660384E-01 0.94445786E+03</pdfrwt>
<totfact> 0.89275786E+01</totfact>
</mgrwt>
</event>
<event>
 4    1  0.1804641E-005  0.1072284E+04  0.7818608E-02  0.9232635E-01
          2   -1    0    0  501    0  0.00000000000E+00  0.00000000000E+00  0.13005829551E+04  0.13005829551E+04  0.25500000000E-02 0.  1.
         -2   -1    0    0    0  501 -0.00000000000E+00 -0.00000000000E+00 -0.22101497705E+03  0.22101497707E+03  0.25500000000E-02 0. -1.
   -5000001    1    1    2    0    0  0.21230350828E+03  0.26044227821E+03  0.64791267063E+02  0.42379342632E+03  0.25000000000E+03 0.  0.
    5000001    1    1    2    0    0 -0.21230350828E+03 -0.26044227821E+03  0.10147767109E+04  0.10978045058E+04  0.25000000000E+03 0.  0.
<mgrwt>
<rscale>  0 0.10722841E+04</rscale>
<asrwt>0</asrwt>
<pdfrwt beam="1">  1        2 0.20008968E+00 0.10722841E+04</pdfrwt>
<pdfrwt beam="2">  1       -2 0.34002304E-01 0.10722841E+04</pdfrwt>
<totfact> 0.13285235E+02</totfact>
</mgrwt>
</event>
<event>
 4    1  0.1804641E-005  0.5383170E+03  0.7818608E-02  0.1004235E+00
          2   -1    0    0  501    0  0.00000000000E+00  0.00000000000E+00  0.42671920623E+03  0.42671920623E+03  0.25500000000E-02 0.  1.
         -2   -1    0    0    0  501 -0.00000000000E+00 -0.00000000000E+00 -0.16977512239E+03  0.16977512241E+03  0.25500000000E-02 0. -1.
   -5000001    1    1    2    0    0 -0.63838191675E+02  0.51668988221E+02  0.19116688563E+03  0.32525340463E+03  0.25000000000E+03 0.  0.
    5000001    1    1    2    0    0  0.63838191675E+02 -0.51668988221E+02  0.65777198201E+02  0.27124092402E+03  0.25000000000E+03 0.  0.
<mgrwt>
<rscale>  0 0.53831703E+03</rscale>
<asrwt>0</asrwt>
<pdfrwt beam="1">  1        2 0.65649108E-01 0.53831703E+03</pdfrwt>
<pdfrwt beam="2">  1       -2 0.26119250E-01 0.53831703E+03</pdfrwt>
<totfact> 0.98071794E+02</totfact>
</mgrwt>
</event>
<event>
 4    1  0.1804641E-005  0.8028627E+03  0.7818608E-02  0.9555883E-01
          2   -1    0    0  501    0  0.00000000000E+00  0.00000000000E+00  0.22538900266E+04  0.22538900266E+04  0.25500000000E-02 0.  1.
         -2   -1    0    0    0  501 -0.00000000000E+00 -0.00000000000E+00 -0.71497333720E+02  0.71497333766E+02  0.25500000000E-02 0. -1.
   -5000001    1    1    2    0    0 -0.25092696085E+03 -0.18624803076E+03  0.99985920226E+03  0.10769731162E+04  0.25000000000E+03 0.  0.
    5000001    1    1    2    0    0  0.25092696085E+03  0.18624803076E+03  0.11825334907E+04  0.12484142442E+04  0.25000000000E+03 0.  0.
<mgrwt>
<rscale>  0 0.80286270E+03</rscale>
<asrwt>0</asrwt>
<pdfrwt beam="1">  1        2 0.34675230E+00 0.80286270E+03</pdfrwt>
<pdfrwt beam="2">  1       -2 0.10999590E-01 0.80286270E+03</pdfrwt>
<totfact> 0.29014057E+02</totfact>
</mgrwt>
</event>
<event>
 4    1  0.1804641E-005  0.8851834E+03  0.7818608E-02  0.9444295E-01
          2   -1    0    0  501    0  0.00000000000E+00  0.00000000000E+00  0.12415172933E+04  0.12415172933E+04  0.25500000000E-02 0.  1.
         -2   -1    0    0    0  501 -0.00000000000E+00 -0.00000000000E+00 -0.15778064681E+03  0.15778064683E+03  0.25500000000E-02 0. -1.
   -5000001    1    1    2    0    0  0.33517829883E+03 -0.10291918218E+03  0.70347025642E+03  0.82480740281E+03  0.25000000000E+03 0.  0.
    5000001    1    1    2    0    0 -0.33517829883E+03  0.10291918218E+03  0.38026639010E+03  0.57449053736E+03  0.25000000000E+03 0.  0.
<mgrwt>
<rscale>  0 0.88518337E+03</rscale>
<asrwt>0</asrwt>
<pdfrwt beam="1">  1        2 0.19100266E+00 0.88518337E+03</pdfrwt>
<pdfrwt beam="2">  1       -2 0.24273946E-01 0.88518337E+03</pdfrwt>
<totfact> 0.27124573E+02</totfact>
</mgrwt>
</event>
<event>
 4    1  0.1804641E-005  0.1073046E+04  0.7818608E-02  0.9231869E-01
          2   -1    0    0  501    0  0.00000000000E+00  0.00000000000E+00  0.17948328393E+04  0.17948328393E+04  0.25500000000E-02 0.  1.
         -2   -1    0    0    0  501 -0.00000000000E+00 -0.00000000000E+00 -0.16038085004E+03  0.16038085006E+03  0.25500000000E-02 0. -1.
   -5000001    1    1    2    0    0  0.11138707882E+03  0.43979426578E+03  0.56258090152E+03  0.76473743749E+03  0.25000000000E+03 0.  0.
    5000001    1    1    2    0    0 -0.11138707882E+03 -0.43979426578E+03  0.10718710877E+04  0.11904762518E+04  0.25000000000E+03 0.  0.
<mgrwt>
<rscale>  0 0.10730458E+04</rscale>
<asrwt>0</asrwt>
<pdfrwt beam="1">  1        2 0.27612811E+00 0.10730458E+04</pdfrwt>
<pdfrwt beam="2">  1       -2 0.24673979E-01 0.10730458E+04</pdfrwt>
<totfact> 0.12698535E+02</totfact>
</mgrwt>
</event>
<event>
 4    1  0.1804641E-005  0.9189171E+03  0.7818608E-02  0.9402238E-01
          2   -1    0    0  501    0  0.00000000000E+00  0.00000000000E+00  0.18868073033E+04  0.18868073033E+04  0.25500000000E-02 0.  1.
         -2   -1    0    0    0  501 -0.00000000000E+00 -0.00000000000E+00 -0.11188327027E+03  0.11188327030E+03  0.25500000000E-02 0. -1.
   -5000001    1    1    2    0    0 -0.10283748660E+03  0.36450567818E+03  0.73118754580E+03  0.86056676976E+03  0.25000000000E+03 0.  0.
    5000001    1    1    2    0    0  0.10283748660E+03 -0.36450567818E+03  0.10437364872E+04  0.11381238038E+04  0.25000000000E+03 0.  0.
<mgrwt>
<rscale>  0 0.91891713E+03</rscale>
<asrwt>0</asrwt>
<pdfrwt beam="1">  1        2 0.29027807E+00 0.91891713E+03</pdfrwt>
<pdfrwt beam="2">  1       -2 0.17212810E-01 0.91891713E+03</pdfrwt>
<totfact> 0.21568702E+02</totfact>
</mgrwt>
</event>
<event>
 4    1  0.1804641E-005  0.1153685E+04  0.7818608E-02  0.9154391E-01
         -2   -1    0    0    0  501 -0.00000000000E+00  0.00000000000E+00  0.18814849094E+03  0.18814849096E+03  0.25500000000E-02 0. -1.
          2   -1    0    0  501    0  0.00000000000E+00 -0.00000000000E+00 -0.17685346516E+04  0.17685346516E+04  0.25500000000E-02 0.  1.
   -5000001    1    1    2    0    0 -0.21784008403E+03 -0.44432800542E+03 -0.10603117572E+04  0.11965127250E+04  0.25000000000E+03 0.  0.
    5000001    1    1    2    0    0  0.21784008403E+03  0.44432800542E+03 -0.52007440346E+03  0.76017041757E+03  0.25000000000E+03 0.  0.
<mgrwt>
<rscale>  0 0.11536848E+04</rscale>
<asrwt>0</asrwt>
<pdfrwt beam="1">  1        2 0.27208224E+00 0.11536848E+04</pdfrwt>
<pdfrwt beam="2">  1       -2 0.28945923E-01 0.11536848E+04</pdfrwt>
<totfact> 0.97462664E+01</totfact>
</mgrwt>
</event>
<event>
 4    1  0.1804641E-005  0.1203621E+04  0.7818608E-02  0.9109693E-01
         -2   -1    0    0    0  501 -0.00000000000E+00  0.00000000000E+00  0.52401047814E+03  0.52401047814E+03  0.25500000000E-02 0. -1.
          2   -1    0    0  501    0  0.00000000000E+00 -0.00000000000E+00 -0.69116145309E+03  0.69116145309E+03  0.25500000000E-02 0.  1.
   -5000001    1    1    2    0    0  0.31688421963E+03 -0.44378788472E+03 -0.13212595241E+03  0.61426424491E+03  0.25000000000E+03 0.  0.
    5000001    1    1    2    0    0 -0.31688421963E+03  0.44378788472E+03 -0.35025022541E+02  0.60090768632E+03  0.25000000000E+03 0.  0.
<mgrwt>
<rscale>  0 0.12036209E+04</rscale>
<asrwt>0</asrwt>
<pdfrwt beam="1">  1        2 0.10633253E+00 0.12036209E+04</pdfrwt>
<pdfrwt beam="2">  1       -2 0.80616997E-01 0.12036209E+04</pdfrwt>
<totfact> 0.55833199E+01</totfact>
</mgrwt>
</event>
<event>
 4    1  0.1804641E-005  0.7850190E+03  0.7818608E-02  0.9581958E-01
         -2   -1    0    0    0  501 -0.00000000000E+00  0.00000000000E+00  0.37163301495E+03  0.37163301495E+03  0.25500000000E-02 0. -1.
          2   -1    0    0  501    0  0.00000000000E+00 -0.00000000000E+00 -0.41455877097E+03  0.41455877098E+03  0.25500000000E-02 0.  1.
   -5000001    1    1    2    0    0  0.94674239333E+02  0.21745624914E+03 -0.20966192651E+03  0.40337148549E+03  0.25000000000E+03 0.  0.
    5000001    1    1    2    0    0 -0.94674239333E+02 -0.21745624914E+03  0.16673617048E+03  0.38282030044E+03  0.25000000000E+03 0.  0.
<mgrwt>
<rscale>  0 0.78501905E+03</rscale>
<asrwt>0</asrwt>
<pdfrwt beam="1">  1        2 0.63778272E-01 0.78501905E+03</pdfrwt>
<pdfrwt beam="2">  1       -2 0.57174310E-01 0.78501905E+03</pdfrwt>
<totfact> 0.22068196E+02</totfact>
</mgrwt>
</event>
<event>
 4    1  0.1804641E-005  0.6789097E+03  0.7818608E-02  0.9753995E-01
          2   -1    0    0  501    0  0.00000000000E+00  0.00000000000E+00  0.39028426153E+03  0.39028426153E+03  0.25500000000E-02 0.  1.
         -2   -1    0    0    0  501 -0.00000000000E+00 -0.00000000000E+00 -0.29524526731E+03  0.29524526732E+03  0.25500000000E-02 0. -1.
   -5000001    1    1    2    0    0 -0.85928658821E+01 -0.17125409263E+03 -0.10670411851E+03  0.32138383670E+03  0.25000000000E+03 0.  0.
    5000001    1    1    2    0    0  0.85928658821E+01  0.17125409263E+03  0.20174311272E+03  0.36414569216E+03  0.25000000000E+03 0.  0.
<mgrwt>
<rscale>  0 0.67890966E+03</rscale>
<asrwt>0</asrwt>
<pdfrwt beam="1">  1        2 0.60043732E-01 0.67890966E+03</pdfrwt>
<pdfrwt beam="2">  1       -2 0.45422349E-01 0.67890966E+03</pdfrwt>
<totfact> 0.37911892E+02</totfact>
</mgrwt>
</event>
<event>
 4    1  0.1804641E-005  0.7961333E+03  0.7818608E-02  0.9565631E-01
         -2   -1    0    0    0  501 -0.00000000000E+00  0.00000000000E+00  0.16214335990E+03  0.16214335992E+03  0.25500000000E-02 0. -1.
          2   -1    0    0  501    0  0.00000000000E+00 -0.00000000000E+00 -0.97726514209E+03  0.97726514210E+03  0.25500000000E-02 0.  1.
   -5000001    1    1    2    0    0 -0.11173593507E+03  0.17627992148E+03 -0.79956998446E+02  0.33533960623E+03  0.25000000000E+03 0.  0.
    5000001    1    1    2    0    0  0.11173593507E+03 -0.17627992148E+03 -0.73516478375E+03  0.80406889579E+03  0.25000000000E+03 0.  0.
<mgrwt>
<rscale>  0 0.79613329E+03</rscale>
<asrwt>0</asrwt>
<pdfrwt beam="1">  1        2 0.15034848E+00 0.79613329E+03</pdfrwt>
<pdfrwt beam="2">  1       -2 0.24945133E-01 0.79613329E+03</pdfrwt>
<totfact> 0.37674384E+02</totfact>
</mgrwt>
</event>
<event>
 4    1  0.1804641E-005  0.1407009E+04  0.7818608E-02  0.8948761E-01
         -2   -1    0    0    0  501 -0.00000000000E+00  0.00000000000E+00  0.13183127451E+03  0.13183127453E+03  0.25500000000E-02 0. -1.
          2   -1    0    0  501    0  0.00000000000E+00 -0.00000000000E+00 -0.37541796004E+04  0.37541796004E+04  0.25500000000E-02 0.  1.
   -5000001    1    1    2    0    0  0.56013166597E+03  0.44989848834E+02 -0.27544604441E+04  0.28222905427E+04  0.25000000000E+03 0.  0.
    5000001    1    1    2    0    0 -0.56013166597E+03 -0.44989848834E+02 -0.86788788187E+03  0.10637203322E+04  0.25000000000E+03 0.  0.
<mgrwt>
<rscale>  0 0.14070086E+04</rscale>
<asrwt>0</asrwt>
<pdfrwt beam="1">  1        2 0.57756601E+00 0.14070086E+04</pdfrwt>
<pdfrwt beam="2">  1       -2 0.20281737E-01 0.14070086E+04</pdfrwt>
<totfact> 0.11032795E+01</totfact>
</mgrwt>
</event>
<event>
 4    1  0.1804641E-005  0.1051578E+04  0.7818608E-02  0.9253716E-01
         -2   -1    0    0    0  501 -0.00000000000E+00  0.00000000000E+00  0.11398351923E+03  0.11398351926E+03  0.25500000000E-02 0. -1.
          2   -1    0    0  501    0  0.00000000000E+00 -0.00000000000E+00 -0.24253859711E+04  0.24253859711E+04  0.25500000000E-02 0.  1.
   -5000001    1    1    2    0    0  0.95939798526E+02 -0.45150059300E+03 -0.10833856619E+04  0.12038611726E+04  0.25000000000E+03 0.  0.
    5000001    1    1    2    0    0 -0.95939798526E+02  0.45150059300E+03 -0.12280167900E+04  0.13355083178E+04  0.25000000000E+03 0.  0.
<mgrwt>
<rscale>  0 0.10515779E+04</rscale>
<asrwt>0</asrwt>
<pdfrwt beam="1">  1        2 0.37313627E+00 0.10515779E+04</pdfrwt>
<pdfrwt beam="2">  1       -2 0.17535928E-01 0.10515779E+04</pdfrwt>
<totfact> 0.10380947E+02</totfact>
</mgrwt>
</event>
<event>
 4    1  0.1804641E-005  0.8556182E+03  0.7818608E-02  0.9482827E-01
         -2   -1    0    0    0  501 -0.00000000000E+00  0.00000000000E+00  0.11124042407E+03  0.11124042410E+03  0.25500000000E-02 0. -1.
          2   -1    0    0  501    0  0.00000000000E+00 -0.00000000000E+00 -0.16452708696E+04  0.16452708696E+04  0.25500000000E-02 0.  1.
   -5000001    1    1    2    0    0 -0.13984731302E+03 -0.15049859963E+03 -0.13415142906E+04  0.13799882939E+04  0.25000000000E+03 0.  0.
    5000001    1    1    2    0    0  0.13984731302E+03  0.15049859963E+03 -0.19251615491E+03  0.37652299976E+03  0.25000000000E+03 0.  0.
<mgrwt>
<rscale>  0 0.85561821E+03</rscale>
<asrwt>0</asrwt>
<pdfrwt beam="1">  1        2 0.25311858E+00 0.85561821E+03</pdfrwt>
<pdfrwt beam="2">  1       -2 0.17113913E-01 0.85561821E+03</pdfrwt>
<totfact> 0.29689688E+02</totfact>
</mgrwt>
</event>
<event>
 4    1  0.1804641E-005  0.6735182E+03  0.7818608E-02  0.9763623E-01
          2   -1    0    0  501    0  0.00000000000E+00  0.00000000000E+00  0.12557718700E+04  0.12557718700E+04  0.25500000000E-02 0.  1.
         -2   -1    0    0    0  501 -0.00000000000E+00 -0.00000000000E+00 -0.90308341588E+02  0.90308341624E+02  0.25500000000E-02 0. -1.
   -5000001    1    1    2    0    0  0.93337966681E+02 -0.20048181770E+03  0.67214986539E+03  0.75046011007E+03  0.25000000000E+03 0.  0.
    5000001    1    1    2    0    0 -0.93337966681E+02  0.20048181770E+03  0.49331366297E+03  0.59562010151E+03  0.25000000000E+03 0.  0.
<mgrwt>
<rscale>  0 0.67351815E+03</rscale>
<asrwt>0</asrwt>
<pdfrwt beam="1">  1        2 0.19319566E+00 0.67351815E+03</pdfrwt>
<pdfrwt beam="2">  1       -2 0.13893592E-01 0.67351815E+03</pdfrwt>
<totfact> 0.70748976E+02</totfact>
</mgrwt>
</event>
<event>
 4    1  0.1804641E-005  0.7214189E+03  0.7818608E-02  0.9681288E-01
          2   -1    0    0  501    0  0.00000000000E+00  0.00000000000E+00  0.22974838039E+03  0.22974838040E+03  0.25500000000E-02 0.  1.
         -2   -1    0    0    0  501 -0.00000000000E+00 -0.00000000000E+00 -0.56632088922E+03  0.56632088923E+03  0.25500000000E-02 0. -1.
   -5000001    1    1    2    0    0  0.18558718878E+02 -0.21697953778E+03 -0.32506842285E+03  0.46432103699E+03  0.25000000000E+03 0.  0.
    5000001    1    1    2    0    0 -0.18558718878E+02  0.21697953778E+03 -0.11504085988E+02  0.33174823263E+03  0.25000000000E+03 0.  0.
<mgrwt>
<rscale>  0 0.72141890E+03</rscale>
<asrwt>0</asrwt>
<pdfrwt beam="1">  1        2 0.35345905E-01 0.72141890E+03</pdfrwt>
<pdfrwt beam="2">  1       -2 0.87126290E-01 0.72141890E+03</pdfrwt>
<totfact> 0.17007814E+02</totfact>
</mgrwt>
</event>
<event>
 4    1  0.1804641E-005  0.5642883E+03  0.7818608E-02  0.9982398E-01
         -2   -1    0    0    0  501 -0.00000000000E+00  0.00000000000E+00  0.32597217440E+02  0.32597217539E+02  0.25500000000E-02 0. -1.
          2   -1    0    0  501    0  0.00000000000E+00 -0.00000000000E+00 -0.24420894860E+04  0.24420894860E+04  0.25500000000E-02 0.  1.
   -5000001    1    1    2    0    0  0.58564922814E+02 -0.11669024761E+03 -0.12383912526E+04  0.12701021056E+04  0.25000000000E+03 0.  0.
    5000001    1    1    2    0    0 -0.58564922814E+02  0.11669024761E+03 -0.11711010160E+04  0.12045845980E+04  0.25000000000E+03 0.  0.
<mgrwt>
<rscale>  0 0.56428830E+03</rscale>
<asrwt>0</asrwt>
<pdfrwt beam="1">  1        2 0.37570593E+00 0.56428830E+03</pdfrwt>
<pdfrwt beam="2">  1       -2 0.50149584E-02 0.56428830E+03</pdfrwt>
<totfact> 0.81248364E+02</totfact>
</mgrwt>
</event>
<event>
 4    1  0.1804641E-005  0.1090562E+04  0.7818608E-02  0.9214440E-01
         -2   -1    0    0    0  501 -0.00000000000E+00  0.00000000000E+00  0.31466045213E+03  0.31466045214E+03  0.25500000000E-02 0. -1.
          2   -1    0    0  501    0  0.00000000000E+00 -0.00000000000E+00 -0.94492806420E+03  0.94492806420E+03  0.25500000000E-02 0.  1.
   -5000001    1    1    2    0    0  0.35997243704E+03 -0.87327777298E+01 -0.68970524312E+03  0.81722074082E+03  0.25000000000E+03 0.  0.
    5000001    1    1    2    0    0 -0.35997243704E+03  0.87327777298E+01  0.59437631058E+02  0.44236777552E+03  0.25000000000E+03 0.  0.
<mgrwt>
<rscale>  0 0.10905622E+04</rscale>
<asrwt>0</asrwt>
<pdfrwt beam="1">  1        2 0.14537355E+00 0.10905622E+04</pdfrwt>
<pdfrwt beam="2">  1       -2 0.48409301E-01 0.10905622E+04</pdfrwt>
<totfact> 0.10983118E+02</totfact>
</mgrwt>
</event>
<event>
 4    1  0.1804641E-005  0.7040486E+03  0.7818608E-02  0.9710333E-01
          2   -1    0    0  501    0  0.00000000000E+00  0.00000000000E+00  0.15194361481E+04  0.15194361481E+04  0.25500000000E-02 0.  1.
         -2   -1    0    0    0  501 -0.00000000000E+00 -0.00000000000E+00 -0.81557308482E+02  0.81557308522E+02  0.25500000000E-02 0. -1.
   -5000001    1    1    2    0    0  0.14356570388E+03  0.17776690720E+03  0.93715797071E+03  0.99648243672E+03  0.25000000000E+03 0.  0.
    5000001    1    1    2    0    0 -0.14356570388E+03 -0.17776690720E+03  0.50072086893E+03  0.60451101992E+03  0.25000000000E+03 0.  0.
<mgrwt>
<rscale>  0 0.70404864E+03</rscale>
<asrwt>0</asrwt>
<pdfrwt beam="1">  1        2 0.23375942E+00 0.70404864E+03</pdfrwt>
<pdfrwt beam="2">  1       -2 0.12547277E-01 0.70404864E+03</pdfrwt>
<totfact> 0.59388075E+02</totfact>
</mgrwt>
</event>
<event>
 4    1  0.1804641E-005  0.6433830E+03  0.7818608E-02  0.9819275E-01
          2   -1    0    0  501    0  0.00000000000E+00  0.00000000000E+00  0.39120208529E+03  0.39120208530E+03  0.25500000000E-02 0.  1.
         -2   -1    0    0    0  501 -0.00000000000E+00 -0.00000000000E+00 -0.26453187834E+03  0.26453187835E+03  0.25500000000E-02 0. -1.
   -5000001    1    1    2    0    0 -0.17319598684E+03 -0.69210561927E+02  0.14357684961E+03  0.34336753411E+03  0.25000000000E+03 0.  0.
    5000001    1    1    2    0    0  0.17319598684E+03  0.69210561927E+02 -0.16906642664E+02  0.31236642954E+03  0.25000000000E+03 0.  0.
<mgrwt>
<rscale>  0 0.64338300E+03</rscale>
<asrwt>0</asrwt>
<pdfrwt beam="1">  1        2 0.60184936E-01 0.64338300E+03</pdfrwt>
<pdfrwt beam="2">  1       -2 0.40697212E-01 0.64338300E+03</pdfrwt>
<totfact> 0.46999160E+02</totfact>
</mgrwt>
</event>
<event>
 4    1  0.1804641E-005  0.7773030E+03  0.7818608E-02  0.9593464E-01
         -2   -1    0    0    0  501 -0.00000000000E+00  0.00000000000E+00  0.29611022471E+03  0.29611022472E+03  0.25500000000E-02 0. -1.
          2   -1    0    0  501    0  0.00000000000E+00 -0.00000000000E+00 -0.51011399292E+03  0.51011399293E+03  0.25500000000E-02 0.  1.
   -5000001    1    1    2    0    0 -0.22405143878E+03  0.18851262143E+03 -0.16202192247E+03  0.41771660132E+03  0.25000000000E+03 0.  0.
    5000001    1    1    2    0    0  0.22405143878E+03 -0.18851262143E+03 -0.51981845747E+02  0.38850761633E+03  0.25000000000E+03 0.  0.
<mgrwt>
<rscale>  0 0.77730295E+03</rscale>
<asrwt>0</asrwt>
<pdfrwt beam="1">  1        2 0.78479076E-01 0.77730295E+03</pdfrwt>
<pdfrwt beam="2">  1       -2 0.45555419E-01 0.77730295E+03</pdfrwt>
<totfact> 0.27688409E+02</totfact>
</mgrwt>
</event>
<event>
 4    1  0.1804641E-005  0.1132817E+04  0.7818608E-02  0.9173784E-01
         -2   -1    0    0    0  501 -0.00000000000E+00  0.00000000000E+00  0.59484985742E+03  0.59484985742E+03  0.25500000000E-02 0. -1.
          2   -1    0    0  501    0  0.00000000000E+00 -0.00000000000E+00 -0.53932694407E+03  0.53932694407E+03  0.25500000000E-02 0.  1.
   -5000001    1    1    2    0    0 -0.89118808027E+02  0.48530101929E+03 -0.94283661490E+02  0.56111375860E+03  0.25000000000E+03 0.  0.
    5000001    1    1    2    0    0  0.89118808027E+02 -0.48530101929E+03  0.14980657484E+03  0.57306304290E+03  0.25000000000E+03 0.  0.
<mgrwt>
<rscale>  0 0.11328169E+04</rscale>
<asrwt>0</asrwt>
<pdfrwt beam="1">  1        2 0.82973376E-01 0.11328169E+04</pdfrwt>
<pdfrwt beam="2">  1       -2 0.91515363E-01 0.11328169E+04</pdfrwt>
<totfact> 0.56793103E+01</totfact>
</mgrwt>
</event>
<event>
 4    1  0.1804641E-005  0.8931616E+03  0.7818608E-02  0.9434170E-01
         -2   -1    0    0    0  501 -0.00000000000E+00  0.00000000000E+00  0.63783894778E+02  0.63783894828E+02  0.25500000000E-02 0. -1.
          2   -1    0    0  501    0  0.00000000000E+00 -0.00000000000E+00 -0.31267204450E+04  0.31267204450E+04  0.25500000000E-02 0.  1.
   -5000001    1    1    2    0    0  0.21561244742E+03 -0.28094825976E+03 -0.11481691685E+04  0.12272787343E+04  0.25000000000E+03 0.  0.
    5000001    1    1    2    0    0 -0.21561244742E+03  0.28094825976E+03 -0.19147673817E+04  0.19632256055E+04  0.25000000000E+03 0.  0.
<mgrwt>
<rscale>  0 0.89316159E+03</rscale>
<asrwt>0</asrwt>
<pdfrwt beam="1">  1        2 0.48103380E+00 0.89316159E+03</pdfrwt>
<pdfrwt beam="2">  1       -2 0.98129093E-02 0.89316159E+03</pdfrwt>
<totfact> 0.10672025E+02</totfact>
</mgrwt>
</event>
<event>
 4    1  0.1804641E-005  0.1101669E+04  0.7818608E-02  0.9203566E-01
         -2   -1    0    0    0  501 -0.00000000000E+00  0.00000000000E+00  0.20804588296E+03  0.20804588297E+03  0.25500000000E-02 0. -1.
          2   -1    0    0  501    0  0.00000000000E+00 -0.00000000000E+00 -0.14584222818E+04  0.14584222818E+04  0.25500000000E-02 0.  1.
   -5000001    1    1    2    0    0  0.22691885184E+03  0.39008287658E+03 -0.91718528850E+03  0.10523239375E+04  0.25000000000E+03 0.  0.
    5000001    1    1    2    0    0 -0.22691885184E+03 -0.39008287658E+03 -0.33319111034E+03  0.61414422730E+03  0.25000000000E+03 0.  0.
<mgrwt>
<rscale>  0 0.11016692E+04</rscale>
<asrwt>0</asrwt>
<pdfrwt beam="1">  1        2 0.22437265E+00 0.11016692E+04</pdfrwt>
<pdfrwt beam="2">  1       -2 0.32007060E-01 0.11016692E+04</pdfrwt>
<totfact> 0.12070736E+02</totfact>
</mgrwt>
</event>
<event>
 4    1  0.1804641E-005  0.7778508E+03  0.7818608E-02  0.9592642E-01
          2   -1    0    0  501    0  0.00000000000E+00  0.00000000000E+00  0.13767481299E+04  0.13767481299E+04  0.25500000000E-02 0.  1.
         -2   -1    0    0    0  501 -0.00000000000E+00 -0.00000000000E+00 -0.10986975079E+03  0.10986975082E+03  0.25500000000E-02 0. -1.
   -5000001    1    1    2    0    0  0.10260587907E+03  0.24666136486E+03  0.88549256487E+03  0.95810588025E+03  0.25000000000E+03 0.  0.
    5000001    1    1    2    0    0 -0.10260587907E+03 -0.24666136486E+03  0.38138581420E+03  0.52851200044E+03  0.25000000000E+03 0.  0.
<mgrwt>
<rscale>  0 0.77785082E+03</rscale>
<asrwt>0</asrwt>
<pdfrwt beam="1">  1        2 0.21180741E+00 0.77785082E+03</pdfrwt>
<pdfrwt beam="2">  1       -2 0.16903038E-01 0.77785082E+03</pdfrwt>
<totfact> 0.43030814E+02</totfact>
</mgrwt>
</event>
<event>
 4    1  0.1804641E-005  0.8318267E+03  0.7818608E-02  0.9515058E-01
         -2   -1    0    0    0  501 -0.00000000000E+00  0.00000000000E+00  0.67250340446E+03  0.67250340446E+03  0.25500000000E-02 0. -1.
          2   -1    0    0  501    0  0.00000000000E+00 -0.00000000000E+00 -0.25722385616E+03  0.25722385617E+03  0.25500000000E-02 0.  1.
   -5000001    1    1    2    0    0 -0.58538990034E+02  0.19907639418E+03 -0.82585626287E+02  0.33522918987E+03  0.25000000000E+03 0.  0.
    5000001    1    1    2    0    0  0.58538990034E+02 -0.19907639418E+03  0.49786517459E+03  0.59449807076E+03  0.25000000000E+03 0.  0.
<mgrwt>
<rscale>  0 0.83182671E+03</rscale>
<asrwt>0</asrwt>
<pdfrwt beam="1">  1        2 0.39572902E-01 0.83182671E+03</pdfrwt>
<pdfrwt beam="2">  1       -2 0.10346206E+00 0.83182671E+03</pdfrwt>
<totfact> 0.99872701E+01</totfact>
</mgrwt>
</event>
<event>
 4    1  0.1804641E-005  0.5473320E+03  0.7818608E-02  0.1002113E+00
         -2   -1    0    0    0  501 -0.00000000000E+00  0.00000000000E+00  0.11365687173E+04  0.11365687173E+04  0.25500000000E-02 0. -1.
          2   -1    0    0  501    0  0.00000000000E+00 -0.00000000000E+00 -0.65894012985E+02  0.65894013035E+02  0.25500000000E-02 0.  1.
   -5000001    1    1    2    0    0  0.10138060960E+03 -0.45830550924E+02  0.54373375170E+03  0.60870753251E+03  0.25000000000E+03 0.  0.
    5000001    1    1    2    0    0 -0.10138060960E+03  0.45830550924E+02  0.52694095262E+03  0.59375519783E+03  0.25000000000E+03 0.  0.
<mgrwt>
<rscale>  0 0.54733198E+03</rscale>
<asrwt>0</asrwt>
<pdfrwt beam="1">  1        2 0.10137540E-01 0.54733198E+03</pdfrwt>
<pdfrwt beam="2">  1       -2 0.17485673E+00 0.54733198E+03</pdfrwt>
<totfact> 0.13146157E+02</totfact>
</mgrwt>
</event>
<event>
 4    1  0.1804641E-005  0.6253301E+03  0.7818608E-02  0.9854204E-01
          2   -1    0    0  501    0  0.00000000000E+00  0.00000000000E+00  0.50451812373E+02  0.50451812437E+02  0.25500000000E-02 0.  1.
         -2   -1    0    0    0  501 -0.00000000000E+00 -0.00000000000E+00 -0.19376795580E+04  0.19376795580E+04  0.25500000000E-02 0. -1.
   -5000001    1    1    2    0    0 -0.61681553315E+02  0.17146943732E+03 -0.10876717200E+04  0.11308121649E+04  0.25000000000E+03 0.  0.
    5000001    1    1    2    0    0  0.61681553315E+02 -0.17146943732E+03 -0.79955602568E+03  0.85731920552E+03  0.25000000000E+03 0.  0.
<mgrwt>
<rscale>  0 0.62533014E+03</rscale>
<asrwt>0</asrwt>
<pdfrwt beam="1">  1        2 0.77618188E-02 0.62533014E+03</pdfrwt>
<pdfrwt beam="2">  1       -2 0.29810449E+00 0.62533014E+03</pdfrwt>
<totfact> 0.31679725E+01</totfact>
</mgrwt>
</event>
<event>
 4    1  0.1804641E-005  0.6494091E+03  0.7818608E-02  0.9807889E-01
          2   -1    0    0  501    0  0.00000000000E+00  0.00000000000E+00  0.22617410313E+03  0.22617410314E+03  0.25500000000E-02 0.  1.
         -2   -1    0    0    0  501 -0.00000000000E+00 -0.00000000000E+00 -0.46615874700E+03  0.46615874701E+03  0.25500000000E-02 0. -1.
   -5000001    1    1    2    0    0 -0.18254812129E+03  0.83869714390E+02 -0.17409177469E+03  0.36491902059E+03  0.25000000000E+03 0.  0.
    5000001    1    1    2    0    0  0.18254812129E+03 -0.83869714390E+02 -0.65892869187E+02  0.32741382956E+03  0.25000000000E+03 0.  0.
<mgrwt>
<rscale>  0 0.64940907E+03</rscale>
<asrwt>0</asrwt>
<pdfrwt beam="1">  1        2 0.34796016E-01 0.64940907E+03</pdfrwt>
<pdfrwt beam="2">  1       -2 0.71716730E-01 0.64940907E+03</pdfrwt>
<totfact> 0.26816762E+02</totfact>
</mgrwt>
</event>
<event>
 4    1  0.1804641E-005  0.7326306E+03  0.7818608E-02  0.9663001E-01
          2   -1    0    0  501    0  0.00000000000E+00  0.00000000000E+00  0.13109820596E+04  0.13109820596E+04  0.25500000000E-02 0.  1.
         -2   -1    0    0    0  501 -0.00000000000E+00 -0.00000000000E+00 -0.10235600292E+03  0.10235600296E+03  0.25500000000E-02 0. -1.
   -5000001    1    1    2    0    0 -0.14217973622E+03  0.16102008354E+03  0.29598829865E+03  0.44300295443E+03  0.25000000000E+03 0.  0.
    5000001    1    1    2    0    0  0.14217973622E+03 -0.16102008354E+03  0.91263775799E+03  0.97033510809E+03  0.25000000000E+03 0.  0.
<mgrwt>
<rscale>  0 0.73263056E+03</rscale>
<asrwt>0</asrwt>
<pdfrwt beam="1">  1        2 0.20168953E+00 0.73263056E+03</pdfrwt>
<pdfrwt beam="2">  1       -2 0.15747078E-01 0.73263056E+03</pdfrwt>
<totfact> 0.53074355E+02</totfact>
</mgrwt>
</event>
<event>
 4    1  0.1804641E-005  0.7636891E+03  0.7818608E-02  0.9614116E-01
         -2   -1    0    0    0  501 -0.00000000000E+00  0.00000000000E+00  0.78549628406E+02  0.78549628447E+02  0.25500000000E-02 0.  1.
          2   -1    0    0  501    0  0.00000000000E+00 -0.00000000000E+00 -0.18562185390E+04  0.18562185390E+04  0.25500000000E-02 0. -1.
   -5000001    1    1    2    0    0  0.26870163541E+02  0.28699386842E+03 -0.85144650968E+03  0.93303196357E+03  0.25000000000E+03 0.  0.
    5000001    1    1    2    0    0 -0.26870163541E+02 -0.28699386842E+03 -0.92622240090E+03  0.10017362039E+04  0.25000000000E+03 0.  0.
<mgrwt>
<rscale>  0 0.76368914E+03</rscale>
<asrwt>0</asrwt>
<pdfrwt beam="1">  1        2 0.28557205E+00 0.76368914E+03</pdfrwt>
<pdfrwt beam="2">  1       -2 0.12084560E-01 0.76368914E+03</pdfrwt>
<totfact> 0.41168153E+02</totfact>
</mgrwt>
</event>
<event>
 4    1  0.1804641E-005  0.6196500E+03  0.7818608E-02  0.9865457E-01
         -2   -1    0    0    0  501 -0.00000000000E+00  0.00000000000E+00  0.50708084228E+03  0.50708084229E+03  0.25500000000E-02 0. -1.
          2   -1    0    0  501    0  0.00000000000E+00 -0.00000000000E+00 -0.18930224386E+03  0.18930224387E+03  0.25500000000E-02 0.  1.
   -5000001    1    1    2    0    0 -0.12602327572E+03  0.13222224131E+03  0.17155196621E+03  0.35396986345E+03  0.25000000000E+03 0.  0.
    5000001    1    1    2    0    0  0.12602327572E+03 -0.13222224131E+03  0.14622663221E+03  0.34241322271E+03  0.25000000000E+03 0.  0.
<mgrwt>
<rscale>  0 0.61965003E+03</rscale>
<asrwt>0</asrwt>
<pdfrwt beam="1">  1        2 0.29123423E-01 0.61965003E+03</pdfrwt>
<pdfrwt beam="2">  1       -2 0.78012436E-01 0.61965003E+03</pdfrwt>
<totfact> 0.27212079E+02</totfact>
</mgrwt>
</event>
<event>
 4    1  0.1804641E-005  0.5874188E+03  0.7818608E-02  0.9931857E-01
         -2   -1    0    0    0  501 -0.00000000000E+00  0.00000000000E+00  0.25012629619E+02  0.25012629749E+02  0.25500000000E-02 0. -1.
          2   -1    0    0  501    0  0.00000000000E+00 -0.00000000000E+00 -0.34488666611E+04  0.34488666611E+04  0.25500000000E-02 0.  1.
   -5000001    1    1    2    0    0 -0.36675822555E+02 -0.12591152581E+02 -0.82956915483E+03  0.86728809269E+03  0.25000000000E+03 0.  0.
    5000001    1    1    2    0    0  0.36675822555E+02  0.12591152581E+02 -0.25942848766E+04  0.26065911981E+04  0.25000000000E+03 0.  0.
<mgrwt>
<rscale>  0 0.58741884E+03</rscale>
<asrwt>0</asrwt>
<pdfrwt beam="1">  1        2 0.53059449E+00 0.58741884E+03</pdfrwt>
<pdfrwt beam="2">  1       -2 0.38480996E-02 0.58741884E+03</pdfrwt>
<totfact> 0.29960154E+02</totfact>
</mgrwt>
</event>
<event>
 4    1  0.1804641E-005  0.6181358E+03  0.7818608E-02  0.9868478E-01
         -2   -1    0    0    0  501 -0.00000000000E+00  0.00000000000E+00  0.20093673603E+03  0.20093673605E+03  0.25500000000E-02 0.  1.
          2   -1    0    0  501    0  0.00000000000E+00 -0.00000000000E+00 -0.47538824565E+03  0.47538824566E+03  0.25500000000E-02 0. -1.
   -5000001    1    1    2    0    0 -0.66705361605E+01 -0.17725373114E+03 -0.18043488616E+03  0.35569668173E+03  0.25000000000E+03 0.  0.
    5000001    1    1    2    0    0  0.66705361605E+01  0.17725373114E+03 -0.94016623465E+02  0.32062829997E+03  0.25000000000E+03 0.  0.
<mgrwt>
<rscale>  0 0.61813579E+03</rscale>
<asrwt>0</asrwt>
<pdfrwt beam="1">  1        2 0.73136653E-01 0.61813579E+03</pdfrwt>
<pdfrwt beam="2">  1       -2 0.30913344E-01 0.61813579E+03</pdfrwt>
<totfact> 0.63670507E+02</totfact>
</mgrwt>
</event>
<event>
 4    1  0.1804641E-005  0.6946583E+03  0.7818608E-02  0.9726411E-01
         -2   -1    0    0    0  501 -0.00000000000E+00  0.00000000000E+00  0.45424667198E+03  0.45424667198E+03  0.25500000000E-02 0. -1.
          2   -1    0    0  501    0  0.00000000000E+00 -0.00000000000E+00 -0.26557718095E+03  0.26557718096E+03  0.25500000000E-02 0.  1.
   -5000001    1    1    2    0    0 -0.23014229394E+03  0.71912498644E+02  0.93488023747E+02  0.35968999639E+03  0.25000000000E+03 0.  0.
    5000001    1    1    2    0    0  0.23014229394E+03 -0.71912498644E+02  0.95181467281E+02  0.36013385655E+03  0.25000000000E+03 0.  0.
<mgrwt>
<rscale>  0 0.69465834E+03</rscale>
<asrwt>0</asrwt>
<pdfrwt beam="1">  1        2 0.40858028E-01 0.69465834E+03</pdfrwt>
<pdfrwt beam="2">  1       -2 0.69884103E-01 0.69465834E+03</pdfrwt>
<totfact> 0.23700450E+02</totfact>
</mgrwt>
</event>
<event>
 4    1  0.1804641E-005  0.8616066E+03  0.7818608E-02  0.9474890E-01
         -2   -1    0    0    0  501 -0.00000000000E+00  0.00000000000E+00  0.85964181437E+02  0.85964181475E+02  0.25500000000E-02 0. -1.
          2   -1    0    0  501    0  0.00000000000E+00 -0.00000000000E+00 -0.21589398424E+04  0.21589398424E+04  0.25500000000E-02 0.  1.
   -5000001    1    1    2    0    0 -0.23196228499E+03 -0.23678026780E+03 -0.13360632029E+04  0.13990840857E+04  0.25000000000E+03 0.  0.
    5000001    1    1    2    0    0  0.23196228499E+03  0.23678026780E+03 -0.73691245808E+03  0.84581993813E+03  0.25000000000E+03 0.  0.
<mgrwt>
<rscale>  0 0.86160663E+03</rscale>
<asrwt>0</asrwt>
<pdfrwt beam="1">  1        2 0.33214455E+00 0.86160663E+03</pdfrwt>
<pdfrwt beam="2">  1       -2 0.13225260E-01 0.86160663E+03</pdfrwt>
<totfact> 0.24011055E+02</totfact>
</mgrwt>
</event>
<event>
 4    1  0.1804641E-005  0.6823519E+03  0.7818608E-02  0.9747898E-01
         -2   -1    0    0    0  501 -0.00000000000E+00  0.00000000000E+00  0.77357030228E+02  0.77357030270E+02  0.25500000000E-02 0.  1.
          2   -1    0    0  501    0  0.00000000000E+00 -0.00000000000E+00 -0.15047244713E+04  0.15047244713E+04  0.25500000000E-02 0. -1.
   -5000001    1    1    2    0    0 -0.12781633860E+03 -0.19379556322E+03 -0.70742799693E+03  0.78539678352E+03  0.25000000000E+03 0.  0.
    5000001    1    1    2    0    0  0.12781633860E+03  0.19379556322E+03 -0.71993944416E+03  0.79668471806E+03  0.25000000000E+03 0.  0.
<mgrwt>
<rscale>  0 0.68235186E+03</rscale>
<asrwt>0</asrwt>
<pdfrwt beam="1">  1        2 0.23149605E+00 0.68235186E+03</pdfrwt>
<pdfrwt beam="2">  1       -2 0.11901083E-01 0.68235186E+03</pdfrwt>
<totfact> 0.66123061E+02</totfact>
</mgrwt>
</event>
<event>
 4    1  0.1804641E-005  0.6184913E+03  0.7818608E-02  0.9867768E-01
          2   -1    0    0  501    0  0.00000000000E+00  0.00000000000E+00  0.21979331976E+04  0.21979331976E+04  0.25500000000E-02 0.  1.
         -2   -1    0    0    0  501 -0.00000000000E+00 -0.00000000000E+00 -0.43510367785E+02  0.43510367860E+02  0.25500000000E-02 0. -1.
   -5000001    1    1    2    0    0  0.17122071939E+03  0.48282061224E+02  0.12168756331E+04  0.12549637440E+04  0.25000000000E+03 0.  0.
    5000001    1    1    2    0    0 -0.17122071939E+03 -0.48282061224E+02  0.93754719664E+03  0.98647982145E+03  0.25000000000E+03 0.  0.
<mgrwt>
<rscale>  0 0.61849133E+03</rscale>
<asrwt>0</asrwt>
<pdfrwt beam="1">  1        2 0.33814360E+00 0.61849133E+03</pdfrwt>
<pdfrwt beam="2">  1       -2 0.66939022E-02 0.61849133E+03</pdfrwt>
<totfact> 0.70270874E+02</totfact>
</mgrwt>
</event>
<event>
 4    1  0.1804641E-005  0.1020190E+04  0.7818608E-02  0.9286673E-01
          2   -1    0    0  501    0  0.00000000000E+00  0.00000000000E+00  0.12636270192E+04  0.12636270192E+04  0.25500000000E-02 0.  1.
         -2   -1    0    0    0  501 -0.00000000000E+00 -0.00000000000E+00 -0.20591289221E+03  0.20591289222E+03  0.25500000000E-02 0. -1.
   -5000001    1    1    2    0    0 -0.94295834705E+02  0.43361122669E+03  0.56925908069E+03  0.76384965883E+03  0.25000000000E+03 0.  0.
    5000001    1    1    2    0    0  0.94295834705E+02 -0.43361122669E+03  0.48845504632E+03  0.70569025261E+03  0.25000000000E+03 0.  0.
<mgrwt>
<rscale>  0 0.10201904E+04</rscale>
<asrwt>0</asrwt>
<pdfrwt beam="1">  1        2 0.19440416E+00 0.10201904E+04</pdfrwt>
<pdfrwt beam="2">  1       -2 0.31678906E-01 0.10201904E+04</pdfrwt>
<totfact> 0.16011781E+02</totfact>
</mgrwt>
</event>
<event>
 4    1  0.1804641E-005  0.8172460E+03  0.7818608E-02  0.9535384E-01
         -2   -1    0    0    0  501 -0.00000000000E+00  0.00000000000E+00  0.18871319788E+04  0.18871319788E+04  0.25500000000E-02 0. -1.
          2   -1    0    0  501    0  0.00000000000E+00 -0.00000000000E+00 -0.88479632662E+02  0.88479632699E+02  0.25500000000E-02 0.  1.
   -5000001    1    1    2    0    0 -0.11038253122E+02  0.31141705674E+03  0.69179091167E+03  0.79885986990E+03  0.25000000000E+03 0.  0.
    5000001    1    1    2    0    0  0.11038253122E+02 -0.31141705674E+03  0.11068614345E+04  0.11767517416E+04  0.25000000000E+03 0.  0.
<mgrwt>
<rscale>  0 0.81724597E+03</rscale>
<asrwt>0</asrwt>
<pdfrwt beam="1">  1        2 0.13612253E-01 0.81724597E+03</pdfrwt>
<pdfrwt beam="2">  1       -2 0.29032796E+00 0.81724597E+03</pdfrwt>
<totfact> 0.16965130E+01</totfact>
</mgrwt>
</event>
<event>
 4    1  0.1804641E-005  0.8944221E+03  0.7818608E-02  0.9432581E-01
          2   -1    0    0  501    0  0.00000000000E+00  0.00000000000E+00  0.49576973284E+04  0.49576973284E+04  0.25500000000E-02 0.  1.
         -2   -1    0    0    0  501 -0.00000000000E+00 -0.00000000000E+00 -0.40340847480E+02  0.40340847561E+02  0.25500000000E-02 0. -1.
   -5000001    1    1    2    0    0  0.29478613946E+03 -0.17610899432E+03  0.32406893589E+04  0.32684064568E+04  0.25000000000E+03 0.  0.
    5000001    1    1    2    0    0 -0.29478613946E+03  0.17610899432E+03  0.16766671220E+04  0.17296317191E+04  0.25000000000E+03 0.  0.
<mgrwt>
<rscale>  0 0.89442207E+03</rscale>
<asrwt>0</asrwt>
<pdfrwt beam="1">  1        2 0.76272218E+00 0.89442207E+03</pdfrwt>
<pdfrwt beam="2">  1       -2 0.62062882E-02 0.89442207E+03</pdfrwt>
<totfact> 0.64687075E+00</totfact>
</mgrwt>
</event>
<event>
 4    1  0.1804641E-005  0.8799272E+03  0.7818608E-02  0.9451027E-01
         -2   -1    0    0    0  501 -0.00000000000E+00  0.00000000000E+00  0.24972654371E+03  0.24972654372E+03  0.25500000000E-02 0. -1.
          2   -1    0    0  501    0  0.00000000000E+00 -0.00000000000E+00 -0.77511964333E+03  0.77511964334E+03  0.25500000000E-02 0.  1.
   -5000001    1    1    2    0    0 -0.20496481366E+03 -0.29041315114E+03 -0.18269996700E+03  0.47141240028E+03  0.25000000000E+03 0.  0.
    5000001    1    1    2    0    0  0.20496481366E+03  0.29041315114E+03 -0.34269313263E+03  0.55343378678E+03  0.25000000000E+03 0.  0.
<mgrwt>
<rscale>  0 0.87992715E+03</rscale>
<asrwt>0</asrwt>
<pdfrwt beam="1">  1        2 0.11924917E+00 0.87992715E+03</pdfrwt>
<pdfrwt beam="2">  1       -2 0.38419469E-01 0.87992715E+03</pdfrwt>
<totfact> 0.23050413E+02</totfact>
</mgrwt>
</event>
<event>
 4    1  0.1804641E-005  0.5707509E+03  0.7818608E-02  0.9968018E-01
          2   -1    0    0  501    0  0.00000000000E+00  0.00000000000E+00  0.11305485739E+03  0.11305485742E+03  0.25500000000E-02 0.  1.
         -2   -1    0    0    0  501 -0.00000000000E+00 -0.00000000000E+00 -0.72035078760E+03  0.72035078760E+03  0.25500000000E-02 0. -1.
   -5000001    1    1    2    0    0 -0.79785087572E+02  0.12374018889E+02 -0.14091436365E+03  0.29812016776E+03  0.25000000000E+03 0.  0.
    5000001    1    1    2    0    0  0.79785087572E+02 -0.12374018889E+02 -0.46638156656E+03  0.53528547726E+03  0.25000000000E+03 0.  0.
<mgrwt>
<rscale>  0 0.57075093E+03</rscale>
<asrwt>0</asrwt>
<pdfrwt beam="1">  1        2 0.17393055E-01 0.57075093E+03</pdfrwt>
<pdfrwt beam="2">  1       -2 0.11082320E+00 0.57075093E+03</pdfrwt>
<totfact> 0.21925029E+02</totfact>
</mgrwt>
</event>
<event>
 4    1  0.1804641E-005  0.1384673E+04  0.7818608E-02  0.8964989E-01
         -2   -1    0    0    0  501 -0.00000000000E+00  0.00000000000E+00  0.89041327252E+03  0.89041327252E+03  0.25500000000E-02 0. -1.
          2   -1    0    0  501    0  0.00000000000E+00 -0.00000000000E+00 -0.53832257171E+03  0.53832257172E+03  0.25500000000E-02 0.  1.
   -5000001    1    1    2    0    0 -0.96330065092E+02 -0.36280931017E+03 -0.36595057708E+03  0.58080108630E+03  0.25000000000E+03 0.  0.
    5000001    1    1    2    0    0  0.96330065092E+02  0.36280931017E+03  0.71804127788E+03  0.84793475794E+03  0.25000000000E+03 0.  0.
<mgrwt>
<rscale>  0 0.13846726E+04</rscale>
<asrwt>0</asrwt>
<pdfrwt beam="1">  1        2 0.82818858E-01 0.13846726E+04</pdfrwt>
<pdfrwt beam="2">  1       -2 0.13698666E+00 0.13846726E+04</pdfrwt>
<totfact> 0.20895533E+01</totfact>
</mgrwt>
</event>
<event>
 4    1  0.1804641E-005  0.1410858E+04  0.7818608E-02  0.8945996E-01
          2   -1    0    0  501    0  0.00000000000E+00  0.00000000000E+00  0.21625838190E+04  0.21625838190E+04  0.25500000000E-02 0.  1.
         -2   -1    0    0    0  501 -0.00000000000E+00 -0.00000000000E+00 -0.23010902904E+03  0.23010902906E+03  0.25500000000E-02 0. -1.
   -5000001    1    1    2    0    0 -0.42068550186E+03 -0.44593577950E+03  0.55327274433E+03  0.86281269145E+03  0.25000000000E+03 0.  0.
    5000001    1    1    2    0    0  0.42068550186E+03  0.44593577950E+03  0.13792020456E+04  0.15298801566E+04  0.25000000000E+03 0.  0.
<mgrwt>
<rscale>  0 0.14108580E+04</rscale>
<asrwt>0</asrwt>
<pdfrwt beam="1">  1        2 0.33270519E+00 0.14108580E+04</pdfrwt>
<pdfrwt beam="2">  1       -2 0.35401390E-01 0.14108580E+04</pdfrwt>
<totfact> 0.39559947E+01</totfact>
</mgrwt>
</event>
<event>
 4    1  0.1804641E-005  0.9682778E+03  0.7818608E-02  0.9344038E-01
         -2   -1    0    0    0  501 -0.00000000000E+00  0.00000000000E+00  0.49918528546E+02  0.49918528611E+02  0.25500000000E-02 0. -1.
          2   -1    0    0  501    0  0.00000000000E+00 -0.00000000000E+00 -0.46954607714E+04  0.46954607714E+04  0.25500000000E-02 0.  1.
   -5000001    1    1    2    0    0 -0.68539624354E+02  0.29227682124E+03 -0.37241648318E+04  0.37445997270E+04  0.25000000000E+03 0.  0.
    5000001    1    1    2    0    0  0.68539624354E+02 -0.29227682124E+03 -0.92137741103E+03  0.10007795731E+04  0.25000000000E+03 0.  0.
<mgrwt>
<rscale>  0 0.96827784E+03</rscale>
<asrwt>0</asrwt>
<pdfrwt beam="1">  1        2 0.72237823E+00 0.96827784E+03</pdfrwt>
<pdfrwt beam="2">  1       -2 0.76797773E-02 0.96827784E+03</pdfrwt>
<totfact> 0.89636572E+00</totfact>
</mgrwt>
</event>
<event>
 4    1  0.1804641E-005  0.9899284E+03  0.7818608E-02  0.9319661E-01
          2   -1    0    0  501    0  0.00000000000E+00  0.00000000000E+00  0.33690344663E+04  0.33690344663E+04  0.25500000000E-02 0.  1.
         -2   -1    0    0    0  501 -0.00000000000E+00 -0.00000000000E+00 -0.72718028829E+02  0.72718028874E+02  0.25500000000E-02 0. -1.
   -5000001    1    1    2    0    0  0.38209810298E+03 -0.13102343134E+03  0.11648567116E+04  0.12579973205E+04  0.25000000000E+03 0.  0.
    5000001    1    1    2    0    0 -0.38209810298E+03  0.13102343134E+03  0.21314597259E+04  0.21837551747E+04  0.25000000000E+03 0.  0.
<mgrwt>
<rscale>  0 0.98992837E+03</rscale>
<asrwt>0</asrwt>
<pdfrwt beam="1">  1        2 0.51831297E+00 0.98992837E+03</pdfrwt>
<pdfrwt beam="2">  1       -2 0.11187390E-01 0.98992837E+03</pdfrwt>
<totfact> 0.59339890E+01</totfact>
</mgrwt>
</event>
<event>
 4    1  0.1804641E-005  0.8705886E+03  0.7818608E-02  0.9463113E-01
          2   -1    0    0  501    0  0.00000000000E+00  0.00000000000E+00  0.86112013037E+03  0.86112013037E+03  0.25500000000E-02 0.  1.
         -2   -1    0    0    0  501 -0.00000000000E+00 -0.00000000000E+00 -0.22004028760E+03  0.22004028762E+03  0.25500000000E-02 0. -1.
   -5000001    1    1    2    0    0  0.26842915361E+03  0.22061434965E+03  0.22231240725E+03  0.48233567999E+03  0.25000000000E+03 0.  0.
    5000001    1    1    2    0    0 -0.26842915361E+03 -0.22061434965E+03  0.41876743552E+03  0.59882473799E+03  0.25000000000E+03 0.  0.
<mgrwt>
<rscale>  0 0.87058859E+03</rscale>
<asrwt>0</asrwt>
<pdfrwt beam="1">  1        2 0.13248002E+00 0.87058859E+03</pdfrwt>
<pdfrwt beam="2">  1       -2 0.33852353E-01 0.87058859E+03</pdfrwt>
<totfact> 0.25522488E+02</totfact>
</mgrwt>
</event>
<event>
 4    1  0.1804641E-005  0.7018881E+03  0.7818608E-02  0.9714009E-01
          2   -1    0    0  501    0  0.00000000000E+00  0.00000000000E+00  0.13334681668E+04  0.13334681668E+04  0.25500000000E-02 0.  1.
         -2   -1    0    0    0  501 -0.00000000000E+00 -0.00000000000E+00 -0.92361952948E+02  0.92361952983E+02  0.25500000000E-02 0. -1.
   -5000001    1    1    2    0    0 -0.11319925429E+03  0.21636985071E+03  0.68580380739E+03  0.76971218368E+03  0.25000000000E+03 0.  0.
    5000001    1    1    2    0    0  0.11319925429E+03 -0.21636985071E+03  0.55530240650E+03  0.65611793615E+03  0.25000000000E+03 0.  0.
<mgrwt>
<rscale>  0 0.70188809E+03</rscale>
<asrwt>0</asrwt>
<pdfrwt beam="1">  1        2 0.20514897E+00 0.70188809E+03</pdfrwt>
<pdfrwt beam="2">  1       -2 0.14209530E-01 0.70188809E+03</pdfrwt>
<totfact> 0.61382627E+02</totfact>
</mgrwt>
</event>
<event>
 4    1  0.1804641E-005  0.7882570E+03  0.7818608E-02  0.9577172E-01
          2   -1    0    0  501    0  0.00000000000E+00  0.00000000000E+00  0.16774308889E+04  0.16774308889E+04  0.25500000000E-02 0.  1.
         -2   -1    0    0    0  501 -0.00000000000E+00 -0.00000000000E+00 -0.92604284870E+02  0.92604284905E+02  0.25500000000E-02 0. -1.
   -5000001    1    1    2    0    0  0.72451075466E+01 -0.26294192300E+03  0.11377128582E+04  0.11941865407E+04  0.25000000000E+03 0.  0.
    5000001    1    1    2    0    0 -0.72451075466E+01  0.26294192300E+03  0.44711374582E+03  0.57584863302E+03  0.25000000000E+03 0.  0.
<mgrwt>
<rscale>  0 0.78825703E+03</rscale>
<asrwt>0</asrwt>
<pdfrwt beam="1">  1        2 0.25806628E+00 0.78825703E+03</pdfrwt>
<pdfrwt beam="2">  1       -2 0.14246814E-01 0.78825703E+03</pdfrwt>
<totfact> 0.39106702E+02</totfact>
</mgrwt>
</event>
<event>
 4    1  0.1804641E-005  0.5730975E+03  0.7818608E-02  0.9962848E-01
          2   -1    0    0  501    0  0.00000000000E+00  0.00000000000E+00  0.16079859250E+03  0.16079859252E+03  0.25500000000E-02 0.  1.
         -2   -1    0    0    0  501 -0.00000000000E+00 -0.00000000000E+00 -0.51063990200E+03  0.51063990200E+03  0.25500000000E-02 0. -1.
   -5000001    1    1    2    0    0 -0.31865755676E+02 -0.10071104385E+03 -0.67210057390E+02  0.27959852030E+03  0.25000000000E+03 0.  0.
    5000001    1    1    2    0    0  0.31865755676E+02  0.10071104385E+03 -0.28263125210E+03  0.39183997423E+03  0.25000000000E+03 0.  0.
<mgrwt>
<rscale>  0 0.57309747E+03</rscale>
<asrwt>0</asrwt>
<pdfrwt beam="1">  1        2 0.24738245E-01 0.57309747E+03</pdfrwt>
<pdfrwt beam="2">  1       -2 0.78559984E-01 0.57309747E+03</pdfrwt>
<totfact> 0.32284907E+02</totfact>
</mgrwt>
</event>
<event>
 4    1  0.1804641E-005  0.5635371E+03  0.7818608E-02  0.9984083E-01
          2   -1    0    0  501    0  0.00000000000E+00  0.00000000000E+00  0.68570457770E+03  0.68570457771E+03  0.25500000000E-02 0.  1.
         -2   -1    0    0    0  501 -0.00000000000E+00 -0.00000000000E+00 -0.11578385421E+03  0.11578385424E+03  0.25500000000E-02 0. -1.
   -5000001    1    1    2    0    0  0.11785898977E+03  0.36702157871E+02  0.22708824522E+03  0.35959263198E+03  0.25000000000E+03 0.  0.
    5000001    1    1    2    0    0 -0.11785898977E+03 -0.36702157871E+02  0.34283247828E+03  0.44189579996E+03  0.25000000000E+03 0.  0.
<mgrwt>
<rscale>  0 0.56353711E+03</rscale>
<asrwt>0</asrwt>
<pdfrwt beam="1">  1        2 0.10549301E+00 0.56353711E+03</pdfrwt>
<pdfrwt beam="2">  1       -2 0.17812901E-01 0.56353711E+03</pdfrwt>
<totfact> 0.11020891E+03</totfact>
</mgrwt>
</event>
<event>
 4    1  0.1804641E-005  0.8268061E+03  0.7818608E-02  0.9522007E-01
          2   -1    0    0  501    0  0.00000000000E+00  0.00000000000E+00  0.39991072514E+04  0.39991072514E+04  0.25500000000E-02 0.  1.
         -2   -1    0    0    0  501 -0.00000000000E+00 -0.00000000000E+00 -0.42735060747E+02  0.42735060823E+02  0.25500000000E-02 0. -1.
   -5000001    1    1    2    0    0 -0.35190919067E+02  0.32733141420E+03  0.19988315318E+04  0.20411300174E+04  0.25000000000E+03 0.  0.
    5000001    1    1    2    0    0  0.35190919067E+02 -0.32733141420E+03  0.19575406589E+04  0.20007122948E+04  0.25000000000E+03 0.  0.
<mgrwt>
<rscale>  0 0.82680612E+03</rscale>
<asrwt>0</asrwt>
<pdfrwt beam="1">  1        2 0.61524742E+00 0.82680612E+03</pdfrwt>
<pdfrwt beam="2">  1       -2 0.65746232E-02 0.82680612E+03</pdfrwt>
<totfact> 0.50134879E+01</totfact>
</mgrwt>
</event>
<event>
 4    1  0.1804641E-005  0.9240849E+03  0.7818608E-02  0.9395965E-01
         -2   -1    0    0    0  501 -0.00000000000E+00  0.00000000000E+00  0.83973232486E+02  0.83973232525E+02  0.25500000000E-02 0.  1.
          2   -1    0    0  501    0  0.00000000000E+00 -0.00000000000E+00 -0.25422772817E+04  0.25422772817E+04  0.25500000000E-02 0. -1.
   -5000001    1    1    2    0    0 -0.13801076863E+03 -0.34503717559E+03 -0.90654274059E+03  0.10111465598E+04  0.25000000000E+03 0.  0.
    5000001    1    1    2    0    0  0.13801076863E+03  0.34503717559E+03 -0.15517613086E+04  0.16151039545E+04  0.25000000000E+03 0.  0.
<mgrwt>
<rscale>  0 0.92408493E+03</rscale>
<asrwt>0</asrwt>
<pdfrwt beam="1">  1        2 0.39111952E+00 0.92408493E+03</pdfrwt>
<pdfrwt beam="2">  1       -2 0.12918961E-01 0.92408493E+03</pdfrwt>
<totfact> 0.15132478E+02</totfact>
</mgrwt>
</event>
<event>
 4    1  0.1804641E-005  0.6677713E+03  0.7818608E-02  0.9773992E-01
         -2   -1    0    0    0  501 -0.00000000000E+00  0.00000000000E+00  0.17802602004E+03  0.17802602006E+03  0.25500000000E-02 0. -1.
          2   -1    0    0  501    0  0.00000000000E+00 -0.00000000000E+00 -0.62619858144E+03  0.62619858145E+03  0.25500000000E-02 0.  1.
   -5000001    1    1    2    0    0  0.13350438458E+02 -0.13576917571E+03 -0.14212271402E+02  0.28515520675E+03  0.25000000000E+03 0.  0.
    5000001    1    1    2    0    0 -0.13350438458E+02  0.13576917571E+03 -0.43396028999E+03  0.51906939476E+03  0.25000000000E+03 0.  0.
<mgrwt>
<rscale>  0 0.66777134E+03</rscale>
<asrwt>0</asrwt>
<pdfrwt beam="1">  1        2 0.96338242E-01 0.66777134E+03</pdfrwt>
<pdfrwt beam="2">  1       -2 0.27388619E-01 0.66777134E+03</pdfrwt>
<totfact> 0.57472960E+02</totfact>
</mgrwt>
</event>
<event>
 4    1  0.1804641E-005  0.6535308E+03  0.7818608E-02  0.9800176E-01
         -2   -1    0    0    0  501 -0.00000000000E+00  0.00000000000E+00  0.52433596401E+02  0.52433596463E+02  0.25500000000E-02 0. -1.
          2   -1    0    0  501    0  0.00000000000E+00 -0.00000000000E+00 -0.20363971968E+04  0.20363971968E+04  0.25500000000E-02 0.  1.
   -5000001    1    1    2    0    0 -0.22332209606E+02 -0.16923131016E+03 -0.59873369398E+03  0.67090983018E+03  0.25000000000E+03 0.  0.
    5000001    1    1    2    0    0  0.22332209606E+02  0.16923131016E+03 -0.13852299065E+04  0.14179209631E+04  0.25000000000E+03 0.  0.
<mgrwt>
<rscale>  0 0.65353081E+03</rscale>
<asrwt>0</asrwt>
<pdfrwt beam="1">  1        2 0.31329181E+00 0.65353081E+03</pdfrwt>
<pdfrwt beam="2">  1       -2 0.80667087E-02 0.65353081E+03</pdfrwt>
<totfact> 0.63852413E+02</totfact>
</mgrwt>
</event>
<event>
 4    1  0.1804641E-005  0.6368977E+03  0.7818608E-02  0.9831680E-01
         -2   -1    0    0    0  501 -0.00000000000E+00  0.00000000000E+00  0.25941689093E+03  0.25941689095E+03  0.25500000000E-02 0. -1.
          2   -1    0    0  501    0  0.00000000000E+00 -0.00000000000E+00 -0.39091385380E+03  0.39091385381E+03  0.25500000000E-02 0.  1.
   -5000001    1    1    2    0    0 -0.18261109289E+03 -0.57685620221E+02 -0.11402369935E+03  0.33492662784E+03  0.25000000000E+03 0.  0.
    5000001    1    1    2    0    0  0.18261109289E+03  0.57685620221E+02 -0.17473263519E+02  0.31540411691E+03  0.25000000000E+03 0.  0.
<mgrwt>
<rscale>  0 0.63689766E+03</rscale>
<asrwt>0</asrwt>
<pdfrwt beam="1">  1        2 0.60140593E-01 0.63689766E+03</pdfrwt>
<pdfrwt beam="2">  1       -2 0.39910291E-01 0.63689766E+03</pdfrwt>
<totfact> 0.48867918E+02</totfact>
</mgrwt>
</event>
<event>
 4    1  0.1804641E-005  0.1392000E+04  0.7818608E-02  0.8959630E-01
          2   -1    0    0  501    0  0.00000000000E+00  0.00000000000E+00  0.21159633740E+04  0.21159633740E+04  0.25500000000E-02 0.  1.
         -2   -1    0    0    0  501 -0.00000000000E+00 -0.00000000000E+00 -0.22893397664E+03  0.22893397665E+03  0.25500000000E-02 0. -1.
   -5000001    1    1    2    0    0  0.53685753064E+03  0.35083419067E+03  0.11170749245E+04  0.13121192875E+04  0.25000000000E+03 0.  0.
    5000001    1    1    2    0    0 -0.53685753064E+03 -0.35083419067E+03  0.76995447287E+03  0.10327780632E+04  0.25000000000E+03 0.  0.
<mgrwt>
<rscale>  0 0.13919999E+04</rscale>
<asrwt>0</asrwt>
<pdfrwt beam="1">  1        2 0.32553284E+00 0.13919999E+04</pdfrwt>
<pdfrwt beam="2">  1       -2 0.35220610E-01 0.13919999E+04</pdfrwt>
<totfact> 0.42479372E+01</totfact>
</mgrwt>
</event>
<event>
 4    1  0.1804641E-005  0.7118968E+03  0.7818608E-02  0.9697101E-01
          2   -1    0    0  501    0  0.00000000000E+00  0.00000000000E+00  0.73941192593E+03  0.73941192594E+03  0.25500000000E-02 0.  1.
         -2   -1    0    0    0  501 -0.00000000000E+00 -0.00000000000E+00 -0.17135137387E+03  0.17135137389E+03  0.25500000000E-02 0. -1.
   -5000001    1    1    2    0    0 -0.13770974376E+03  0.20047695630E+03  0.19316718877E+03  0.39870859829E+03  0.25000000000E+03 0.  0.
    5000001    1    1    2    0    0  0.13770974376E+03 -0.20047695630E+03  0.37489336329E+03  0.51205470154E+03  0.25000000000E+03 0.  0.
<mgrwt>
<rscale>  0 0.71189676E+03</rscale>
<asrwt>0</asrwt>
<pdfrwt beam="1">  1        2 0.11375568E+00 0.71189676E+03</pdfrwt>
<pdfrwt beam="2">  1       -2 0.26361750E-01 0.71189676E+03</pdfrwt>
<totfact> 0.50005572E+02</totfact>
</mgrwt>
</event>
<event>
 4    1  0.1804641E-005  0.6787561E+03  0.7818608E-02  0.9754268E-01
         -2   -1    0    0    0  501 -0.00000000000E+00  0.00000000000E+00  0.31255503722E+02  0.31255503826E+02  0.25500000000E-02 0. -1.
          2   -1    0    0  501    0  0.00000000000E+00 -0.00000000000E+00 -0.36850299818E+04  0.36850299818E+04  0.25500000000E-02 0.  1.
   -5000001    1    1    2    0    0 -0.66528556839E+02 -0.43319333532E+02 -0.30059490995E+04  0.30173718038E+04  0.25000000000E+03 0.  0.
    5000001    1    1    2    0    0  0.66528556839E+02  0.43319333532E+02 -0.64782537865E+03  0.69891368191E+03  0.25000000000E+03 0.  0.
<mgrwt>
<rscale>  0 0.67875612E+03</rscale>
<asrwt>0</asrwt>
<pdfrwt beam="1">  1        2 0.56692735E+00 0.67875612E+03</pdfrwt>
<pdfrwt beam="2">  1       -2 0.48085420E-02 0.67875612E+03</pdfrwt>
<totfact> 0.14401098E+02</totfact>
</mgrwt>
</event>
<event>
 4    1  0.1804641E-005  0.6319157E+03  0.7818608E-02  0.9841318E-01
          2   -1    0    0  501    0  0.00000000000E+00  0.00000000000E+00  0.77207807539E+03  0.77207807540E+03  0.25500000000E-02 0.  1.
         -2   -1    0    0    0  501 -0.00000000000E+00 -0.00000000000E+00 -0.12929957994E+03  0.12929957997E+03  0.25500000000E-02 0. -1.
   -5000001    1    1    2    0    0  0.12760217560E+03  0.14262222187E+03  0.35928904530E+03  0.47771542938E+03  0.25000000000E+03 0.  0.
    5000001    1    1    2    0    0 -0.12760217560E+03 -0.14262222187E+03  0.28348945014E+03  0.42366222599E+03  0.25000000000E+03 0.  0.
<mgrwt>
<rscale>  0 0.63191572E+03</rscale>
<asrwt>0</asrwt>
<pdfrwt beam="1">  1        2 0.11878124E+00 0.63191572E+03</pdfrwt>
<pdfrwt beam="2">  1       -2 0.19892243E-01 0.63191572E+03</pdfrwt>
<totfact> 0.78219002E+02</totfact>
</mgrwt>
</event>
<event>
 4    1  0.1804641E-005  0.5449053E+03  0.7818608E-02  0.1002680E+00
         -2   -1    0    0    0  501 -0.00000000000E+00  0.00000000000E+00  0.75401289267E+02  0.75401289310E+02  0.25500000000E-02 0. -1.
          2   -1    0    0  501    0  0.00000000000E+00 -0.00000000000E+00 -0.98447179930E+03  0.98447179931E+03  0.25500000000E-02 0.  1.
   -5000001    1    1    2    0    0 -0.26061433739E+02 -0.92323932773E+02 -0.35674816498E+03  0.44606295532E+03  0.25000000000E+03 0.  0.
    5000001    1    1    2    0    0  0.26061433739E+02  0.92323932773E+02 -0.55232234505E+03  0.61381013329E+03  0.25000000000E+03 0.  0.
<mgrwt>
<rscale>  0 0.54490529E+03</rscale>
<asrwt>0</asrwt>
<pdfrwt beam="1">  1        2 0.15145719E+00 0.54490529E+03</pdfrwt>
<pdfrwt beam="2">  1       -2 0.11600199E-01 0.54490529E+03</pdfrwt>
<totfact> 0.13974479E+03</totfact>
</mgrwt>
</event>
<event>
 4    1  0.1804641E-005  0.7031013E+03  0.7818608E-02  0.9711943E-01
         -2   -1    0    0    0  501 -0.00000000000E+00  0.00000000000E+00  0.92188022068E+02  0.92188022103E+02  0.25500000000E-02 0. -1.
          2   -1    0    0  501    0  0.00000000000E+00 -0.00000000000E+00 -0.13406064975E+04  0.13406064975E+04  0.25500000000E-02 0.  1.
   -5000001    1    1    2    0    0 -0.23654525470E+03  0.63472644659E+02 -0.55645583794E+03  0.65736255880E+03  0.25000000000E+03 0.  0.
    5000001    1    1    2    0    0  0.23654525470E+03 -0.63472644659E+02 -0.69196263747E+03  0.77543196078E+03  0.25000000000E+03 0.  0.
<mgrwt>
<rscale>  0 0.70310131E+03</rscale>
<asrwt>0</asrwt>
<pdfrwt beam="1">  1        2 0.20624714E+00 0.70310131E+03</pdfrwt>
<pdfrwt beam="2">  1       -2 0.14182774E-01 0.70310131E+03</pdfrwt>
<totfact> 0.60998770E+02</totfact>
</mgrwt>
</event>
<event>
 4    1  0.1804641E-005  0.7915510E+03  0.7818608E-02  0.9572328E-01
         -2   -1    0    0    0  501 -0.00000000000E+00  0.00000000000E+00  0.53192657245E+02  0.53192657306E+02  0.25500000000E-02 0. -1.
          2   -1    0    0  501    0  0.00000000000E+00 -0.00000000000E+00 -0.29447340552E+04  0.29447340552E+04  0.25500000000E-02 0.  1.
   -5000001    1    1    2    0    0  0.24739364645E+03 -0.11438431300E+03 -0.19793900865E+04  0.20136465682E+04  0.25000000000E+03 0.  0.
    5000001    1    1    2    0    0 -0.24739364645E+03  0.11438431300E+03 -0.91215131153E+03  0.98428014431E+03  0.25000000000E+03 0.  0.
<mgrwt>
<rscale>  0 0.79155096E+03</rscale>
<asrwt>0</asrwt>
<pdfrwt beam="1">  1        2 0.45303588E+00 0.79155096E+03</pdfrwt>
<pdfrwt beam="2">  1       -2 0.81834881E-02 0.79155096E+03</pdfrwt>
<totfact> 0.18752820E+02</totfact>
</mgrwt>
</event>
<event>
 4    1  0.1804641E-005  0.6284259E+03  0.7818608E-02  0.9848125E-01
         -2   -1    0    0    0  501 -0.00000000000E+00  0.00000000000E+00  0.12400590986E+03  0.12400590989E+03  0.25500000000E-02 0. -1.
          2   -1    0    0  501    0  0.00000000000E+00 -0.00000000000E+00 -0.79616986621E+03  0.79616986621E+03  0.25500000000E-02 0.  1.
   -5000001    1    1    2    0    0 -0.18152330631E+03  0.51741432328E+02 -0.30015898932E+03  0.43384709913E+03  0.25000000000E+03 0.  0.
    5000001    1    1    2    0    0  0.18152330631E+03 -0.51741432328E+02 -0.37200496703E+03  0.48632867697E+03  0.25000000000E+03 0.  0.
<mgrwt>
<rscale>  0 0.62842587E+03</rscale>
<asrwt>0</asrwt>
<pdfrwt beam="1">  1        2 0.12248767E+00 0.62842587E+03</pdfrwt>
<pdfrwt beam="2">  1       -2 0.19077833E-01 0.62842587E+03</pdfrwt>
<totfact> 0.80812050E+02</totfact>
</mgrwt>
</event>
<event>
 4    1  0.1804641E-005  0.5944907E+03  0.7818608E-02  0.9916902E-01
         -2   -1    0    0    0  501 -0.00000000000E+00  0.00000000000E+00  0.60847106094E+02  0.60847106147E+02  0.25500000000E-02 0. -1.
          2   -1    0    0  501    0  0.00000000000E+00 -0.00000000000E+00 -0.14520791262E+04  0.14520791262E+04  0.25500000000E-02 0.  1.
   -5000001    1    1    2    0    0  0.39400103607E+01  0.13039532568E+03 -0.93484238483E+03  0.97644700271E+03  0.25000000000E+03 0.  0.
    5000001    1    1    2    0    0 -0.39400103607E+01 -0.13039532568E+03 -0.45638963527E+03  0.53647922963E+03  0.25000000000E+03 0.  0.
<mgrwt>
<rscale>  0 0.59449075E+03</rscale>
<asrwt>0</asrwt>
<pdfrwt beam="1">  1        2 0.22339676E+00 0.59449075E+03</pdfrwt>
<pdfrwt beam="2">  1       -2 0.93610943E-02 0.59449075E+03</pdfrwt>
<totfact> 0.10507058E+03</totfact>
</mgrwt>
</event>
<event>
 4    1  0.1804641E-005  0.1134748E+04  0.7818608E-02  0.9171971E-01
          2   -1    0    0  501    0  0.00000000000E+00  0.00000000000E+00  0.25305574594E+04  0.25305574594E+04  0.25500000000E-02 0.  1.
         -2   -1    0    0    0  501 -0.00000000000E+00 -0.00000000000E+00 -0.12721042074E+03  0.12721042077E+03  0.25500000000E-02 0. -1.
   -5000001    1    1    2    0    0 -0.37034681290E+03 -0.30506938920E+03  0.80151820205E+03  0.96703439560E+03  0.25000000000E+03 0.  0.
    5000001    1    1    2    0    0  0.37034681290E+03  0.30506938920E+03  0.16018288366E+04  0.16907334846E+04  0.25000000000E+03 0.  0.
<mgrwt>
<rscale>  0 0.11347480E+04</rscale>
<asrwt>0</asrwt>
<pdfrwt beam="1">  1        2 0.38931650E+00 0.11347480E+04</pdfrwt>
<pdfrwt beam="2">  1       -2 0.19570836E-01 0.11347480E+04</pdfrwt>
<totfact> 0.74134557E+01</totfact>
</mgrwt>
</event>
<event>
 4    1  0.1804641E-005  0.1092745E+04  0.7818608E-02  0.9212292E-01
          2   -1    0    0  501    0  0.00000000000E+00  0.00000000000E+00  0.24617027982E+04  0.24617027982E+04  0.25500000000E-02 0.  1.
         -2   -1    0    0    0  501 -0.00000000000E+00 -0.00000000000E+00 -0.12126673771E+03  0.12126673774E+03  0.25500000000E-02 0. -1.
   -5000001    1    1    2    0    0 -0.28714685024E+01  0.47765695640E+03  0.13797564527E+04  0.14813481300E+04  0.25000000000E+03 0.  0.
    5000001    1    1    2    0    0  0.28714685024E+01 -0.47765695640E+03  0.96067960775E+03  0.11016214060E+04  0.25000000000E+03 0.  0.
<mgrwt>
<rscale>  0 0.10927446E+04</rscale>
<asrwt>0</asrwt>
<pdfrwt beam="1">  1        2 0.37872352E+00 0.10927446E+04</pdfrwt>
<pdfrwt beam="2">  1       -2 0.18656421E-01 0.10927446E+04</pdfrwt>
<totfact> 0.88587882E+01</totfact>
</mgrwt>
</event>
<event>
 4    1  0.1804641E-005  0.7588998E+03  0.7818608E-02  0.9621491E-01
         -2   -1    0    0    0  501 -0.00000000000E+00  0.00000000000E+00  0.11665338124E+03  0.11665338127E+03  0.25500000000E-02 0. -1.
          2   -1    0    0  501    0  0.00000000000E+00 -0.00000000000E+00 -0.12342737827E+04  0.12342737827E+04  0.25500000000E-02 0.  1.
   -5000001    1    1    2    0    0 -0.15134446140E+02 -0.14154732568E+03 -0.99924879004E+03  0.10398378918E+04  0.25000000000E+03 0.  0.
    5000001    1    1    2    0    0  0.15134446140E+02  0.14154732568E+03 -0.11837161145E+03  0.31108927218E+03  0.25000000000E+03 0.  0.
<mgrwt>
<rscale>  0 0.75889976E+03</rscale>
<asrwt>0</asrwt>
<pdfrwt beam="1">  1        2 0.18988826E+00 0.75889976E+03</pdfrwt>
<pdfrwt beam="2">  1       -2 0.17946675E-01 0.75889976E+03</pdfrwt>
<totfact> 0.46945520E+02</totfact>
</mgrwt>
</event>
<event>
 4    1  0.1804641E-005  0.7580279E+03  0.7818608E-02  0.9622839E-01
          2   -1    0    0  501    0  0.00000000000E+00  0.00000000000E+00  0.20166883449E+03  0.20166883450E+03  0.25500000000E-02 0.  1.
         -2   -1    0    0    0  501 -0.00000000000E+00 -0.00000000000E+00 -0.71231425449E+03  0.71231425450E+03  0.25500000000E-02 0. -1.
   -5000001    1    1    2    0    0  0.23026939031E+03 -0.84283666658E+02 -0.80495450891E+02  0.35931496795E+03  0.25000000000E+03 0.  0.
    5000001    1    1    2    0    0 -0.23026939031E+03  0.84283666658E+02 -0.43014996912E+03  0.55466812105E+03  0.25000000000E+03 0.  0.
<mgrwt>
<rscale>  0 0.75802793E+03</rscale>
<asrwt>0</asrwt>
<pdfrwt beam="1">  1        2 0.31025975E-01 0.75802793E+03</pdfrwt>
<pdfrwt beam="2">  1       -2 0.10958681E+00 0.75802793E+03</pdfrwt>
<totfact> 0.11458977E+02</totfact>
</mgrwt>
</event>
<event>
 4    1  0.1804641E-005  0.7896721E+03  0.7818608E-02  0.9575088E-01
         -2   -1    0    0    0  501 -0.00000000000E+00  0.00000000000E+00  0.58556681200E+02  0.58556681255E+02  0.25500000000E-02 0. -1.
          2   -1    0    0  501    0  0.00000000000E+00 -0.00000000000E+00 -0.26623008194E+04  0.26623008194E+04  0.25500000000E-02 0.  1.
   -5000001    1    1    2    0    0  0.99228533387E+02  0.74446478924E+02 -0.22642055096E+04  0.22813406519E+04  0.25000000000E+03 0.  0.
    5000001    1    1    2    0    0 -0.99228533387E+02 -0.74446478924E+02 -0.33953862853E+03  0.43951684874E+03  0.25000000000E+03 0.  0.
<mgrwt>
<rscale>  0 0.78967208E+03</rscale>
<asrwt>0</asrwt>
<pdfrwt beam="1">  1        2 0.40958465E+00 0.78967208E+03</pdfrwt>
<pdfrwt beam="2">  1       -2 0.90087223E-02 0.78967208E+03</pdfrwt>
<totfact> 0.23621878E+02</totfact>
</mgrwt>
</event>
<event>
 4    1  0.1804641E-005  0.7241392E+03  0.7818608E-02  0.9676819E-01
          2   -1    0    0  501    0  0.00000000000E+00  0.00000000000E+00  0.48591333699E+03  0.48591333699E+03  0.25500000000E-02 0.  1.
         -2   -1    0    0    0  501 -0.00000000000E+00 -0.00000000000E+00 -0.26978968469E+03  0.26978968470E+03  0.25500000000E-02 0. -1.
   -5000001    1    1    2    0    0 -0.23761583646E+03 -0.27761621950E+02  0.21930269203E+03  0.40966530744E+03  0.25000000000E+03 0.  0.
    5000001    1    1    2    0    0  0.23761583646E+03  0.27761621950E+02 -0.31790397357E+01  0.34603771425E+03  0.25000000000E+03 0.  0.
<mgrwt>
<rscale>  0 0.72413923E+03</rscale>
<asrwt>0</asrwt>
<pdfrwt beam="1">  1        2 0.74755897E-01 0.72413923E+03</pdfrwt>
<pdfrwt beam="2">  1       -2 0.41506106E-01 0.72413923E+03</pdfrwt>
<totfact> 0.35286282E+02</totfact>
</mgrwt>
</event>
<event>
 4    1  0.1804641E-005  0.8627129E+03  0.7818608E-02  0.9473431E-01
         -2   -1    0    0    0  501 -0.00000000000E+00  0.00000000000E+00  0.15714632382E+03  0.15714632385E+03  0.25500000000E-02 0. -1.
          2   -1    0    0  501    0  0.00000000000E+00 -0.00000000000E+00 -0.11840453269E+04  0.11840453269E+04  0.25500000000E-02 0.  1.
   -5000001    1    1    2    0    0 -0.12455836450E+03  0.30253821123E+03 -0.71329068203E+03  0.82360655200E+03  0.25000000000E+03 0.  0.
    5000001    1    1    2    0    0  0.12455836450E+03 -0.30253821123E+03 -0.31360832104E+03  0.51758509875E+03  0.25000000000E+03 0.  0.
<mgrwt>
<rscale>  0 0.86271286E+03</rscale>
<asrwt>0</asrwt>
<pdfrwt beam="1">  1        2 0.18216081E+00 0.86271286E+03</pdfrwt>
<pdfrwt beam="2">  1       -2 0.24176358E-01 0.86271286E+03</pdfrwt>
<totfact> 0.29585589E+02</totfact>
</mgrwt>
</event>
<event>
 4    1  0.1804641E-005  0.7150795E+03  0.7818608E-02  0.9691786E-01
         -2   -1    0    0    0  501 -0.00000000000E+00  0.00000000000E+00  0.88008474500E+02  0.88008474537E+02  0.25500000000E-02 0. -1.
          2   -1    0    0  501    0  0.00000000000E+00 -0.00000000000E+00 -0.14525269242E+04  0.14525269242E+04  0.25500000000E-02 0.  1.
   -5000001    1    1    2    0    0  0.23475282783E+03  0.96664095581E+02 -0.74623455702E+03  0.82693340218E+03  0.25000000000E+03 0.  0.
    5000001    1    1    2    0    0 -0.23475282783E+03 -0.96664095581E+02 -0.61828389267E+03  0.71360199655E+03  0.25000000000E+03 0.  0.
<mgrwt>
<rscale>  0 0.71507952E+03</rscale>
<asrwt>0</asrwt>
<pdfrwt beam="1">  1        2 0.22346566E+00 0.71507952E+03</pdfrwt>
<pdfrwt beam="2">  1       -2 0.13539766E-01 0.71507952E+03</pdfrwt>
<totfact> 0.56968411E+02</totfact>
</mgrwt>
</event>
<event>
 4    1  0.1804641E-005  0.6305305E+03  0.7818608E-02  0.9844014E-01
         -2   -1    0    0    0  501 -0.00000000000E+00  0.00000000000E+00  0.19866408268E+03  0.19866408269E+03  0.25500000000E-02 0.  1.
          2   -1    0    0  501    0  0.00000000000E+00 -0.00000000000E+00 -0.50030263830E+03  0.50030263831E+03  0.25500000000E-02 0. -1.
   -5000001    1    1    2    0    0 -0.11668126808E+03 -0.15064065795E+03 -0.12400644667E+03  0.33791230366E+03  0.25000000000E+03 0.  0.
    5000001    1    1    2    0    0  0.11668126808E+03  0.15064065795E+03 -0.17763210896E+03  0.36105441734E+03  0.25000000000E+03 0.  0.
<mgrwt>
<rscale>  0 0.63053046E+03</rscale>
<asrwt>0</asrwt>
<pdfrwt beam="1">  1        2 0.76969636E-01 0.63053046E+03</pdfrwt>
<pdfrwt beam="2">  1       -2 0.30563705E-01 0.63053046E+03</pdfrwt>
<totfact> 0.61305599E+02</totfact>
</mgrwt>
</event>
<event>
 4    1  0.1804641E-005  0.9049787E+03  0.7818608E-02  0.9419379E-01
         -2   -1    0    0    0  501 -0.00000000000E+00  0.00000000000E+00  0.17289790886E+03  0.17289790888E+03  0.25500000000E-02 0. -1.
          2   -1    0    0  501    0  0.00000000000E+00 -0.00000000000E+00 -0.11842052471E+04  0.11842052471E+04  0.25500000000E-02 0.  1.
   -5000001    1    1    2    0    0  0.40030310901E+02  0.36022805794E+03 -0.34923536172E+03  0.56198933922E+03  0.25000000000E+03 0.  0.
    5000001    1    1    2    0    0 -0.40030310901E+02 -0.36022805794E+03 -0.66207197651E+03  0.79511381675E+03  0.25000000000E+03 0.  0.
<mgrwt>
<rscale>  0 0.90497870E+03</rscale>
<asrwt>0</asrwt>
<pdfrwt beam="1">  1        2 0.18218542E+00 0.90497870E+03</pdfrwt>
<pdfrwt beam="2">  1       -2 0.26599679E-01 0.90497870E+03</pdfrwt>
<totfact> 0.24822881E+02</totfact>
</mgrwt>
</event>
<event>
 4    1  0.1804641E-005  0.1224803E+04  0.7818608E-02  0.9091419E-01
         -2   -1    0    0    0  501 -0.00000000000E+00  0.00000000000E+00  0.16718208316E+03  0.16718208318E+03  0.25500000000E-02 0. -1.
          2   -1    0    0  501    0  0.00000000000E+00 -0.00000000000E+00 -0.22432774123E+04  0.22432774123E+04  0.25500000000E-02 0.  1.
   -5000001    1    1    2    0    0  0.71318993067E+02 -0.31995523679E+03 -0.19292843650E+04  0.19728395559E+04  0.25000000000E+03 0.  0.
    5000001    1    1    2    0    0 -0.71318993067E+02  0.31995523679E+03 -0.14681096413E+03  0.43761993957E+03  0.25000000000E+03 0.  0.
<mgrwt>
<rscale>  0 0.12248033E+04</rscale>
<asrwt>0</asrwt>
<pdfrwt beam="1">  1        2 0.34511958E+00 0.12248033E+04</pdfrwt>
<pdfrwt beam="2">  1       -2 0.25720322E-01 0.12248033E+04</pdfrwt>
<totfact> 0.65721963E+01</totfact>
</mgrwt>
</event>
<event>
 4    1  0.1804641E-005  0.8620486E+03  0.7818608E-02  0.9474307E-01
          2   -1    0    0  501    0  0.00000000000E+00  0.00000000000E+00  0.73813162832E+03  0.73813162832E+03  0.25500000000E-02 0.  1.
         -2   -1    0    0    0  501 -0.00000000000E+00 -0.00000000000E+00 -0.25169214464E+03  0.25169214465E+03  0.25500000000E-02 0. -1.
   -5000001    1    1    2    0    0 -0.17485645335E+03  0.28856935967E+03  0.13168907737E+03  0.44010120168E+03  0.25000000000E+03 0.  0.
    5000001    1    1    2    0    0  0.17485645335E+03 -0.28856935967E+03  0.35475040631E+03  0.54972257130E+03  0.25000000000E+03 0.  0.
<mgrwt>
<rscale>  0 0.86204857E+03</rscale>
<asrwt>0</asrwt>
<pdfrwt beam="1">  1        2 0.11355871E+00 0.86204857E+03</pdfrwt>
<pdfrwt beam="2">  1       -2 0.38721868E-01 0.86204857E+03</pdfrwt>
<totfact> 0.24213509E+02</totfact>
</mgrwt>
</event>
<event>
 4    1  0.1804641E-005  0.8649554E+03  0.7818608E-02  0.9470481E-01
          2   -1    0    0  501    0  0.00000000000E+00  0.00000000000E+00  0.71129574992E+03  0.71129574992E+03  0.25500000000E-02 0.  1.
         -2   -1    0    0    0  501 -0.00000000000E+00 -0.00000000000E+00 -0.26295243710E+03  0.26295243711E+03  0.25500000000E-02 0. -1.
   -5000001    1    1    2    0    0 -0.31300289648E+03  0.92450107624E+02  0.37536846913E+03  0.55670398168E+03  0.25000000000E+03 0.  0.
    5000001    1    1    2    0    0  0.31300289648E+03 -0.92450107624E+02  0.72974843692E+02  0.41754420535E+03  0.25000000000E+03 0.  0.
<mgrwt>
<rscale>  0 0.86495538E+03</rscale>
<asrwt>0</asrwt>
<pdfrwt beam="1">  1        2 0.10943011E+00 0.86495538E+03</pdfrwt>
<pdfrwt beam="2">  1       -2 0.40454221E-01 0.86495538E+03</pdfrwt>
<totfact> 0.23311176E+02</totfact>
</mgrwt>
</event>
<event>
 4    1  0.1804641E-005  0.8258275E+03  0.7818608E-02  0.9523367E-01
          2   -1    0    0  501    0  0.00000000000E+00  0.00000000000E+00  0.51912382892E+03  0.51912382892E+03  0.25500000000E-02 0.  1.
         -2   -1    0    0    0  501 -0.00000000000E+00 -0.00000000000E+00 -0.32843371998E+03  0.32843371999E+03  0.25500000000E-02 0. -1.
   -5000001    1    1    2    0    0 -0.11364318045E+03  0.30823787875E+03  0.86611865737E+02  0.42181391353E+03  0.25000000000E+03 0.  0.
    5000001    1    1    2    0    0  0.11364318045E+03 -0.30823787875E+03  0.10407824320E+03  0.42574363538E+03  0.25000000000E+03 0.  0.
<mgrwt>
<rscale>  0 0.82582751E+03</rscale>
<asrwt>0</asrwt>
<pdfrwt beam="1">  1        2 0.79865205E-01 0.82582751E+03</pdfrwt>
<pdfrwt beam="2">  1       -2 0.50528264E-01 0.82582751E+03</pdfrwt>
<totfact> 0.21965736E+02</totfact>
</mgrwt>
</event>
<event>
 4    1  0.1804641E-005  0.6800193E+03  0.7818608E-02  0.9752025E-01
          2   -1    0    0  501    0  0.00000000000E+00  0.00000000000E+00  0.12308071206E+04  0.12308071206E+04  0.25500000000E-02 0.  1.
         -2   -1    0    0    0  501 -0.00000000000E+00 -0.00000000000E+00 -0.93927429900E+02  0.93927429935E+02  0.25500000000E-02 0. -1.
   -5000001    1    1    2    0    0  0.15878607541E+03  0.14224417436E+03  0.73894033245E+03  0.80868982793E+03  0.25000000000E+03 0.  0.
    5000001    1    1    2    0    0 -0.15878607541E+03 -0.14224417436E+03  0.39793935825E+03  0.51604472260E+03  0.25000000000E+03 0.  0.
<mgrwt>
<rscale>  0 0.68001926E+03</rscale>
<asrwt>0</asrwt>
<pdfrwt beam="1">  1        2 0.18935493E+00 0.68001926E+03</pdfrwt>
<pdfrwt beam="2">  1       -2 0.14450375E-01 0.68001926E+03</pdfrwt>
<totfact> 0.68470294E+02</totfact>
</mgrwt>
</event>
<event>
 4    1  0.1804641E-005  0.1142749E+04  0.7818608E-02  0.9164499E-01
          2   -1    0    0  501    0  0.00000000000E+00  0.00000000000E+00  0.10553906723E+04  0.10553906723E+04  0.25500000000E-02 0.  1.
         -2   -1    0    0    0  501 -0.00000000000E+00 -0.00000000000E+00 -0.30933441552E+03  0.30933441553E+03  0.25500000000E-02 0. -1.
   -5000001    1    1    2    0    0  0.19797130037E+03 -0.46509287236E+03  0.26315317415E+03  0.62229704222E+03  0.25000000000E+03 0.  0.
    5000001    1    1    2    0    0 -0.19797130037E+03  0.46509287236E+03  0.48290308261E+03  0.74242804559E+03  0.25000000000E+03 0.  0.
<mgrwt>
<rscale>  0 0.11427487E+04</rscale>
<asrwt>0</asrwt>
<pdfrwt beam="1">  1        2 0.16236779E+00 0.11427487E+04</pdfrwt>
<pdfrwt beam="2">  1       -2 0.47589912E-01 0.11427487E+04</pdfrwt>
<totfact> 0.96209164E+01</totfact>
</mgrwt>
</event>
<event>
 4    1  0.1804641E-005  0.1092843E+04  0.7818608E-02  0.9212196E-01
         -2   -1    0    0    0  501 -0.00000000000E+00  0.00000000000E+00  0.20107271012E+03  0.20107271014E+03  0.25500000000E-02 0. -1.
          2   -1    0    0  501    0  0.00000000000E+00 -0.00000000000E+00 -0.14849165770E+04  0.14849165770E+04  0.25500000000E-02 0.  1.
   -5000001    1    1    2    0    0  0.40056879225E+02 -0.29316249764E+03 -0.12364885299E+04  0.12957440674E+04  0.25000000000E+03 0.  0.
    5000001    1    1    2    0    0 -0.40056879225E+02  0.29316249764E+03 -0.47355336970E+02  0.39024521975E+03  0.25000000000E+03 0.  0.
<mgrwt>
<rscale>  0 0.10928425E+04</rscale>
<asrwt>0</asrwt>
<pdfrwt beam="1">  1        2 0.22844870E+00 0.10928425E+04</pdfrwt>
<pdfrwt beam="2">  1       -2 0.30934264E-01 0.10928425E+04</pdfrwt>
<totfact> 0.12439868E+02</totfact>
</mgrwt>
</event>
<event>
 4    1  0.1804641E-005  0.9953354E+03  0.7818608E-02  0.9313676E-01
          2   -1    0    0  501    0  0.00000000000E+00  0.00000000000E+00  0.38103837376E+03  0.38103837377E+03  0.25500000000E-02 0.  1.
         -2   -1    0    0    0  501 -0.00000000000E+00 -0.00000000000E+00 -0.64999524613E+03  0.64999524614E+03  0.25500000000E-02 0. -1.
   -5000001    1    1    2    0    0 -0.47747948865E+02  0.41255966950E+03 -0.25115839639E+03  0.54595410759E+03  0.25000000000E+03 0.  0.
    5000001    1    1    2    0    0  0.47747948865E+02 -0.41255966950E+03 -0.17798475981E+02  0.48507951231E+03  0.25000000000E+03 0.  0.
<mgrwt>
<rscale>  0 0.99533538E+03</rscale>
<asrwt>0</asrwt>
<pdfrwt beam="1">  1        2 0.58621288E-01 0.99533538E+03</pdfrwt>
<pdfrwt beam="2">  1       -2 0.99999268E-01 0.99533538E+03</pdfrwt>
<totfact> 0.69305926E+01</totfact>
</mgrwt>
</event>
