<event>
 4    1  0.4751076E-004  0.2274062E+03  0.7818608E-02  0.1128479E+00
         -2   -1    0    0    0  501 -0.00000000000E+00  0.00000000000E+00  0.14938457413E+02  0.14938457630E+02  0.25500000000E-02 0. -1.
          2   -1    0    0  501    0  0.00000000000E+00 -0.00000000000E+00 -0.86544402786E+03  0.86544402786E+03  0.25500000000E-02 0.  1.
    5000001    1    1    2    0    0  0.69765326221E+02 -0.43129498970E+02 -0.36139866234E+03  0.37850409187E+03  0.77000000000E+02 0.  0.
   -5000001    1    1    2    0    0 -0.69765326221E+02  0.43129498970E+02 -0.48910690811E+03  0.50187839362E+03  0.77000000000E+02 0.  0.
<mgrwt>
<rscale>  0 0.22740623E+03</rscale>
<asrwt>0</asrwt>
<pdfrwt beam="1">  1        2 0.13314520E+00 0.22740623E+03</pdfrwt>
<pdfrwt beam="2">  1       -2 0.22982249E-02 0.22740623E+03</pdfrwt>
<totfact> 0.19863847E+04</totfact>
</mgrwt>
</event>
<event>
 4    1  0.4751076E-004  0.2103159E+03  0.7818608E-02  0.1141316E+00
          2   -1    0    0  501    0  0.00000000000E+00  0.00000000000E+00  0.87148170371E+03  0.87148170372E+03  0.25500000000E-02 0.  1.
         -2   -1    0    0    0  501 -0.00000000000E+00 -0.00000000000E+00 -0.12688954299E+02  0.12688954555E+02  0.25500000000E-02 0. -1.
    5000001    1    1    2    0    0  0.70532040033E+02  0.77762256015E+00  0.37725673916E+03  0.39144223151E+03  0.77000000000E+02 0.  0.
   -5000001    1    1    2    0    0 -0.70532040033E+02 -0.77762256015E+00  0.48153601025E+03  0.49272842676E+03  0.77000000000E+02 0.  0.
<mgrwt>
<rscale>  0 0.21031587E+03</rscale>
<asrwt>0</asrwt>
<pdfrwt beam="1">  1        2 0.13407408E+00 0.21031587E+03</pdfrwt>
<pdfrwt beam="2">  1       -2 0.19521472E-02 0.21031587E+03</pdfrwt>
<totfact> 0.24894630E+04</totfact>
</mgrwt>
</event>
<event>
 4    1  0.4751076E-004  0.1859242E+03  0.7818608E-02  0.1162190E+00
         -2   -1    0    0    0  501 -0.00000000000E+00  0.00000000000E+00  0.13375457822E+02  0.13375458065E+02  0.25500000000E-02 0. -1.
          2   -1    0    0  501    0  0.00000000000E+00 -0.00000000000E+00 -0.64610515121E+03  0.64610515121E+03  0.25500000000E-02 0.  1.
    5000001    1    1    2    0    0 -0.97182194846E+01 -0.38472012942E+02 -0.43604330086E+03  0.44456416837E+03  0.77000000000E+02 0.  0.
   -5000001    1    1    2    0    0  0.97182194846E+01  0.38472012942E+02 -0.19668639252E+03  0.21491644091E+03  0.77000000000E+02 0.  0.
<mgrwt>
<rscale>  0 0.18592420E+03</rscale>
<asrwt>0</asrwt>
<pdfrwt beam="1">  1        2 0.99400768E-01 0.18592420E+03</pdfrwt>
<pdfrwt beam="2">  1       -2 0.20577633E-02 0.18592420E+03</pdfrwt>
<totfact> 0.33046405E+04</totfact>
</mgrwt>
</event>
<event>
 4    1  0.4751076E-004  0.3526048E+03  0.7818608E-02  0.1061551E+00
         -2   -1    0    0    0  501 -0.00000000000E+00  0.00000000000E+00  0.22547274138E+02  0.22547274282E+02  0.25500000000E-02 0. -1.
          2   -1    0    0  501    0  0.00000000000E+00 -0.00000000000E+00 -0.13785492410E+04  0.13785492410E+04  0.25500000000E-02 0.  1.
    5000001    1    1    2    0    0 -0.18274818477E+02  0.12577261753E+03 -0.30101897177E+03  0.33569948119E+03  0.77000000000E+02 0.  0.
   -5000001    1    1    2    0    0  0.18274818477E+02 -0.12577261753E+03 -0.10549829951E+04  0.10653970341E+04  0.77000000000E+02 0.  0.
<mgrwt>
<rscale>  0 0.35260475E+03</rscale>
<asrwt>0</asrwt>
<pdfrwt beam="1">  1        2 0.21208443E+00 0.35260475E+03</pdfrwt>
<pdfrwt beam="2">  1       -2 0.34688125E-02 0.35260475E+03</pdfrwt>
<totfact> 0.54272940E+03</totfact>
</mgrwt>
</event>
<event>
 4    1  0.4751076E-004  0.2028676E+03  0.7818608E-02  0.1147342E+00
          2   -1    0    0  501    0  0.00000000000E+00  0.00000000000E+00  0.28258061091E+03  0.28258061092E+03  0.25500000000E-02 0.  1.
         -2   -1    0    0    0  501 -0.00000000000E+00 -0.00000000000E+00 -0.36410187094E+02  0.36410187183E+02  0.25500000000E-02 0. -1.
    5000001    1    1    2    0    0 -0.39080126027E+02  0.48329383789E+02  0.15813361764E+03  0.18654282783E+03  0.77000000000E+02 0.  0.
   -5000001    1    1    2    0    0  0.39080126027E+02 -0.48329383789E+02  0.88036806177E+02  0.13244797027E+03  0.77000000000E+02 0.  0.
<mgrwt>
<rscale>  0 0.20286757E+03</rscale>
<asrwt>0</asrwt>
<pdfrwt beam="1">  1        2 0.43473940E-01 0.20286757E+03</pdfrwt>
<pdfrwt beam="2">  1       -2 0.56015673E-02 0.20286757E+03</pdfrwt>
<totfact> 0.18584657E+04</totfact>
</mgrwt>
</event>
<event>
 4    1  0.4751076E-004  0.2857280E+03  0.7818608E-02  0.1092601E+00
          2   -1    0    0  501    0  0.00000000000E+00  0.00000000000E+00  0.56422809762E+03  0.56422809762E+03  0.25500000000E-02 0.  1.
         -2   -1    0    0    0  501 -0.00000000000E+00 -0.00000000000E+00 -0.36173531590E+02  0.36173531680E+02  0.25500000000E-02 0. -1.
    5000001    1    1    2    0    0 -0.44516212499E+02  0.11024447550E+03  0.30309038634E+03  0.33455690076E+03  0.77000000000E+02 0.  0.
   -5000001    1    1    2    0    0  0.44516212499E+02 -0.11024447550E+03  0.22496417968E+03  0.26584472854E+03  0.77000000000E+02 0.  0.
<mgrwt>
<rscale>  0 0.28572800E+03</rscale>
<asrwt>0</asrwt>
<pdfrwt beam="1">  1        2 0.86804315E-01 0.28572800E+03</pdfrwt>
<pdfrwt beam="2">  1       -2 0.55651592E-02 0.28572800E+03</pdfrwt>
<totfact> 0.89796205E+03</totfact>
</mgrwt>
</event>
<event>
 4    1  0.4751076E-004  0.5570092E+03  0.7818608E-02  0.9998845E-01
         -2   -1    0    0    0  501 -0.00000000000E+00  0.00000000000E+00  0.55491412727E+02  0.55491412786E+02  0.25500000000E-02 0. -1.
          2   -1    0    0  501    0  0.00000000000E+00 -0.00000000000E+00 -0.13977805999E+04  0.13977805999E+04  0.25500000000E-02 0.  1.
    5000001    1    1    2    0    0  0.85485962038E+01  0.24037254364E+03 -0.36482927447E+03  0.44371323819E+03  0.77000000000E+02 0.  0.
   -5000001    1    1    2    0    0 -0.85485962038E+01 -0.24037254364E+03 -0.97745991270E+03  0.10095587745E+04  0.77000000000E+02 0.  0.
<mgrwt>
<rscale>  0 0.55700923E+03</rscale>
<asrwt>0</asrwt>
<pdfrwt beam="1">  1        2 0.21504314E+00 0.55700923E+03</pdfrwt>
<pdfrwt beam="2">  1       -2 0.85371415E-02 0.55700923E+03</pdfrwt>
<totfact> 0.13082237E+03</totfact>
</mgrwt>
</event>
<event>
 4    1  0.4751076E-004  0.6521813E+03  0.7818608E-02  0.9802695E-01
          2   -1    0    0  501    0  0.00000000000E+00  0.00000000000E+00  0.19563019669E+04  0.19563019669E+04  0.25500000000E-02 0.  1.
         -2   -1    0    0    0  501 -0.00000000000E+00 -0.00000000000E+00 -0.54355168477E+02  0.54355168537E+02  0.25500000000E-02 0. -1.
    5000001    1    1    2    0    0  0.43472261572E+02  0.24109828040E+03  0.33139635804E+03  0.41925024086E+03  0.77000000000E+02 0.  0.
   -5000001    1    1    2    0    0 -0.43472261572E+02 -0.24109828040E+03  0.15705504403E+04  0.15914068945E+04  0.77000000000E+02 0.  0.
<mgrwt>
<rscale>  0 0.65218133E+03</rscale>
<asrwt>0</asrwt>
<pdfrwt beam="1">  1        2 0.30096947E+00 0.65218133E+03</pdfrwt>
<pdfrwt beam="2">  1       -2 0.83623355E-02 0.65218133E+03</pdfrwt>
<totfact> 0.66638163E+02</totfact>
</mgrwt>
</event>
<event>
 4    1  0.4751076E-004  0.5545439E+03  0.7818608E-02  0.1000448E+00
         -2   -1    0    0    0  501 -0.00000000000E+00  0.00000000000E+00  0.17873629022E+04  0.17873629023E+04  0.25500000000E-02 0. -1.
          2   -1    0    0  501    0  0.00000000000E+00 -0.00000000000E+00 -0.43012947765E+02  0.43012947841E+02  0.25500000000E-02 0.  1.
    5000001    1    1    2    0    0 -0.51325441539E+02  0.25369536340E+03  0.10797540315E+04  0.11130109644E+04  0.77000000000E+02 0.  0.
   -5000001    1    1    2    0    0  0.51325441539E+02 -0.25369536340E+03  0.66459592298E+03  0.71736488568E+03  0.77000000000E+02 0.  0.
<mgrwt>
<rscale>  0 0.55454395E+03</rscale>
<asrwt>0</asrwt>
<pdfrwt beam="1">  1        2 0.66173769E-02 0.55454395E+03</pdfrwt>
<pdfrwt beam="2">  1       -2 0.27497890E+00 0.55454395E+03</pdfrwt>
<totfact> 0.54001953E+01</totfact>
</mgrwt>
</event>
<event>
 4    1  0.4751076E-004  0.2957047E+03  0.7818608E-02  0.1087408E+00
          2   -1    0    0  501    0  0.00000000000E+00  0.00000000000E+00  0.52238952003E+03  0.52238952003E+03  0.25500000000E-02 0.  1.
         -2   -1    0    0    0  501 -0.00000000000E+00 -0.00000000000E+00 -0.41846771258E+02  0.41846771336E+02  0.25500000000E-02 0. -1.
    5000001    1    1    2    0    0 -0.98514776842E+02  0.55819588854E+02  0.13385564120E+03  0.19148712864E+03  0.77000000000E+02 0.  0.
   -5000001    1    1    2    0    0  0.98514776842E+02 -0.55819588854E+02  0.34668710757E+03  0.37274916273E+03  0.77000000000E+02 0.  0.
<mgrwt>
<rscale>  0 0.29570468E+03</rscale>
<asrwt>0</asrwt>
<pdfrwt beam="1">  1        2 0.80367621E-01 0.29570468E+03</pdfrwt>
<pdfrwt beam="2">  1       -2 0.64379646E-02 0.29570468E+03</pdfrwt>
<totfact> 0.78455278E+03</totfact>
</mgrwt>
</event>
<event>
 4    1  0.4751076E-004  0.2294931E+03  0.7818608E-02  0.1126997E+00
         -2   -1    0    0    0  501 -0.00000000000E+00  0.00000000000E+00  0.75935712762E+01  0.75935717043E+01  0.25500000000E-02 0. -1.
          2   -1    0    0  501    0  0.00000000000E+00 -0.00000000000E+00 -0.17339357968E+04  0.17339357968E+04  0.25500000000E-02 0.  1.
    5000001    1    1    2    0    0 -0.53072372268E+02 -0.64899534486E+02 -0.75342757948E+03  0.76197817803E+03  0.77000000000E+02 0.  0.
   -5000001    1    1    2    0    0  0.53072372268E+02  0.64899534486E+02 -0.97291464606E+03  0.97955119049E+03  0.77000000000E+02 0.  0.
<mgrwt>
<rscale>  0 0.22949305E+03</rscale>
<asrwt>0</asrwt>
<pdfrwt beam="1">  1        2 0.26675904E+00 0.22949305E+03</pdfrwt>
<pdfrwt beam="2">  1       -2 0.11682431E-02 0.22949305E+03</pdfrwt>
<totfact> 0.17318665E+04</totfact>
</mgrwt>
</event>
<event>
 4    1  0.4751076E-004  0.6388232E+03  0.7818608E-02  0.9827981E-01
          2   -1    0    0  501    0  0.00000000000E+00  0.00000000000E+00  0.36880847769E+03  0.36880847770E+03  0.25500000000E-02 0.  1.
         -2   -1    0    0    0  501 -0.00000000000E+00 -0.00000000000E+00 -0.27663077111E+03  0.27663077112E+03  0.25500000000E-02 0. -1.
    5000001    1    1    2    0    0  0.17972208451E+02  0.30092928322E+03 -0.26862390473E+02  0.31230117162E+03  0.77000000000E+02 0.  0.
   -5000001    1    1    2    0    0 -0.17972208451E+02 -0.30092928322E+03  0.11904009705E+03  0.33313807720E+03  0.77000000000E+02 0.  0.
<mgrwt>
<rscale>  0 0.63882321E+03</rscale>
<asrwt>0</asrwt>
<pdfrwt beam="1">  1        2 0.56739765E-01 0.63882321E+03</pdfrwt>
<pdfrwt beam="2">  1       -2 0.42558580E-01 0.63882321E+03</pdfrwt>
<totfact> 0.45990233E+02</totfact>
</mgrwt>
</event>
<event>
 4    1  0.4751076E-004  0.2630606E+03  0.7818608E-02  0.1105318E+00
         -2   -1    0    0    0  501 -0.00000000000E+00  0.00000000000E+00  0.72554437496E+02  0.72554437541E+02  0.25500000000E-02 0. -1.
          2   -1    0    0  501    0  0.00000000000E+00 -0.00000000000E+00 -0.23844460927E+03  0.23844460929E+03  0.25500000000E-02 0.  1.
    5000001    1    1    2    0    0 -0.57821969692E+02  0.89185519095E+02 -0.93099744456E+02  0.16091612540E+03  0.77000000000E+02 0.  0.
   -5000001    1    1    2    0    0  0.57821969692E+02 -0.89185519095E+02 -0.72790427322E+02  0.15008292143E+03  0.77000000000E+02 0.  0.
<mgrwt>
<rscale>  0 0.26306056E+03</rscale>
<asrwt>0</asrwt>
<pdfrwt beam="1">  1        2 0.36683786E-01 0.26306056E+03</pdfrwt>
<pdfrwt beam="2">  1       -2 0.11162221E-01 0.26306056E+03</pdfrwt>
<totfact> 0.77273696E+03</totfact>
</mgrwt>
</event>
<event>
 4    1  0.4751076E-004  0.1681569E+03  0.7818608E-02  0.1179784E+00
          2   -1    0    0  501    0  0.00000000000E+00  0.00000000000E+00  0.49790513763E+03  0.49790513764E+03  0.25500000000E-02 0.  1.
         -2   -1    0    0    0  501 -0.00000000000E+00 -0.00000000000E+00 -0.14197864519E+02  0.14197864748E+02  0.25500000000E-02 0. -1.
    5000001    1    1    2    0    0 -0.22132296168E+02 -0.16327125536E+02  0.18219387434E+03  0.19969982827E+03  0.77000000000E+02 0.  0.
   -5000001    1    1    2    0    0  0.22132296168E+02  0.16327125536E+02  0.30151339877E+03  0.31240317412E+03  0.77000000000E+02 0.  0.
<mgrwt>
<rscale>  0 0.16815695E+03</rscale>
<asrwt>0</asrwt>
<pdfrwt beam="1">  1        2 0.76600813E-01 0.16815695E+03</pdfrwt>
<pdfrwt beam="2">  1       -2 0.21842862E-02 0.16815695E+03</pdfrwt>
<totfact> 0.40347705E+04</totfact>
</mgrwt>
</event>
<event>
 4    1  0.4751076E-004  0.2384434E+03  0.7818608E-02  0.1120834E+00
         -2   -1    0    0    0  501 -0.00000000000E+00  0.00000000000E+00  0.91436070669E+02  0.91436070705E+02  0.25500000000E-02 0. -1.
          2   -1    0    0  501    0  0.00000000000E+00 -0.00000000000E+00 -0.15545085269E+03  0.15545085271E+03  0.25500000000E-02 0.  1.
    5000001    1    1    2    0    0 -0.75994676832E+02  0.24940694616E+02  0.12977444281E+02  0.11177944004E+03  0.77000000000E+02 0.  0.
   -5000001    1    1    2    0    0  0.75994676832E+02 -0.24940694616E+02 -0.76992226303E+02  0.13510748338E+03  0.77000000000E+02 0.  0.
<mgrwt>
<rscale>  0 0.23844341E+03</rscale>
<asrwt>0</asrwt>
<pdfrwt beam="1">  1        2 0.23915516E-01 0.23844341E+03</pdfrwt>
<pdfrwt beam="2">  1       -2 0.14067088E-01 0.23844341E+03</pdfrwt>
<totfact> 0.84626331E+03</totfact>
</mgrwt>
</event>
<event>
 4    1  0.4751076E-004  0.4910296E+03  0.7818608E-02  0.1016147E+00
          2   -1    0    0  501    0  0.00000000000E+00  0.00000000000E+00  0.21804233005E+04  0.21804233005E+04  0.25500000000E-02 0.  1.
         -2   -1    0    0    0  501 -0.00000000000E+00 -0.00000000000E+00 -0.27644863951E+02  0.27644864069E+02  0.25500000000E-02 0. -1.
    5000001    1    1    2    0    0 -0.70794589294E+02  0.21997166739E+03  0.12149244431E+04  0.12391004039E+04  0.77000000000E+02 0.  0.
   -5000001    1    1    2    0    0  0.70794589294E+02 -0.21997166739E+03  0.93785399341E+03  0.96896776071E+03  0.77000000000E+02 0.  0.
<mgrwt>
<rscale>  0 0.49102955E+03</rscale>
<asrwt>0</asrwt>
<pdfrwt beam="1">  1        2 0.33544972E+00 0.49102955E+03</pdfrwt>
<pdfrwt beam="2">  1       -2 0.42530562E-02 0.49102955E+03</pdfrwt>
<totfact> 0.14671698E+03</totfact>
</mgrwt>
</event>
<event>
 4    1  0.4751076E-004  0.2669833E+03  0.7818608E-02  0.1103019E+00
          2   -1    0    0  501    0  0.00000000000E+00  0.00000000000E+00  0.17773248127E+03  0.17773248129E+03  0.25500000000E-02 0.  1.
         -2   -1    0    0    0  501 -0.00000000000E+00 -0.00000000000E+00 -0.10026314063E+03  0.10026314066E+03  0.25500000000E-02 0. -1.
    5000001    1    1    2    0    0  0.47252624253E+01 -0.92452061766E+02 -0.21273209449E+02  0.12227535021E+03  0.77000000000E+02 0.  0.
   -5000001    1    1    2    0    0 -0.47252624253E+01  0.92452061766E+02  0.98742550093E+02  0.15572027173E+03  0.77000000000E+02 0.  0.
<mgrwt>
<rscale>  0 0.26698327E+03</rscale>
<asrwt>0</asrwt>
<pdfrwt beam="1">  1        2 0.27343458E-01 0.26698327E+03</pdfrwt>
<pdfrwt beam="2">  1       -2 0.15425099E-01 0.26698327E+03</pdfrwt>
<totfact> 0.62945328E+03</totfact>
</mgrwt>
</event>
<event>
 4    1  0.4751076E-004  0.2009765E+03  0.7818608E-02  0.1148918E+00
          2   -1    0    0  501    0  0.00000000000E+00  0.00000000000E+00  0.12085083360E+04  0.12085083360E+04  0.25500000000E-02 0.  1.
         -2   -1    0    0    0  501 -0.00000000000E+00 -0.00000000000E+00 -0.83556661244E+01  0.83556665135E+01  0.25500000000E-02 0. -1.
    5000001    1    1    2    0    0 -0.58423602344E+02 -0.25275839862E+02  0.66548648591E+03  0.67294386714E+03  0.77000000000E+02 0.  0.
   -5000001    1    1    2    0    0  0.58423602344E+02  0.25275839862E+02  0.53466618395E+03  0.54392013536E+03  0.77000000000E+02 0.  0.
<mgrwt>
<rscale>  0 0.20097654E+03</rscale>
<asrwt>0</asrwt>
<pdfrwt beam="1">  1        2 0.18592442E+00 0.20097654E+03</pdfrwt>
<pdfrwt beam="2">  1       -2 0.12854867E-02 0.20097654E+03</pdfrwt>
<totfact> 0.28640674E+04</totfact>
</mgrwt>
</event>
<event>
 4    1  0.4751076E-004  0.4235457E+03  0.7818608E-02  0.1035918E+00
         -2   -1    0    0    0  501 -0.00000000000E+00  0.00000000000E+00  0.60933672479E+02  0.60933672532E+02  0.25500000000E-02 0. -1.
          2   -1    0    0  501    0  0.00000000000E+00 -0.00000000000E+00 -0.73600915863E+03  0.73600915864E+03  0.25500000000E-02 0.  1.
    5000001    1    1    2    0    0  0.12251790176E+03 -0.14548318083E+03 -0.43607941117E+03  0.48194423433E+03  0.77000000000E+02 0.  0.
   -5000001    1    1    2    0    0 -0.12251790176E+03  0.14548318083E+03 -0.23899607498E+03  0.31499859684E+03  0.77000000000E+02 0.  0.
<mgrwt>
<rscale>  0 0.42354570E+03</rscale>
<asrwt>0</asrwt>
<pdfrwt beam="1">  1        2 0.11323217E+00 0.42354570E+03</pdfrwt>
<pdfrwt beam="2">  1       -2 0.93744117E-02 0.42354570E+03</pdfrwt>
<totfact> 0.29152569E+03</totfact>
</mgrwt>
</event>
<event>
 4    1  0.4751076E-004  0.2421455E+03  0.7818608E-02  0.1118372E+00
         -2   -1    0    0    0  501 -0.00000000000E+00  0.00000000000E+00  0.36679280561E+03  0.36679280562E+03  0.25500000000E-02 0. -1.
          2   -1    0    0  501    0  0.00000000000E+00 -0.00000000000E+00 -0.39964296790E+02  0.39964296871E+02  0.25500000000E-02 0.  1.
    5000001    1    1    2    0    0  0.26908391495E+02  0.68239922722E+02  0.66204987001E+02  0.12527110157E+03  0.77000000000E+02 0.  0.
   -5000001    1    1    2    0    0 -0.26908391495E+02 -0.68239922722E+02  0.26062352182E+03  0.28148600092E+03  0.77000000000E+02 0.  0.
<mgrwt>
<rscale>  0 0.24214555E+03</rscale>
<asrwt>0</asrwt>
<pdfrwt beam="1">  1        2 0.61483533E-02 0.24214555E+03</pdfrwt>
<pdfrwt beam="2">  1       -2 0.56429663E-01 0.24214555E+03</pdfrwt>
<totfact> 0.35553534E+03</totfact>
</mgrwt>
</event>
<event>
 4    1  0.4751076E-004  0.2554925E+03  0.7818608E-02  0.1109882E+00
         -2   -1    0    0    0  501 -0.00000000000E+00  0.00000000000E+00  0.65310425453E+01  0.65310430431E+01  0.25500000000E-02 0. -1.
          2   -1    0    0  501    0  0.00000000000E+00 -0.00000000000E+00 -0.24986979746E+04  0.24986979746E+04  0.25500000000E-02 0.  1.
    5000001    1    1    2    0    0  0.78659260904E+02  0.58807849384E+02 -0.15136244044E+04  0.15187605078E+04  0.77000000000E+02 0.  0.
   -5000001    1    1    2    0    0 -0.78659260904E+02 -0.58807849384E+02 -0.97854252771E+03  0.98646850989E+03  0.77000000000E+02 0.  0.
<mgrwt>
<rscale>  0 0.25549249E+03</rscale>
<asrwt>0</asrwt>
<pdfrwt beam="1">  1        2 0.38441431E+00 0.25549249E+03</pdfrwt>
<pdfrwt beam="2">  1       -2 0.10047778E-02 0.25549249E+03</pdfrwt>
<totfact> 0.85034699E+03</totfact>
</mgrwt>
</event>
<event>
 4    1  0.4751076E-004  0.2337679E+03  0.7818608E-02  0.1124015E+00
         -2   -1    0    0    0  501 -0.00000000000E+00  0.00000000000E+00  0.49210572235E+02  0.49210572301E+02  0.25500000000E-02 0. -1.
          2   -1    0    0  501    0  0.00000000000E+00 -0.00000000000E+00 -0.27762040151E+03  0.27762040152E+03  0.25500000000E-02 0.  1.
    5000001    1    1    2    0    0  0.85329229333E+02  0.11693653881E+02 -0.89389524536E+02  0.14607294759E+03  0.77000000000E+02 0.  0.
   -5000001    1    1    2    0    0 -0.85329229333E+02 -0.11693653881E+02 -0.13902030474E+03  0.18075802624E+03  0.77000000000E+02 0.  0.
<mgrwt>
<rscale>  0 0.23376791E+03</rscale>
<asrwt>0</asrwt>
<pdfrwt beam="1">  1        2 0.42710830E-01 0.23376791E+03</pdfrwt>
<pdfrwt beam="2">  1       -2 0.75708574E-02 0.23376791E+03</pdfrwt>
<totfact> 0.12030769E+04</totfact>
</mgrwt>
</event>
<event>
 4    1  0.4751076E-004  0.2650153E+03  0.7818608E-02  0.1104167E+00
         -2   -1    0    0    0  501 -0.00000000000E+00  0.00000000000E+00  0.22678953305E+02  0.22678953448E+02  0.25500000000E-02 0. -1.
          2   -1    0    0  501    0  0.00000000000E+00 -0.00000000000E+00 -0.77421022359E+03  0.77421022360E+03  0.25500000000E-02 0.  1.
    5000001    1    1    2    0    0  0.46504652728E+02  0.83874116400E+02 -0.52404626614E+03  0.53828527677E+03  0.77000000000E+02 0.  0.
   -5000001    1    1    2    0    0 -0.46504652728E+02 -0.83874116400E+02 -0.22748500414E+03  0.25860390027E+03  0.77000000000E+02 0.  0.
<mgrwt>
<rscale>  0 0.26501530E+03</rscale>
<asrwt>0</asrwt>
<pdfrwt beam="1">  1        2 0.11910924E+00 0.26501530E+03</pdfrwt>
<pdfrwt beam="2">  1       -2 0.34890703E-02 0.26501530E+03</pdfrwt>
<totfact> 0.12423837E+04</totfact>
</mgrwt>
</event>
<event>
 4    1  0.4751076E-004  0.3405497E+03  0.7818608E-02  0.1066562E+00
         -2   -1    0    0    0  501 -0.00000000000E+00  0.00000000000E+00  0.62378960443E+03  0.62378960444E+03  0.25500000000E-02 0. -1.
          2   -1    0    0  501    0  0.00000000000E+00 -0.00000000000E+00 -0.46479651054E+02  0.46479651124E+02  0.25500000000E-02 0.  1.
    5000001    1    1    2    0    0 -0.10236327288E+03 -0.11044434351E+03  0.32744049247E+03  0.36854100010E+03  0.77000000000E+02 0.  0.
   -5000001    1    1    2    0    0  0.10236327288E+03  0.11044434351E+03  0.24986946091E+03  0.30172825546E+03  0.77000000000E+02 0.  0.
<mgrwt>
<rscale>  0 0.34054969E+03</rscale>
<asrwt>0</asrwt>
<pdfrwt beam="1">  1        2 0.71507161E-02 0.34054969E+03</pdfrwt>
<pdfrwt beam="2">  1       -2 0.95967625E-01 0.34054969E+03</pdfrwt>
<totfact> 0.93195339E+02</totfact>
</mgrwt>
</event>
<event>
 4    1  0.4751076E-004  0.2442752E+03  0.7818608E-02  0.1116977E+00
          2   -1    0    0  501    0  0.00000000000E+00  0.00000000000E+00  0.25721626259E+02  0.25721626385E+02  0.25500000000E-02 0.  1.
         -2   -1    0    0    0  501 -0.00000000000E+00 -0.00000000000E+00 -0.57996308687E+03  0.57996308687E+03  0.25500000000E-02 0. -1.
    5000001    1    1    2    0    0 -0.82347259173E+02 -0.35195044101E+02 -0.19994311201E+03  0.23221974564E+03  0.77000000000E+02 0.  0.
   -5000001    1    1    2    0    0  0.82347259173E+02  0.35195044101E+02 -0.35429834860E+03  0.37346496762E+03  0.77000000000E+02 0.  0.
<mgrwt>
<rscale>  0 0.24427520E+03</rscale>
<asrwt>0</asrwt>
<pdfrwt beam="1">  1        2 0.39571737E-02 0.24427520E+03</pdfrwt>
<pdfrwt beam="2">  1       -2 0.89225080E-01 0.24427520E+03</pdfrwt>
<totfact> 0.23803487E+03</totfact>
</mgrwt>
</event>
<event>
 4    1  0.4751076E-004  0.1684509E+03  0.7818608E-02  0.1179473E+00
          2   -1    0    0  501    0  0.00000000000E+00  0.00000000000E+00  0.13332473147E+04  0.13332473147E+04  0.25500000000E-02 0.  1.
         -2   -1    0    0    0  501 -0.00000000000E+00 -0.00000000000E+00 -0.53207886372E+01  0.53207892483E+01  0.25500000000E-02 0. -1.
    5000001    1    1    2    0    0 -0.16546210020E+02  0.28428338783E+02  0.59157736334E+03  0.59747361811E+03  0.77000000000E+02 0.  0.
   -5000001    1    1    2    0    0  0.16546210020E+02 -0.28428338783E+02  0.73634916269E+03  0.74109448581E+03  0.77000000000E+02 0.  0.
<mgrwt>
<rscale>  0 0.16845091E+03</rscale>
<asrwt>0</asrwt>
<pdfrwt beam="1">  1        2 0.20511493E+00 0.16845091E+03</pdfrwt>
<pdfrwt beam="2">  1       -2 0.81858306E-03 0.16845091E+03</pdfrwt>
<totfact> 0.46280942E+04</totfact>
</mgrwt>
</event>
<event>
 4    1  0.4751076E-004  0.2411485E+03  0.7818608E-02  0.1119030E+00
          2   -1    0    0  501    0  0.00000000000E+00  0.00000000000E+00  0.10997029871E+04  0.10997029871E+04  0.25500000000E-02 0.  1.
         -2   -1    0    0    0  501 -0.00000000000E+00 -0.00000000000E+00 -0.13220064569E+02  0.13220064815E+02  0.25500000000E-02 0. -1.
    5000001    1    1    2    0    0 -0.81080389462E+02  0.21424833061E+02  0.36002209444E+03  0.37759497019E+03  0.77000000000E+02 0.  0.
   -5000001    1    1    2    0    0  0.81080389462E+02 -0.21424833061E+02  0.72646082804E+03  0.73532808168E+03  0.77000000000E+02 0.  0.
<mgrwt>
<rscale>  0 0.24114846E+03</rscale>
<asrwt>0</asrwt>
<pdfrwt beam="1">  1        2 0.16918507E+00 0.24114846E+03</pdfrwt>
<pdfrwt beam="2">  1       -2 0.20338562E-02 0.24114846E+03</pdfrwt>
<totfact> 0.17095136E+04</totfact>
</mgrwt>
</event>
<event>
 4    1  0.4751076E-004  0.1728706E+03  0.7818608E-02  0.1174887E+00
         -2   -1    0    0    0  501 -0.00000000000E+00  0.00000000000E+00  0.82019920810E+02  0.82019920849E+02  0.25500000000E-02 0. -1.
          2   -1    0    0  501    0  0.00000000000E+00 -0.00000000000E+00 -0.91088395709E+02  0.91088395744E+02  0.25500000000E-02 0.  1.
    5000001    1    1    2    0    0  0.26651149681E+02  0.28808540558E+02 -0.58952312602E+01  0.86625455497E+02  0.77000000000E+02 0.  0.
   -5000001    1    1    2    0    0 -0.26651149681E+02 -0.28808540558E+02 -0.31732436388E+01  0.86482861097E+02  0.77000000000E+02 0.  0.
<mgrwt>
<rscale>  0 0.17287062E+03</rscale>
<asrwt>0</asrwt>
<pdfrwt beam="1">  1        2 0.14013599E-01 0.17287062E+03</pdfrwt>
<pdfrwt beam="2">  1       -2 0.12618449E-01 0.17287062E+03</pdfrwt>
<totfact> 0.18288806E+04</totfact>
</mgrwt>
</event>
<event>
 4    1  0.4751076E-004  0.3494518E+03  0.7818608E-02  0.1062840E+00
          2   -1    0    0  501    0  0.00000000000E+00  0.00000000000E+00  0.75807308472E+03  0.75807308472E+03  0.25500000000E-02 0.  1.
         -2   -1    0    0    0  501 -0.00000000000E+00 -0.00000000000E+00 -0.40272016558E+02  0.40272016638E+02  0.25500000000E-02 0. -1.
    5000001    1    1    2    0    0  0.80404892672E+02  0.74084893814E+02  0.10198488027E+03  0.16817679406E+03  0.77000000000E+02 0.  0.
   -5000001    1    1    2    0    0 -0.80404892672E+02 -0.74084893814E+02  0.61581618789E+03  0.63016830730E+03  0.77000000000E+02 0.  0.
<mgrwt>
<rscale>  0 0.34945175E+03</rscale>
<asrwt>0</asrwt>
<pdfrwt beam="1">  1        2 0.11662662E+00 0.34945175E+03</pdfrwt>
<pdfrwt beam="2">  1       -2 0.61956951E-02 0.34945175E+03</pdfrwt>
<totfact> 0.53728477E+03</totfact>
</mgrwt>
</event>
<event>
 4    1  0.4751076E-004  0.3978785E+03  0.7818608E-02  0.1044517E+00
         -2   -1    0    0    0  501 -0.00000000000E+00  0.00000000000E+00  0.45340760397E+02  0.45340760469E+02  0.25500000000E-02 0. -1.
          2   -1    0    0  501    0  0.00000000000E+00 -0.00000000000E+00 -0.87287536140E+03  0.87287536140E+03  0.25500000000E-02 0.  1.
    5000001    1    1    2    0    0  0.86425038441E+01  0.18104844600E+03 -0.34871409877E+03  0.40047940690E+03  0.77000000000E+02 0.  0.
   -5000001    1    1    2    0    0 -0.86425038441E+01 -0.18104844600E+03 -0.47882050223E+03  0.51773671497E+03  0.77000000000E+02 0.  0.
<mgrwt>
<rscale>  0 0.39787854E+03</rscale>
<asrwt>0</asrwt>
<pdfrwt beam="1">  1        2 0.13428850E+00 0.39787854E+03</pdfrwt>
<pdfrwt beam="2">  1       -2 0.69755022E-02 0.39787854E+03</pdfrwt>
<totfact> 0.37267496E+03</totfact>
</mgrwt>
</event>
<event>
 4    1  0.4751076E-004  0.3289830E+03  0.7818608E-02  0.1071588E+00
          2   -1    0    0  501    0  0.00000000000E+00  0.00000000000E+00  0.81010137087E+02  0.81010137127E+02  0.25500000000E-02 0.  1.
         -2   -1    0    0    0  501 -0.00000000000E+00 -0.00000000000E+00 -0.33400088887E+03  0.33400088888E+03  0.25500000000E-02 0. -1.
    5000001    1    1    2    0    0 -0.14292825784E+02  0.12480193313E+03 -0.34236480256E+02  0.15126448348E+03  0.77000000000E+02 0.  0.
   -5000001    1    1    2    0    0  0.14292825784E+02 -0.12480193313E+03 -0.21875427152E+03  0.26374654252E+03  0.77000000000E+02 0.  0.
<mgrwt>
<rscale>  0 0.32898303E+03</rscale>
<asrwt>0</asrwt>
<pdfrwt beam="1">  1        2 0.12463098E-01 0.32898303E+03</pdfrwt>
<pdfrwt beam="2">  1       -2 0.51384752E-01 0.32898303E+03</pdfrwt>
<totfact> 0.17795918E+03</totfact>
</mgrwt>
</event>
<event>
 4    1  0.4751076E-004  0.2807202E+03  0.7818608E-02  0.1095296E+00
          2   -1    0    0  501    0  0.00000000000E+00  0.00000000000E+00  0.24266209655E+04  0.24266209655E+04  0.25500000000E-02 0.  1.
         -2   -1    0    0    0  501 -0.00000000000E+00 -0.00000000000E+00 -0.81186816424E+01  0.81186820428E+01  0.25500000000E-02 0. -1.
    5000001    1    1    2    0    0 -0.56206574575E+02  0.75671388844E+02  0.18155452180E+04  0.18196205035E+04  0.77000000000E+02 0.  0.
   -5000001    1    1    2    0    0  0.56206574575E+02 -0.75671388844E+02  0.60295706584E+03  0.61511914404E+03  0.77000000000E+02 0.  0.
<mgrwt>
<rscale>  0 0.28072024E+03</rscale>
<asrwt>0</asrwt>
<pdfrwt beam="1">  1        2 0.37332628E+00 0.28072024E+03</pdfrwt>
<pdfrwt beam="2">  1       -2 0.12490280E-02 0.28072024E+03</pdfrwt>
<totfact> 0.67823443E+03</totfact>
</mgrwt>
</event>
<event>
 4    1  0.4751076E-004  0.2006814E+03  0.7818608E-02  0.1149165E+00
          2   -1    0    0  501    0  0.00000000000E+00  0.00000000000E+00  0.10481571553E+03  0.10481571556E+03  0.25500000000E-02 0.  1.
         -2   -1    0    0    0  501 -0.00000000000E+00 -0.00000000000E+00 -0.96056746164E+02  0.96056746198E+02  0.25500000000E-02 0. -1.
    5000001    1    1    2    0    0  0.18111835698E+02 -0.57760995129E+02 -0.17433128333E+02  0.99485099960E+02  0.77000000000E+02 0.  0.
   -5000001    1    1    2    0    0 -0.18111835698E+02  0.57760995129E+02  0.26192097698E+02  0.10138736180E+03  0.77000000000E+02 0.  0.
<mgrwt>
<rscale>  0 0.20068141E+03</rscale>
<asrwt>0</asrwt>
<pdfrwt beam="1">  1        2 0.16125495E-01 0.20068141E+03</pdfrwt>
<pdfrwt beam="2">  1       -2 0.14777961E-01 0.20068141E+03</pdfrwt>
<totfact> 0.12127561E+04</totfact>
</mgrwt>
</event>
<event>
 4    1  0.4751076E-004  0.6782967E+03  0.7818608E-02  0.9755085E-01
          2   -1    0    0  501    0  0.00000000000E+00  0.00000000000E+00  0.20676785069E+04  0.20676785069E+04  0.25500000000E-02 0.  1.
         -2   -1    0    0    0  501 -0.00000000000E+00 -0.00000000000E+00 -0.55628380836E+02  0.55628380894E+02  0.25500000000E-02 0. -1.
    5000001    1    1    2    0    0  0.27161503942E+03  0.17108716364E+03  0.12494500783E+04  0.12923235064E+04  0.77000000000E+02 0.  0.
   -5000001    1    1    2    0    0 -0.27161503942E+03 -0.17108716364E+03  0.76260004781E+03  0.83098338137E+03  0.77000000000E+02 0.  0.
<mgrwt>
<rscale>  0 0.67829671E+03</rscale>
<asrwt>0</asrwt>
<pdfrwt beam="1">  1        2 0.31810439E+00 0.67829671E+03</pdfrwt>
<pdfrwt beam="2">  1       -2 0.85582124E-02 0.67829671E+03</pdfrwt>
<totfact> 0.55745682E+02</totfact>
</mgrwt>
</event>
<event>
 4    1  0.4751076E-004  0.3856078E+03  0.7818608E-02  0.1048880E+00
          2   -1    0    0  501    0  0.00000000000E+00  0.00000000000E+00  0.45644393672E+03  0.45644393673E+03  0.25500000000E-02 0. -1.
         -2   -1    0    0    0  501 -0.00000000000E+00 -0.00000000000E+00 -0.81441201353E+02  0.81441201393E+02  0.25500000000E-02 0.  1.
    5000001    1    1    2    0    0 -0.10455379920E+03  0.10545033380E+03  0.53757434634E+02  0.17569898009E+03  0.77000000000E+02 0.  0.
   -5000001    1    1    2    0    0  0.10455379920E+03 -0.10545033380E+03  0.32124530074E+03  0.36218615803E+03  0.77000000000E+02 0.  0.
<mgrwt>
<rscale>  0 0.38560779E+03</rscale>
<asrwt>0</asrwt>
<pdfrwt beam="1">  1        2 0.70222144E-01 0.38560779E+03</pdfrwt>
<pdfrwt beam="2">  1       -2 0.12529416E-01 0.38560779E+03</pdfrwt>
<totfact> 0.31953312E+03</totfact>
</mgrwt>
</event>
<event>
 4    1  0.4751076E-004  0.2426642E+03  0.7818608E-02  0.1118031E+00
         -2   -1    0    0    0  501 -0.00000000000E+00  0.00000000000E+00  0.97921502377E+02  0.97921502410E+02  0.25500000000E-02 0. -1.
          2   -1    0    0  501    0  0.00000000000E+00 -0.00000000000E+00 -0.15033961102E+03  0.15033961105E+03  0.25500000000E-02 0.  1.
    5000001    1    1    2    0    0  0.44463549592E+02 -0.55424738685E+02 -0.88804975470E+02  0.13734712436E+03  0.77000000000E+02 0.  0.
   -5000001    1    1    2    0    0 -0.44463549592E+02  0.55424738685E+02  0.36386866823E+02  0.11091398910E+03  0.77000000000E+02 0.  0.
<mgrwt>
<rscale>  0 0.24266422E+03</rscale>
<asrwt>0</asrwt>
<pdfrwt beam="1">  1        2 0.23129171E-01 0.24266422E+03</pdfrwt>
<pdfrwt beam="2">  1       -2 0.15064847E-01 0.24266422E+03</pdfrwt>
<totfact> 0.78567821E+03</totfact>
</mgrwt>
</event>
<event>
 4    1  0.4751076E-004  0.5960243E+03  0.7818608E-02  0.9913689E-01
          2   -1    0    0  501    0  0.00000000000E+00  0.00000000000E+00  0.10422375318E+04  0.10422375318E+04  0.25500000000E-02 0.  1.
         -2   -1    0    0    0  501 -0.00000000000E+00 -0.00000000000E+00 -0.85212085707E+02  0.85212085745E+02  0.25500000000E-02 0. -1.
    5000001    1    1    2    0    0 -0.16187181605E+03 -0.23299155900E+03  0.57107993169E+03  0.64229964952E+03  0.77000000000E+02 0.  0.
   -5000001    1    1    2    0    0  0.16187181605E+03  0.23299155900E+03  0.38594551445E+03  0.48514996807E+03  0.77000000000E+02 0.  0.
<mgrwt>
<rscale>  0 0.59602427E+03</rscale>
<asrwt>0</asrwt>
<pdfrwt beam="1">  1        2 0.16034424E+00 0.59602427E+03</pdfrwt>
<pdfrwt beam="2">  1       -2 0.13109552E-01 0.59602427E+03</pdfrwt>
<totfact> 0.10493059E+03</totfact>
</mgrwt>
</event>
<event>
 4    1  0.4751076E-004  0.1706410E+03  0.7818608E-02  0.1177181E+00
         -2   -1    0    0    0  501 -0.00000000000E+00  0.00000000000E+00  0.31236630148E+01  0.31236640556E+01  0.25500000000E-02 0. -1.
          2   -1    0    0  501    0  0.00000000000E+00 -0.00000000000E+00 -0.23304647008E+04  0.23304647008E+04  0.25500000000E-02 0.  1.
    5000001    1    1    2    0    0 -0.17707889100E+02  0.20067847717E+02 -0.15080903428E+04  0.15102919485E+04  0.77000000000E+02 0.  0.
   -5000001    1    1    2    0    0  0.17707889100E+02 -0.20067847717E+02 -0.81925069499E+03  0.82329641630E+03  0.77000000000E+02 0.  0.
<mgrwt>
<rscale>  0 0.17064100E+03</rscale>
<asrwt>0</asrwt>
<pdfrwt beam="1">  1        2 0.35853164E+00 0.17064100E+03</pdfrwt>
<pdfrwt beam="2">  1       -2 0.48056548E-03 0.17064100E+03</pdfrwt>
<totfact> 0.29914705E+04</totfact>
</mgrwt>
</event>
<event>
 4    1  0.4751076E-004  0.3125754E+03  0.7818608E-02  0.1079118E+00
         -2   -1    0    0    0  501 -0.00000000000E+00  0.00000000000E+00  0.12628250430E+02  0.12628250688E+02  0.25500000000E-02 0.  1.
          2   -1    0    0  501    0  0.00000000000E+00 -0.00000000000E+00 -0.19342223071E+04  0.19342223071E+04  0.25500000000E-02 0. -1.
    5000001    1    1    2    0    0  0.10098830509E+03 -0.33586939074E+02 -0.14881982789E+04  0.14939845506E+04  0.77000000000E+02 0.  0.
   -5000001    1    1    2    0    0 -0.10098830509E+03  0.33586939074E+02 -0.43339577784E+03  0.45286600722E+03  0.77000000000E+02 0.  0.
<mgrwt>
<rscale>  0 0.31257539E+03</rscale>
<asrwt>0</asrwt>
<pdfrwt beam="1">  1        2 0.29757243E+00 0.31257539E+03</pdfrwt>
<pdfrwt beam="2">  1       -2 0.19428093E-02 0.31257539E+03</pdfrwt>
<totfact> 0.64962873E+03</totfact>
</mgrwt>
</event>
<event>
 4    1  0.4751076E-004  0.1787090E+03  0.7818608E-02  0.1169058E+00
          2   -1    0    0  501    0  0.00000000000E+00  0.00000000000E+00  0.13915475433E+04  0.13915475433E+04  0.25500000000E-02 0.  1.
         -2   -1    0    0    0  501 -0.00000000000E+00 -0.00000000000E+00 -0.57376618845E+01  0.57376624511E+01  0.25500000000E-02 0. -1.
    5000001    1    1    2    0    0 -0.39850179424E+02 -0.69890228319E+01  0.85282634751E+03  0.85725064144E+03  0.77000000000E+02 0.  0.
   -5000001    1    1    2    0    0  0.39850179424E+02  0.69890228319E+01  0.53298353392E+03  0.54003456433E+03  0.77000000000E+02 0.  0.
<mgrwt>
<rscale>  0 0.17870903E+03</rscale>
<asrwt>0</asrwt>
<pdfrwt beam="1">  1        2 0.21408432E+00 0.17870903E+03</pdfrwt>
<pdfrwt beam="2">  1       -2 0.88271693E-03 0.17870903E+03</pdfrwt>
<totfact> 0.38810907E+04</totfact>
</mgrwt>
</event>
<event>
 4    1  0.4751076E-004  0.2446007E+03  0.7818608E-02  0.1116765E+00
          2   -1    0    0  501    0  0.00000000000E+00  0.00000000000E+00  0.61733075752E+03  0.61733075752E+03  0.25500000000E-02 0.  1.
         -2   -1    0    0    0  501 -0.00000000000E+00 -0.00000000000E+00 -0.24229110922E+02  0.24229111056E+02  0.25500000000E-02 0. -1.
    5000001    1    1    2    0    0  0.60886747105E+02 -0.48554909639E+02  0.15376361393E+03  0.18877771106E+03  0.77000000000E+02 0.  0.
   -5000001    1    1    2    0    0 -0.60886747105E+02  0.48554909639E+02  0.43933803266E+03  0.45278215752E+03  0.77000000000E+02 0.  0.
<mgrwt>
<rscale>  0 0.24460070E+03</rscale>
<asrwt>0</asrwt>
<pdfrwt beam="1">  1        2 0.94973980E-01 0.24460070E+03</pdfrwt>
<pdfrwt beam="2">  1       -2 0.37275548E-02 0.24460070E+03</pdfrwt>
<totfact> 0.14741027E+04</totfact>
</mgrwt>
</event>
<event>
 4    1  0.4751076E-004  0.3596218E+03  0.7818608E-02  0.1058734E+00
          2   -1    0    0  501    0  0.00000000000E+00  0.00000000000E+00  0.19000418792E+04  0.19000418792E+04  0.25500000000E-02 0.  1.
         -2   -1    0    0    0  501 -0.00000000000E+00 -0.00000000000E+00 -0.17016442949E+02  0.17016443140E+02  0.25500000000E-02 0. -1.
    5000001    1    1    2    0    0  0.13706541913E+03 -0.69267008912E+02  0.12245007528E+04  0.12364934053E+04  0.77000000000E+02 0.  0.
   -5000001    1    1    2    0    0 -0.13706541913E+03  0.69267008912E+02  0.65852468341E+03  0.68056491704E+03  0.77000000000E+02 0.  0.
<mgrwt>
<rscale>  0 0.35962177E+03</rscale>
<asrwt>0</asrwt>
<pdfrwt beam="1">  1        2 0.29231413E+00 0.35962177E+03</pdfrwt>
<pdfrwt beam="2">  1       -2 0.26179144E-02 0.35962177E+03</pdfrwt>
<totfact> 0.43477329E+03</totfact>
</mgrwt>
</event>
<event>
 4    1  0.4751076E-004  0.1764662E+03  0.7818608E-02  0.1171268E+00
          2   -1    0    0  501    0  0.00000000000E+00  0.00000000000E+00  0.52348599660E+03  0.52348599660E+03  0.25500000000E-02 0.  1.
         -2   -1    0    0    0  501 -0.00000000000E+00 -0.00000000000E+00 -0.14871611725E+02  0.14871611944E+02  0.25500000000E-02 0. -1.
    5000001    1    1    2    0    0  0.41450570010E+02  0.18269905365E+01  0.21891394806E+03  0.23574096865E+03  0.77000000000E+02 0.  0.
   -5000001    1    1    2    0    0 -0.41450570010E+02 -0.18269905365E+01  0.28970043682E+03  0.30261663989E+03  0.77000000000E+02 0.  0.
<mgrwt>
<rscale>  0 0.17646621E+03</rscale>
<asrwt>0</asrwt>
<pdfrwt beam="1">  1        2 0.80536318E-01 0.17646621E+03</pdfrwt>
<pdfrwt beam="2">  1       -2 0.22879400E-02 0.17646621E+03</pdfrwt>
<totfact> 0.35819362E+04</totfact>
</mgrwt>
</event>
<event>
 4    1  0.4751076E-004  0.1621408E+03  0.7818608E-02  0.1186301E+00
          2   -1    0    0  501    0  0.00000000000E+00  0.00000000000E+00  0.28037321634E+02  0.28037321750E+02  0.25500000000E-02 0.  1.
         -2   -1    0    0    0  501 -0.00000000000E+00 -0.00000000000E+00 -0.23441652290E+03  0.23441652292E+03  0.25500000000E-02 0. -1.
    5000001    1    1    2    0    0  0.11498546529E+02 -0.18267660966E+02 -0.81624851809E+02  0.11426959544E+03  0.77000000000E+02 0.  0.
   -5000001    1    1    2    0    0 -0.11498546529E+02  0.18267660966E+02 -0.12475434946E+03  0.14818424923E+03  0.77000000000E+02 0.  0.
<mgrwt>
<rscale>  0 0.16214082E+03</rscale>
<asrwt>0</asrwt>
<pdfrwt beam="1">  1        2 0.43134343E-02 0.16214082E+03</pdfrwt>
<pdfrwt beam="2">  1       -2 0.36064079E-01 0.16214082E+03</pdfrwt>
<totfact> 0.13190156E+04</totfact>
</mgrwt>
</event>
<event>
 4    1  0.4751076E-004  0.2050384E+03  0.7818608E-02  0.1145556E+00
         -2   -1    0    0    0  501 -0.00000000000E+00  0.00000000000E+00  0.88971969879E+01  0.88971973533E+01  0.25500000000E-02 0.  1.
          2   -1    0    0  501    0  0.00000000000E+00 -0.00000000000E+00 -0.11812917014E+04  0.11812917014E+04  0.25500000000E-02 0. -1.
    5000001    1    1    2    0    0 -0.49459662511E+02  0.44738588160E+02 -0.51915704437E+03  0.52905655293E+03  0.77000000000E+02 0.  0.
   -5000001    1    1    2    0    0  0.49459662511E+02 -0.44738588160E+02 -0.65323746004E+03  0.66113234582E+03  0.77000000000E+02 0.  0.
<mgrwt>
<rscale>  0 0.20503839E+03</rscale>
<asrwt>0</asrwt>
<pdfrwt beam="1">  1        2 0.18173706E+00 0.20503839E+03</pdfrwt>
<pdfrwt beam="2">  1       -2 0.13688005E-02 0.20503839E+03</pdfrwt>
<totfact> 0.27120517E+04</totfact>
</mgrwt>
</event>
<event>
 4    1  0.4751076E-004  0.2956050E+03  0.7818608E-02  0.1087459E+00
          2   -1    0    0  501    0  0.00000000000E+00  0.00000000000E+00  0.14367017599E+04  0.14367017599E+04  0.25500000000E-02 0.  1.
         -2   -1    0    0    0  501 -0.00000000000E+00 -0.00000000000E+00 -0.15205365475E+02  0.15205365689E+02  0.25500000000E-02 0. -1.
    5000001    1    1    2    0    0  0.94303365593E+02 -0.79604258788E+02  0.58204687254E+03  0.59994793492E+03  0.77000000000E+02 0.  0.
   -5000001    1    1    2    0    0 -0.94303365593E+02  0.79604258788E+02  0.83944952184E+03  0.85195919063E+03  0.77000000000E+02 0.  0.
<mgrwt>
<rscale>  0 0.29560498E+03</rscale>
<asrwt>0</asrwt>
<pdfrwt beam="1">  1        2 0.22103110E+00 0.29560498E+03</pdfrwt>
<pdfrwt beam="2">  1       -2 0.23392863E-02 0.29560498E+03</pdfrwt>
<totfact> 0.90655465E+03</totfact>
</mgrwt>
</event>
<event>
 4    1  0.4751076E-004  0.3335869E+03  0.7818608E-02  0.1069561E+00
         -2   -1    0    0    0  501 -0.00000000000E+00  0.00000000000E+00  0.76807863991E+02  0.76807864033E+02  0.25500000000E-02 0. -1.
          2   -1    0    0  501    0  0.00000000000E+00 -0.00000000000E+00 -0.36220316861E+03  0.36220316861E+03  0.25500000000E-02 0.  1.
    5000001    1    1    2    0    0 -0.13220864185E+03  0.12525975949E+02 -0.22854316834E+03  0.27531255846E+03  0.77000000000E+02 0.  0.
   -5000001    1    1    2    0    0  0.13220864185E+03 -0.12525975949E+02 -0.56852136278E+02  0.16369847419E+03  0.77000000000E+02 0.  0.
<mgrwt>
<rscale>  0 0.33358688E+03</rscale>
<asrwt>0</asrwt>
<pdfrwt beam="1">  1        2 0.55723563E-01 0.33358688E+03</pdfrwt>
<pdfrwt beam="2">  1       -2 0.11816595E-01 0.33358688E+03</pdfrwt>
<totfact> 0.45213171E+03</totfact>
</mgrwt>
</event>
<event>
 4    1  0.4751076E-004  0.1008501E+04  0.7818608E-02  0.9299270E-01
         -2   -1    0    0    0  501 -0.00000000000E+00  0.00000000000E+00  0.36628128530E+03  0.36628128531E+03  0.25500000000E-02 0. -1.
          2   -1    0    0  501    0  0.00000000000E+00 -0.00000000000E+00 -0.69418917830E+03  0.69418917830E+03  0.25500000000E-02 0.  1.
    5000001    1    1    2    0    0  0.22456356898E+02  0.48363629254E+03 -0.39841359331E+02  0.49185839968E+03  0.77000000000E+02 0.  0.
   -5000001    1    1    2    0    0 -0.22456356898E+02 -0.48363629254E+03 -0.28806653367E+03  0.56861206393E+03  0.77000000000E+02 0.  0.
<mgrwt>
<rscale>  0 0.10085009E+04</rscale>
<asrwt>0</asrwt>
<pdfrwt beam="1">  1        2 0.10679833E+00 0.10085009E+04</pdfrwt>
<pdfrwt beam="2">  1       -2 0.56350967E-01 0.10085009E+04</pdfrwt>
<totfact> 0.12217809E+02</totfact>
</mgrwt>
</event>
<event>
 4    1  0.4751076E-004  0.1791717E+03  0.7818608E-02  0.1168607E+00
          2   -1    0    0  501    0  0.00000000000E+00  0.00000000000E+00  0.14571057415E+04  0.14571057415E+04  0.25500000000E-02 0.  1.
         -2   -1    0    0    0  501 -0.00000000000E+00 -0.00000000000E+00 -0.55079237310E+01  0.55079243213E+01  0.25500000000E-02 0. -1.
    5000001    1    1    2    0    0  0.38286102900E+02 -0.24607723138E+02  0.68476961000E+03  0.69058655105E+03  0.77000000000E+02 0.  0.
   -5000001    1    1    2    0    0 -0.38286102900E+02  0.24607723138E+02  0.76682820778E+03  0.77202711478E+03  0.77000000000E+02 0.  0.
<mgrwt>
<rscale>  0 0.17917174E+03</rscale>
<asrwt>0</asrwt>
<pdfrwt beam="1">  1        2 0.22416981E+00 0.17917174E+03</pdfrwt>
<pdfrwt beam="2">  1       -2 0.84737406E-03 0.17917174E+03</pdfrwt>
<totfact> 0.37983537E+04</totfact>
</mgrwt>
</event>
<event>
 4    1  0.4751076E-004  0.3198512E+03  0.7818608E-02  0.1075718E+00
         -2   -1    0    0    0  501 -0.00000000000E+00  0.00000000000E+00  0.13732089363E+02  0.13732089600E+02  0.25500000000E-02 0. -1.
          2   -1    0    0  501    0  0.00000000000E+00 -0.00000000000E+00 -0.18625130560E+04  0.18625130560E+04  0.25500000000E-02 0.  1.
    5000001    1    1    2    0    0 -0.12460791740E+03 -0.63798244682E+02 -0.96580574892E+03  0.97893160831E+03  0.77000000000E+02 0.  0.
   -5000001    1    1    2    0    0  0.12460791740E+03  0.63798244682E+02 -0.88297521775E+03  0.89731353732E+03  0.77000000000E+02 0.  0.
<mgrwt>
<rscale>  0 0.31985119E+03</rscale>
<asrwt>0</asrwt>
<pdfrwt beam="1">  1        2 0.28654027E+00 0.31985119E+03</pdfrwt>
<pdfrwt beam="2">  1       -2 0.21126306E-02 0.31985119E+03</pdfrwt>
<totfact> 0.62623249E+03</totfact>
</mgrwt>
</event>
<event>
 4    1  0.4751076E-004  0.1981794E+03  0.7818608E-02  0.1151284E+00
          2   -1    0    0  501    0  0.00000000000E+00  0.00000000000E+00  0.28961014102E+04  0.28961014102E+04  0.25500000000E-02 0.  1.
         -2   -1    0    0    0  501 -0.00000000000E+00 -0.00000000000E+00 -0.33903393578E+01  0.33903403168E+01  0.25500000000E-02 0. -1.
    5000001    1    1    2    0    0 -0.28646353551E+02 -0.53098623833E+02  0.16775430875E+04  0.16803927778E+04  0.77000000000E+02 0.  0.
   -5000001    1    1    2    0    0  0.28646353551E+02  0.53098623833E+02  0.12151679834E+04  0.12190989727E+04  0.77000000000E+02 0.  0.
<mgrwt>
<rscale>  0 0.19817939E+03</rscale>
<asrwt>0</asrwt>
<pdfrwt beam="1">  1        2 0.44555327E+00 0.19817939E+03</pdfrwt>
<pdfrwt beam="2">  1       -2 0.52159168E-03 0.19817939E+03</pdfrwt>
<totfact> 0.13065941E+04</totfact>
</mgrwt>
</event>
<event>
 4    1  0.4751076E-004  0.2330003E+03  0.7818608E-02  0.1124546E+00
         -2   -1    0    0    0  501 -0.00000000000E+00  0.00000000000E+00  0.11404358957E+02  0.11404359242E+02  0.25500000000E-02 0. -1.
          2   -1    0    0  501    0  0.00000000000E+00 -0.00000000000E+00 -0.11900962336E+04  0.11900962336E+04  0.25500000000E-02 0.  1.
    5000001    1    1    2    0    0 -0.68306291142E+02  0.25760490211E+02 -0.34129386542E+03  0.35740712757E+03  0.77000000000E+02 0.  0.
   -5000001    1    1    2    0    0  0.68306291142E+02 -0.25760490211E+02 -0.83739800921E+03  0.84409346526E+03  0.77000000000E+02 0.  0.
<mgrwt>
<rscale>  0 0.23300030E+03</rscale>
<asrwt>0</asrwt>
<pdfrwt beam="1">  1        2 0.18309163E+00 0.23300030E+03</pdfrwt>
<pdfrwt beam="2">  1       -2 0.17545177E-02 0.23300030E+03</pdfrwt>
<totfact> 0.18801779E+04</totfact>
</mgrwt>
</event>
<event>
 4    1  0.4751076E-004  0.1763312E+03  0.7818608E-02  0.1171402E+00
         -2   -1    0    0    0  501 -0.00000000000E+00  0.00000000000E+00  0.13998337237E+02  0.13998337470E+02  0.25500000000E-02 0. -1.
          2   -1    0    0  501    0  0.00000000000E+00 -0.00000000000E+00 -0.55529251261E+03  0.55529251261E+03  0.25500000000E-02 0.  1.
    5000001    1    1    2    0    0  0.13573398444E+02  0.40455023816E+02 -0.28623986942E+03  0.29947138251E+03  0.77000000000E+02 0.  0.
   -5000001    1    1    2    0    0 -0.13573398444E+02 -0.40455023816E+02 -0.25505430596E+03  0.26981946758E+03  0.77000000000E+02 0.  0.
<mgrwt>
<rscale>  0 0.17633119E+03</rscale>
<asrwt>0</asrwt>
<pdfrwt beam="1">  1        2 0.85429600E-01 0.17633119E+03</pdfrwt>
<pdfrwt beam="2">  1       -2 0.21535908E-02 0.17633119E+03</pdfrwt>
<totfact> 0.36628817E+04</totfact>
</mgrwt>
</event>
<event>
 4    1  0.4751076E-004  0.2177045E+03  0.7818608E-02  0.1135606E+00
          2   -1    0    0  501    0  0.00000000000E+00  0.00000000000E+00  0.47402535552E+02  0.47402535620E+02  0.25500000000E-02 0.  1.
         -2   -1    0    0    0  501 -0.00000000000E+00 -0.00000000000E+00 -0.24996151587E+03  0.24996151588E+03  0.25500000000E-02 0. -1.
    5000001    1    1    2    0    0  0.27019961088E+02  0.71174617422E+02 -0.86075210071E+02  0.13832514685E+03  0.77000000000E+02 0.  0.
   -5000001    1    1    2    0    0 -0.27019961088E+02 -0.71174617422E+02 -0.11648377025E+03  0.15903890465E+03  0.77000000000E+02 0.  0.
<mgrwt>
<rscale>  0 0.21770448E+03</rscale>
<asrwt>0</asrwt>
<pdfrwt beam="1">  1        2 0.72926979E-02 0.21770448E+03</pdfrwt>
<pdfrwt beam="2">  1       -2 0.38455617E-01 0.21770448E+03</pdfrwt>
<totfact> 0.60287274E+03</totfact>
</mgrwt>
</event>
<event>
 4    1  0.4751076E-004  0.2662160E+03  0.7818608E-02  0.1103465E+00
         -2   -1    0    0    0  501 -0.00000000000E+00  0.00000000000E+00  0.30768072762E+02  0.30768072868E+02  0.25500000000E-02 0. -1.
          2   -1    0    0  501    0  0.00000000000E+00 -0.00000000000E+00 -0.57584809914E+03  0.57584809915E+03  0.25500000000E-02 0.  1.
    5000001    1    1    2    0    0  0.12181593333E+02  0.66944949078E+02 -0.46533579368E+03  0.47654634434E+03  0.77000000000E+02 0.  0.
   -5000001    1    1    2    0    0 -0.12181593333E+02 -0.66944949078E+02 -0.79744232703E+02  0.13006982768E+03  0.77000000000E+02 0.  0.
<mgrwt>
<rscale>  0 0.26621597E+03</rscale>
<asrwt>0</asrwt>
<pdfrwt beam="1">  1        2 0.88592007E-01 0.26621597E+03</pdfrwt>
<pdfrwt beam="2">  1       -2 0.47335501E-02 0.26621597E+03</pdfrwt>
<totfact> 0.11192241E+04</totfact>
</mgrwt>
</event>
<event>
 4    1  0.4751076E-004  0.2977123E+03  0.7818608E-02  0.1086390E+00
          2   -1    0    0  501    0  0.00000000000E+00  0.00000000000E+00  0.24027325106E+03  0.24027325107E+03  0.25500000000E-02 0. -1.
         -2   -1    0    0    0  501 -0.00000000000E+00 -0.00000000000E+00 -0.92220616711E+02  0.92220616746E+02  0.25500000000E-02 0.  1.
    5000001    1    1    2    0    0  0.22282740436E+02  0.10026685779E+03  0.15819100070E+03  0.20372372467E+03  0.77000000000E+02 0.  0.
   -5000001    1    1    2    0    0 -0.22282740436E+02 -0.10026685779E+03 -0.10138366357E+02  0.12877014314E+03  0.77000000000E+02 0.  0.
<mgrwt>
<rscale>  0 0.29771226E+03</rscale>
<asrwt>0</asrwt>
<pdfrwt beam="1">  1        2 0.36965115E-01 0.29771226E+03</pdfrwt>
<pdfrwt beam="2">  1       -2 0.14187787E-01 0.29771226E+03</pdfrwt>
<totfact> 0.52146558E+03</totfact>
</mgrwt>
</event>
<event>
 4    1  0.4751076E-004  0.2076943E+03  0.7818608E-02  0.1143405E+00
         -2   -1    0    0    0  501 -0.00000000000E+00  0.00000000000E+00  0.25898700468E+02  0.25898700593E+02  0.25500000000E-02 0. -1.
          2   -1    0    0  501    0  0.00000000000E+00 -0.00000000000E+00 -0.41640051713E+03  0.41640051714E+03  0.25500000000E-02 0.  1.
    5000001    1    1    2    0    0 -0.55899509901E+02 -0.10786550387E+02 -0.28080887725E+03  0.29668793440E+03  0.77000000000E+02 0.  0.
   -5000001    1    1    2    0    0  0.55899509901E+02  0.10786550387E+02 -0.10969293942E+03  0.14561128333E+03  0.77000000000E+02 0.  0.
<mgrwt>
<rscale>  0 0.20769432E+03</rscale>
<asrwt>0</asrwt>
<pdfrwt beam="1">  1        2 0.64061613E-01 0.20769432E+03</pdfrwt>
<pdfrwt beam="2">  1       -2 0.39844158E-02 0.20769432E+03</pdfrwt>
<totfact> 0.20527121E+04</totfact>
</mgrwt>
</event>
<event>
 4    1  0.4751076E-004  0.3123906E+03  0.7818608E-02  0.1079206E+00
         -2   -1    0    0    0  501 -0.00000000000E+00  0.00000000000E+00  0.28812264313E+02  0.28812264426E+02  0.25500000000E-02 0. -1.
          2   -1    0    0  501    0  0.00000000000E+00 -0.00000000000E+00 -0.84675662912E+03  0.84675662912E+03  0.25500000000E-02 0.  1.
    5000001    1    1    2    0    0  0.12479181953E+03 -0.10706975952E+02 -0.55676085603E+03  0.57584658405E+03  0.77000000000E+02 0.  0.
   -5000001    1    1    2    0    0 -0.12479181953E+03  0.10706975952E+02 -0.26118350878E+03  0.29972230950E+03  0.77000000000E+02 0.  0.
<mgrwt>
<rscale>  0 0.31239063E+03</rscale>
<asrwt>0</asrwt>
<pdfrwt beam="1">  1        2 0.13027023E+00 0.31239063E+03</pdfrwt>
<pdfrwt beam="2">  1       -2 0.44326567E-02 0.31239063E+03</pdfrwt>
<totfact> 0.77647035E+03</totfact>
</mgrwt>
</event>
<event>
 4    1  0.4751076E-004  0.2946007E+03  0.7818608E-02  0.1087971E+00
         -2   -1    0    0    0  501 -0.00000000000E+00  0.00000000000E+00  0.92151302088E+01  0.92151305617E+01  0.25500000000E-02 0. -1.
          2   -1    0    0  501    0  0.00000000000E+00 -0.00000000000E+00 -0.23545407949E+04  0.23545407949E+04  0.25500000000E-02 0.  1.
    5000001    1    1    2    0    0 -0.12165403369E+03 -0.31094299522E+02 -0.11617759983E+04  0.11710760135E+04  0.77000000000E+02 0.  0.
   -5000001    1    1    2    0    0  0.12165403369E+03  0.31094299522E+02 -0.11835496664E+04  0.11926799119E+04  0.77000000000E+02 0.  0.
<mgrwt>
<rscale>  0 0.29460075E+03</rscale>
<asrwt>0</asrwt>
<pdfrwt beam="1">  1        2 0.36223657E+00 0.29460075E+03</pdfrwt>
<pdfrwt beam="2">  1       -2 0.14177142E-02 0.29460075E+03</pdfrwt>
<totfact> 0.61657291E+03</totfact>
</mgrwt>
</event>
<event>
 4    1  0.4751076E-004  0.4645454E+03  0.7818608E-02  0.1023471E+00
         -2   -1    0    0    0  501 -0.00000000000E+00  0.00000000000E+00  0.88969569953E+03  0.88969569953E+03  0.25500000000E-02 0. -1.
          2   -1    0    0  501    0  0.00000000000E+00 -0.00000000000E+00 -0.60639380123E+02  0.60639380176E+02  0.25500000000E-02 0.  1.
    5000001    1    1    2    0    0  0.12781012014E+03 -0.50457344775E+02  0.65311386410E+02  0.17051670782E+03  0.77000000000E+02 0.  0.
   -5000001    1    1    2    0    0 -0.12781012014E+03  0.50457344775E+02  0.76374493300E+03  0.77981837189E+03  0.77000000000E+02 0.  0.
<mgrwt>
<rscale>  0 0.46454535E+03</rscale>
<asrwt>0</asrwt>
<pdfrwt beam="1">  1        2 0.93291359E-02 0.46454535E+03</pdfrwt>
<pdfrwt beam="2">  1       -2 0.13687625E+00 0.46454535E+03</pdfrwt>
<totfact> 0.28070852E+02</totfact>
</mgrwt>
</event>
<event>
 4    1  0.4751076E-004  0.1719522E+03  0.7818608E-02  0.1175827E+00
         -2   -1    0    0    0  501 -0.00000000000E+00  0.00000000000E+00  0.94244561740E+01  0.94244565189E+01  0.25500000000E-02 0. -1.
          2   -1    0    0  501    0  0.00000000000E+00 -0.00000000000E+00 -0.78433019245E+03  0.78433019245E+03  0.25500000000E-02 0.  1.
    5000001    1    1    2    0    0  0.18646525920E+02 -0.30344352902E+02 -0.32308912455E+03  0.33404199599E+03  0.77000000000E+02 0.  0.
   -5000001    1    1    2    0    0 -0.18646525920E+02  0.30344352902E+02 -0.45181661173E+03  0.45971265299E+03  0.77000000000E+02 0.  0.
<mgrwt>
<rscale>  0 0.17195215E+03</rscale>
<asrwt>0</asrwt>
<pdfrwt beam="1">  1        2 0.12066613E+00 0.17195215E+03</pdfrwt>
<pdfrwt beam="2">  1       -2 0.14499170E-02 0.17195215E+03</pdfrwt>
<totfact> 0.43237875E+04</totfact>
</mgrwt>
</event>
<event>
 4    1  0.4751076E-004  0.2418050E+03  0.7818608E-02  0.1118596E+00
         -2   -1    0    0    0  501 -0.00000000000E+00  0.00000000000E+00  0.78181902213E+02  0.78181902255E+02  0.25500000000E-02 0. -1.
          2   -1    0    0  501    0  0.00000000000E+00 -0.00000000000E+00 -0.18696673301E+03  0.18696673303E+03  0.25500000000E-02 0.  1.
    5000001    1    1    2    0    0  0.97998900122E+01 -0.89465480962E+02 -0.27795866969E+02  0.12166232099E+03  0.77000000000E+02 0.  0.
   -5000001    1    1    2    0    0 -0.97998900122E+01  0.89465480962E+02 -0.80988963831E+02  0.14348631430E+03  0.77000000000E+02 0.  0.
<mgrwt>
<rscale>  0 0.24180500E+03</rscale>
<asrwt>0</asrwt>
<pdfrwt beam="1">  1        2 0.28764113E-01 0.24180500E+03</pdfrwt>
<pdfrwt beam="2">  1       -2 0.12027985E-01 0.24180500E+03</pdfrwt>
<totfact> 0.88990743E+03</totfact>
</mgrwt>
</event>
<event>
 4    1  0.4751076E-004  0.3898093E+03  0.7818608E-02  0.1047367E+00
          2   -1    0    0  501    0  0.00000000000E+00  0.00000000000E+00  0.28296056058E+03  0.28296056059E+03  0.25500000000E-02 0. -1.
         -2   -1    0    0    0  501 -0.00000000000E+00 -0.00000000000E+00 -0.13425131215E+03  0.13425131218E+03  0.25500000000E-02 0.  1.
    5000001    1    1    2    0    0  0.15928596274E+03 -0.25060741191E+02  0.15766452113E+03  0.23830056630E+03  0.77000000000E+02 0.  0.
   -5000001    1    1    2    0    0 -0.15928596274E+03  0.25060741191E+02 -0.89552727050E+01  0.17891130647E+03  0.77000000000E+02 0.  0.
<mgrwt>
<rscale>  0 0.38980932E+03</rscale>
<asrwt>0</asrwt>
<pdfrwt beam="1">  1        2 0.43532394E-01 0.38980932E+03</pdfrwt>
<pdfrwt beam="2">  1       -2 0.20654048E-01 0.38980932E+03</pdfrwt>
<totfact> 0.23307864E+03</totfact>
</mgrwt>
</event>
<event>
 4    1  0.4751076E-004  0.5681155E+03  0.7818608E-02  0.9973857E-01
         -2   -1    0    0    0  501 -0.00000000000E+00  0.00000000000E+00  0.42914294506E+03  0.42914294507E+03  0.25500000000E-02 0. -1.
          2   -1    0    0  501    0  0.00000000000E+00 -0.00000000000E+00 -0.18802314032E+03  0.18802314034E+03  0.25500000000E-02 0.  1.
    5000001    1    1    2    0    0  0.24500466432E+03 -0.12094101149E+03  0.13173338398E+03  0.31294839551E+03  0.77000000000E+02 0.  0.
   -5000001    1    1    2    0    0 -0.24500466432E+03  0.12094101149E+03  0.10938642076E+03  0.30421768990E+03  0.77000000000E+02 0.  0.
<mgrwt>
<rscale>  0 0.56811550E+03</rscale>
<asrwt>0</asrwt>
<pdfrwt beam="1">  1        2 0.28926637E-01 0.56811550E+03</pdfrwt>
<pdfrwt beam="2">  1       -2 0.66021991E-01 0.56811550E+03</pdfrwt>
<totfact> 0.39538016E+02</totfact>
</mgrwt>
</event>
<event>
 4    1  0.4751076E-004  0.3932292E+03  0.7818608E-02  0.1046150E+00
         -2   -1    0    0    0  501 -0.00000000000E+00  0.00000000000E+00  0.32180200524E+02  0.32180200625E+02  0.25500000000E-02 0. -1.
          2   -1    0    0  501    0  0.00000000000E+00 -0.00000000000E+00 -0.12012759615E+04  0.12012759615E+04  0.25500000000E-02 0.  1.
    5000001    1    1    2    0    0 -0.54203801830E+01 -0.38908142182E+02 -0.11384733945E+04  0.11417503642E+04  0.77000000000E+02 0.  0.
   -5000001    1    1    2    0    0  0.54203801830E+01  0.38908142182E+02 -0.30622366434E+02  0.91705797938E+02  0.77000000000E+02 0.  0.
<mgrwt>
<rscale>  0 0.39322920E+03</rscale>
<asrwt>0</asrwt>
<pdfrwt beam="1">  1        2 0.18481165E+00 0.39322920E+03</pdfrwt>
<pdfrwt beam="2">  1       -2 0.49508010E-02 0.39322920E+03</pdfrwt>
<totfact> 0.39790386E+03</totfact>
</mgrwt>
</event>
<event>
 4    1  0.4751076E-004  0.2365285E+03  0.7818608E-02  0.1122127E+00
         -2   -1    0    0    0  501 -0.00000000000E+00  0.00000000000E+00  0.75970593729E+02  0.75970593772E+02  0.25500000000E-02 0. -1.
          2   -1    0    0  501    0  0.00000000000E+00 -0.00000000000E+00 -0.18410324358E+03  0.18410324360E+03  0.25500000000E-02 0.  1.
    5000001    1    1    2    0    0 -0.47576703668E+02  0.59799661461E+02 -0.22837981145E+01  0.10850694898E+03  0.77000000000E+02 0.  0.
   -5000001    1    1    2    0    0  0.47576703668E+02 -0.59799661461E+02 -0.10584885174E+03  0.15156688839E+03  0.77000000000E+02 0.  0.
<mgrwt>
<rscale>  0 0.23652850E+03</rscale>
<asrwt>0</asrwt>
<pdfrwt beam="1">  1        2 0.28323576E-01 0.23652850E+03</pdfrwt>
<pdfrwt beam="2">  1       -2 0.11687784E-01 0.23652850E+03</pdfrwt>
<totfact> 0.94689297E+03</totfact>
</mgrwt>
</event>
<event>
 4    1  0.4751076E-004  0.2913337E+03  0.7818608E-02  0.1089655E+00
          2   -1    0    0  501    0  0.00000000000E+00  0.00000000000E+00  0.19463184174E+04  0.19463184174E+04  0.25500000000E-02 0.  1.
         -2   -1    0    0    0  501 -0.00000000000E+00 -0.00000000000E+00 -0.10902035669E+02  0.10902035967E+02  0.25500000000E-02 0. -1.
    5000001    1    1    2    0    0 -0.12193729096E+03 -0.14667247748E+02  0.87128428013E+03  0.88326050963E+03  0.77000000000E+02 0.  0.
   -5000001    1    1    2    0    0  0.12193729096E+03  0.14667247748E+02  0.10641321016E+04  0.10739599438E+04  0.77000000000E+02 0.  0.
<mgrwt>
<rscale>  0 0.29133371E+03</rscale>
<asrwt>0</asrwt>
<pdfrwt beam="1">  1        2 0.29943376E+00 0.29133371E+03</pdfrwt>
<pdfrwt beam="2">  1       -2 0.16772354E-02 0.29133371E+03</pdfrwt>
<totfact> 0.79458227E+03</totfact>
</mgrwt>
</event>
<event>
 4    1  0.4751076E-004  0.3750073E+03  0.7818608E-02  0.1052795E+00
          2   -1    0    0  501    0  0.00000000000E+00  0.00000000000E+00  0.99617185437E+03  0.99617185437E+03  0.25500000000E-02 0.  1.
         -2   -1    0    0    0  501 -0.00000000000E+00 -0.00000000000E+00 -0.35292729044E+02  0.35292729136E+02  0.25500000000E-02 0. -1.
    5000001    1    1    2    0    0 -0.80961756787E+02  0.13054962683E+03  0.68683133521E+03  0.70800020774E+03  0.77000000000E+02 0.  0.
   -5000001    1    1    2    0    0  0.80961756787E+02 -0.13054962683E+03  0.27404779011E+03  0.32346437577E+03  0.77000000000E+02 0.  0.
<mgrwt>
<rscale>  0 0.37500732E+03</rscale>
<asrwt>0</asrwt>
<pdfrwt beam="1">  1        2 0.15325719E+00 0.37500732E+03</pdfrwt>
<pdfrwt beam="2">  1       -2 0.54296511E-02 0.37500732E+03</pdfrwt>
<totfact> 0.45764000E+03</totfact>
</mgrwt>
</event>
<event>
 4    1  0.4751076E-004  0.1972571E+03  0.7818608E-02  0.1152074E+00
         -2   -1    0    0    0  501 -0.00000000000E+00  0.00000000000E+00  0.44714989395E+02  0.44714989468E+02  0.25500000000E-02 0. -1.
          2   -1    0    0  501    0  0.00000000000E+00 -0.00000000000E+00 -0.21754658018E+03  0.21754658020E+03  0.25500000000E-02 0.  1.
    5000001    1    1    2    0    0  0.15907186558E+02  0.57417295035E+02 -0.65444042548E+02  0.11731030244E+03  0.77000000000E+02 0.  0.
   -5000001    1    1    2    0    0 -0.15907186558E+02 -0.57417295035E+02 -0.10738754824E+03  0.14495126722E+03  0.77000000000E+02 0.  0.
<mgrwt>
<rscale>  0 0.19725712E+03</rscale>
<asrwt>0</asrwt>
<pdfrwt beam="1">  1        2 0.33468704E-01 0.19725712E+03</pdfrwt>
<pdfrwt beam="2">  1       -2 0.68792293E-02 0.19725712E+03</pdfrwt>
<totfact> 0.17942710E+04</totfact>
</mgrwt>
</event>
<event>
 4    1  0.4751076E-004  0.1922090E+03  0.7818608E-02  0.1156484E+00
          2   -1    0    0  501    0  0.00000000000E+00  0.00000000000E+00  0.41644738767E+03  0.41644738767E+03  0.25500000000E-02 0.  1.
         -2   -1    0    0    0  501 -0.00000000000E+00 -0.00000000000E+00 -0.22178254520E+02  0.22178254667E+02  0.25500000000E-02 0. -1.
    5000001    1    1    2    0    0 -0.55957717076E+02  0.78387640601E+01  0.17273036021E+03  0.19737651750E+03  0.77000000000E+02 0.  0.
   -5000001    1    1    2    0    0  0.55957717076E+02 -0.78387640601E+01  0.22153877294E+03  0.24124912484E+03  0.77000000000E+02 0.  0.
<mgrwt>
<rscale>  0 0.19220901E+03</rscale>
<asrwt>0</asrwt>
<pdfrwt beam="1">  1        2 0.64068824E-01 0.19220901E+03</pdfrwt>
<pdfrwt beam="2">  1       -2 0.34120394E-02 0.19220901E+03</pdfrwt>
<totfact> 0.25719464E+04</totfact>
</mgrwt>
</event>
<event>
 4    1  0.4751076E-004  0.1974267E+03  0.7818608E-02  0.1151928E+00
         -2   -1    0    0    0  501 -0.00000000000E+00  0.00000000000E+00  0.24917911462E+02  0.24917911593E+02  0.25500000000E-02 0.  1.
          2   -1    0    0  501    0  0.00000000000E+00 -0.00000000000E+00 -0.39105698473E+03  0.39105698474E+03  0.25500000000E-02 0. -1.
    5000001    1    1    2    0    0  0.57613032901E+02 -0.21520573376E+02 -0.17097928138E+03  0.19734566451E+03  0.77000000000E+02 0.  0.
   -5000001    1    1    2    0    0 -0.57613032901E+02  0.21520573376E+02 -0.19515979189E+03  0.21862923182E+03  0.77000000000E+02 0.  0.
<mgrwt>
<rscale>  0 0.19742668E+03</rscale>
<asrwt>0</asrwt>
<pdfrwt beam="1">  1        2 0.60162608E-01 0.19742668E+03</pdfrwt>
<pdfrwt beam="2">  1       -2 0.38335251E-02 0.19742668E+03</pdfrwt>
<totfact> 0.23189439E+04</totfact>
</mgrwt>
</event>
<event>
 4    1  0.4751076E-004  0.1856337E+03  0.7818608E-02  0.1162459E+00
          2   -1    0    0  501    0  0.00000000000E+00  0.00000000000E+00  0.62195755586E+02  0.62195755638E+02  0.25500000000E-02 0.  1.
         -2   -1    0    0    0  501 -0.00000000000E+00 -0.00000000000E+00 -0.13851368170E+03  0.13851368172E+03  0.25500000000E-02 0. -1.
    5000001    1    1    2    0    0  0.43555961910E+02  0.27848737539E+02 -0.42100438849E+02  0.10185342877E+03  0.77000000000E+02 0.  0.
   -5000001    1    1    2    0    0 -0.43555961910E+02 -0.27848737539E+02 -0.34217487265E+02  0.98856008594E+02  0.77000000000E+02 0.  0.
<mgrwt>
<rscale>  0 0.18563365E+03</rscale>
<asrwt>0</asrwt>
<pdfrwt beam="1">  1        2 0.95685778E-02 0.18563365E+03</pdfrwt>
<pdfrwt beam="2">  1       -2 0.21309797E-01 0.18563365E+03</pdfrwt>
<totfact> 0.12246112E+04</totfact>
</mgrwt>
</event>
<event>
 4    1  0.4751076E-004  0.2432276E+03  0.7818608E-02  0.1117661E+00
          2   -1    0    0  501    0  0.00000000000E+00  0.00000000000E+00  0.19159306277E+04  0.19159306277E+04  0.25500000000E-02 0.  1.
         -2   -1    0    0    0  501 -0.00000000000E+00 -0.00000000000E+00 -0.77194394629E+01  0.77194398840E+01  0.25500000000E-02 0. -1.
    5000001    1    1    2    0    0 -0.85057623012E+02 -0.90340953358E+01  0.12649240530E+04  0.12701489180E+04  0.77000000000E+02 0.  0.
   -5000001    1    1    2    0    0  0.85057623012E+02  0.90340953358E+01  0.64328713523E+03  0.65350114955E+03  0.77000000000E+02 0.  0.
<mgrwt>
<rscale>  0 0.24322756E+03</rscale>
<asrwt>0</asrwt>
<pdfrwt beam="1">  1        2 0.29475848E+00 0.24322756E+03</pdfrwt>
<pdfrwt beam="2">  1       -2 0.11876064E-02 0.24322756E+03</pdfrwt>
<totfact> 0.13609450E+04</totfact>
</mgrwt>
</event>
<event>
 4    1  0.4751076E-004  0.2420427E+03  0.7818608E-02  0.1118439E+00
         -2   -1    0    0    0  501 -0.00000000000E+00  0.00000000000E+00  0.23238201685E+02  0.23238201825E+02  0.25500000000E-02 0. -1.
          2   -1    0    0  501    0  0.00000000000E+00 -0.00000000000E+00 -0.63026234383E+03  0.63026234384E+03  0.25500000000E-02 0.  1.
    5000001    1    1    2    0    0  0.70714460162E+02 -0.95071294521E+01 -0.46609782109E+03  0.47777306246E+03  0.77000000000E+02 0.  0.
   -5000001    1    1    2    0    0 -0.70714460162E+02  0.95071294521E+01 -0.14092632106E+03  0.17572748320E+03  0.77000000000E+02 0.  0.
<mgrwt>
<rscale>  0 0.24204267E+03</rscale>
<asrwt>0</asrwt>
<pdfrwt beam="1">  1        2 0.96963425E-01 0.24204267E+03</pdfrwt>
<pdfrwt beam="2">  1       -2 0.35751084E-02 0.24204267E+03</pdfrwt>
<totfact> 0.15307280E+04</totfact>
</mgrwt>
</event>
<event>
 4    1  0.4751076E-004  0.2495988E+03  0.7818608E-02  0.1113559E+00
          2   -1    0    0  501    0  0.00000000000E+00  0.00000000000E+00  0.21795506607E+03  0.21795506608E+03  0.25500000000E-02 0.  1.
         -2   -1    0    0    0  501 -0.00000000000E+00 -0.00000000000E+00 -0.71459207928E+02  0.71459207974E+02  0.25500000000E-02 0. -1.
    5000001    1    1    2    0    0  0.95708657567E+02  0.16312060825E+02  0.56062565588E+02  0.13600824137E+03  0.77000000000E+02 0.  0.
   -5000001    1    1    2    0    0 -0.95708657567E+02 -0.16312060825E+02  0.90433292553E+02  0.15340603268E+03  0.77000000000E+02 0.  0.
<mgrwt>
<rscale>  0 0.24959885E+03</rscale>
<asrwt>0</asrwt>
<pdfrwt beam="1">  1        2 0.33531549E-01 0.24959885E+03</pdfrwt>
<pdfrwt beam="2">  1       -2 0.10993724E-01 0.24959885E+03</pdfrwt>
<totfact> 0.87082174E+03</totfact>
</mgrwt>
</event>
<event>
 4    1  0.4751076E-004  0.4229712E+03  0.7818608E-02  0.1036104E+00
          2   -1    0    0  501    0  0.00000000000E+00  0.00000000000E+00  0.63951916261E+02  0.63951916312E+02  0.25500000000E-02 0.  1.
         -2   -1    0    0    0  501 -0.00000000000E+00 -0.00000000000E+00 -0.69937166008E+03  0.69937166008E+03  0.25500000000E-02 0. -1.
    5000001    1    1    2    0    0  0.18937862925E+03  0.92479343718E+01 -0.22141132997E+03  0.30149919825E+03  0.77000000000E+02 0.  0.
   -5000001    1    1    2    0    0 -0.18937862925E+03 -0.92479343718E+01 -0.41400841384E+03  0.46182437814E+03  0.77000000000E+02 0.  0.
<mgrwt>
<rscale>  0 0.42297119E+03</rscale>
<asrwt>0</asrwt>
<pdfrwt beam="1">  1        2 0.98387568E-02 0.42297119E+03</pdfrwt>
<pdfrwt beam="2">  1       -2 0.10759563E+00 0.42297119E+03</pdfrwt>
<totfact> 0.47445122E+02</totfact>
</mgrwt>
</event>
<event>
 4    1  0.4751076E-004  0.1813647E+03  0.7818608E-02  0.1166489E+00
          2   -1    0    0  501    0  0.00000000000E+00  0.00000000000E+00  0.91447739649E+03  0.91447739650E+03  0.25500000000E-02 0.  1.
         -2   -1    0    0    0  501 -0.00000000000E+00 -0.00000000000E+00 -0.89923368217E+01  0.89923371832E+01  0.25500000000E-02 0. -1.
    5000001    1    1    2    0    0  0.30813249670E+02  0.36671915582E+02  0.45302993359E+03  0.46201667338E+03  0.77000000000E+02 0.  0.
   -5000001    1    1    2    0    0 -0.30813249670E+02 -0.36671915582E+02  0.45245512608E+03  0.46145306030E+03  0.77000000000E+02 0.  0.
<mgrwt>
<rscale>  0 0.18136470E+03</rscale>
<asrwt>0</asrwt>
<pdfrwt beam="1">  1        2 0.14068878E+00 0.18136470E+03</pdfrwt>
<pdfrwt beam="2">  1       -2 0.13834370E-02 0.18136470E+03</pdfrwt>
<totfact> 0.38156709E+04</totfact>
</mgrwt>
</event>
<event>
 4    1  0.4751076E-004  0.3087472E+03  0.7818608E-02  0.1080948E+00
         -2   -1    0    0    0  501 -0.00000000000E+00  0.00000000000E+00  0.28366723203E+02  0.28366723318E+02  0.25500000000E-02 0. -1.
          2   -1    0    0  501    0  0.00000000000E+00 -0.00000000000E+00 -0.84011162364E+03  0.84011162364E+03  0.25500000000E-02 0.  1.
    5000001    1    1    2    0    0 -0.10356366697E+03  0.64905627126E+02 -0.55901574108E+03  0.57737836150E+03  0.77000000000E+02 0.  0.
   -5000001    1    1    2    0    0  0.10356366697E+03 -0.64905627126E+02 -0.25272915935E+03  0.29109998546E+03  0.77000000000E+02 0.  0.
<mgrwt>
<rscale>  0 0.30874724E+03</rscale>
<asrwt>0</asrwt>
<pdfrwt beam="1">  1        2 0.12924792E+00 0.30874724E+03</pdfrwt>
<pdfrwt beam="2">  1       -2 0.43641119E-02 0.30874724E+03</pdfrwt>
<totfact> 0.80302654E+03</totfact>
</mgrwt>
</event>
<event>
 4    1  0.4751076E-004  0.1964171E+03  0.7818608E-02  0.1152798E+00
          2   -1    0    0  501    0  0.00000000000E+00  0.00000000000E+00  0.28200106531E+04  0.28200106531E+04  0.25500000000E-02 0.  1.
         -2   -1    0    0    0  501 -0.00000000000E+00 -0.00000000000E+00 -0.34201724121E+01  0.34201733627E+01  0.25500000000E-02 0. -1.
    5000001    1    1    2    0    0  0.37860279001E+02  0.44351467139E+02  0.11529797235E+04  0.11570184511E+04  0.77000000000E+02 0.  0.
   -5000001    1    1    2    0    0 -0.37860279001E+02 -0.44351467139E+02  0.16636107572E+04  0.16664123754E+04  0.77000000000E+02 0.  0.
<mgrwt>
<rscale>  0 0.19641715E+03</rscale>
<asrwt>0</asrwt>
<pdfrwt beam="1">  1        2 0.43384751E+00 0.19641715E+03</pdfrwt>
<pdfrwt beam="2">  1       -2 0.52618079E-03 0.19641715E+03</pdfrwt>
<totfact> 0.14259918E+04</totfact>
</mgrwt>
</event>
<event>
 4    1  0.4751076E-004  0.5014024E+03  0.7818608E-02  0.1013414E+00
         -2   -1    0    0    0  501 -0.00000000000E+00  0.00000000000E+00  0.24348228396E+02  0.24348228529E+02  0.25500000000E-02 0. -1.
          2   -1    0    0  501    0  0.00000000000E+00 -0.00000000000E+00 -0.25813411350E+04  0.25813411350E+04  0.25500000000E-02 0.  1.
    5000001    1    1    2    0    0 -0.15232052619E+03 -0.18354057778E+03 -0.12484639170E+04  0.12733734089E+04  0.77000000000E+02 0.  0.
   -5000001    1    1    2    0    0  0.15232052619E+03  0.18354057778E+03 -0.13085289896E+04  0.13323159547E+04  0.77000000000E+02 0.  0.
<mgrwt>
<rscale>  0 0.50140237E+03</rscale>
<asrwt>0</asrwt>
<pdfrwt beam="1">  1        2 0.39712919E+00 0.50140237E+03</pdfrwt>
<pdfrwt beam="2">  1       -2 0.37458833E-02 0.50140237E+03</pdfrwt>
<totfact> 0.10685659E+03</totfact>
</mgrwt>
</event>
<event>
 4    1  0.4751076E-004  0.1856576E+03  0.7818608E-02  0.1162437E+00
          2   -1    0    0  501    0  0.00000000000E+00  0.00000000000E+00  0.41500677871E+02  0.41500677950E+02  0.25500000000E-02 0.  1.
         -2   -1    0    0    0  501 -0.00000000000E+00 -0.00000000000E+00 -0.20763962756E+03  0.20763962757E+03  0.25500000000E-02 0. -1.
    5000001    1    1    2    0    0  0.98434440048E+01 -0.48254331042E+02 -0.61314758478E+02  0.11006304312E+03  0.77000000000E+02 0.  0.
   -5000001    1    1    2    0    0 -0.98434440048E+01  0.48254331042E+02 -0.10482419121E+03  0.13907726240E+03  0.77000000000E+02 0.  0.
<mgrwt>
<rscale>  0 0.18565759E+03</rscale>
<asrwt>0</asrwt>
<pdfrwt beam="1">  1        2 0.63847198E-02 0.18565759E+03</pdfrwt>
<pdfrwt beam="2">  1       -2 0.31944557E-01 0.18565759E+03</pdfrwt>
<totfact> 0.99895431E+03</totfact>
</mgrwt>
</event>
<event>
 4    1  0.4751076E-004  0.2604417E+03  0.7818608E-02  0.1106878E+00
          2   -1    0    0  501    0  0.00000000000E+00  0.00000000000E+00  0.38510734301E+02  0.38510734386E+02  0.25500000000E-02 0.  1.
         -2   -1    0    0    0  501 -0.00000000000E+00 -0.00000000000E+00 -0.44033113476E+03  0.44033113477E+03  0.25500000000E-02 0. -1.
    5000001    1    1    2    0    0 -0.94170616285E+02 -0.38456847674E+02 -0.24890517138E+03  0.27969593927E+03  0.77000000000E+02 0.  0.
   -5000001    1    1    2    0    0  0.94170616285E+02  0.38456847674E+02 -0.15291522907E+03  0.19914592988E+03  0.77000000000E+02 0.  0.
<mgrwt>
<rscale>  0 0.26044174E+03</rscale>
<asrwt>0</asrwt>
<pdfrwt beam="1">  1        2 0.59247287E-02 0.26044174E+03</pdfrwt>
<pdfrwt beam="2">  1       -2 0.67743248E-01 0.26044174E+03</pdfrwt>
<totfact> 0.25570300E+03</totfact>
</mgrwt>
</event>
<event>
 4    1  0.4751076E-004  0.2010821E+03  0.7818608E-02  0.1148829E+00
          2   -1    0    0  501    0  0.00000000000E+00  0.00000000000E+00  0.18765229703E+04  0.18765229703E+04  0.25500000000E-02 0.  1.
         -2   -1    0    0    0  501 -0.00000000000E+00 -0.00000000000E+00 -0.53868269316E+01  0.53868275352E+01  0.25500000000E-02 0. -1.
    5000001    1    1    2    0    0  0.16082242564E+02  0.18392906093E+02  0.14957415382E+04  0.14979214554E+04  0.77000000000E+02 0.  0.
   -5000001    1    1    2    0    0 -0.16082242564E+02 -0.18392906093E+02  0.37539460519E+03  0.38398834243E+03  0.77000000000E+02 0.  0.
<mgrwt>
<rscale>  0 0.20108212E+03</rscale>
<asrwt>0</asrwt>
<pdfrwt beam="1">  1        2 0.28869646E+00 0.20108212E+03</pdfrwt>
<pdfrwt beam="2">  1       -2 0.82874089E-03 0.20108212E+03</pdfrwt>
<totfact> 0.23846594E+04</totfact>
</mgrwt>
</event>
<event>
 4    1  0.4751076E-004  0.4067508E+03  0.7818608E-02  0.1041467E+00
          2   -1    0    0  501    0  0.00000000000E+00  0.00000000000E+00  0.41413672491E+03  0.41413672492E+03  0.25500000000E-02 0.  1.
         -2   -1    0    0    0  501 -0.00000000000E+00 -0.00000000000E+00 -0.99874131226E+02  0.99874131258E+02  0.25500000000E-02 0. -1.
    5000001    1    1    2    0    0 -0.18797164147E+03  0.96191037358E+01  0.15386506322E+03  0.25500847600E+03  0.77000000000E+02 0.  0.
   -5000001    1    1    2    0    0  0.18797164147E+03 -0.96191037358E+01  0.16039753047E+03  0.25900238018E+03  0.77000000000E+02 0.  0.
<mgrwt>
<rscale>  0 0.40675076E+03</rscale>
<asrwt>0</asrwt>
<pdfrwt beam="1">  1        2 0.63713343E-01 0.40675076E+03</pdfrwt>
<pdfrwt beam="2">  1       -2 0.15365251E-01 0.40675076E+03</pdfrwt>
<totfact> 0.25425441E+03</totfact>
</mgrwt>
</event>
<event>
 4    1  0.4751076E-004  0.1903816E+03  0.7818608E-02  0.1158118E+00
          2   -1    0    0  501    0  0.00000000000E+00  0.00000000000E+00  0.17607337619E+04  0.17607337619E+04  0.25500000000E-02 0.  1.
         -2   -1    0    0    0  501 -0.00000000000E+00 -0.00000000000E+00 -0.51463115966E+01  0.51463122283E+01  0.25500000000E-02 0. -1.
    5000001    1    1    2    0    0  0.12352352143E+02  0.52158847861E+02  0.72847318136E+03  0.73448982428E+03  0.77000000000E+02 0.  0.
   -5000001    1    1    2    0    0 -0.12352352143E+02 -0.52158847861E+02  0.10271142689E+04  0.10313902498E+04  0.77000000000E+02 0.  0.
<mgrwt>
<rscale>  0 0.19038157E+03</rscale>
<asrwt>0</asrwt>
<pdfrwt beam="1">  1        2 0.27088215E+00 0.19038157E+03</pdfrwt>
<pdfrwt beam="2">  1       -2 0.79174020E-03 0.19038157E+03</pdfrwt>
<totfact> 0.29162133E+04</totfact>
</mgrwt>
</event>
<event>
 4    1  0.4751076E-004  0.1820409E+03  0.7818608E-02  0.1165842E+00
         -2   -1    0    0    0  501 -0.00000000000E+00  0.00000000000E+00  0.19041785640E+02  0.19041785810E+02  0.25500000000E-02 0. -1.
          2   -1    0    0  501    0  0.00000000000E+00 -0.00000000000E+00 -0.43508125492E+03  0.43508125493E+03  0.25500000000E-02 0.  1.
    5000001    1    1    2    0    0  0.17262772687E+02  0.45359634069E+02 -0.20920121811E+03  0.22814392252E+03  0.77000000000E+02 0.  0.
   -5000001    1    1    2    0    0 -0.17262772687E+02 -0.45359634069E+02 -0.20683825117E+03  0.22597911822E+03  0.77000000000E+02 0.  0.
<mgrwt>
<rscale>  0 0.18204092E+03</rscale>
<asrwt>0</asrwt>
<pdfrwt beam="1">  1        2 0.66935570E-01 0.18204092E+03</pdfrwt>
<pdfrwt beam="2">  1       -2 0.29295058E-02 0.18204092E+03</pdfrwt>
<totfact> 0.30604594E+04</totfact>
</mgrwt>
</event>
<event>
 4    1  0.4751076E-004  0.1981402E+03  0.7818608E-02  0.1151318E+00
          2   -1    0    0  501    0  0.00000000000E+00  0.00000000000E+00  0.13423020003E+03  0.13423020006E+03  0.25500000000E-02 0.  1.
         -2   -1    0    0    0  501 -0.00000000000E+00 -0.00000000000E+00 -0.73119795819E+02  0.73119795863E+02  0.25500000000E-02 0. -1.
    5000001    1    1    2    0    0  0.55868122805E+02 -0.23406370966E+02  0.15147406265E+02  0.99133996510E+02  0.77000000000E+02 0.  0.
   -5000001    1    1    2    0    0 -0.55868122805E+02  0.23406370966E+02  0.45962997947E+02  0.10821599941E+03  0.77000000000E+02 0.  0.
<mgrwt>
<rscale>  0 0.19814020E+03</rscale>
<asrwt>0</asrwt>
<pdfrwt beam="1">  1        2 0.20650800E-01 0.19814020E+03</pdfrwt>
<pdfrwt beam="2">  1       -2 0.11249200E-01 0.19814020E+03</pdfrwt>
<totfact> 0.14173831E+04</totfact>
</mgrwt>
</event>
<event>
 4    1  0.4751076E-004  0.2098113E+03  0.7818608E-02  0.1141716E+00
         -2   -1    0    0    0  501 -0.00000000000E+00  0.00000000000E+00  0.11774928975E+02  0.11774929251E+02  0.25500000000E-02 0. -1.
          2   -1    0    0  501    0  0.00000000000E+00 -0.00000000000E+00 -0.93462923458E+03  0.93462923459E+03  0.25500000000E-02 0.  1.
    5000001    1    1    2    0    0  0.61976144219E+02  0.27660504655E+02 -0.55922256151E+03  0.56856399752E+03  0.77000000000E+02 0.  0.
   -5000001    1    1    2    0    0 -0.61976144219E+02 -0.27660504655E+02 -0.36363174409E+03  0.37784016632E+03  0.77000000000E+02 0.  0.
<mgrwt>
<rscale>  0 0.20981128E+03</rscale>
<asrwt>0</asrwt>
<pdfrwt beam="1">  1        2 0.14378905E+00 0.20981128E+03</pdfrwt>
<pdfrwt beam="2">  1       -2 0.18115283E-02 0.20981128E+03</pdfrwt>
<totfact> 0.25299057E+04</totfact>
</mgrwt>
</event>
<event>
 4    1  0.4751076E-004  0.1988018E+03  0.7818608E-02  0.1150754E+00
         -2   -1    0    0    0  501 -0.00000000000E+00  0.00000000000E+00  0.18205565678E+02  0.18205565857E+02  0.25500000000E-02 0. -1.
          2   -1    0    0  501    0  0.00000000000E+00 -0.00000000000E+00 -0.54272067926E+03  0.54272067927E+03  0.25500000000E-02 0.  1.
    5000001    1    1    2    0    0  0.13064275994E+02  0.34897963246E+02 -0.11941445427E+03  0.14689232463E+03  0.77000000000E+02 0.  0.
   -5000001    1    1    2    0    0 -0.13064275994E+02 -0.34897963246E+02 -0.40510065931E+03  0.41403392050E+03  0.77000000000E+02 0.  0.
<mgrwt>
<rscale>  0 0.19880178E+03</rscale>
<asrwt>0</asrwt>
<pdfrwt beam="1">  1        2 0.83495477E-01 0.19880178E+03</pdfrwt>
<pdfrwt beam="2">  1       -2 0.28008567E-02 0.19880178E+03</pdfrwt>
<totfact> 0.25798230E+04</totfact>
</mgrwt>
</event>
<event>
 4    1  0.4751076E-004  0.1859661E+03  0.7818608E-02  0.1162151E+00
          2   -1    0    0  501    0  0.00000000000E+00  0.00000000000E+00  0.44654301960E+03  0.44654301961E+03  0.25500000000E-02 0.  1.
         -2   -1    0    0    0  501 -0.00000000000E+00 -0.00000000000E+00 -0.19361740947E+02  0.19361741115E+02  0.25500000000E-02 0. -1.
    5000001    1    1    2    0    0 -0.40038530847E+02  0.33334866757E+02  0.20958759986E+03  0.22928205187E+03  0.77000000000E+02 0.  0.
   -5000001    1    1    2    0    0  0.40038530847E+02 -0.33334866757E+02  0.21759367879E+03  0.23662270885E+03  0.77000000000E+02 0.  0.
<mgrwt>
<rscale>  0 0.18596613E+03</rscale>
<asrwt>0</asrwt>
<pdfrwt beam="1">  1        2 0.68698928E-01 0.18596613E+03</pdfrwt>
<pdfrwt beam="2">  1       -2 0.29787293E-02 0.18596613E+03</pdfrwt>
<totfact> 0.29079702E+04</totfact>
</mgrwt>
</event>
<event>
 4    1  0.4751076E-004  0.1629271E+03  0.7818608E-02  0.1185431E+00
          2   -1    0    0  501    0  0.00000000000E+00  0.00000000000E+00  0.88825043121E+02  0.88825043158E+02  0.25500000000E-02 0.  1.
         -2   -1    0    0    0  501 -0.00000000000E+00 -0.00000000000E+00 -0.74712120150E+02  0.74712120194E+02  0.25500000000E-02 0. -1.
    5000001    1    1    2    0    0  0.16557433001E+02  0.15448048741E+02 -0.69426814347E+01  0.80560484252E+02  0.77000000000E+02 0.  0.
   -5000001    1    1    2    0    0 -0.16557433001E+02 -0.15448048741E+02  0.21055604406E+02  0.82976679099E+02  0.77000000000E+02 0.  0.
<mgrwt>
<rscale>  0 0.16292707E+03</rscale>
<asrwt>0</asrwt>
<pdfrwt beam="1">  1        2 0.13665391E-01 0.16292707E+03</pdfrwt>
<pdfrwt beam="2">  1       -2 0.11494172E-01 0.16292707E+03</pdfrwt>
<totfact> 0.21770799E+04</totfact>
</mgrwt>
</event>
<event>
 4    1  0.4751076E-004  0.1729384E+03  0.7818608E-02  0.1174818E+00
         -2   -1    0    0    0  501 -0.00000000000E+00  0.00000000000E+00  0.36616178195E+01  0.36616187074E+01  0.25500000000E-02 0. -1.
          2   -1    0    0  501    0  0.00000000000E+00 -0.00000000000E+00 -0.20419727730E+04  0.20419727730E+04  0.25500000000E-02 0.  1.
    5000001    1    1    2    0    0  0.14246937721E+02 -0.34383214142E+02 -0.11700555678E+04  0.11731769741E+04  0.77000000000E+02 0.  0.
   -5000001    1    1    2    0    0 -0.14246937721E+02  0.34383214142E+02 -0.86825558731E+03  0.87245741761E+03  0.77000000000E+02 0.  0.
<mgrwt>
<rscale>  0 0.17293843E+03</rscale>
<asrwt>0</asrwt>
<pdfrwt beam="1">  1        2 0.31414875E+00 0.17293843E+03</pdfrwt>
<pdfrwt beam="2">  1       -2 0.56332752E-03 0.17293843E+03</pdfrwt>
<totfact> 0.33778173E+04</totfact>
</mgrwt>
</event>
<event>
 4    1  0.4751076E-004  0.2410808E+03  0.7818608E-02  0.1119075E+00
         -2   -1    0    0    0  501 -0.00000000000E+00  0.00000000000E+00  0.28261507140E+02  0.28261507255E+02  0.25500000000E-02 0. -1.
          2   -1    0    0  501    0  0.00000000000E+00 -0.00000000000E+00 -0.51412628062E+03  0.51412628063E+03  0.25500000000E-02 0.  1.
    5000001    1    1    2    0    0  0.52049142285E+02 -0.73635062163E+02 -0.29169419596E+03  0.31487416463E+03  0.77000000000E+02 0.  0.
   -5000001    1    1    2    0    0 -0.52049142285E+02  0.73635062163E+02 -0.19417057752E+03  0.22751362326E+03  0.77000000000E+02 0.  0.
<mgrwt>
<rscale>  0 0.24108076E+03</rscale>
<asrwt>0</asrwt>
<pdfrwt beam="1">  1        2 0.79096344E-01 0.24108076E+03</pdfrwt>
<pdfrwt beam="2">  1       -2 0.43479245E-02 0.24108076E+03</pdfrwt>
<totfact> 0.14405565E+04</totfact>
</mgrwt>
</event>
<event>
 4    1  0.4751076E-004  0.2918774E+03  0.7818608E-02  0.1089373E+00
         -2   -1    0    0    0  501 -0.00000000000E+00  0.00000000000E+00  0.43034799983E+02  0.43034800059E+02  0.25500000000E-02 0. -1.
          2   -1    0    0  501    0  0.00000000000E+00 -0.00000000000E+00 -0.49490415069E+03  0.49490415070E+03  0.25500000000E-02 0.  1.
    5000001    1    1    2    0    0  0.10428236581E+03 -0.55307658960E+02 -0.29575981175E+03  0.32762267200E+03  0.77000000000E+02 0.  0.
   -5000001    1    1    2    0    0 -0.10428236581E+03  0.55307658960E+02 -0.15610953895E+03  0.21031627876E+03  0.77000000000E+02 0.  0.
<mgrwt>
<rscale>  0 0.29187738E+03</rscale>
<asrwt>0</asrwt>
<pdfrwt beam="1">  1        2 0.76139096E-01 0.29187738E+03</pdfrwt>
<pdfrwt beam="2">  1       -2 0.66207388E-02 0.29187738E+03</pdfrwt>
<totfact> 0.79811904E+03</totfact>
</mgrwt>
</event>
<event>
 4    1  0.4751076E-004  0.2512375E+03  0.7818608E-02  0.1112525E+00
         -2   -1    0    0    0  501 -0.00000000000E+00  0.00000000000E+00  0.11730937106E+02  0.11730937383E+02  0.25500000000E-02 0. -1.
          2   -1    0    0  501    0  0.00000000000E+00 -0.00000000000E+00 -0.13451674863E+04  0.13451674863E+04  0.25500000000E-02 0.  1.
    5000001    1    1    2    0    0 -0.36110314117E+02  0.83315821679E+02 -0.88312997310E+03  0.89111897652E+03  0.77000000000E+02 0.  0.
   -5000001    1    1    2    0    0  0.36110314117E+02 -0.83315821679E+02 -0.45030657608E+03  0.46577944715E+03  0.77000000000E+02 0.  0.
<mgrwt>
<rscale>  0 0.25123754E+03</rscale>
<asrwt>0</asrwt>
<pdfrwt beam="1">  1        2 0.20694872E+00 0.25123754E+03</pdfrwt>
<pdfrwt beam="2">  1       -2 0.18047606E-02 0.25123754E+03</pdfrwt>
<totfact> 0.14835900E+04</totfact>
</mgrwt>
</event>
<event>
 4    1  0.4751076E-004  0.2312325E+03  0.7818608E-02  0.1125775E+00
          2   -1    0    0  501    0  0.00000000000E+00  0.00000000000E+00  0.88475622165E+03  0.88475622166E+03  0.25500000000E-02 0.  1.
         -2   -1    0    0    0  501 -0.00000000000E+00 -0.00000000000E+00 -0.15108252227E+02  0.15108252443E+02  0.25500000000E-02 0. -1.
    5000001    1    1    2    0    0  0.26734904388E+01  0.79580371095E+02  0.30587529269E+03  0.32531350678E+03  0.77000000000E+02 0.  0.
   -5000001    1    1    2    0    0 -0.26734904388E+01 -0.79580371095E+02  0.56377267674E+03  0.57455096732E+03  0.77000000000E+02 0.  0.
<mgrwt>
<rscale>  0 0.23123253E+03</rscale>
<asrwt>0</asrwt>
<pdfrwt beam="1">  1        2 0.13611637E+00 0.23123253E+03</pdfrwt>
<pdfrwt beam="2">  1       -2 0.23243460E-02 0.23123253E+03</pdfrwt>
<totfact> 0.18994659E+04</totfact>
</mgrwt>
</event>
<event>
 4    1  0.4751076E-004  0.1982871E+03  0.7818608E-02  0.1151192E+00
         -2   -1    0    0    0  501 -0.00000000000E+00  0.00000000000E+00  0.52122930128E+02  0.52122930190E+02  0.25500000000E-02 0. -1.
          2   -1    0    0  501    0  0.00000000000E+00 -0.00000000000E+00 -0.18858196891E+03  0.18858196893E+03  0.25500000000E-02 0.  1.
    5000001    1    1    2    0    0 -0.24405631127E+02 -0.51850205478E+02 -0.98367200503E+02  0.13743793062E+03  0.77000000000E+02 0.  0.
   -5000001    1    1    2    0    0  0.24405631127E+02  0.51850205478E+02 -0.38091838280E+02  0.10326696850E+03  0.77000000000E+02 0.  0.
<mgrwt>
<rscale>  0 0.19828711E+03</rscale>
<asrwt>0</asrwt>
<pdfrwt beam="1">  1        2 0.29012610E-01 0.19828711E+03</pdfrwt>
<pdfrwt beam="2">  1       -2 0.80189124E-02 0.19828711E+03</pdfrwt>
<totfact> 0.16542540E+04</totfact>
</mgrwt>
</event>
<event>
 4    1  0.4751076E-004  0.2011110E+03  0.7818608E-02  0.1148805E+00
         -2   -1    0    0    0  501 -0.00000000000E+00  0.00000000000E+00  0.27580724414E+02  0.27580724532E+02  0.25500000000E-02 0. -1.
          2   -1    0    0  501    0  0.00000000000E+00 -0.00000000000E+00 -0.36661131937E+03  0.36661131938E+03  0.25500000000E-02 0.  1.
    5000001    1    1    2    0    0  0.21273063859E+02 -0.59757813234E+02 -0.14481011969E+03  0.17584797483E+03  0.77000000000E+02 0.  0.
   -5000001    1    1    2    0    0 -0.21273063859E+02  0.59757813234E+02 -0.19422047527E+03  0.21834406908E+03  0.77000000000E+02 0.  0.
<mgrwt>
<rscale>  0 0.20111097E+03</rscale>
<asrwt>0</asrwt>
<pdfrwt beam="1">  1        2 0.56401738E-01 0.20111097E+03</pdfrwt>
<pdfrwt beam="2">  1       -2 0.42431887E-02 0.20111097E+03</pdfrwt>
<totfact> 0.21380926E+04</totfact>
</mgrwt>
</event>
<event>
 4    1  0.4751076E-004  0.2071894E+03  0.7818608E-02  0.1143811E+00
         -2   -1    0    0    0  501 -0.00000000000E+00  0.00000000000E+00  0.60077098021E+01  0.60077103432E+01  0.25500000000E-02 0. -1.
          2   -1    0    0  501    0  0.00000000000E+00 -0.00000000000E+00 -0.17863482100E+04  0.17863482100E+04  0.25500000000E-02 0.  1.
    5000001    1    1    2    0    0 -0.58779161295E+02  0.35572965458E+02 -0.81162563916E+03  0.81815988890E+03  0.77000000000E+02 0.  0.
   -5000001    1    1    2    0    0  0.58779161295E+02 -0.35572965458E+02 -0.96871486101E+03  0.97419603141E+03  0.77000000000E+02 0.  0.
<mgrwt>
<rscale>  0 0.20718940E+03</rscale>
<asrwt>0</asrwt>
<pdfrwt beam="1">  1        2 0.27482238E+00 0.20718940E+03</pdfrwt>
<pdfrwt beam="2">  1       -2 0.92426451E-03 0.20718940E+03</pdfrwt>
<totfact> 0.22729730E+04</totfact>
</mgrwt>
</event>
<event>
 4    1  0.4751076E-004  0.1971332E+03  0.7818608E-02  0.1152180E+00
         -2   -1    0    0    0  501 -0.00000000000E+00  0.00000000000E+00  0.48983972273E+02  0.48983972340E+02  0.25500000000E-02 0. -1.
          2   -1    0    0  501    0  0.00000000000E+00 -0.00000000000E+00 -0.19833791484E+03  0.19833791486E+03  0.25500000000E-02 0.  1.
    5000001    1    1    2    0    0  0.71409198549E+01 -0.56244307930E+02 -0.44672426709E+02  0.10554165348E+03  0.77000000000E+02 0.  0.
   -5000001    1    1    2    0    0 -0.71409198549E+01  0.56244307930E+02 -0.10468151586E+03  0.14178023372E+03  0.77000000000E+02 0.  0.
<mgrwt>
<rscale>  0 0.19713324E+03</rscale>
<asrwt>0</asrwt>
<pdfrwt beam="1">  1        2 0.30513525E-01 0.19713324E+03</pdfrwt>
<pdfrwt beam="2">  1       -2 0.75359959E-02 0.19713324E+03</pdfrwt>
<totfact> 0.17232412E+04</totfact>
</mgrwt>
</event>
<event>
 4    1  0.4751076E-004  0.2045463E+03  0.7818608E-02  0.1145959E+00
         -2   -1    0    0    0  501 -0.00000000000E+00  0.00000000000E+00  0.14728184626E+02  0.14728184847E+02  0.25500000000E-02 0. -1.
          2   -1    0    0  501    0  0.00000000000E+00 -0.00000000000E+00 -0.71018914477E+03  0.71018914478E+03  0.25500000000E-02 0.  1.
    5000001    1    1    2    0    0 -0.46480542492E+02 -0.43966083311E+02 -0.27361545360E+03  0.29135523637E+03  0.77000000000E+02 0.  0.
   -5000001    1    1    2    0    0  0.46480542492E+02  0.43966083311E+02 -0.42184550655E+03  0.43356209325E+03  0.77000000000E+02 0.  0.
<mgrwt>
<rscale>  0 0.20454630E+03</rscale>
<asrwt>0</asrwt>
<pdfrwt beam="1">  1        2 0.10925984E+00 0.20454630E+03</pdfrwt>
<pdfrwt beam="2">  1       -2 0.22658751E-02 0.20454630E+03</pdfrwt>
<totfact> 0.25826138E+04</totfact>
</mgrwt>
</event>
<event>
 4    1  0.4751076E-004  0.2588611E+03  0.7818608E-02  0.1107829E+00
         -2   -1    0    0    0  501 -0.00000000000E+00  0.00000000000E+00  0.23181214582E+02  0.23181214722E+02  0.25500000000E-02 0. -1.
          2   -1    0    0  501    0  0.00000000000E+00 -0.00000000000E+00 -0.72266559317E+03  0.72266559318E+03  0.25500000000E-02 0.  1.
    5000001    1    1    2    0    0 -0.20194153698E+02 -0.92623283593E+02 -0.47321327996E+03  0.48871943366E+03  0.77000000000E+02 0.  0.
   -5000001    1    1    2    0    0  0.20194153698E+02  0.92623283593E+02 -0.22627109863E+03  0.25712737424E+03  0.77000000000E+02 0.  0.
<mgrwt>
<rscale>  0 0.25886109E+03</rscale>
<asrwt>0</asrwt>
<pdfrwt beam="1">  1        2 0.11117930E+00 0.25886109E+03</pdfrwt>
<pdfrwt beam="2">  1       -2 0.35663413E-02 0.25886109E+03</pdfrwt>
<totfact> 0.13082776E+04</totfact>
</mgrwt>
</event>
<event>
 4    1  0.4751076E-004  0.1943329E+03  0.7818608E-02  0.1154610E+00
         -2   -1    0    0    0  501 -0.00000000000E+00  0.00000000000E+00  0.24078463185E+02  0.24078463320E+02  0.25500000000E-02 0. -1.
          2   -1    0    0  501    0  0.00000000000E+00 -0.00000000000E+00 -0.39210625208E+03  0.39210625209E+03  0.25500000000E-02 0.  1.
    5000001    1    1    2    0    0 -0.15643796047E+02 -0.41880063881E+02 -0.10069331285E+03  0.13441283926E+03  0.77000000000E+02 0.  0.
   -5000001    1    1    2    0    0  0.15643796047E+02  0.41880063881E+02 -0.26733447605E+03  0.28177187615E+03  0.77000000000E+02 0.  0.
<mgrwt>
<rscale>  0 0.19433287E+03</rscale>
<asrwt>0</asrwt>
<pdfrwt beam="1">  1        2 0.60324034E-01 0.19433287E+03</pdfrwt>
<pdfrwt beam="2">  1       -2 0.37043793E-02 0.19433287E+03</pdfrwt>
<totfact> 0.24306955E+04</totfact>
</mgrwt>
</event>
<event>
 4    1  0.4751076E-004  0.2248170E+03  0.7818608E-02  0.1130342E+00
          2   -1    0    0  501    0  0.00000000000E+00  0.00000000000E+00  0.40514676922E+03  0.40514676923E+03  0.25500000000E-02 0.  1.
         -2   -1    0    0    0  501 -0.00000000000E+00 -0.00000000000E+00 -0.31187897473E+02  0.31187897577E+02  0.25500000000E-02 0. -1.
    5000001    1    1    2    0    0 -0.54803090544E+01 -0.60704780397E+02  0.29313437302E+03  0.30914699545E+03  0.77000000000E+02 0.  0.
   -5000001    1    1    2    0    0  0.54803090544E+01  0.60704780397E+02  0.80824498729E+02  0.12718767136E+03  0.77000000000E+02 0.  0.
<mgrwt>
<rscale>  0 0.22481704E+03</rscale>
<asrwt>0</asrwt>
<pdfrwt beam="1">  1        2 0.62330273E-01 0.22481704E+03</pdfrwt>
<pdfrwt beam="2">  1       -2 0.47981380E-02 0.22481704E+03</pdfrwt>
<totfact> 0.16071604E+04</totfact>
</mgrwt>
</event>
<event>
 4    1  0.4751076E-004  0.3336989E+03  0.7818608E-02  0.1069512E+00
          2   -1    0    0  501    0  0.00000000000E+00  0.00000000000E+00  0.23319120295E+03  0.23319120297E+03  0.25500000000E-02 0.  1.
         -2   -1    0    0    0  501 -0.00000000000E+00 -0.00000000000E+00 -0.11938160221E+03  0.11938160224E+03  0.25500000000E-02 0. -1.
    5000001    1    1    2    0    0 -0.51500698124E+02 -0.57062451054E+02  0.19055560803E+03  0.21942854186E+03  0.77000000000E+02 0.  0.
   -5000001    1    1    2    0    0  0.51500698124E+02  0.57062451054E+02 -0.76746007289E+02  0.13314426335E+03  0.77000000000E+02 0.  0.
<mgrwt>
<rscale>  0 0.33369890E+03</rscale>
<asrwt>0</asrwt>
<pdfrwt beam="1">  1        2 0.35875569E-01 0.33369890E+03</pdfrwt>
<pdfrwt beam="2">  1       -2 0.18366400E-01 0.33369890E+03</pdfrwt>
<totfact> 0.35099103E+03</totfact>
</mgrwt>
</event>
<event>
 4    1  0.4751076E-004  0.1773617E+03  0.7818608E-02  0.1170381E+00
         -2   -1    0    0    0  501 -0.00000000000E+00  0.00000000000E+00  0.99238385902E+01  0.99238389178E+01  0.25500000000E-02 0. -1.
          2   -1    0    0  501    0  0.00000000000E+00 -0.00000000000E+00 -0.79246478209E+03  0.79246478210E+03  0.25500000000E-02 0.  1.
    5000001    1    1    2    0    0  0.34495868913E+02  0.25922538211E+02 -0.35252470339E+03  0.36340694745E+03  0.77000000000E+02 0.  0.
   -5000001    1    1    2    0    0 -0.34495868913E+02 -0.25922538211E+02 -0.43001624012E+03  0.43898167356E+03  0.77000000000E+02 0.  0.
<mgrwt>
<rscale>  0 0.17736170E+03</rscale>
<asrwt>0</asrwt>
<pdfrwt beam="1">  1        2 0.12191761E+00 0.17736170E+03</pdfrwt>
<pdfrwt beam="2">  1       -2 0.15267450E-02 0.17736170E+03</pdfrwt>
<totfact> 0.39713180E+04</totfact>
</mgrwt>
</event>
<event>
 4    1  0.4751076E-004  0.2270637E+03  0.7818608E-02  0.1128724E+00
         -2   -1    0    0    0  501 -0.00000000000E+00  0.00000000000E+00  0.15006266424E+02  0.15006266641E+02  0.25500000000E-02 0. -1.
          2   -1    0    0  501    0  0.00000000000E+00 -0.00000000000E+00 -0.85893987071E+03  0.85893987072E+03  0.25500000000E-02 0.  1.
    5000001    1    1    2    0    0  0.12654490215E+02 -0.38205329336E+02 -0.70324491863E+03  0.70859170112E+03  0.77000000000E+02 0.  0.
   -5000001    1    1    2    0    0 -0.12654490215E+02  0.38205329336E+02 -0.14068868566E+03  0.16535443624E+03  0.77000000000E+02 0.  0.
<mgrwt>
<rscale>  0 0.22706370E+03</rscale>
<asrwt>0</asrwt>
<pdfrwt beam="1">  1        2 0.13214456E+00 0.22706370E+03</pdfrwt>
<pdfrwt beam="2">  1       -2 0.23086571E-02 0.22706370E+03</pdfrwt>
<totfact> 0.19925547E+04</totfact>
</mgrwt>
</event>
<event>
 4    1  0.4751076E-004  0.1781380E+03  0.7818608E-02  0.1169617E+00
         -2   -1    0    0    0  501 -0.00000000000E+00  0.00000000000E+00  0.15432518130E+02  0.15432518340E+02  0.25500000000E-02 0. -1.
          2   -1    0    0  501    0  0.00000000000E+00 -0.00000000000E+00 -0.51406296132E+03  0.51406296133E+03  0.25500000000E-02 0.  1.
    5000001    1    1    2    0    0 -0.30211117882E+02 -0.32809638666E+02 -0.26086630881E+03  0.27562549792E+03  0.77000000000E+02 0.  0.
   -5000001    1    1    2    0    0  0.30211117882E+02  0.32809638666E+02 -0.23776413439E+03  0.25386998175E+03  0.77000000000E+02 0.  0.
<mgrwt>
<rscale>  0 0.17813799E+03</rscale>
<asrwt>0</asrwt>
<pdfrwt beam="1">  1        2 0.79086596E-01 0.17813799E+03</pdfrwt>
<pdfrwt beam="2">  1       -2 0.23742340E-02 0.17813799E+03</pdfrwt>
<totfact> 0.34649814E+04</totfact>
</mgrwt>
</event>
<event>
 4    1  0.4751076E-004  0.3002010E+03  0.7818608E-02  0.1085140E+00
          2   -1    0    0  501    0  0.00000000000E+00  0.00000000000E+00  0.87396007698E+02  0.87396007735E+02  0.25500000000E-02 0.  1.
         -2   -1    0    0    0  501 -0.00000000000E+00 -0.00000000000E+00 -0.25779397443E+03  0.25779397444E+03  0.25500000000E-02 0. -1.
    5000001    1    1    2    0    0  0.12876815611E+03  0.40506618461E+01 -0.83042172956E+02  0.17153031329E+03  0.77000000000E+02 0.  0.
   -5000001    1    1    2    0    0 -0.12876815611E+03 -0.40506618461E+01 -0.87355793774E+02  0.17365966888E+03  0.77000000000E+02 0.  0.
<mgrwt>
<rscale>  0 0.30020103E+03</rscale>
<asrwt>0</asrwt>
<pdfrwt beam="1">  1        2 0.13445540E-01 0.30020103E+03</pdfrwt>
<pdfrwt beam="2">  1       -2 0.39660611E-01 0.30020103E+03</pdfrwt>
<totfact> 0.26923541E+03</totfact>
</mgrwt>
</event>
<event>
 4    1  0.4751076E-004  0.1940860E+03  0.7818608E-02  0.1154827E+00
         -2   -1    0    0    0  501 -0.00000000000E+00  0.00000000000E+00  0.23463010609E+04  0.23463010609E+04  0.25500000000E-02 0. -1.
          2   -1    0    0  501    0  0.00000000000E+00 -0.00000000000E+00 -0.40136976401E+01  0.40136984501E+01  0.25500000000E-02 0.  1.
    5000001    1    1    2    0    0 -0.50692597372E+02  0.16227905213E+02  0.86116021737E+03  0.86623265022E+03  0.77000000000E+02 0.  0.
   -5000001    1    1    2    0    0  0.50692597372E+02 -0.16227905213E+02  0.14811271459E+04  0.14840821091E+04  0.77000000000E+02 0.  0.
<mgrwt>
<rscale>  0 0.19408600E+03</rscale>
<asrwt>0</asrwt>
<pdfrwt beam="1">  1        2 0.61749066E-03 0.19408600E+03</pdfrwt>
<pdfrwt beam="2">  1       -2 0.36097018E+00 0.19408600E+03</pdfrwt>
<totfact> 0.44957617E+02</totfact>
</mgrwt>
</event>
<event>
 4    1  0.4751076E-004  0.4980268E+03  0.7818608E-02  0.1014295E+00
         -2   -1    0    0    0  501 -0.00000000000E+00  0.00000000000E+00  0.90510187091E+02  0.90510187127E+02  0.25500000000E-02 0. -1.
          2   -1    0    0  501    0  0.00000000000E+00 -0.00000000000E+00 -0.68509067707E+03  0.68509067708E+03  0.25500000000E-02 0.  1.
    5000001    1    1    2    0    0 -0.83964924348E+01  0.12188496313E+03 -0.61321398977E+03  0.62998955751E+03  0.77000000000E+02 0.  0.
   -5000001    1    1    2    0    0  0.83964924348E+01 -0.12188496313E+03  0.18633499790E+02  0.14561130669E+03  0.77000000000E+02 0.  0.
<mgrwt>
<rscale>  0 0.49802685E+03</rscale>
<asrwt>0</asrwt>
<pdfrwt beam="1">  1        2 0.10539856E+00 0.49802685E+03</pdfrwt>
<pdfrwt beam="2">  1       -2 0.13924645E-01 0.49802685E+03</pdfrwt>
<totfact> 0.16732869E+03</totfact>
</mgrwt>
</event>
<event>
 4    1  0.4751076E-004  0.2179949E+03  0.7818608E-02  0.1135387E+00
          2   -1    0    0  501    0  0.00000000000E+00  0.00000000000E+00  0.17679888233E+04  0.17679888233E+04  0.25500000000E-02 0.  1.
         -2   -1    0    0    0  501 -0.00000000000E+00 -0.00000000000E+00 -0.67197483225E+01  0.67197488063E+01  0.25500000000E-02 0. -1.
    5000001    1    1    2    0    0 -0.67481009802E+02 -0.15509664784E+02  0.11575745710E+04  0.11621971106E+04  0.77000000000E+02 0.  0.
   -5000001    1    1    2    0    0  0.67481009802E+02  0.15509664784E+02  0.60369450395E+03  0.61251146151E+03  0.77000000000E+02 0.  0.
<mgrwt>
<rscale>  0 0.21799487E+03</rscale>
<asrwt>0</asrwt>
<pdfrwt beam="1">  1        2 0.27199832E+00 0.21799487E+03</pdfrwt>
<pdfrwt beam="2">  1       -2 0.10338073E-02 0.21799487E+03</pdfrwt>
<totfact> 0.19807091E+04</totfact>
</mgrwt>
</event>
<event>
 4    1  0.4751076E-004  0.2750921E+03  0.7818608E-02  0.1098400E+00
         -2   -1    0    0    0  501 -0.00000000000E+00  0.00000000000E+00  0.18707123319E+03  0.18707123321E+03  0.25500000000E-02 0.  1.
          2   -1    0    0  501    0  0.00000000000E+00 -0.00000000000E+00 -0.10113217421E+03  0.10113217424E+03  0.25500000000E-02 0. -1.
    5000001    1    1    2    0    0 -0.17256463797E+02 -0.10961388769E+03  0.70227468957E+02  0.15222971889E+03  0.77000000000E+02 0.  0.
   -5000001    1    1    2    0    0  0.17256463797E+02  0.10961388769E+03  0.15711590027E+02  0.13597368855E+03  0.77000000000E+02 0.  0.
<mgrwt>
<rscale>  0 0.27509213E+03</rscale>
<asrwt>0</asrwt>
<pdfrwt beam="1">  1        2 0.15558796E-01 0.27509213E+03</pdfrwt>
<pdfrwt beam="2">  1       -2 0.28780190E-01 0.27509213E+03</pdfrwt>
<totfact> 0.40918665E+03</totfact>
</mgrwt>
</event>
<event>
 4    1  0.4751076E-004  0.2687888E+03  0.7818608E-02  0.1101975E+00
          2   -1    0    0  501    0  0.00000000000E+00  0.00000000000E+00  0.35052434976E+04  0.35052434976E+04  0.25500000000E-02 0.  1.
         -2   -1    0    0    0  501 -0.00000000000E+00 -0.00000000000E+00 -0.51528107307E+01  0.51528113617E+01  0.25500000000E-02 0. -1.
    5000001    1    1    2    0    0 -0.59716431531E+02 -0.63908316724E+02  0.26244383219E+04  0.26270241397E+04  0.77000000000E+02 0.  0.
   -5000001    1    1    2    0    0  0.59716431531E+02  0.63908316724E+02  0.87565236502E+03  0.88337216930E+03  0.77000000000E+02 0.  0.
<mgrwt>
<rscale>  0 0.26878882E+03</rscale>
<asrwt>0</asrwt>
<pdfrwt beam="1">  1        2 0.53926850E+00 0.26878882E+03</pdfrwt>
<pdfrwt beam="2">  1       -2 0.79273977E-03 0.26878882E+03</pdfrwt>
<totfact> 0.30071092E+03</totfact>
</mgrwt>
</event>
<event>
 4    1  0.4751076E-004  0.1784313E+03  0.7818608E-02  0.1169330E+00
         -2   -1    0    0    0  501 -0.00000000000E+00  0.00000000000E+00  0.46608029548E+01  0.46608036524E+01  0.25500000000E-02 0. -1.
          2   -1    0    0  501    0  0.00000000000E+00 -0.00000000000E+00 -0.17077384611E+04  0.17077384611E+04  0.25500000000E-02 0.  1.
    5000001    1    1    2    0    0 -0.35153850936E+02  0.28387107416E+01 -0.11206959333E+04  0.11238915546E+04  0.77000000000E+02 0.  0.
   -5000001    1    1    2    0    0  0.35153850936E+02 -0.28387107416E+01 -0.58238172478E+03  0.58850771012E+03  0.77000000000E+02 0.  0.
<mgrwt>
<rscale>  0 0.17843131E+03</rscale>
<asrwt>0</asrwt>
<pdfrwt beam="1">  1        2 0.26272850E+00 0.17843131E+03</pdfrwt>
<pdfrwt beam="2">  1       -2 0.71704802E-03 0.17843131E+03</pdfrwt>
<totfact> 0.35677335E+04</totfact>
</mgrwt>
</event>
<event>
 4    1  0.4751076E-004  0.2206226E+03  0.7818608E-02  0.1133420E+00
          2   -1    0    0  501    0  0.00000000000E+00  0.00000000000E+00  0.13801421628E+04  0.13801421628E+04  0.25500000000E-02 0.  1.
         -2   -1    0    0    0  501 -0.00000000000E+00 -0.00000000000E+00 -0.88169048284E+01  0.88169051971E+01  0.25500000000E-02 0. -1.
    5000001    1    1    2    0    0 -0.70948775666E+02  0.94007620923E+01  0.89611760312E+03  0.90226263455E+03  0.77000000000E+02 0.  0.
   -5000001    1    1    2    0    0  0.70948775666E+02 -0.94007620923E+01  0.47520765488E+03  0.48669643347E+03  0.77000000000E+02 0.  0.
<mgrwt>
<rscale>  0 0.22062260E+03</rscale>
<asrwt>0</asrwt>
<pdfrwt beam="1">  1        2 0.21232951E+00 0.22062260E+03</pdfrwt>
<pdfrwt beam="2">  1       -2 0.13564472E-02 0.22062260E+03</pdfrwt>
<totfact> 0.21426211E+04</totfact>
</mgrwt>
</event>
<event>
 4    1  0.4751076E-004  0.4770050E+03  0.7818608E-02  0.1019962E+00
          2   -1    0    0  501    0  0.00000000000E+00  0.00000000000E+00  0.93791658792E+02  0.93791658826E+02  0.25500000000E-02 0.  1.
         -2   -1    0    0    0  501 -0.00000000000E+00 -0.00000000000E+00 -0.60648718146E+03  0.60648718147E+03  0.25500000000E-02 0. -1.
    5000001    1    1    2    0    0  0.59772404900E+02 -0.13662622514E+03 -0.75753058285E+01  0.16800550896E+03  0.77000000000E+02 0.  0.
   -5000001    1    1    2    0    0 -0.59772404900E+02  0.13662622514E+03 -0.50512021684E+03  0.53227333133E+03  0.77000000000E+02 0.  0.
<mgrwt>
<rscale>  0 0.47700498E+03</rscale>
<asrwt>0</asrwt>
<pdfrwt beam="1">  1        2 0.14429486E-01 0.47700498E+03</pdfrwt>
<pdfrwt beam="2">  1       -2 0.93305718E-01 0.47700498E+03</pdfrwt>
<totfact> 0.41279222E+02</totfact>
</mgrwt>
</event>
<event>
 4    1  0.4751076E-004  0.9337240E+03  0.7818608E-02  0.9384380E-01
         -2   -1    0    0    0  501 -0.00000000000E+00  0.00000000000E+00  0.61916364227E+03  0.61916364228E+03  0.25500000000E-02 0. -1.
          2   -1    0    0  501    0  0.00000000000E+00 -0.00000000000E+00 -0.35202346233E+03  0.35202346234E+03  0.25500000000E-02 0.  1.
    5000001    1    1    2    0    0  0.11952342748E+02 -0.33559846179E+03 -0.19412940302E+03  0.39545468915E+03  0.77000000000E+02 0.  0.
   -5000001    1    1    2    0    0 -0.11952342748E+02  0.33559846179E+03  0.46126958296E+03  0.57573241547E+03  0.77000000000E+02 0.  0.
<mgrwt>
<rscale>  0 0.93372400E+03</rscale>
<asrwt>0</asrwt>
<pdfrwt beam="1">  1        2 0.54157456E-01 0.93372400E+03</pdfrwt>
<pdfrwt beam="2">  1       -2 0.95255945E-01 0.93372400E+03</pdfrwt>
<totfact> 0.85207829E+01</totfact>
</mgrwt>
</event>
<event>
 4    1  0.4751076E-004  0.1764722E+03  0.7818608E-02  0.1171262E+00
         -2   -1    0    0    0  501 -0.00000000000E+00  0.00000000000E+00  0.23538202887E+01  0.23538216699E+01  0.25500000000E-02 0. -1.
          2   -1    0    0  501    0  0.00000000000E+00 -0.00000000000E+00 -0.33076466623E+04  0.33076466623E+04  0.25500000000E-02 0.  1.
    5000001    1    1    2    0    0  0.34338929349E+02 -0.21615269441E+01 -0.11661425050E+04  0.11691882553E+04  0.77000000000E+02 0.  0.
   -5000001    1    1    2    0    0 -0.34338929349E+02  0.21615269441E+01 -0.21391503370E+04  0.21408122287E+04  0.77000000000E+02 0.  0.
<mgrwt>
<rscale>  0 0.17647219E+03</rscale>
<asrwt>0</asrwt>
<pdfrwt beam="1">  1        2 0.50886500E+00 0.17647219E+03</pdfrwt>
<pdfrwt beam="2">  1       -2 0.36212895E-03 0.17647219E+03</pdfrwt>
<totfact> 0.12453908E+04</totfact>
</mgrwt>
</event>
<event>
 4    1  0.4751076E-004  0.2989002E+03  0.7818608E-02  0.1085792E+00
         -2   -1    0    0    0  501 -0.00000000000E+00  0.00000000000E+00  0.12118336751E+03  0.12118336753E+03  0.25500000000E-02 0. -1.
          2   -1    0    0  501    0  0.00000000000E+00 -0.00000000000E+00 -0.18431027190E+03  0.18431027192E+03  0.25500000000E-02 0.  1.
    5000001    1    1    2    0    0  0.12082011856E+03 -0.41826368687E+02 -0.39440155173E+02  0.15437445386E+03  0.77000000000E+02 0.  0.
   -5000001    1    1    2    0    0 -0.12082011856E+03  0.41826368687E+02 -0.23686749222E+02  0.15111918559E+03  0.77000000000E+02 0.  0.
<mgrwt>
<rscale>  0 0.29890025E+03</rscale>
<asrwt>0</asrwt>
<pdfrwt beam="1">  1        2 0.28355426E-01 0.29890025E+03</pdfrwt>
<pdfrwt beam="2">  1       -2 0.18643595E-01 0.29890025E+03</pdfrwt>
<totfact> 0.44172942E+03</totfact>
</mgrwt>
</event>
<event>
 4    1  0.4751076E-004  0.3362291E+03  0.7818608E-02  0.1068413E+00
         -2   -1    0    0    0  501 -0.00000000000E+00  0.00000000000E+00  0.11671500485E+02  0.11671500764E+02  0.25500000000E-02 0. -1.
          2   -1    0    0  501    0  0.00000000000E+00 -0.00000000000E+00 -0.24214967203E+04  0.24214967203E+04  0.25500000000E-02 0.  1.
    5000001    1    1    2    0    0 -0.59284409108E+02 -0.13510921348E+03 -0.10329971764E+04  0.10463179761E+04  0.77000000000E+02 0.  0.
   -5000001    1    1    2    0    0  0.59284409108E+02  0.13510921348E+03 -0.13768280434E+04  0.13868502450E+04  0.77000000000E+02 0.  0.
<mgrwt>
<rscale>  0 0.33622909E+03</rscale>
<asrwt>0</asrwt>
<pdfrwt beam="1">  1        2 0.37253756E+00 0.33622909E+03</pdfrwt>
<pdfrwt beam="2">  1       -2 0.17956174E-02 0.33622909E+03</pdfrwt>
<totfact> 0.39999128E+03</totfact>
</mgrwt>
</event>
<event>
 4    1  0.4751076E-004  0.3356374E+03  0.7818608E-02  0.1068669E+00
          2   -1    0    0  501    0  0.00000000000E+00  0.00000000000E+00  0.15941346124E+04  0.15941346124E+04  0.25500000000E-02 0.  1.
         -2   -1    0    0    0  501 -0.00000000000E+00 -0.00000000000E+00 -0.17666710854E+02  0.17666711038E+02  0.25500000000E-02 0. -1.
    5000001    1    1    2    0    0  0.24487688840E+02 -0.14673212365E+03  0.83724294579E+03  0.85383529635E+03  0.77000000000E+02 0.  0.
   -5000001    1    1    2    0    0 -0.24487688840E+02  0.14673212365E+03  0.73922495578E+03  0.75796602711E+03  0.77000000000E+02 0.  0.
<mgrwt>
<rscale>  0 0.33563740E+03</rscale>
<asrwt>0</asrwt>
<pdfrwt beam="1">  1        2 0.24525149E+00 0.33563740E+03</pdfrwt>
<pdfrwt beam="2">  1       -2 0.27179554E-02 0.33563740E+03</pdfrwt>
<totfact> 0.59773274E+03</totfact>
</mgrwt>
</event>
<event>
 4    1  0.4751076E-004  0.1896782E+03  0.7818608E-02  0.1158752E+00
          2   -1    0    0  501    0  0.00000000000E+00  0.00000000000E+00  0.82923729182E+02  0.82923729222E+02  0.25500000000E-02 0.  1.
         -2   -1    0    0    0  501 -0.00000000000E+00 -0.00000000000E+00 -0.10846657357E+03  0.10846657360E+03  0.25500000000E-02 0. -1.
    5000001    1    1    2    0    0 -0.51328410244E+02  0.10819160609E+02 -0.30645517890E+02  0.98080618377E+02  0.77000000000E+02 0.  0.
   -5000001    1    1    2    0    0  0.51328410244E+02 -0.10819160609E+02  0.51026735013E+01  0.93309684446E+02  0.77000000000E+02 0.  0.
<mgrwt>
<rscale>  0 0.18967818E+03</rscale>
<asrwt>0</asrwt>
<pdfrwt beam="1">  1        2 0.12757497E-01 0.18967818E+03</pdfrwt>
<pdfrwt beam="2">  1       -2 0.16687165E-01 0.18967818E+03</pdfrwt>
<totfact> 0.13045608E+04</totfact>
</mgrwt>
</event>
<event>
 4    1  0.4751076E-004  0.2143166E+03  0.7818608E-02  0.1138193E+00
         -2   -1    0    0    0  501 -0.00000000000E+00  0.00000000000E+00  0.17186371064E+02  0.17186371253E+02  0.25500000000E-02 0. -1.
          2   -1    0    0  501    0  0.00000000000E+00 -0.00000000000E+00 -0.66814017563E+03  0.66814017563E+03  0.25500000000E-02 0.  1.
    5000001    1    1    2    0    0  0.54338966709E+02  0.47320636400E+02 -0.38631273160E+03  0.40044786493E+03  0.77000000000E+02 0.  0.
   -5000001    1    1    2    0    0 -0.54338966709E+02 -0.47320636400E+02 -0.26464107296E+03  0.28487868195E+03  0.77000000000E+02 0.  0.
<mgrwt>
<rscale>  0 0.21431664E+03</rscale>
<asrwt>0</asrwt>
<pdfrwt beam="1">  1        2 0.10279078E+00 0.21431664E+03</pdfrwt>
<pdfrwt beam="2">  1       -2 0.26440576E-02 0.21431664E+03</pdfrwt>
<totfact> 0.22207325E+04</totfact>
</mgrwt>
</event>
<event>
 4    1  0.4751076E-004  0.3789513E+03  0.7818608E-02  0.1051322E+00
         -2   -1    0    0    0  501 -0.00000000000E+00  0.00000000000E+00  0.33529189432E+02  0.33529189529E+02  0.25500000000E-02 0. -1.
          2   -1    0    0  501    0  0.00000000000E+00 -0.00000000000E+00 -0.10707394344E+04  0.10707394344E+04  0.25500000000E-02 0.  1.
    5000001    1    1    2    0    0 -0.11059799130E+03 -0.13031794466E+03 -0.43841190852E+03  0.47681095196E+03  0.77000000000E+02 0.  0.
   -5000001    1    1    2    0    0  0.11059799130E+03  0.13031794466E+03 -0.59879833648E+03  0.62745767200E+03  0.77000000000E+02 0.  0.
<mgrwt>
<rscale>  0 0.37895132E+03</rscale>
<asrwt>0</asrwt>
<pdfrwt beam="1">  1        2 0.16472912E+00 0.37895132E+03</pdfrwt>
<pdfrwt beam="2">  1       -2 0.51583377E-02 0.37895132E+03</pdfrwt>
<totfact> 0.44583114E+03</totfact>
</mgrwt>
</event>
<event>
 4    1  0.4751076E-004  0.2177381E+03  0.7818608E-02  0.1135581E+00
         -2   -1    0    0    0  501 -0.00000000000E+00  0.00000000000E+00  0.41241754483E+01  0.41241762367E+01  0.25500000000E-02 0. -1.
          2   -1    0    0  501    0  0.00000000000E+00 -0.00000000000E+00 -0.28739003004E+04  0.28739003004E+04  0.25500000000E-02 0.  1.
    5000001    1    1    2    0    0 -0.59955233591E+02  0.46396598452E+02 -0.16103398688E+04  0.16139612038E+04  0.77000000000E+02 0.  0.
   -5000001    1    1    2    0    0  0.59955233591E+02 -0.46396598452E+02 -0.12594362562E+04  0.12640632729E+04  0.77000000000E+02 0.  0.
<mgrwt>
<rscale>  0 0.21773810E+03</rscale>
<asrwt>0</asrwt>
<pdfrwt beam="1">  1        2 0.44213691E+00 0.21773810E+03</pdfrwt>
<pdfrwt beam="2">  1       -2 0.63449089E-03 0.21773810E+03</pdfrwt>
<totfact> 0.10171849E+04</totfact>
</mgrwt>
</event>
<event>
 4    1  0.4751076E-004  0.1841285E+03  0.7818608E-02  0.1163866E+00
          2   -1    0    0  501    0  0.00000000000E+00  0.00000000000E+00  0.16433961526E+04  0.16433961526E+04  0.25500000000E-02 0.  1.
         -2   -1    0    0    0  501 -0.00000000000E+00 -0.00000000000E+00 -0.51575051164E+01  0.51575057468E+01  0.25500000000E-02 0. -1.
    5000001    1    1    2    0    0  0.49819187992E+02 -0.29409905057E+01  0.75198545064E+03  0.75756301315E+03  0.77000000000E+02 0.  0.
   -5000001    1    1    2    0    0 -0.49819187992E+02  0.29409905057E+01  0.88625319680E+03  0.89099064516E+03  0.77000000000E+02 0.  0.
<mgrwt>
<rscale>  0 0.18412848E+03</rscale>
<asrwt>0</asrwt>
<pdfrwt beam="1">  1        2 0.25283001E+00 0.18412848E+03</pdfrwt>
<pdfrwt beam="2">  1       -2 0.79346291E-03 0.18412848E+03</pdfrwt>
<totfact> 0.33387728E+04</totfact>
</mgrwt>
</event>
<event>
 4    1  0.4751076E-004  0.2266235E+03  0.7818608E-02  0.1129039E+00
         -2   -1    0    0    0  501 -0.00000000000E+00  0.00000000000E+00  0.46854514555E+02  0.46854514625E+02  0.25500000000E-02 0. -1.
          2   -1    0    0  501    0  0.00000000000E+00 -0.00000000000E+00 -0.27403013541E+03  0.27403013542E+03  0.25500000000E-02 0.  1.
    5000001    1    1    2    0    0  0.49182388750E+02 -0.58465182824E+02 -0.15997924558E+03  0.19328591253E+03  0.77000000000E+02 0.  0.
   -5000001    1    1    2    0    0 -0.49182388750E+02  0.58465182824E+02 -0.67196375272E+02  0.12759873751E+03  0.77000000000E+02 0.  0.
<mgrwt>
<rscale>  0 0.22662347E+03</rscale>
<asrwt>0</asrwt>
<pdfrwt beam="1">  1        2 0.42158481E-01 0.22662347E+03</pdfrwt>
<pdfrwt beam="2">  1       -2 0.72083870E-02 0.22662347E+03</pdfrwt>
<totfact> 0.13140055E+04</totfact>
</mgrwt>
</event>
<event>
 4    1  0.4751076E-004  0.3765529E+03  0.7818608E-02  0.1052215E+00
         -2   -1    0    0    0  501 -0.00000000000E+00  0.00000000000E+00  0.65120735383E+03  0.65120735384E+03  0.25500000000E-02 0. -1.
          2   -1    0    0  501    0  0.00000000000E+00 -0.00000000000E+00 -0.54434299126E+02  0.54434299186E+02  0.25500000000E-02 0.  1.
    5000001    1    1    2    0    0 -0.65054268585E+02 -0.89225929397E+02  0.51723795838E+02  0.14421399167E+03  0.77000000000E+02 0.  0.
   -5000001    1    1    2    0    0  0.65054268585E+02  0.89225929397E+02  0.54504925887E+03  0.56142766135E+03  0.77000000000E+02 0.  0.
<mgrwt>
<rscale>  0 0.37655287E+03</rscale>
<asrwt>0</asrwt>
<pdfrwt beam="1">  1        2 0.83745079E-02 0.37655287E+03</pdfrwt>
<pdfrwt beam="2">  1       -2 0.10018574E+00 0.37655287E+03</pdfrwt>
<totfact> 0.68895081E+02</totfact>
</mgrwt>
</event>
<event>
 4    1  0.4751076E-004  0.1808051E+03  0.7818608E-02  0.1167026E+00
         -2   -1    0    0    0  501 -0.00000000000E+00  0.00000000000E+00  0.94354103200E+01  0.94354106646E+01  0.25500000000E-02 0. -1.
          2   -1    0    0  501    0  0.00000000000E+00 -0.00000000000E+00 -0.86616471623E+03  0.86616471624E+03  0.25500000000E-02 0.  1.
    5000001    1    1    2    0    0 -0.39732079650E+02 -0.88685893217E+01 -0.31110027739E+03  0.32306295458E+03  0.77000000000E+02 0.  0.
   -5000001    1    1    2    0    0  0.39732079650E+02  0.88685893217E+01 -0.54562902852E+03  0.55253717232E+03  0.77000000000E+02 0.  0.
<mgrwt>
<rscale>  0 0.18080508E+03</rscale>
<asrwt>0</asrwt>
<pdfrwt beam="1">  1        2 0.13325605E+00 0.18080508E+03</pdfrwt>
<pdfrwt beam="2">  1       -2 0.14516023E-02 0.18080508E+03</pdfrwt>
<totfact> 0.38210962E+04</totfact>
</mgrwt>
</event>
<event>
 4    1  0.4751076E-004  0.1863358E+03  0.7818608E-02  0.1161808E+00
         -2   -1    0    0    0  501 -0.00000000000E+00  0.00000000000E+00  0.49581452941E+01  0.49581459498E+01  0.25500000000E-02 0. -1.
          2   -1    0    0  501    0  0.00000000000E+00 -0.00000000000E+00 -0.17507055455E+04  0.17507055455E+04  0.25500000000E-02 0.  1.
    5000001    1    1    2    0    0  0.21953181882E+02 -0.44208897165E+02 -0.70567972920E+03  0.71158221520E+03  0.77000000000E+02 0.  0.
   -5000001    1    1    2    0    0 -0.21953181882E+02  0.44208897165E+02 -0.10400676710E+04  0.10440814763E+04  0.77000000000E+02 0.  0.
<mgrwt>
<rscale>  0 0.18633575E+03</rscale>
<asrwt>0</asrwt>
<pdfrwt beam="1">  1        2 0.26933882E+00 0.18633575E+03</pdfrwt>
<pdfrwt beam="2">  1       -2 0.76279303E-03 0.18633575E+03</pdfrwt>
<totfact> 0.31097972E+04</totfact>
</mgrwt>
</event>
<event>
 4    1  0.4751076E-004  0.1868010E+03  0.7818608E-02  0.1161379E+00
          2   -1    0    0  501    0  0.00000000000E+00  0.00000000000E+00  0.59632197667E+03  0.59632197668E+03  0.25500000000E-02 0.  1.
         -2   -1    0    0    0  501 -0.00000000000E+00 -0.00000000000E+00 -0.14629091512E+02  0.14629091734E+02  0.25500000000E-02 0. -1.
    5000001    1    1    2    0    0 -0.22891249341E+02 -0.43858971630E+02  0.22991928070E+03  0.24746614784E+03  0.77000000000E+02 0.  0.
   -5000001    1    1    2    0    0  0.22891249341E+02  0.43858971630E+02  0.35177360445E+03  0.36348492057E+03  0.77000000000E+02 0.  0.
<mgrwt>
<rscale>  0 0.18680095E+03</rscale>
<asrwt>0</asrwt>
<pdfrwt beam="1">  1        2 0.91741841E-01 0.18680095E+03</pdfrwt>
<pdfrwt beam="2">  1       -2 0.22506295E-02 0.18680095E+03</pdfrwt>
<totfact> 0.31821367E+04</totfact>
</mgrwt>
</event>
<event>
 4    1  0.4751076E-004  0.2304408E+03  0.7818608E-02  0.1126330E+00
          2   -1    0    0  501    0  0.00000000000E+00  0.00000000000E+00  0.18140545925E+04  0.18140545925E+04  0.25500000000E-02 0.  1.
         -2   -1    0    0    0  501 -0.00000000000E+00 -0.00000000000E+00 -0.73182662875E+01  0.73182667318E+01  0.25500000000E-02 0. -1.
    5000001    1    1    2    0    0 -0.49853154849E+02  0.68494451095E+01  0.35494674411E+03  0.36667211934E+03  0.77000000000E+02 0.  0.
   -5000001    1    1    2    0    0  0.49853154849E+02 -0.68494451095E+01  0.14517895821E+04  0.14547007399E+04  0.77000000000E+02 0.  0.
<mgrwt>
<rscale>  0 0.23044075E+03</rscale>
<asrwt>0</asrwt>
<pdfrwt beam="1">  1        2 0.27908540E+00 0.23044075E+03</pdfrwt>
<pdfrwt beam="2">  1       -2 0.11258869E-02 0.23044075E+03</pdfrwt>
<totfact> 0.16596042E+04</totfact>
</mgrwt>
</event>
<event>
 4    1  0.4751076E-004  0.2978952E+03  0.7818608E-02  0.1086298E+00
         -2   -1    0    0    0  501 -0.00000000000E+00  0.00000000000E+00  0.77133736443E+02  0.77133736485E+02  0.25500000000E-02 0. -1.
          2   -1    0    0  501    0  0.00000000000E+00 -0.00000000000E+00 -0.28762244270E+03  0.28762244271E+03  0.25500000000E-02 0.  1.
    5000001    1    1    2    0    0  0.11639023798E+03 -0.90263502147E+01 -0.42471643478E+02  0.14615403858E+03  0.77000000000E+02 0.  0.
   -5000001    1    1    2    0    0 -0.11639023798E+03  0.90263502147E+01 -0.16801706278E+03  0.21860214061E+03  0.77000000000E+02 0.  0.
<mgrwt>
<rscale>  0 0.29789524E+03</rscale>
<asrwt>0</asrwt>
<pdfrwt beam="1">  1        2 0.44249606E-01 0.29789524E+03</pdfrwt>
<pdfrwt beam="2">  1       -2 0.11866729E-01 0.29789524E+03</pdfrwt>
<totfact> 0.57450224E+03</totfact>
</mgrwt>
</event>
<event>
 4    1  0.4751076E-004  0.2956638E+03  0.7818608E-02  0.1087429E+00
         -2   -1    0    0    0  501 -0.00000000000E+00  0.00000000000E+00  0.60189664230E+01  0.60189669632E+01  0.25500000000E-02 0. -1.
          2   -1    0    0  501    0  0.00000000000E+00 -0.00000000000E+00 -0.36309018158E+04  0.36309018158E+04  0.25500000000E-02 0.  1.
    5000001    1    1    2    0    0 -0.20860757181E+02  0.12364580831E+03 -0.16376912097E+04  0.16442885864E+04  0.77000000000E+02 0.  0.
   -5000001    1    1    2    0    0  0.20860757181E+02 -0.12364580831E+03 -0.19871916397E+04  0.19926321963E+04  0.77000000000E+02 0.  0.
<mgrwt>
<rscale>  0 0.29566384E+03</rscale>
<asrwt>0</asrwt>
<pdfrwt beam="1">  1        2 0.55859853E+00 0.29566384E+03</pdfrwt>
<pdfrwt beam="2">  1       -2 0.92599778E-03 0.29566384E+03</pdfrwt>
<totfact> 0.19668366E+03</totfact>
</mgrwt>
</event>
<event>
 4    1  0.4751076E-004  0.2788504E+03  0.7818608E-02  0.1096318E+00
         -2   -1    0    0    0  501 -0.00000000000E+00  0.00000000000E+00  0.26947781652E+03  0.26947781653E+03  0.25500000000E-02 0. -1.
          2   -1    0    0  501    0  0.00000000000E+00 -0.00000000000E+00 -0.72137260951E+02  0.72137260996E+02  0.25500000000E-02 0.  1.
    5000001    1    1    2    0    0  0.11248497245E+03 -0.26137499965E+02  0.82493902194E+02  0.16146294259E+03  0.77000000000E+02 0.  0.
   -5000001    1    1    2    0    0 -0.11248497245E+03  0.26137499965E+02  0.11484665337E+03  0.18015213493E+03  0.77000000000E+02 0.  0.
<mgrwt>
<rscale>  0 0.27885044E+03</rscale>
<asrwt>0</asrwt>
<pdfrwt beam="1">  1        2 0.11098040E-01 0.27885044E+03</pdfrwt>
<pdfrwt beam="2">  1       -2 0.41458125E-01 0.27885044E+03</pdfrwt>
<totfact> 0.31173466E+03</totfact>
</mgrwt>
</event>
<event>
 4    1  0.4751076E-004  0.2072067E+03  0.7818608E-02  0.1143797E+00
          2   -1    0    0  501    0  0.00000000000E+00  0.00000000000E+00  0.71964798639E+03  0.71964798639E+03  0.25500000000E-02 0. -1.
         -2   -1    0    0    0  501 -0.00000000000E+00 -0.00000000000E+00 -0.14915138801E+02  0.14915139019E+02  0.25500000000E-02 0.  1.
    5000001    1    1    2    0    0  0.59641857351E+01 -0.23450630345E+02  0.12209624309E+03  0.14636255038E+03  0.77000000000E+02 0.  0.
   -5000001    1    1    2    0    0 -0.59641857351E+01  0.23450630345E+02  0.58263660450E+03  0.58820057504E+03  0.77000000000E+02 0.  0.
<mgrwt>
<rscale>  0 0.20720666E+03</rscale>
<asrwt>0</asrwt>
<pdfrwt beam="1">  1        2 0.11071507E+00 0.20720666E+03</pdfrwt>
<pdfrwt beam="2">  1       -2 0.22946368E-02 0.20720666E+03</pdfrwt>
<totfact> 0.24970747E+04</totfact>
</mgrwt>
</event>
<event>
 4    1  0.4751076E-004  0.2495003E+03  0.7818608E-02  0.1113621E+00
          2   -1    0    0  501    0  0.00000000000E+00  0.00000000000E+00  0.61406714630E+03  0.61406714631E+03  0.25500000000E-02 0.  1.
         -2   -1    0    0    0  501 -0.00000000000E+00 -0.00000000000E+00 -0.25343477201E+02  0.25343477329E+02  0.25500000000E-02 0. -1.
    5000001    1    1    2    0    0  0.80729091558E+02 -0.48538125017E+02  0.36503381822E+03  0.38477503070E+03  0.77000000000E+02 0.  0.
   -5000001    1    1    2    0    0 -0.80729091558E+02  0.48538125017E+02  0.22368985088E+03  0.25463559293E+03  0.77000000000E+02 0.  0.
<mgrwt>
<rscale>  0 0.24950027E+03</rscale>
<asrwt>0</asrwt>
<pdfrwt beam="1">  1        2 0.94471856E-01 0.24950027E+03</pdfrwt>
<pdfrwt beam="2">  1       -2 0.38989970E-02 0.24950027E+03</pdfrwt>
<totfact> 0.13879024E+04</totfact>
</mgrwt>
</event>
<event>
 4    1  0.4751076E-004  0.1959727E+03  0.7818608E-02  0.1153182E+00
          2   -1    0    0  501    0  0.00000000000E+00  0.00000000000E+00  0.40689110902E+02  0.40689110982E+02  0.25500000000E-02 0.  1.
         -2   -1    0    0    0  501 -0.00000000000E+00 -0.00000000000E+00 -0.23596787521E+03  0.23596787522E+03  0.25500000000E-02 0. -1.
    5000001    1    1    2    0    0 -0.51417098158E+02 -0.10560211328E+02 -0.14039088397E+03  0.16850470720E+03  0.77000000000E+02 0.  0.
   -5000001    1    1    2    0    0  0.51417098158E+02  0.10560211328E+02 -0.54887880338E+02  0.10815227901E+03  0.77000000000E+02 0.  0.
<mgrwt>
<rscale>  0 0.19597268E+03</rscale>
<asrwt>0</asrwt>
<pdfrwt beam="1">  1        2 0.62598634E-02 0.19597268E+03</pdfrwt>
<pdfrwt beam="2">  1       -2 0.36302749E-01 0.19597268E+03</pdfrwt>
<totfact> 0.81230297E+03</totfact>
</mgrwt>
</event>
<event>
 4    1  0.4751076E-004  0.1621906E+03  0.7818608E-02  0.1186246E+00
          2   -1    0    0  501    0  0.00000000000E+00  0.00000000000E+00  0.54416340023E+03  0.54416340024E+03  0.25500000000E-02 0.  1.
         -2   -1    0    0    0  501 -0.00000000000E+00 -0.00000000000E+00 -0.12085424369E+02  0.12085424638E+02  0.25500000000E-02 0. -1.
    5000001    1    1    2    0    0 -0.10356069821E+02  0.17006865846E+02  0.32037017930E+03  0.33009473406E+03  0.77000000000E+02 0.  0.
   -5000001    1    1    2    0    0  0.10356069821E+02 -0.17006865846E+02  0.21170779656E+03  0.22615409082E+03  0.77000000000E+02 0.  0.
<mgrwt>
<rscale>  0 0.16219058E+03</rscale>
<asrwt>0</asrwt>
<pdfrwt beam="1">  1        2 0.83717450E-01 0.16219058E+03</pdfrwt>
<pdfrwt beam="2">  1       -2 0.18592960E-02 0.16219058E+03</pdfrwt>
<totfact> 0.46067454E+04</totfact>
</mgrwt>
</event>
<event>
 4    1  0.4751076E-004  0.4215241E+03  0.7818608E-02  0.1036571E+00
          2   -1    0    0  501    0  0.00000000000E+00  0.00000000000E+00  0.96710242290E+03  0.96710242290E+03  0.25500000000E-02 0.  1.
         -2   -1    0    0    0  501 -0.00000000000E+00 -0.00000000000E+00 -0.45931674652E+02  0.45931674723E+02  0.25500000000E-02 0. -1.
    5000001    1    1    2    0    0 -0.38316032321E+02 -0.18733010230E+03  0.35497975737E+03  0.41048789715E+03  0.77000000000E+02 0.  0.
   -5000001    1    1    2    0    0  0.38316032321E+02  0.18733010230E+03  0.56619099088E+03  0.60254620048E+03  0.77000000000E+02 0.  0.
<mgrwt>
<rscale>  0 0.42152406E+03</rscale>
<asrwt>0</asrwt>
<pdfrwt beam="1">  1        2 0.14878498E+00 0.42152406E+03</pdfrwt>
<pdfrwt beam="2">  1       -2 0.70664119E-02 0.42152406E+03</pdfrwt>
<totfact> 0.31727547E+03</totfact>
</mgrwt>
</event>
<event>
 4    1  0.4751076E-004  0.1845218E+03  0.7818608E-02  0.1163497E+00
          2   -1    0    0  501    0  0.00000000000E+00  0.00000000000E+00  0.59724215823E+02  0.59724215877E+02  0.25500000000E-02 0.  1.
         -2   -1    0    0    0  501 -0.00000000000E+00 -0.00000000000E+00 -0.14252301322E+03  0.14252301324E+03  0.25500000000E-02 0. -1.
    5000001    1    1    2    0    0 -0.50773573394E+02  0.68769661442E+00 -0.39036750267E+02  0.10015636052E+03  0.77000000000E+02 0.  0.
   -5000001    1    1    2    0    0  0.50773573394E+02 -0.68769661442E+00 -0.43762047130E+02  0.10209086860E+03  0.77000000000E+02 0.  0.
<mgrwt>
<rscale>  0 0.18452182E+03</rscale>
<asrwt>0</asrwt>
<pdfrwt beam="1">  1        2 0.91883410E-02 0.18452182E+03</pdfrwt>
<pdfrwt beam="2">  1       -2 0.21926617E-01 0.18452182E+03</pdfrwt>
<totfact> 0.12257090E+04</totfact>
</mgrwt>
</event>
<event>
 4    1  0.4751076E-004  0.2086243E+03  0.7818608E-02  0.1142660E+00
          2   -1    0    0  501    0  0.00000000000E+00  0.00000000000E+00  0.54398299782E+02  0.54398299842E+02  0.25500000000E-02 0.  1.
         -2   -1    0    0    0  501 -0.00000000000E+00 -0.00000000000E+00 -0.20002518124E+03  0.20002518125E+03  0.25500000000E-02 0. -1.
    5000001    1    1    2    0    0 -0.48118628174E+02 -0.50586362303E+02 -0.62067225706E+02  0.12106082329E+03  0.77000000000E+02 0.  0.
   -5000001    1    1    2    0    0  0.48118628174E+02  0.50586362303E+02 -0.83559655750E+02  0.13336265781E+03  0.77000000000E+02 0.  0.
<mgrwt>
<rscale>  0 0.20862435E+03</rscale>
<asrwt>0</asrwt>
<pdfrwt beam="1">  1        2 0.83689693E-02 0.20862435E+03</pdfrwt>
<pdfrwt beam="2">  1       -2 0.30773104E-01 0.20862435E+03</pdfrwt>
<totfact> 0.76320194E+03</totfact>
</mgrwt>
</event>
<event>
 4    1  0.4751076E-004  0.2126672E+03  0.7818608E-02  0.1139471E+00
         -2   -1    0    0    0  501 -0.00000000000E+00  0.00000000000E+00  0.66896198205E+03  0.66896198206E+03  0.25500000000E-02 0. -1.
          2   -1    0    0  501    0  0.00000000000E+00 -0.00000000000E+00 -0.16902065697E+02  0.16902065889E+02  0.25500000000E-02 0.  1.
    5000001    1    1    2    0    0  0.31214794944E+02 -0.64888572554E+02  0.28123193169E+03  0.30034195456E+03  0.77000000000E+02 0.  0.
   -5000001    1    1    2    0    0 -0.31214794944E+02  0.64888572554E+02  0.37082798467E+03  0.38552209338E+03  0.77000000000E+02 0.  0.
<mgrwt>
<rscale>  0 0.21266725E+03</rscale>
<asrwt>0</asrwt>
<pdfrwt beam="1">  1        2 0.26003184E-02 0.21266725E+03</pdfrwt>
<pdfrwt beam="2">  1       -2 0.10291720E+00 0.21266725E+03</pdfrwt>
<totfact> 0.30073272E+03</totfact>
</mgrwt>
</event>
<event>
 4    1  0.4751076E-004  0.2091304E+03  0.7818608E-02  0.1142256E+00
         -2   -1    0    0    0  501 -0.00000000000E+00  0.00000000000E+00  0.56594576477E+01  0.56594582221E+01  0.25500000000E-02 0. -1.
          2   -1    0    0  501    0  0.00000000000E+00 -0.00000000000E+00 -0.19319655257E+04  0.19319655257E+04  0.25500000000E-02 0.  1.
    5000001    1    1    2    0    0 -0.11240331281E+02 -0.63735585721E+02 -0.12278686552E+04  0.12319817387E+04  0.77000000000E+02 0.  0.
   -5000001    1    1    2    0    0  0.11240331281E+02  0.63735585721E+02 -0.69843741286E+03  0.70564324528E+03  0.77000000000E+02 0.  0.
<mgrwt>
<rscale>  0 0.20913037E+03</rscale>
<asrwt>0</asrwt>
<pdfrwt beam="1">  1        2 0.29722494E+00 0.20913037E+03</pdfrwt>
<pdfrwt beam="2">  1       -2 0.87068737E-03 0.20913037E+03</pdfrwt>
<totfact> 0.20819445E+04</totfact>
</mgrwt>
</event>
<event>
 4    1  0.4751076E-004  0.4403366E+03  0.7818608E-02  0.1030644E+00
          2   -1    0    0  501    0  0.00000000000E+00  0.00000000000E+00  0.15631029396E+04  0.15631029396E+04  0.25500000000E-02 0.  1.
         -2   -1    0    0    0  501 -0.00000000000E+00 -0.00000000000E+00 -0.31011444013E+02  0.31011444118E+02  0.25500000000E-02 0. -1.
    5000001    1    1    2    0    0  0.72327495826E+02  0.13129260405E+03  0.25309697529E+03  0.30406593599E+03  0.77000000000E+02 0.  0.
   -5000001    1    1    2    0    0 -0.72327495826E+02 -0.13129260405E+03  0.12789945203E+04  0.12900484477E+04  0.77000000000E+02 0.  0.
<mgrwt>
<rscale>  0 0.44033660E+03</rscale>
<asrwt>0</asrwt>
<pdfrwt beam="1">  1        2 0.24047745E+00 0.44033660E+03</pdfrwt>
<pdfrwt beam="2">  1       -2 0.47709898E-02 0.44033660E+03</pdfrwt>
<totfact> 0.26487194E+03</totfact>
</mgrwt>
</event>
<event>
 4    1  0.4751076E-004  0.2534148E+03  0.7818608E-02  0.1111166E+00
          2   -1    0    0  501    0  0.00000000000E+00  0.00000000000E+00  0.14454077566E+04  0.14454077566E+04  0.25500000000E-02 0.  1.
         -2   -1    0    0    0  501 -0.00000000000E+00 -0.00000000000E+00 -0.11107432710E+02  0.11107433003E+02  0.25500000000E-02 0. -1.
    5000001    1    1    2    0    0  0.32402688400E+02  0.33499071241E+02  0.12297354730E+04  0.12330249209E+04  0.77000000000E+02 0.  0.
   -5000001    1    1    2    0    0 -0.32402688400E+02 -0.33499071241E+02  0.20456485089E+03  0.22349026872E+03  0.77000000000E+02 0.  0.
<mgrwt>
<rscale>  0 0.25341483E+03</rscale>
<asrwt>0</asrwt>
<pdfrwt beam="1">  1        2 0.22237028E+00 0.25341483E+03</pdfrwt>
<pdfrwt beam="2">  1       -2 0.17088369E-02 0.25341483E+03</pdfrwt>
<totfact> 0.14185248E+04</totfact>
</mgrwt>
</event>
<event>
 4    1  0.4751076E-004  0.2585686E+03  0.7818608E-02  0.1108006E+00
         -2   -1    0    0    0  501 -0.00000000000E+00  0.00000000000E+00  0.21262421720E+03  0.21262421721E+03  0.25500000000E-02 0. -1.
          2   -1    0    0  501    0  0.00000000000E+00 -0.00000000000E+00 -0.78610175219E+02  0.78610175261E+02  0.25500000000E-02 0.  1.
    5000001    1    1    2    0    0 -0.48302027755E+02 -0.91868718925E+02  0.70985955869E+02  0.14744813777E+03  0.77000000000E+02 0.  0.
   -5000001    1    1    2    0    0  0.48302027755E+02  0.91868718925E+02  0.63028086110E+02  0.14378625470E+03  0.77000000000E+02 0.  0.
<mgrwt>
<rscale>  0 0.25856857E+03</rscale>
<asrwt>0</asrwt>
<pdfrwt beam="1">  1        2 0.12093873E-01 0.25856857E+03</pdfrwt>
<pdfrwt beam="2">  1       -2 0.32711418E-01 0.25856857E+03</pdfrwt>
<totfact> 0.43720606E+03</totfact>
</mgrwt>
</event>
<event>
 4    1  0.4751076E-004  0.3018058E+03  0.7818608E-02  0.1084341E+00
          2   -1    0    0  501    0  0.00000000000E+00  0.00000000000E+00  0.89591219121E+02  0.89591219158E+02  0.25500000000E-02 0.  1.
         -2   -1    0    0    0  501 -0.00000000000E+00 -0.00000000000E+00 -0.25417321644E+03  0.25417321645E+03  0.25500000000E-02 0. -1.
    5000001    1    1    2    0    0 -0.58128716388E+02  0.65507082695E+02 -0.19137942571E+03  0.22410981714E+03  0.77000000000E+02 0.  0.
   -5000001    1    1    2    0    0  0.58128716388E+02 -0.65507082695E+02  0.26797428397E+02  0.11965461847E+03  0.77000000000E+02 0.  0.
<mgrwt>
<rscale>  0 0.30180582E+03</rscale>
<asrwt>0</asrwt>
<pdfrwt beam="1">  1        2 0.13783265E-01 0.30180582E+03</pdfrwt>
<pdfrwt beam="2">  1       -2 0.39103572E-01 0.30180582E+03</pdfrwt>
<totfact> 0.26850602E+03</totfact>
</mgrwt>
</event>
<event>
 4    1  0.4751076E-004  0.1888327E+03  0.7818608E-02  0.1159518E+00
         -2   -1    0    0    0  501 -0.00000000000E+00  0.00000000000E+00  0.59941455455E+02  0.59941455509E+02  0.25500000000E-02 0. -1.
          2   -1    0    0  501    0  0.00000000000E+00 -0.00000000000E+00 -0.14871923587E+03  0.14871923590E+03  0.25500000000E-02 0.  1.
    5000001    1    1    2    0    0  0.26525122139E+02 -0.22412050978E+02 -0.91003322488E+02  0.12416314605E+03  0.77000000000E+02 0.  0.
   -5000001    1    1    2    0    0 -0.26525122139E+02  0.22412050978E+02  0.22255420680E+01  0.84497545355E+02  0.77000000000E+02 0.  0.
<mgrwt>
<rscale>  0 0.18883270E+03</rscale>
<asrwt>0</asrwt>
<pdfrwt beam="1">  1        2 0.22879882E-01 0.18883270E+03</pdfrwt>
<pdfrwt beam="2">  1       -2 0.92217624E-02 0.18883270E+03</pdfrwt>
<totfact> 0.17235084E+04</totfact>
</mgrwt>
</event>
<event>
 4    1  0.4751076E-004  0.3032489E+03  0.7818608E-02  0.1083628E+00
          2   -1    0    0  501    0  0.00000000000E+00  0.00000000000E+00  0.80979529319E+03  0.80979529320E+03  0.25500000000E-02 0.  1.
         -2   -1    0    0    0  501 -0.00000000000E+00 -0.00000000000E+00 -0.28389858171E+02  0.28389858286E+02  0.25500000000E-02 0. -1.
    5000001    1    1    2    0    0 -0.88575970219E+02 -0.87291332331E+02  0.50110762279E+03  0.52201851386E+03  0.77000000000E+02 0.  0.
   -5000001    1    1    2    0    0  0.88575970219E+02  0.87291332331E+02  0.28029781223E+03  0.31616663762E+03  0.77000000000E+02 0.  0.
<mgrwt>
<rscale>  0 0.30324890E+03</rscale>
<asrwt>0</asrwt>
<pdfrwt beam="1">  1        2 0.12458387E+00 0.30324890E+03</pdfrwt>
<pdfrwt beam="2">  1       -2 0.43676712E-02 0.30324890E+03</pdfrwt>
<totfact> 0.84072374E+03</totfact>
</mgrwt>
</event>
<event>
 4    1  0.4751076E-004  0.2823861E+03  0.7818608E-02  0.1094393E+00
         -2   -1    0    0    0  501 -0.00000000000E+00  0.00000000000E+00  0.20477470215E+02  0.20477470374E+02  0.25500000000E-02 0. -1.
          2   -1    0    0  501    0  0.00000000000E+00 -0.00000000000E+00 -0.97353250540E+03  0.97353250541E+03  0.25500000000E-02 0.  1.
    5000001    1    1    2    0    0  0.19257175640E+02  0.11645835392E+03 -0.50662249540E+03  0.52586000025E+03  0.77000000000E+02 0.  0.
   -5000001    1    1    2    0    0 -0.19257175640E+02 -0.11645835392E+03 -0.44643253979E+03  0.46814997553E+03  0.77000000000E+02 0.  0.
<mgrwt>
<rscale>  0 0.28238614E+03</rscale>
<asrwt>0</asrwt>
<pdfrwt beam="1">  1        2 0.14977420E+00 0.28238614E+03</pdfrwt>
<pdfrwt beam="2">  1       -2 0.31503808E-02 0.28238614E+03</pdfrwt>
<totfact> 0.10719436E+04</totfact>
</mgrwt>
</event>
<event>
 4    1  0.4751076E-004  0.3298798E+03  0.7818608E-02  0.1071190E+00
          2   -1    0    0  501    0  0.00000000000E+00  0.00000000000E+00  0.18677623819E+04  0.18677623819E+04  0.25500000000E-02 0.  1.
         -2   -1    0    0    0  501 -0.00000000000E+00 -0.00000000000E+00 -0.14565645312E+02  0.14565645535E+02  0.25500000000E-02 0. -1.
    5000001    1    1    2    0    0 -0.11432474511E+03  0.86582357557E+02  0.77460673114E+03  0.79152463001E+03  0.77000000000E+02 0.  0.
   -5000001    1    1    2    0    0  0.11432474511E+03 -0.86582357557E+02  0.10785900054E+04  0.10908033974E+04  0.77000000000E+02 0.  0.
<mgrwt>
<rscale>  0 0.32987976E+03</rscale>
<asrwt>0</asrwt>
<pdfrwt beam="1">  1        2 0.28734788E+00 0.32987976E+03</pdfrwt>
<pdfrwt beam="2">  1       -2 0.22408699E-02 0.32987976E+03</pdfrwt>
<totfact> 0.57021646E+03</totfact>
</mgrwt>
</event>
<event>
 4    1  0.4751076E-004  0.3159580E+03  0.7818608E-02  0.1077525E+00
         -2   -1    0    0    0  501 -0.00000000000E+00  0.00000000000E+00  0.40837863692E+02  0.40837863772E+02  0.25500000000E-02 0. -1.
          2   -1    0    0  501    0  0.00000000000E+00 -0.00000000000E+00 -0.61113276872E+03  0.61113276872E+03  0.25500000000E-02 0.  1.
    5000001    1    1    2    0    0 -0.12794343704E+03  0.44544326215E+02 -0.23155128801E+03  0.27910342001E+03  0.77000000000E+02 0.  0.
   -5000001    1    1    2    0    0  0.12794343704E+03 -0.44544326215E+02 -0.33874361702E+03  0.37286721249E+03  0.77000000000E+02 0.  0.
<mgrwt>
<rscale>  0 0.31595795E+03</rscale>
<asrwt>0</asrwt>
<pdfrwt beam="1">  1        2 0.94020419E-01 0.31595795E+03</pdfrwt>
<pdfrwt beam="2">  1       -2 0.62827487E-02 0.31595795E+03</pdfrwt>
<totfact> 0.68142392E+03</totfact>
</mgrwt>
</event>
<event>
 4    1  0.4751076E-004  0.1697575E+03  0.7818608E-02  0.1178101E+00
          2   -1    0    0  501    0  0.00000000000E+00  0.00000000000E+00  0.18143732984E+02  0.18143733163E+02  0.25500000000E-02 0.  1.
         -2   -1    0    0    0  501 -0.00000000000E+00 -0.00000000000E+00 -0.39707371726E+03  0.39707371727E+03  0.25500000000E-02 0. -1.
    5000001    1    1    2    0    0 -0.67353350380E+01 -0.35053739283E+02 -0.18670837410E+03  0.20509301874E+03  0.77000000000E+02 0.  0.
   -5000001    1    1    2    0    0  0.67353350380E+01  0.35053739283E+02 -0.19222161017E+03  0.21012443169E+03  0.77000000000E+02 0.  0.
<mgrwt>
<rscale>  0 0.16975747E+03</rscale>
<asrwt>0</asrwt>
<pdfrwt beam="1">  1        2 0.27913439E-02 0.16975747E+03</pdfrwt>
<pdfrwt beam="2">  1       -2 0.61088257E-01 0.16975747E+03</pdfrwt>
<totfact> 0.84442528E+03</totfact>
</mgrwt>
</event>
<event>
 4    1  0.4751076E-004  0.1761665E+03  0.7818608E-02  0.1171566E+00
          2   -1    0    0  501    0  0.00000000000E+00  0.00000000000E+00  0.58162233097E+02  0.58162233153E+02  0.25500000000E-02 0.  1.
         -2   -1    0    0    0  501 -0.00000000000E+00 -0.00000000000E+00 -0.13339681655E+03  0.13339681657E+03  0.25500000000E-02 0. -1.
    5000001    1    1    2    0    0 -0.40839531207E+02  0.10607523978E+02 -0.45249849961E+02  0.98777202813E+02  0.77000000000E+02 0.  0.
   -5000001    1    1    2    0    0  0.40839531207E+02 -0.10607523978E+02 -0.29984733490E+02  0.92781846913E+02  0.77000000000E+02 0.  0.
<mgrwt>
<rscale>  0 0.17616648E+03</rscale>
<asrwt>0</asrwt>
<pdfrwt beam="1">  1        2 0.89480359E-02 0.17616648E+03</pdfrwt>
<pdfrwt beam="2">  1       -2 0.20522587E-01 0.17616648E+03</pdfrwt>
<totfact> 0.14138159E+04</totfact>
</mgrwt>
</event>
<event>
 4    1  0.4751076E-004  0.1958130E+03  0.7818608E-02  0.1153320E+00
          2   -1    0    0  501    0  0.00000000000E+00  0.00000000000E+00  0.66713473391E+03  0.66713473392E+03  0.25500000000E-02 0.  1.
         -2   -1    0    0    0  501 -0.00000000000E+00 -0.00000000000E+00 -0.14368436839E+02  0.14368437065E+02  0.25500000000E-02 0. -1.
    5000001    1    1    2    0    0 -0.15381454931E+02 -0.45889333397E+02  0.20020982749E+03  0.21989860186E+03  0.77000000000E+02 0.  0.
   -5000001    1    1    2    0    0  0.15381454931E+02  0.45889333397E+02  0.45255646958E+03  0.46160456912E+03  0.77000000000E+02 0.  0.
<mgrwt>
<rscale>  0 0.19581301E+03</rscale>
<asrwt>0</asrwt>
<pdfrwt beam="1">  1        2 0.10263612E+00 0.19581301E+03</pdfrwt>
<pdfrwt beam="2">  1       -2 0.22105285E-02 0.19581301E+03</pdfrwt>
<totfact> 0.28771737E+04</totfact>
</mgrwt>
</event>
<event>
 4    1  0.4751076E-004  0.3890040E+03  0.7818608E-02  0.1047655E+00
          2   -1    0    0  501    0  0.00000000000E+00  0.00000000000E+00  0.93122566946E+02  0.93122566981E+02  0.25500000000E-02 0.  1.
         -2   -1    0    0    0  501 -0.00000000000E+00 -0.00000000000E+00 -0.40624976027E+03  0.40624976027E+03  0.25500000000E-02 0. -1.
    5000001    1    1    2    0    0  0.14362015010E+03 -0.10115977720E+03 -0.19800157607E+03  0.27566949807E+03  0.77000000000E+02 0.  0.
   -5000001    1    1    2    0    0 -0.14362015010E+03  0.10115977720E+03 -0.11512561725E+03  0.22370282919E+03  0.77000000000E+02 0.  0.
<mgrwt>
<rscale>  0 0.38900396E+03</rscale>
<asrwt>0</asrwt>
<pdfrwt beam="1">  1        2 0.14326549E-01 0.38900396E+03</pdfrwt>
<pdfrwt beam="2">  1       -2 0.62499962E-01 0.38900396E+03</pdfrwt>
<totfact> 0.10065908E+03</totfact>
</mgrwt>
</event>
<event>
 4    1  0.4751076E-004  0.2016099E+03  0.7818608E-02  0.1148388E+00
         -2   -1    0    0    0  501 -0.00000000000E+00  0.00000000000E+00  0.45300349272E+02  0.45300349344E+02  0.25500000000E-02 0. -1.
          2   -1    0    0  501    0  0.00000000000E+00 -0.00000000000E+00 -0.22431702791E+03  0.22431702792E+03  0.25500000000E-02 0.  1.
    5000001    1    1    2    0    0 -0.45673414918E+02  0.36931657703E+02 -0.52096017282E+02  0.10996819171E+03  0.77000000000E+02 0.  0.
   -5000001    1    1    2    0    0  0.45673414918E+02 -0.36931657703E+02 -0.12692066136E+03  0.15964918556E+03  0.77000000000E+02 0.  0.
<mgrwt>
<rscale>  0 0.20160992E+03</rscale>
<asrwt>0</asrwt>
<pdfrwt beam="1">  1        2 0.34510311E-01 0.20160992E+03</pdfrwt>
<pdfrwt beam="2">  1       -2 0.69692847E-02 0.20160992E+03</pdfrwt>
<totfact> 0.17039982E+04</totfact>
</mgrwt>
</event>
<event>
 4    1  0.4751076E-004  0.2025290E+03  0.7818608E-02  0.1147623E+00
          2   -1    0    0  501    0  0.00000000000E+00  0.00000000000E+00  0.23494553977E+04  0.23494553977E+04  0.25500000000E-02 0.  1.
         -2   -1    0    0    0  501 -0.00000000000E+00 -0.00000000000E+00 -0.43646283960E+01  0.43646291410E+01  0.25500000000E-02 0. -1.
    5000001    1    1    2    0    0  0.54450044385E+02 -0.19383616767E+02  0.80779377866E+03  0.81351110673E+03  0.77000000000E+02 0.  0.
   -5000001    1    1    2    0    0 -0.54450044385E+02  0.19383616767E+02  0.15372969907E+04  0.15403089201E+04  0.77000000000E+02 0.  0.
<mgrwt>
<rscale>  0 0.20252902E+03</rscale>
<asrwt>0</asrwt>
<pdfrwt beam="1">  1        2 0.36145457E+00 0.20252902E+03</pdfrwt>
<pdfrwt beam="2">  1       -2 0.67148154E-03 0.20252902E+03</pdfrwt>
<totfact> 0.18239649E+04</totfact>
</mgrwt>
</event>
<event>
 4    1  0.4751076E-004  0.3769075E+03  0.7818608E-02  0.1052083E+00
         -2   -1    0    0    0  501 -0.00000000000E+00  0.00000000000E+00  0.22519057364E+03  0.22519057365E+03  0.25500000000E-02 0. -1.
          2   -1    0    0  501    0  0.00000000000E+00 -0.00000000000E+00 -0.15771002928E+03  0.15771002931E+03  0.25500000000E-02 0.  1.
    5000001    1    1    2    0    0  0.12172234435E+03 -0.14907768934E+02 -0.88789497119E+02  0.16985624948E+03  0.77000000000E+02 0.  0.
   -5000001    1    1    2    0    0 -0.12172234435E+03  0.14907768934E+02  0.15627004147E+03  0.21304435348E+03  0.77000000000E+02 0.  0.
<mgrwt>
<rscale>  0 0.37690748E+03</rscale>
<asrwt>0</asrwt>
<pdfrwt beam="1">  1        2 0.24263082E-01 0.37690748E+03</pdfrwt>
<pdfrwt beam="2">  1       -2 0.34644703E-01 0.37690748E+03</pdfrwt>
<totfact> 0.17533508E+03</totfact>
</mgrwt>
</event>
<event>
 4    1  0.4751076E-004  0.2236525E+03  0.7818608E-02  0.1131189E+00
          2   -1    0    0  501    0  0.00000000000E+00  0.00000000000E+00  0.14022635066E+03  0.14022635069E+03  0.25500000000E-02 0.  1.
         -2   -1    0    0    0  501 -0.00000000000E+00 -0.00000000000E+00 -0.89178020835E+02  0.89178020871E+02  0.25500000000E-02 0. -1.
    5000001    1    1    2    0    0 -0.43796403931E+02 -0.12321445235E+02  0.94378537971E+02  0.13002404177E+03  0.77000000000E+02 0.  0.
   -5000001    1    1    2    0    0  0.43796403931E+02  0.12321445235E+02 -0.43330208143E+02  0.99380329782E+02  0.77000000000E+02 0.  0.
<mgrwt>
<rscale>  0 0.22365248E+03</rscale>
<asrwt>0</asrwt>
<pdfrwt beam="1">  1        2 0.21573285E-01 0.22365248E+03</pdfrwt>
<pdfrwt beam="2">  1       -2 0.13719696E-01 0.22365248E+03</pdfrwt>
<totfact> 0.98662473E+03</totfact>
</mgrwt>
</event>
<event>
 4    1  0.4751076E-004  0.1900897E+03  0.7818608E-02  0.1158380E+00
          2   -1    0    0  501    0  0.00000000000E+00  0.00000000000E+00  0.20470224503E+04  0.20470224503E+04  0.25500000000E-02 0.  1.
         -2   -1    0    0    0  501 -0.00000000000E+00 -0.00000000000E+00 -0.44130073629E+01  0.44130080996E+01  0.25500000000E-02 0. -1.
    5000001    1    1    2    0    0  0.13511925019E+02 -0.53792176447E+02  0.10787716729E+04  0.10829374371E+04  0.77000000000E+02 0.  0.
   -5000001    1    1    2    0    0 -0.13511925019E+02  0.53792176447E+02  0.96383777003E+03  0.96849802132E+03  0.77000000000E+02 0.  0.
<mgrwt>
<rscale>  0 0.19008973E+03</rscale>
<asrwt>0</asrwt>
<pdfrwt beam="1">  1        2 0.31492731E+00 0.19008973E+03</pdfrwt>
<pdfrwt beam="2">  1       -2 0.67892259E-03 0.19008973E+03</pdfrwt>
<totfact> 0.25831523E+04</totfact>
</mgrwt>
</event>
<event>
 4    1  0.4751076E-004  0.2608720E+03  0.7818608E-02  0.1106620E+00
         -2   -1    0    0    0  501 -0.00000000000E+00  0.00000000000E+00  0.78944930555E+01  0.78944934673E+01  0.25500000000E-02 0. -1.
          2   -1    0    0  501    0  0.00000000000E+00 -0.00000000000E+00 -0.21551158331E+04  0.21551158331E+04  0.25500000000E-02 0.  1.
    5000001    1    1    2    0    0  0.10504384644E+03  0.47637311339E+01 -0.10300156938E+04  0.10382284104E+04  0.77000000000E+02 0.  0.
   -5000001    1    1    2    0    0 -0.10504384644E+03 -0.47637311339E+01 -0.11172056463E+04  0.11247819161E+04  0.77000000000E+02 0.  0.
<mgrwt>
<rscale>  0 0.26087198E+03</rscale>
<asrwt>0</asrwt>
<pdfrwt beam="1">  1        2 0.33155581E+00 0.26087198E+03</pdfrwt>
<pdfrwt beam="2">  1       -2 0.12145391E-02 0.26087198E+03</pdfrwt>
<totfact> 0.98746631E+03</totfact>
</mgrwt>
</event>
<event>
 4    1  0.4751076E-004  0.2994161E+03  0.7818608E-02  0.1085533E+00
         -2   -1    0    0    0  501 -0.00000000000E+00  0.00000000000E+00  0.15547620667E+02  0.15547620876E+02  0.25500000000E-02 0. -1.
          2   -1    0    0  501    0  0.00000000000E+00 -0.00000000000E+00 -0.14415387588E+04  0.14415387588E+04  0.25500000000E-02 0.  1.
    5000001    1    1    2    0    0 -0.85360167622E+02  0.35268499420E+02 -0.11469889520E+04  0.11532748507E+04  0.77000000000E+02 0.  0.
   -5000001    1    1    2    0    0  0.85360167622E+02 -0.35268499420E+02 -0.27900218614E+03  0.30381152897E+03  0.77000000000E+02 0.  0.
<mgrwt>
<rscale>  0 0.29941608E+03</rscale>
<asrwt>0</asrwt>
<pdfrwt beam="1">  1        2 0.22177509E+00 0.29941608E+03</pdfrwt>
<pdfrwt beam="2">  1       -2 0.23919428E-02 0.29941608E+03</pdfrwt>
<totfact> 0.87206303E+03</totfact>
</mgrwt>
</event>
<event>
 4    1  0.4751076E-004  0.2692536E+03  0.7818608E-02  0.1101708E+00
          2   -1    0    0  501    0  0.00000000000E+00  0.00000000000E+00  0.10830419154E+04  0.10830419154E+04  0.25500000000E-02 0.  1.
         -2   -1    0    0    0  501 -0.00000000000E+00 -0.00000000000E+00 -0.16734689034E+02  0.16734689228E+02  0.25500000000E-02 0. -1.
    5000001    1    1    2    0    0  0.66266301804E+02 -0.84257260352E+02  0.64159493309E+03  0.65502943967E+03  0.77000000000E+02 0.  0.
   -5000001    1    1    2    0    0 -0.66266301804E+02  0.84257260352E+02  0.42471229331E+03  0.44474716499E+03  0.77000000000E+02 0.  0.
<mgrwt>
<rscale>  0 0.26925356E+03</rscale>
<asrwt>0</asrwt>
<pdfrwt beam="1">  1        2 0.16662189E+00 0.26925356E+03</pdfrwt>
<pdfrwt beam="2">  1       -2 0.25745666E-02 0.26925356E+03</pdfrwt>
<totfact> 0.12402765E+04</totfact>
</mgrwt>
</event>
<event>
 4    1  0.4751076E-004  0.3004244E+03  0.7818608E-02  0.1085029E+00
          2   -1    0    0  501    0  0.00000000000E+00  0.00000000000E+00  0.29868393595E+04  0.29868393595E+04  0.25500000000E-02 0.  1.
         -2   -1    0    0    0  501 -0.00000000000E+00 -0.00000000000E+00 -0.75543747166E+01  0.75543751470E+01  0.25500000000E-02 0. -1.
    5000001    1    1    2    0    0 -0.14975648368E+01 -0.97045288740E+02  0.23362498795E+04  0.23395325453E+04  0.77000000000E+02 0.  0.
   -5000001    1    1    2    0    0  0.14975648368E+01  0.97045288740E+02  0.64303510524E+03  0.65486118937E+03  0.77000000000E+02 0.  0.
<mgrwt>
<rscale>  0 0.30042440E+03</rscale>
<asrwt>0</asrwt>
<pdfrwt beam="1">  1        2 0.45951409E+00 0.30042440E+03</pdfrwt>
<pdfrwt beam="2">  1       -2 0.11622107E-02 0.30042440E+03</pdfrwt>
<totfact> 0.36265302E+03</totfact>
</mgrwt>
</event>
<event>
 4    1  0.4751076E-004  0.4132673E+03  0.7818608E-02  0.1039280E+00
         -2   -1    0    0    0  501 -0.00000000000E+00  0.00000000000E+00  0.27382300045E+02  0.27382300163E+02  0.25500000000E-02 0. -1.
          2   -1    0    0  501    0  0.00000000000E+00 -0.00000000000E+00 -0.15593088075E+04  0.15593088075E+04  0.25500000000E-02 0.  1.
    5000001    1    1    2    0    0 -0.88229379767E+02 -0.16979710656E+03 -0.81345082230E+03  0.83919409027E+03  0.77000000000E+02 0.  0.
   -5000001    1    1    2    0    0  0.88229379767E+02  0.16979710656E+03 -0.71847568512E+03  0.74749701735E+03  0.77000000000E+02 0.  0.
<mgrwt>
<rscale>  0 0.41326728E+03</rscale>
<asrwt>0</asrwt>
<pdfrwt beam="1">  1        2 0.23989359E+00 0.41326728E+03</pdfrwt>
<pdfrwt beam="2">  1       -2 0.42126628E-02 0.41326728E+03</pdfrwt>
<totfact> 0.32217616E+03</totfact>
</mgrwt>
</event>
<event>
 4    1  0.4751076E-004  0.2237271E+03  0.7818608E-02  0.1131134E+00
          2   -1    0    0  501    0  0.00000000000E+00  0.00000000000E+00  0.80546160069E+02  0.80546160109E+02  0.25500000000E-02 0.  1.
         -2   -1    0    0    0  501 -0.00000000000E+00 -0.00000000000E+00 -0.15535750050E+03  0.15535750052E+03  0.25500000000E-02 0. -1.
    5000001    1    1    2    0    0  0.69441779292E+02  0.22848121212E+02 -0.74539629049E+02  0.12972799872E+03  0.77000000000E+02 0.  0.
   -5000001    1    1    2    0    0 -0.69441779292E+02 -0.22848121212E+02 -0.27171138190E+00  0.10617566191E+03  0.77000000000E+02 0.  0.
<mgrwt>
<rscale>  0 0.22372707E+03</rscale>
<asrwt>0</asrwt>
<pdfrwt beam="1">  1        2 0.12391717E-01 0.22372707E+03</pdfrwt>
<pdfrwt beam="2">  1       -2 0.23901154E-01 0.22372707E+03</pdfrwt>
<totfact> 0.74026425E+03</totfact>
</mgrwt>
</event>
<event>
 4    1  0.4751076E-004  0.2186343E+03  0.7818608E-02  0.1134905E+00
          2   -1    0    0  501    0  0.00000000000E+00  0.00000000000E+00  0.64142189864E+03  0.64142189864E+03  0.25500000000E-02 0.  1.
         -2   -1    0    0    0  501 -0.00000000000E+00 -0.00000000000E+00 -0.18630852858E+02  0.18630853032E+02  0.25500000000E-02 0. -1.
    5000001    1    1    2    0    0 -0.70842303966E+02  0.25125900379E+02  0.25322279151E+03  0.27513764745E+03  0.77000000000E+02 0.  0.
   -5000001    1    1    2    0    0  0.70842303966E+02 -0.25125900379E+02  0.36956825427E+03  0.38491510423E+03  0.77000000000E+02 0.  0.
<mgrwt>
<rscale>  0 0.21863428E+03</rscale>
<asrwt>0</asrwt>
<pdfrwt beam="1">  1        2 0.98680296E-01 0.21863428E+03</pdfrwt>
<pdfrwt beam="2">  1       -2 0.28662850E-02 0.21863428E+03</pdfrwt>
<totfact> 0.20710166E+04</totfact>
</mgrwt>
</event>
<event>
 4    1  0.4751076E-004  0.1742205E+03  0.7818608E-02  0.1173517E+00
          2   -1    0    0  501    0  0.00000000000E+00  0.00000000000E+00  0.13097242529E+04  0.13097242529E+04  0.25500000000E-02 0.  1.
         -2   -1    0    0    0  501 -0.00000000000E+00 -0.00000000000E+00 -0.57937324534E+01  0.57937330146E+01  0.25500000000E-02 0. -1.
    5000001    1    1    2    0    0  0.39761389515E+02  0.54244430009E+01  0.70471323272E+03  0.71004234595E+03  0.77000000000E+02 0.  0.
   -5000001    1    1    2    0    0 -0.39761389515E+02 -0.54244430009E+01  0.59921728778E+03  0.60547564001E+03  0.77000000000E+02 0.  0.
<mgrwt>
<rscale>  0 0.17422046E+03</rscale>
<asrwt>0</asrwt>
<pdfrwt beam="1">  1        2 0.20149613E+00 0.17422046E+03</pdfrwt>
<pdfrwt beam="2">  1       -2 0.89134310E-03 0.17422046E+03</pdfrwt>
<totfact> 0.42288645E+04</totfact>
</mgrwt>
</event>
<event>
 4    1  0.4751076E-004  0.2340525E+03  0.7818608E-02  0.1123820E+00
          2   -1    0    0  501    0  0.00000000000E+00  0.00000000000E+00  0.11722287491E+04  0.11722287491E+04  0.25500000000E-02 0.  1.
         -2   -1    0    0    0  501 -0.00000000000E+00 -0.00000000000E+00 -0.11682995470E+02  0.11682995748E+02  0.25500000000E-02 0. -1.
    5000001    1    1    2    0    0 -0.50488521678E+02 -0.12881435643E+02  0.93977373699E+03  0.94436152978E+03  0.77000000000E+02 0.  0.
   -5000001    1    1    2    0    0  0.50488521678E+02  0.12881435643E+02  0.22077201662E+03  0.23955021505E+03  0.77000000000E+02 0.  0.
<mgrwt>
<rscale>  0 0.23405250E+03</rscale>
<asrwt>0</asrwt>
<pdfrwt beam="1">  1        2 0.18034297E+00 0.23405250E+03</pdfrwt>
<pdfrwt beam="2">  1       -2 0.17973831E-02 0.23405250E+03</pdfrwt>
<totfact> 0.18582728E+04</totfact>
</mgrwt>
</event>
<event>
 4    1  0.4751076E-004  0.2480124E+03  0.7818608E-02  0.1114567E+00
         -2   -1    0    0    0  501 -0.00000000000E+00  0.00000000000E+00  0.21779952486E+02  0.21779952635E+02  0.25500000000E-02 0. -1.
          2   -1    0    0  501    0  0.00000000000E+00 -0.00000000000E+00 -0.70604066378E+03  0.70604066379E+03  0.25500000000E-02 0.  1.
    5000001    1    1    2    0    0  0.25371711340E+02 -0.91960802258E+02 -0.39687639262E+03  0.41537980681E+03  0.77000000000E+02 0.  0.
   -5000001    1    1    2    0    0 -0.25371711340E+02  0.91960802258E+02 -0.28738431868E+03  0.31244080962E+03  0.77000000000E+02 0.  0.
<mgrwt>
<rscale>  0 0.24801236E+03</rscale>
<asrwt>0</asrwt>
<pdfrwt beam="1">  1        2 0.10862162E+00 0.24801236E+03</pdfrwt>
<pdfrwt beam="2">  1       -2 0.33507625E-02 0.24801236E+03</pdfrwt>
<totfact> 0.14744862E+04</totfact>
</mgrwt>
</event>
<event>
 4    1  0.4751076E-004  0.5038111E+03  0.7818608E-02  0.1012789E+00
         -2   -1    0    0    0  501 -0.00000000000E+00  0.00000000000E+00  0.24332482849E+02  0.24332482983E+02  0.25500000000E-02 0. -1.
          2   -1    0    0  501    0  0.00000000000E+00 -0.00000000000E+00 -0.26078891564E+04  0.26078891564E+04  0.25500000000E-02 0.  1.
    5000001    1    1    2    0    0 -0.20604232561E+03 -0.78265017094E+02 -0.79754573223E+03  0.83101567244E+03  0.77000000000E+02 0.  0.
   -5000001    1    1    2    0    0  0.20604232561E+03  0.78265017094E+02 -0.17860109413E+04  0.18012059669E+04  0.77000000000E+02 0.  0.
<mgrwt>
<rscale>  0 0.50381115E+03</rscale>
<asrwt>0</asrwt>
<pdfrwt beam="1">  1        2 0.40121350E+00 0.50381115E+03</pdfrwt>
<pdfrwt beam="2">  1       -2 0.37434610E-02 0.50381115E+03</pdfrwt>
<totfact> 0.10329898E+03</totfact>
</mgrwt>
</event>
<event>
 4    1  0.4751076E-004  0.2588292E+03  0.7818608E-02  0.1107849E+00
         -2   -1    0    0    0  501 -0.00000000000E+00  0.00000000000E+00  0.92464366772E+02  0.92464366807E+02  0.25500000000E-02 0. -1.
          2   -1    0    0  501    0  0.00000000000E+00 -0.00000000000E+00 -0.18113072850E+03  0.18113072851E+03  0.25500000000E-02 0.  1.
    5000001    1    1    2    0    0 -0.11666407257E+02 -0.98314468477E+02 -0.78047874308E+02  0.14772376401E+03  0.77000000000E+02 0.  0.
   -5000001    1    1    2    0    0  0.11666407257E+02  0.98314468477E+02 -0.10618487417E+02  0.12587133131E+03  0.77000000000E+02 0.  0.
<mgrwt>
<rscale>  0 0.25882920E+03</rscale>
<asrwt>0</asrwt>
<pdfrwt beam="1">  1        2 0.27866266E-01 0.25882920E+03</pdfrwt>
<pdfrwt beam="2">  1       -2 0.14225287E-01 0.25882920E+03</pdfrwt>
<totfact> 0.70359202E+03</totfact>
</mgrwt>
</event>
<event>
 4    1  0.4751076E-004  0.3002567E+03  0.7818608E-02  0.1085112E+00
          2   -1    0    0  501    0  0.00000000000E+00  0.00000000000E+00  0.22206311892E+03  0.22206311893E+03  0.25500000000E-02 0.  1.
         -2   -1    0    0    0  501 -0.00000000000E+00 -0.00000000000E+00 -0.10149604761E+03  0.10149604764E+03  0.25500000000E-02 0. -1.
    5000001    1    1    2    0    0 -0.24680701560E+02 -0.12431157741E+03  0.85487215685E+02  0.17117116975E+03  0.77000000000E+02 0.  0.
   -5000001    1    1    2    0    0  0.24680701560E+02  0.12431157741E+03  0.35079855623E+02  0.15238799683E+03  0.77000000000E+02 0.  0.
<mgrwt>
<rscale>  0 0.30025675E+03</rscale>
<asrwt>0</asrwt>
<pdfrwt beam="1">  1        2 0.34163557E-01 0.30025675E+03</pdfrwt>
<pdfrwt beam="2">  1       -2 0.15614777E-01 0.30025675E+03</pdfrwt>
<totfact> 0.48498413E+03</totfact>
</mgrwt>
</event>
<event>
 4    1  0.4751076E-004  0.1719280E+03  0.7818608E-02  0.1175852E+00
         -2   -1    0    0    0  501 -0.00000000000E+00  0.00000000000E+00  0.14583122225E+02  0.14583122448E+02  0.25500000000E-02 0. -1.
          2   -1    0    0  501    0  0.00000000000E+00 -0.00000000000E+00 -0.50673685213E+03  0.50673685214E+03  0.25500000000E-02 0.  1.
    5000001    1    1    2    0    0  0.65265576998E+01  0.36885744885E+02 -0.22305382240E+03  0.23892501296E+03  0.77000000000E+02 0.  0.
   -5000001    1    1    2    0    0 -0.65265576998E+01 -0.36885744885E+02 -0.26909990751E+03  0.28239496163E+03  0.77000000000E+02 0.  0.
<mgrwt>
<rscale>  0 0.17192796E+03</rscale>
<asrwt>0</asrwt>
<pdfrwt beam="1">  1        2 0.77959502E-01 0.17192796E+03</pdfrwt>
<pdfrwt beam="2">  1       -2 0.22435577E-02 0.17192796E+03</pdfrwt>
<totfact> 0.38129218E+04</totfact>
</mgrwt>
</event>
<event>
 4    1  0.4751076E-004  0.1887487E+03  0.7818608E-02  0.1159595E+00
          2   -1    0    0  501    0  0.00000000000E+00  0.00000000000E+00  0.30779789616E+03  0.30779789618E+03  0.25500000000E-02 0.  1.
         -2   -1    0    0    0  501 -0.00000000000E+00 -0.00000000000E+00 -0.28936252076E+02  0.28936252189E+02  0.25500000000E-02 0. -1.
    5000001    1    1    2    0    0 -0.28117244604E+02  0.46665795696E+02  0.14485428653E+03  0.17285843994E+03  0.77000000000E+02 0.  0.
   -5000001    1    1    2    0    0  0.28117244604E+02 -0.46665795696E+02  0.13400735756E+03  0.16387570842E+03  0.77000000000E+02 0.  0.
<mgrwt>
<rscale>  0 0.18874870E+03</rscale>
<asrwt>0</asrwt>
<pdfrwt beam="1">  1        2 0.47353521E-01 0.18874870E+03</pdfrwt>
<pdfrwt beam="2">  1       -2 0.44517313E-02 0.18874870E+03</pdfrwt>
<totfact> 0.23874499E+04</totfact>
</mgrwt>
</event>
<event>
 4    1  0.4751076E-004  0.2064308E+03  0.7818608E-02  0.1144424E+00
         -2   -1    0    0    0  501 -0.00000000000E+00  0.00000000000E+00  0.51548663058E+01  0.51548669365E+01  0.25500000000E-02 0. -1.
          2   -1    0    0  501    0  0.00000000000E+00 -0.00000000000E+00 -0.20666712893E+04  0.20666712893E+04  0.25500000000E-02 0.  1.
    5000001    1    1    2    0    0 -0.25443243633E+02  0.55252507311E+02 -0.13519576741E+04  0.13555142016E+04  0.77000000000E+02 0.  0.
   -5000001    1    1    2    0    0  0.25443243633E+02 -0.55252507311E+02 -0.70955874899E+03  0.71631195472E+03  0.77000000000E+02 0.  0.
<mgrwt>
<rscale>  0 0.20643076E+03</rscale>
<asrwt>0</asrwt>
<pdfrwt beam="1">  1        2 0.31794877E+00 0.20643076E+03</pdfrwt>
<pdfrwt beam="2">  1       -2 0.79305805E-03 0.20643076E+03</pdfrwt>
<totfact> 0.20252641E+04</totfact>
</mgrwt>
</event>
<event>
 4    1  0.4751076E-004  0.2694741E+03  0.7818608E-02  0.1101581E+00
         -2   -1    0    0    0  501 -0.00000000000E+00  0.00000000000E+00  0.27198824798E+02  0.27198824917E+02  0.25500000000E-02 0. -1.
          2   -1    0    0  501    0  0.00000000000E+00 -0.00000000000E+00 -0.66745820428E+03  0.66745820429E+03  0.25500000000E-02 0.  1.
    5000001    1    1    2    0    0 -0.98907426260E+02 -0.12550967221E+02 -0.19690879193E+03  0.23375687816E+03  0.77000000000E+02 0.  0.
   -5000001    1    1    2    0    0  0.98907426260E+02  0.12550967221E+02 -0.44335058756E+03  0.46090015105E+03  0.77000000000E+02 0.  0.
<mgrwt>
<rscale>  0 0.26947415E+03</rscale>
<asrwt>0</asrwt>
<pdfrwt beam="1">  1        2 0.10268587E+00 0.26947415E+03</pdfrwt>
<pdfrwt beam="2">  1       -2 0.41844351E-02 0.26947415E+03</pdfrwt>
<totfact> 0.11348723E+04</totfact>
</mgrwt>
</event>
<event>
 4    1  0.4751076E-004  0.2991788E+03  0.7818608E-02  0.1085652E+00
         -2   -1    0    0    0  501 -0.00000000000E+00  0.00000000000E+00  0.20495732310E+03  0.20495732312E+03  0.25500000000E-02 0. -1.
          2   -1    0    0  501    0  0.00000000000E+00 -0.00000000000E+00 -0.10917879916E+03  0.10917879919E+03  0.25500000000E-02 0.  1.
    5000001    1    1    2    0    0 -0.26012112538E+02 -0.12187237154E+03  0.16067509114E+02  0.14736576873E+03  0.77000000000E+02 0.  0.
   -5000001    1    1    2    0    0  0.26012112538E+02  0.12187237154E+03  0.79711014830E+02  0.16677035357E+03  0.77000000000E+02 0.  0.
<mgrwt>
<rscale>  0 0.29917884E+03</rscale>
<asrwt>0</asrwt>
<pdfrwt beam="1">  1        2 0.16796738E-01 0.29917884E+03</pdfrwt>
<pdfrwt beam="2">  1       -2 0.31531896E-01 0.29917884E+03</pdfrwt>
<totfact> 0.31746027E+03</totfact>
</mgrwt>
</event>
<event>
 4    1  0.4751076E-004  0.2059316E+03  0.7818608E-02  0.1144829E+00
          2   -1    0    0  501    0  0.00000000000E+00  0.00000000000E+00  0.63957103152E+03  0.63957103152E+03  0.25500000000E-02 0.  1.
         -2   -1    0    0    0  501 -0.00000000000E+00 -0.00000000000E+00 -0.16576669319E+02  0.16576669516E+02  0.25500000000E-02 0. -1.
    5000001    1    1    2    0    0  0.60740161546E+02  0.20795343562E+02  0.38629882394E+03  0.39909597206E+03  0.77000000000E+02 0.  0.
   -5000001    1    1    2    0    0 -0.60740161546E+02 -0.20795343562E+02  0.23669553825E+03  0.25705172897E+03  0.77000000000E+02 0.  0.
<mgrwt>
<rscale>  0 0.20593162E+03</rscale>
<asrwt>0</asrwt>
<pdfrwt beam="1">  1        2 0.98395533E-01 0.20593162E+03</pdfrwt>
<pdfrwt beam="2">  1       -2 0.25502571E-02 0.20593162E+03</pdfrwt>
<totfact> 0.24596239E+04</totfact>
</mgrwt>
</event>
<event>
 4    1  0.4751076E-004  0.1849483E+03  0.7818608E-02  0.1163098E+00
          2   -1    0    0  501    0  0.00000000000E+00  0.00000000000E+00  0.96217586148E+01  0.96217589527E+01  0.25500000000E-02 0.  1.
         -2   -1    0    0    0  501 -0.00000000000E+00 -0.00000000000E+00 -0.88876400996E+03  0.88876400996E+03  0.25500000000E-02 0. -1.
    5000001    1    1    2    0    0 -0.32675915774E+02  0.39242619486E+02 -0.45824203098E+03  0.46746385701E+03  0.77000000000E+02 0.  0.
   -5000001    1    1    2    0    0  0.32675915774E+02 -0.39242619486E+02 -0.42090022037E+03  0.43092191191E+03  0.77000000000E+02 0.  0.
<mgrwt>
<rscale>  0 0.18494835E+03</rscale>
<asrwt>0</asrwt>
<pdfrwt beam="1">  1        2 0.14802713E-02 0.18494835E+03</pdfrwt>
<pdfrwt beam="2">  1       -2 0.13673286E+00 0.18494835E+03</pdfrwt>
<totfact> 0.32610059E+03</totfact>
</mgrwt>
</event>
<event>
 4    1  0.4751076E-004  0.3745581E+03  0.7818608E-02  0.1052964E+00
          2   -1    0    0  501    0  0.00000000000E+00  0.00000000000E+00  0.12331529544E+04  0.12331529544E+04  0.25500000000E-02 0.  1.
         -2   -1    0    0    0  501 -0.00000000000E+00 -0.00000000000E+00 -0.28442086935E+02  0.28442087050E+02  0.25500000000E-02 0. -1.
    5000001    1    1    2    0    0  0.16216483290E+03  0.35037841982E+02  0.73789700171E+03  0.76022764257E+03  0.77000000000E+02 0.  0.
   -5000001    1    1    2    0    0 -0.16216483290E+03 -0.35037841982E+02  0.46681386576E+03  0.50136739889E+03  0.77000000000E+02 0.  0.
<mgrwt>
<rscale>  0 0.37455811E+03</rscale>
<asrwt>0</asrwt>
<pdfrwt beam="1">  1        2 0.18971584E+00 0.37455811E+03</pdfrwt>
<pdfrwt beam="2">  1       -2 0.43757057E-02 0.37455811E+03</pdfrwt>
<totfact> 0.46065847E+03</totfact>
</mgrwt>
</event>
<event>
 4    1  0.4751076E-004  0.1992117E+03  0.7818608E-02  0.1150406E+00
          2   -1    0    0  501    0  0.00000000000E+00  0.00000000000E+00  0.34525610163E+03  0.34525610164E+03  0.25500000000E-02 0.  1.
         -2   -1    0    0    0  501 -0.00000000000E+00 -0.00000000000E+00 -0.28736147417E+02  0.28736147530E+02  0.25500000000E-02 0. -1.
    5000001    1    1    2    0    0 -0.15656670753E+02 -0.58137903579E+02  0.12228595596E+03  0.15655031842E+03  0.77000000000E+02 0.  0.
   -5000001    1    1    2    0    0  0.15656670753E+02  0.58137903579E+02  0.19423399825E+03  0.21744193075E+03  0.77000000000E+02 0.  0.
<mgrwt>
<rscale>  0 0.19921175E+03</rscale>
<asrwt>0</asrwt>
<pdfrwt beam="1">  1        2 0.53116321E-01 0.19921175E+03</pdfrwt>
<pdfrwt beam="2">  1       -2 0.44209460E-02 0.19921175E+03</pdfrwt>
<totfact> 0.21425692E+04</totfact>
</mgrwt>
</event>
<event>
 4    1  0.4751076E-004  0.2456150E+03  0.7818608E-02  0.1116108E+00
         -2   -1    0    0    0  501 -0.00000000000E+00  0.00000000000E+00  0.20363794246E+02  0.20363794405E+02  0.25500000000E-02 0. -1.
          2   -1    0    0  501    0  0.00000000000E+00 -0.00000000000E+00 -0.74061242037E+03  0.74061242037E+03  0.25500000000E-02 0.  1.
    5000001    1    1    2    0    0 -0.35057542210E+02  0.74794188344E+02 -0.50966021203E+03  0.52202081721E+03  0.77000000000E+02 0.  0.
   -5000001    1    1    2    0    0  0.35057542210E+02 -0.74794188344E+02 -0.21058841409E+03  0.23895539756E+03  0.77000000000E+02 0.  0.
<mgrwt>
<rscale>  0 0.24561498E+03</rscale>
<asrwt>0</asrwt>
<pdfrwt beam="1">  1        2 0.11394035E+00 0.24561498E+03</pdfrwt>
<pdfrwt beam="2">  1       -2 0.31328920E-02 0.24561498E+03</pdfrwt>
<totfact> 0.15365478E+04</totfact>
</mgrwt>
</event>
<event>
 4    1  0.4751076E-004  0.2557201E+03  0.7818608E-02  0.1109742E+00
          2   -1    0    0  501    0  0.00000000000E+00  0.00000000000E+00  0.36270546791E+03  0.36270546791E+03  0.25500000000E-02 0.  1.
         -2   -1    0    0    0  501 -0.00000000000E+00 -0.00000000000E+00 -0.45072908654E+02  0.45072908727E+02  0.25500000000E-02 0. -1.
    5000001    1    1    2    0    0  0.94158732124E+02 -0.15500311021E+02  0.10103298585E+03  0.15887979955E+03  0.77000000000E+02 0.  0.
   -5000001    1    1    2    0    0 -0.94158732124E+02  0.15500311021E+02  0.21659957341E+03  0.24889857709E+03  0.77000000000E+02 0.  0.
<mgrwt>
<rscale>  0 0.25572008E+03</rscale>
<asrwt>0</asrwt>
<pdfrwt beam="1">  1        2 0.55800842E-01 0.25572008E+03</pdfrwt>
<pdfrwt beam="2">  1       -2 0.69342935E-02 0.25572008E+03</pdfrwt>
<totfact> 0.10388935E+04</totfact>
</mgrwt>
</event>
<event>
 4    1  0.4751076E-004  0.2114035E+03  0.7818608E-02  0.1140459E+00
         -2   -1    0    0    0  501 -0.00000000000E+00  0.00000000000E+00  0.36670486000E+02  0.36670486089E+02  0.25500000000E-02 0. -1.
          2   -1    0    0  501    0  0.00000000000E+00 -0.00000000000E+00 -0.30468268396E+03  0.30468268397E+03  0.25500000000E-02 0.  1.
    5000001    1    1    2    0    0 -0.57417558215E+01 -0.69548372870E+02 -0.16522948645E+03  0.19519151396E+03  0.77000000000E+02 0.  0.
   -5000001    1    1    2    0    0  0.57417558215E+01  0.69548372870E+02 -0.10278271151E+03  0.14616165610E+03  0.77000000000E+02 0.  0.
<mgrwt>
<rscale>  0 0.21140352E+03</rscale>
<asrwt>0</asrwt>
<pdfrwt beam="1">  1        2 0.46874257E-01 0.21140352E+03</pdfrwt>
<pdfrwt beam="2">  1       -2 0.56416134E-02 0.21140352E+03</pdfrwt>
<totfact> 0.17009720E+04</totfact>
</mgrwt>
</event>
<event>
 4    1  0.4751076E-004  0.1974080E+03  0.7818608E-02  0.1151945E+00
          2   -1    0    0  501    0  0.00000000000E+00  0.00000000000E+00  0.18909617383E+03  0.18909617385E+03  0.25500000000E-02 0.  1.
         -2   -1    0    0    0  501 -0.00000000000E+00 -0.00000000000E+00 -0.51521281539E+02  0.51521281602E+02  0.25500000000E-02 0. -1.
    5000001    1    1    2    0    0 -0.60432109969E+02 -0.11821261590E+02  0.63110130381E+02  0.11706267850E+03  0.77000000000E+02 0.  0.
   -5000001    1    1    2    0    0  0.60432109969E+02  0.11821261590E+02  0.74464761912E+02  0.12355477695E+03  0.77000000000E+02 0.  0.
<mgrwt>
<rscale>  0 0.19740798E+03</rscale>
<asrwt>0</asrwt>
<pdfrwt beam="1">  1        2 0.29091720E-01 0.19740798E+03</pdfrwt>
<pdfrwt beam="2">  1       -2 0.79263508E-02 0.19740798E+03</pdfrwt>
<totfact> 0.16788287E+04</totfact>
</mgrwt>
</event>
<event>
 4    1  0.4751076E-004  0.2104765E+03  0.7818608E-02  0.1141189E+00
          2   -1    0    0  501    0  0.00000000000E+00  0.00000000000E+00  0.27558784398E+03  0.27558784400E+03  0.25500000000E-02 0.  1.
         -2   -1    0    0    0  501 -0.00000000000E+00 -0.00000000000E+00 -0.40187134977E+02  0.40187135058E+02  0.25500000000E-02 0. -1.
    5000001    1    1    2    0    0 -0.49006005165E+02  0.50208835464E+02  0.95267676458E+02  0.14116460562E+03  0.77000000000E+02 0.  0.
   -5000001    1    1    2    0    0  0.49006005165E+02 -0.50208835464E+02  0.14013303255E+03  0.17461037344E+03  0.77000000000E+02 0.  0.
<mgrwt>
<rscale>  0 0.21047647E+03</rscale>
<asrwt>0</asrwt>
<pdfrwt beam="1">  1        2 0.42398129E-01 0.21047647E+03</pdfrwt>
<pdfrwt beam="2">  1       -2 0.61826363E-02 0.21047647E+03</pdfrwt>
<totfact> 0.16462761E+04</totfact>
</mgrwt>
</event>
<event>
 4    1  0.4751076E-004  0.4071160E+03  0.7818608E-02  0.1041343E+00
         -2   -1    0    0    0  501 -0.00000000000E+00  0.00000000000E+00  0.87724219958E+03  0.87724219959E+03  0.25500000000E-02 0.  1.
          2   -1    0    0  501    0  0.00000000000E+00 -0.00000000000E+00 -0.47234225893E+02  0.47234225962E+02  0.25500000000E-02 0. -1.
    5000001    1    1    2    0    0 -0.51714276427E+02 -0.18048600015E+03  0.37857960483E+03  0.42953588887E+03  0.77000000000E+02 0.  0.
   -5000001    1    1    2    0    0  0.51714276427E+02  0.18048600015E+03  0.45142836886E+03  0.49494053667E+03  0.77000000000E+02 0.  0.
<mgrwt>
<rscale>  0 0.40711598E+03</rscale>
<asrwt>0</asrwt>
<pdfrwt beam="1">  1        2 0.72668047E-02 0.40711598E+03</pdfrwt>
<pdfrwt beam="2">  1       -2 0.13496033E+00 0.40711598E+03</pdfrwt>
<totfact> 0.40132887E+02</totfact>
</mgrwt>
</event>
<event>
 4    1  0.4751076E-004  0.2060016E+03  0.7818608E-02  0.1144772E+00
         -2   -1    0    0    0  501 -0.00000000000E+00  0.00000000000E+00  0.93392107256E+01  0.93392110737E+01  0.25500000000E-02 0. -1.
          2   -1    0    0  501    0  0.00000000000E+00 -0.00000000000E+00 -0.11359810433E+04  0.11359810433E+04  0.25500000000E-02 0.  1.
    5000001    1    1    2    0    0  0.35794089544E+02 -0.58211724377E+02 -0.58120300611E+03  0.59025058747E+03  0.77000000000E+02 0.  0.
   -5000001    1    1    2    0    0 -0.35794089544E+02  0.58211724377E+02 -0.54543882647E+03  0.55506966691E+03  0.77000000000E+02 0.  0.
<mgrwt>
<rscale>  0 0.20600162E+03</rscale>
<asrwt>0</asrwt>
<pdfrwt beam="1">  1        2 0.17476620E+00 0.20600162E+03</pdfrwt>
<pdfrwt beam="2">  1       -2 0.14368026E-02 0.20600162E+03</pdfrwt>
<totfact> 0.26833104E+04</totfact>
</mgrwt>
</event>
<event>
 4    1  0.4751076E-004  0.4508563E+03  0.7818608E-02  0.1027467E+00
         -2   -1    0    0    0  501 -0.00000000000E+00  0.00000000000E+00  0.36568283587E+03  0.36568283588E+03  0.25500000000E-02 0. -1.
          2   -1    0    0  501    0  0.00000000000E+00 -0.00000000000E+00 -0.13896698281E+03  0.13896698284E+03  0.25500000000E-02 0.  1.
    5000001    1    1    2    0    0  0.67774573040E+02  0.14308118248E+03 -0.44235883452E+02  0.18152529002E+03  0.77000000000E+02 0.  0.
   -5000001    1    1    2    0    0 -0.67774573040E+02 -0.14308118248E+03  0.27095173651E+03  0.32312452870E+03  0.77000000000E+02 0.  0.
<mgrwt>
<rscale>  0 0.45085625E+03</rscale>
<asrwt>0</asrwt>
<pdfrwt beam="1">  1        2 0.21379536E-01 0.45085625E+03</pdfrwt>
<pdfrwt beam="2">  1       -2 0.56258898E-01 0.45085625E+03</pdfrwt>
<totfact> 0.78228500E+02</totfact>
</mgrwt>
</event>
<event>
 4    1  0.4751076E-004  0.1859060E+03  0.7818608E-02  0.1162207E+00
          2   -1    0    0  501    0  0.00000000000E+00  0.00000000000E+00  0.13840322248E+04  0.13840322248E+04  0.25500000000E-02 0.  1.
         -2   -1    0    0    0  501 -0.00000000000E+00 -0.00000000000E+00 -0.62428148624E+01  0.62428153832E+01  0.25500000000E-02 0. -1.
    5000001    1    1    2    0    0  0.34242599091E+02 -0.31353289447E+02  0.86518037969E+03  0.86984002768E+03  0.77000000000E+02 0.  0.
   -5000001    1    1    2    0    0 -0.34242599091E+02  0.31353289447E+02  0.51260903026E+03  0.52043501251E+03  0.77000000000E+02 0.  0.
<mgrwt>
<rscale>  0 0.18590597E+03</rscale>
<asrwt>0</asrwt>
<pdfrwt beam="1">  1        2 0.21292807E+00 0.18590597E+03</pdfrwt>
<pdfrwt beam="2">  1       -2 0.96043294E-03 0.18590597E+03</pdfrwt>
<totfact> 0.34790484E+04</totfact>
</mgrwt>
</event>
<event>
 4    1  0.4751076E-004  0.2594853E+03  0.7818608E-02  0.1107453E+00
          2   -1    0    0  501    0  0.00000000000E+00  0.00000000000E+00  0.25461248837E+03  0.25461248838E+03  0.25500000000E-02 0.  1.
         -2   -1    0    0    0  501 -0.00000000000E+00 -0.00000000000E+00 -0.66112821552E+02  0.66112821601E+02  0.25500000000E-02 0. -1.
    5000001    1    1    2    0    0 -0.45838870713E+02  0.80427481147E+02  0.15396782902E+03  0.19546067166E+03  0.77000000000E+02 0.  0.
   -5000001    1    1    2    0    0  0.45838870713E+02 -0.80427481147E+02  0.34531837789E+02  0.12526463832E+03  0.77000000000E+02 0.  0.
<mgrwt>
<rscale>  0 0.25948526E+03</rscale>
<asrwt>0</asrwt>
<pdfrwt beam="1">  1        2 0.39171152E-01 0.25948526E+03</pdfrwt>
<pdfrwt beam="2">  1       -2 0.10171203E-01 0.25948526E+03</pdfrwt>
<totfact> 0.83456475E+03</totfact>
</mgrwt>
</event>
<event>
 4    1  0.4751076E-004  0.2977035E+03  0.7818608E-02  0.1086394E+00
          2   -1    0    0  501    0  0.00000000000E+00  0.00000000000E+00  0.25433312166E+04  0.25433312166E+04  0.25500000000E-02 0.  1.
         -2   -1    0    0    0  501 -0.00000000000E+00 -0.00000000000E+00 -0.87117421250E+01  0.87117424982E+01  0.25500000000E-02 0. -1.
    5000001    1    1    2    0    0  0.95704855376E+01 -0.92288840927E+02  0.20155716201E+04  0.20191747770E+04  0.77000000000E+02 0.  0.
   -5000001    1    1    2    0    0 -0.95704855376E+01  0.92288840927E+02  0.51904785434E+03  0.53286818206E+03  0.77000000000E+02 0.  0.
<mgrwt>
<rscale>  0 0.29770352E+03</rscale>
<asrwt>0</asrwt>
<pdfrwt beam="1">  1        2 0.39128256E+00 0.29770352E+03</pdfrwt>
<pdfrwt beam="2">  1       -2 0.13402652E-02 0.29770352E+03</pdfrwt>
<totfact> 0.52785152E+03</totfact>
</mgrwt>
</event>
<event>
 4    1  0.4751076E-004  0.2702226E+03  0.7818608E-02  0.1101152E+00
          2   -1    0    0  501    0  0.00000000000E+00  0.00000000000E+00  0.95416468991E+02  0.95416469025E+02  0.25500000000E-02 0.  1.
         -2   -1    0    0    0  501 -0.00000000000E+00 -0.00000000000E+00 -0.19131982334E+03  0.19131982335E+03  0.25500000000E-02 0. -1.
    5000001    1    1    2    0    0 -0.12505530985E+02  0.79675249130E+02 -0.12891335926E+03  0.17044702351E+03  0.77000000000E+02 0.  0.
   -5000001    1    1    2    0    0  0.12505530985E+02 -0.79675249130E+02  0.33010004912E+02  0.11628926887E+03  0.77000000000E+02 0.  0.
<mgrwt>
<rscale>  0 0.27022259E+03</rscale>
<asrwt>0</asrwt>
<pdfrwt beam="1">  1        2 0.14679457E-01 0.27022259E+03</pdfrwt>
<pdfrwt beam="2">  1       -2 0.29433819E-01 0.27022259E+03</pdfrwt>
<totfact> 0.42068746E+03</totfact>
</mgrwt>
</event>
<event>
 4    1  0.4751076E-004  0.2573268E+03  0.7818608E-02  0.1108760E+00
          2   -1    0    0  501    0  0.00000000000E+00  0.00000000000E+00  0.10914286014E+04  0.10914286014E+04  0.25500000000E-02 0.  1.
         -2   -1    0    0    0  501 -0.00000000000E+00 -0.00000000000E+00 -0.15167524192E+02  0.15167524406E+02  0.25500000000E-02 0. -1.
    5000001    1    1    2    0    0 -0.90987779622E+02  0.42533736265E+02  0.63781854111E+03  0.65025332460E+03  0.77000000000E+02 0.  0.
   -5000001    1    1    2    0    0  0.90987779622E+02 -0.42533736265E+02  0.43844253608E+03  0.45634280120E+03  0.77000000000E+02 0.  0.
<mgrwt>
<rscale>  0 0.25732679E+03</rscale>
<asrwt>0</asrwt>
<pdfrwt beam="1">  1        2 0.16791207E+00 0.25732679E+03</pdfrwt>
<pdfrwt beam="2">  1       -2 0.23334657E-02 0.25732679E+03</pdfrwt>
<totfact> 0.14158290E+04</totfact>
</mgrwt>
</event>
<event>
 4    1  0.4751076E-004  0.2398675E+03  0.7818608E-02  0.1119881E+00
         -2   -1    0    0    0  501 -0.00000000000E+00  0.00000000000E+00  0.22495060980E+03  0.22495060981E+03  0.25500000000E-02 0. -1.
          2   -1    0    0  501    0  0.00000000000E+00 -0.00000000000E+00 -0.63943379964E+02  0.63943380015E+02  0.25500000000E-02 0.  1.
    5000001    1    1    2    0    0 -0.21224890879E+01  0.75495569817E+02  0.14367402719E+03  0.17965331088E+03  0.77000000000E+02 0.  0.
   -5000001    1    1    2    0    0  0.21224890879E+01 -0.75495569817E+02  0.17333202640E+02  0.10924067894E+03  0.77000000000E+02 0.  0.
<mgrwt>
<rscale>  0 0.23986748E+03</rscale>
<asrwt>0</asrwt>
<pdfrwt beam="1">  1        2 0.98374432E-02 0.23986748E+03</pdfrwt>
<pdfrwt beam="2">  1       -2 0.34607786E-01 0.23986748E+03</pdfrwt>
<totfact> 0.50617911E+03</totfact>
</mgrwt>
</event>
<event>
 4    1  0.4751076E-004  0.1905710E+03  0.7818608E-02  0.1157947E+00
         -2   -1    0    0    0  501 -0.00000000000E+00  0.00000000000E+00  0.32912408984E+02  0.32912409083E+02  0.25500000000E-02 0. -1.
          2   -1    0    0  501    0  0.00000000000E+00 -0.00000000000E+00 -0.27586330225E+03  0.27586330226E+03  0.25500000000E-02 0.  1.
    5000001    1    1    2    0    0 -0.50669327333E+02 -0.18816802965E+02 -0.14598772339E+03  0.17367460432E+03  0.77000000000E+02 0.  0.
   -5000001    1    1    2    0    0  0.50669327333E+02  0.18816802965E+02 -0.96963169878E+02  0.13510110702E+03  0.77000000000E+02 0.  0.
<mgrwt>
<rscale>  0 0.19057099E+03</rscale>
<asrwt>0</asrwt>
<pdfrwt beam="1">  1        2 0.42440507E-01 0.19057099E+03</pdfrwt>
<pdfrwt beam="2">  1       -2 0.50634477E-02 0.19057099E+03</pdfrwt>
<totfact> 0.22121270E+04</totfact>
</mgrwt>
</event>
<event>
 4    1  0.4751076E-004  0.2301866E+03  0.7818608E-02  0.1126508E+00
          2   -1    0    0  501    0  0.00000000000E+00  0.00000000000E+00  0.22978651733E+03  0.22978651734E+03  0.25500000000E-02 0.  1.
         -2   -1    0    0    0  501 -0.00000000000E+00 -0.00000000000E+00 -0.57646858771E+02  0.57646858827E+02  0.25500000000E-02 0. -1.
    5000001    1    1    2    0    0 -0.79389920284E+02 -0.31257818390E+02  0.78406829503E+02  0.13912742924E+03  0.77000000000E+02 0.  0.
   -5000001    1    1    2    0    0  0.79389920284E+02  0.31257818390E+02  0.93732829054E+02  0.14830594693E+03  0.77000000000E+02 0.  0.
<mgrwt>
<rscale>  0 0.23018663E+03</rscale>
<asrwt>0</asrwt>
<pdfrwt beam="1">  1        2 0.35351772E-01 0.23018663E+03</pdfrwt>
<pdfrwt beam="2">  1       -2 0.88687474E-02 0.23018663E+03</pdfrwt>
<totfact> 0.11510108E+04</totfact>
</mgrwt>
</event>
<event>
 4    1  0.4751076E-004  0.1959357E+03  0.7818608E-02  0.1153214E+00
          2   -1    0    0  501    0  0.00000000000E+00  0.00000000000E+00  0.11255407131E+03  0.11255407134E+03  0.25500000000E-02 0.  1.
         -2   -1    0    0    0  501 -0.00000000000E+00 -0.00000000000E+00 -0.85271863945E+02  0.85271863983E+02  0.25500000000E-02 0. -1.
    5000001    1    1    2    0    0  0.78313605901E+01 -0.59949022386E+02  0.17348031978E+02  0.99424190755E+02  0.77000000000E+02 0.  0.
   -5000001    1    1    2    0    0 -0.78313605901E+01  0.59949022386E+02  0.99341753894E+01  0.98401744570E+02  0.77000000000E+02 0.  0.
<mgrwt>
<rscale>  0 0.19593566E+03</rscale>
<asrwt>0</asrwt>
<pdfrwt beam="1">  1        2 0.17316011E-01 0.19593566E+03</pdfrwt>
<pdfrwt beam="2">  1       -2 0.13118748E-01 0.19593566E+03</pdfrwt>
<totfact> 0.13534201E+04</totfact>
</mgrwt>
</event>
<event>
 4    1  0.4751076E-004  0.1699095E+03  0.7818608E-02  0.1177942E+00
         -2   -1    0    0    0  501 -0.00000000000E+00  0.00000000000E+00  0.24215612637E+02  0.24215612771E+02  0.25500000000E-02 0. -1.
          2   -1    0    0  501    0  0.00000000000E+00 -0.00000000000E+00 -0.29804375174E+03  0.29804375175E+03  0.25500000000E-02 0.  1.
    5000001    1    1    2    0    0  0.14580606262E+02  0.30749020656E+01 -0.19884676342E+03  0.21375472959E+03  0.77000000000E+02 0.  0.
   -5000001    1    1    2    0    0 -0.14580606262E+02 -0.30749020656E+01 -0.74981375692E+02  0.10850463493E+03  0.77000000000E+02 0.  0.
<mgrwt>
<rscale>  0 0.16990953E+03</rscale>
<asrwt>0</asrwt>
<pdfrwt beam="1">  1        2 0.45852882E-01 0.16990953E+03</pdfrwt>
<pdfrwt beam="2">  1       -2 0.37254791E-02 0.16990953E+03</pdfrwt>
<totfact> 0.31952038E+04</totfact>
</mgrwt>
</event>
<event>
 4    1  0.4751076E-004  0.2469566E+03  0.7818608E-02  0.1115243E+00
          2   -1    0    0  501    0  0.00000000000E+00  0.00000000000E+00  0.84134619044E+02  0.84134619083E+02  0.25500000000E-02 0.  1.
         -2   -1    0    0    0  501 -0.00000000000E+00 -0.00000000000E+00 -0.18122011177E+03  0.18122011179E+03  0.25500000000E-02 0. -1.
    5000001    1    1    2    0    0  0.17867832250E+02 -0.84549679414E+02 -0.23270520348E+01  0.11576840195E+03  0.77000000000E+02 0.  0.
   -5000001    1    1    2    0    0 -0.17867832250E+02  0.84549679414E+02 -0.94758440692E+02  0.14958632892E+03  0.77000000000E+02 0.  0.
<mgrwt>
<rscale>  0 0.24695656E+03</rscale>
<asrwt>0</asrwt>
<pdfrwt beam="1">  1        2 0.12943788E-01 0.24695656E+03</pdfrwt>
<pdfrwt beam="2">  1       -2 0.27880017E-01 0.24695656E+03</pdfrwt>
<totfact> 0.53737179E+03</totfact>
</mgrwt>
</event>
<event>
 4    1  0.4751076E-004  0.1857384E+03  0.7818608E-02  0.1162362E+00
          2   -1    0    0  501    0  0.00000000000E+00  0.00000000000E+00  0.28404777521E+04  0.28404777521E+04  0.25500000000E-02 0.  1.
         -2   -1    0    0    0  501 -0.00000000000E+00 -0.00000000000E+00 -0.30363499991E+01  0.30363510698E+01  0.25500000000E-02 0. -1.
    5000001    1    1    2    0    0 -0.34841509836E+02 -0.24729355627E+01  0.20068108974E+04  0.20085913035E+04  0.77000000000E+02 0.  0.
   -5000001    1    1    2    0    0  0.34841509836E+02  0.24729355627E+01  0.83063050469E+03  0.83492279974E+03  0.77000000000E+02 0.  0.
<mgrwt>
<rscale>  0 0.18573838E+03</rscale>
<asrwt>0</asrwt>
<pdfrwt beam="1">  1        2 0.43699606E+00 0.18573838E+03</pdfrwt>
<pdfrwt beam="2">  1       -2 0.46713141E-03 0.18573838E+03</pdfrwt>
<totfact> 0.16437682E+04</totfact>
</mgrwt>
</event>
<event>
 4    1  0.4751076E-004  0.1909205E+03  0.7818608E-02  0.1157634E+00
          2   -1    0    0  501    0  0.00000000000E+00  0.00000000000E+00  0.25664782514E+04  0.25664782514E+04  0.25500000000E-02 0.  1.
         -2   -1    0    0    0  501 -0.00000000000E+00 -0.00000000000E+00 -0.35506480048E+01  0.35506489205E+01  0.25500000000E-02 0. -1.
    5000001    1    1    2    0    0 -0.27572109083E+02 -0.39400526343E+02  0.88417687397E+03  0.88882527368E+03  0.77000000000E+02 0.  0.
   -5000001    1    1    2    0    0  0.27572109083E+02  0.39400526343E+02  0.16787507295E+04  0.16812036267E+04  0.77000000000E+02 0.  0.
<mgrwt>
<rscale>  0 0.19092053E+03</rscale>
<asrwt>0</asrwt>
<pdfrwt beam="1">  1        2 0.39484253E+00 0.19092053E+03</pdfrwt>
<pdfrwt beam="2">  1       -2 0.54625399E-03 0.19092053E+03</pdfrwt>
<totfact> 0.18690507E+04</totfact>
</mgrwt>
</event>
<event>
 4    1  0.4751076E-004  0.1955943E+03  0.7818608E-02  0.1153510E+00
         -2   -1    0    0    0  501 -0.00000000000E+00  0.00000000000E+00  0.40475684931E+02  0.40475685011E+02  0.25500000000E-02 0. -1.
          2   -1    0    0  501    0  0.00000000000E+00 -0.00000000000E+00 -0.23629693214E+03  0.23629693215E+03  0.25500000000E-02 0.  1.
    5000001    1    1    2    0    0 -0.19037229356E+02  0.57004614382E+02 -0.10474657616E+03  0.14322285914E+03  0.77000000000E+02 0.  0.
   -5000001    1    1    2    0    0  0.19037229356E+02 -0.57004614382E+02 -0.91074671052E+02  0.13354975803E+03  0.77000000000E+02 0.  0.
<mgrwt>
<rscale>  0 0.19559428E+03</rscale>
<asrwt>0</asrwt>
<pdfrwt beam="1">  1        2 0.36353373E-01 0.19559428E+03</pdfrwt>
<pdfrwt beam="2">  1       -2 0.62270286E-02 0.19559428E+03</pdfrwt>
<totfact> 0.19108220E+04</totfact>
</mgrwt>
</event>
<event>
 4    1  0.4751076E-004  0.2062075E+03  0.7818608E-02  0.1144605E+00
          2   -1    0    0  501    0  0.00000000000E+00  0.00000000000E+00  0.45040919534E+03  0.45040919535E+03  0.25500000000E-02 0.  1.
         -2   -1    0    0    0  501 -0.00000000000E+00 -0.00000000000E+00 -0.23601603086E+02  0.23601603224E+02  0.25500000000E-02 0. -1.
    5000001    1    1    2    0    0  0.28028030503E+02  0.62528641136E+02  0.21902395356E+03  0.24206588708E+03  0.77000000000E+02 0.  0.
   -5000001    1    1    2    0    0 -0.28028030503E+02 -0.62528641136E+02  0.20778363869E+03  0.23194491148E+03  0.77000000000E+02 0.  0.
<mgrwt>
<rscale>  0 0.20620746E+03</rscale>
<asrwt>0</asrwt>
<pdfrwt beam="1">  1        2 0.69293720E-01 0.20620746E+03</pdfrwt>
<pdfrwt beam="2">  1       -2 0.36310160E-02 0.20620746E+03</pdfrwt>
<totfact> 0.21639562E+04</totfact>
</mgrwt>
</event>
<event>
 4    1  0.4751076E-004  0.1944571E+03  0.7818608E-02  0.1154502E+00
         -2   -1    0    0    0  501 -0.00000000000E+00  0.00000000000E+00  0.39532196691E+02  0.39532196773E+02  0.25500000000E-02 0. -1.
          2   -1    0    0  501    0  0.00000000000E+00 -0.00000000000E+00 -0.23913150851E+03  0.23913150853E+03  0.25500000000E-02 0.  1.
    5000001    1    1    2    0    0  0.31990228095E+02  0.50000039753E+02 -0.10124352158E+03  0.14036605476E+03  0.77000000000E+02 0.  0.
   -5000001    1    1    2    0    0 -0.31990228095E+02 -0.50000039753E+02 -0.98355790244E+02  0.13829765053E+03  0.77000000000E+02 0.  0.
<mgrwt>
<rscale>  0 0.19445713E+03</rscale>
<asrwt>0</asrwt>
<pdfrwt beam="1">  1        2 0.36789462E-01 0.19445713E+03</pdfrwt>
<pdfrwt beam="2">  1       -2 0.60818766E-02 0.19445713E+03</pdfrwt>
<totfact> 0.19548425E+04</totfact>
</mgrwt>
</event>
<event>
 4    1  0.4751076E-004  0.5231970E+03  0.7818608E-02  0.1007895E+00
          2   -1    0    0  501    0  0.00000000000E+00  0.00000000000E+00  0.24827890646E+04  0.24827890646E+04  0.25500000000E-02 0.  1.
         -2   -1    0    0    0  501 -0.00000000000E+00 -0.00000000000E+00 -0.27563263492E+02  0.27563263610E+02  0.25500000000E-02 0. -1.
    5000001    1    1    2    0    0 -0.61326969583E+02  0.24089115680E+03  0.13559316445E+04  0.13806770699E+04  0.77000000000E+02 0.  0.
   -5000001    1    1    2    0    0  0.61326969583E+02 -0.24089115680E+03  0.10992941566E+04  0.11296752583E+04  0.77000000000E+02 0.  0.
<mgrwt>
<rscale>  0 0.52319698E+03</rscale>
<asrwt>0</asrwt>
<pdfrwt beam="1">  1        2 0.38196770E+00 0.52319698E+03</pdfrwt>
<pdfrwt beam="2">  1       -2 0.42405004E-02 0.52319698E+03</pdfrwt>
<totfact> 0.10022469E+03</totfact>
</mgrwt>
</event>
<event>
 4    1  0.4751076E-004  0.6250588E+03  0.7818608E-02  0.9854739E-01
          2   -1    0    0  501    0  0.00000000000E+00  0.00000000000E+00  0.32177423615E+03  0.32177423616E+03  0.25500000000E-02 0.  1.
         -2   -1    0    0    0  501 -0.00000000000E+00 -0.00000000000E+00 -0.30355016171E+03  0.30355016172E+03  0.25500000000E-02 0. -1.
    5000001    1    1    2    0    0 -0.25882602538E+03 -0.84336645724E+02  0.14199182116E+03  0.31653476665E+03  0.77000000000E+02 0.  0.
   -5000001    1    1    2    0    0  0.25882602538E+03  0.84336645724E+02 -0.12376774672E+03  0.30878963123E+03  0.77000000000E+02 0.  0.
<mgrwt>
<rscale>  0 0.62505879E+03</rscale>
<asrwt>0</asrwt>
<pdfrwt beam="1">  1        2 0.49503729E-01 0.62505879E+03</pdfrwt>
<pdfrwt beam="2">  1       -2 0.46700025E-01 0.62505879E+03</pdfrwt>
<totfact> 0.44523987E+02</totfact>
</mgrwt>
</event>
<event>
 4    1  0.4751076E-004  0.2215027E+03  0.7818608E-02  0.1132768E+00
         -2   -1    0    0    0  501 -0.00000000000E+00  0.00000000000E+00  0.17350449531E+02  0.17350449718E+02  0.25500000000E-02 0. -1.
          2   -1    0    0  501    0  0.00000000000E+00 -0.00000000000E+00 -0.70694753148E+03  0.70694753149E+03  0.25500000000E-02 0.  1.
    5000001    1    1    2    0    0 -0.48665283059E+02 -0.60553668530E+02 -0.40160512174E+03  0.41623398511E+03  0.77000000000E+02 0.  0.
   -5000001    1    1    2    0    0  0.48665283059E+02  0.60553668530E+02 -0.28799196021E+03  0.30806399610E+03  0.77000000000E+02 0.  0.
<mgrwt>
<rscale>  0 0.22150266E+03</rscale>
<asrwt>0</asrwt>
<pdfrwt beam="1">  1        2 0.10876114E+00 0.22150266E+03</pdfrwt>
<pdfrwt beam="2">  1       -2 0.26693005E-02 0.22150266E+03</pdfrwt>
<totfact> 0.20506940E+04</totfact>
</mgrwt>
</event>
<event>
 4    1  0.4751076E-004  0.2158517E+03  0.7818608E-02  0.1137014E+00
         -2   -1    0    0    0  501 -0.00000000000E+00  0.00000000000E+00  0.36504630555E+02  0.36504630644E+02  0.25500000000E-02 0. -1.
          2   -1    0    0  501    0  0.00000000000E+00 -0.00000000000E+00 -0.31908255214E+03  0.31908255215E+03  0.25500000000E-02 0.  1.
    5000001    1    1    2    0    0 -0.34853515736E+01  0.75458083139E+02 -0.14721048957E+03  0.18249931021E+03  0.77000000000E+02 0.  0.
   -5000001    1    1    2    0    0  0.34853515736E+01 -0.75458083139E+02 -0.13536743201E+03  0.17308787259E+03  0.77000000000E+02 0.  0.
<mgrwt>
<rscale>  0 0.21585171E+03</rscale>
<asrwt>0</asrwt>
<pdfrwt beam="1">  1        2 0.49089622E-01 0.21585171E+03</pdfrwt>
<pdfrwt beam="2">  1       -2 0.56160972E-02 0.21585171E+03</pdfrwt>
<totfact> 0.16323845E+04</totfact>
</mgrwt>
</event>
<event>
 4    1  0.4751076E-004  0.2046729E+03  0.7818608E-02  0.1145855E+00
         -2   -1    0    0    0  501 -0.00000000000E+00  0.00000000000E+00  0.38882253880E+03  0.38882253881E+03  0.25500000000E-02 0. -1.
          2   -1    0    0  501    0  0.00000000000E+00 -0.00000000000E+00 -0.26934516417E+02  0.26934516538E+02  0.25500000000E-02 0.  1.
    5000001    1    1    2    0    0  0.48321828526E+02 -0.32090434046E+02  0.11119671307E+03  0.14716828485E+03  0.77000000000E+02 0.  0.
   -5000001    1    1    2    0    0 -0.48321828526E+02  0.32090434046E+02  0.25069130932E+03  0.26858877050E+03  0.77000000000E+02 0.  0.
<mgrwt>
<rscale>  0 0.20467288E+03</rscale>
<asrwt>0</asrwt>
<pdfrwt beam="1">  1        2 0.41437719E-02 0.20467288E+03</pdfrwt>
<pdfrwt beam="2">  1       -2 0.59818850E-01 0.20467288E+03</pdfrwt>
<totfact> 0.52565521E+03</totfact>
</mgrwt>
</event>
<event>
 4    1  0.4751076E-004  0.3467801E+03  0.7818608E-02  0.1063944E+00
          2   -1    0    0  501    0  0.00000000000E+00  0.00000000000E+00  0.46257956105E+02  0.46257956176E+02  0.25500000000E-02 0.  1.
         -2   -1    0    0    0  501 -0.00000000000E+00 -0.00000000000E+00 -0.64992314503E+03  0.64992314504E+03  0.25500000000E-02 0. -1.
    5000001    1    1    2    0    0  0.67415837098E+02 -0.13978171057E+03 -0.31621077723E+03  0.36055800828E+03  0.77000000000E+02 0.  0.
   -5000001    1    1    2    0    0 -0.67415837098E+02  0.13978171057E+03 -0.28745441170E+03  0.33562309293E+03  0.77000000000E+02 0.  0.
<mgrwt>
<rscale>  0 0.34678014E+03</rscale>
<asrwt>0</asrwt>
<pdfrwt beam="1">  1        2 0.71166091E-02 0.34678014E+03</pdfrwt>
<pdfrwt beam="2">  1       -2 0.99988169E-01 0.34678014E+03</pdfrwt>
<totfact> 0.85274730E+02</totfact>
</mgrwt>
</event>
<event>
 4    1  0.4751076E-004  0.1862338E+03  0.7818608E-02  0.1161903E+00
          2   -1    0    0  501    0  0.00000000000E+00  0.00000000000E+00  0.23185125660E+02  0.23185125800E+02  0.25500000000E-02 0.  1.
         -2   -1    0    0    0  501 -0.00000000000E+00 -0.00000000000E+00 -0.37397919003E+03  0.37397919004E+03  0.25500000000E-02 0. -1.
    5000001    1    1    2    0    0  0.19822102623E+02 -0.43989679082E+02 -0.13201806877E+03  0.16026783239E+03  0.77000000000E+02 0.  0.
   -5000001    1    1    2    0    0 -0.19822102623E+02  0.43989679082E+02 -0.21877599560E+03  0.23689648345E+03  0.77000000000E+02 0.  0.
<mgrwt>
<rscale>  0 0.18623377E+03</rscale>
<asrwt>0</asrwt>
<pdfrwt beam="1">  1        2 0.35669427E-02 0.18623377E+03</pdfrwt>
<pdfrwt beam="2">  1       -2 0.57535256E-01 0.18623377E+03</pdfrwt>
<totfact> 0.69131693E+03</totfact>
</mgrwt>
</event>
<event>
 4    1  0.4751076E-004  0.2789514E+03  0.7818608E-02  0.1096263E+00
         -2   -1    0    0    0  501 -0.00000000000E+00  0.00000000000E+00  0.19454562163E+03  0.19454562165E+03  0.25500000000E-02 0. -1.
          2   -1    0    0  501    0  0.00000000000E+00 -0.00000000000E+00 -0.99994370834E+02  0.99994370867E+02  0.25500000000E-02 0.  1.
    5000001    1    1    2    0    0 -0.11407031595E+03  0.65788781984E+01  0.24405376120E+02  0.13992834239E+03  0.77000000000E+02 0.  0.
   -5000001    1    1    2    0    0  0.11407031595E+03 -0.65788781984E+01  0.70145874679E+02  0.15461165013E+03  0.77000000000E+02 0.  0.
<mgrwt>
<rscale>  0 0.27895137E+03</rscale>
<asrwt>0</asrwt>
<pdfrwt beam="1">  1        2 0.15383750E-01 0.27895137E+03</pdfrwt>
<pdfrwt beam="2">  1       -2 0.29930095E-01 0.27895137E+03</pdfrwt>
<totfact> 0.38647763E+03</totfact>
</mgrwt>
</event>
<event>
 4    1  0.4751076E-004  0.2351244E+03  0.7818608E-02  0.1123084E+00
         -2   -1    0    0    0  501 -0.00000000000E+00  0.00000000000E+00  0.29280639277E+02  0.29280639388E+02  0.25500000000E-02 0. -1.
          2   -1    0    0  501    0  0.00000000000E+00 -0.00000000000E+00 -0.47201379411E+03  0.47201379412E+03  0.25500000000E-02 0.  1.
    5000001    1    1    2    0    0 -0.24676079727E+02 -0.70516845129E+02 -0.32384499143E+03  0.34115408957E+03  0.77000000000E+02 0.  0.
   -5000001    1    1    2    0    0  0.24676079727E+02  0.70516845129E+02 -0.11888816341E+03  0.16014034393E+03  0.77000000000E+02 0.  0.
<mgrwt>
<rscale>  0 0.23512436E+03</rscale>
<asrwt>0</asrwt>
<pdfrwt beam="1">  1        2 0.72617501E-01 0.23512436E+03</pdfrwt>
<pdfrwt beam="2">  1       -2 0.45047141E-02 0.23512436E+03</pdfrwt>
<totfact> 0.14998656E+04</totfact>
</mgrwt>
</event>
<event>
 4    1  0.4751076E-004  0.3442838E+03  0.7818608E-02  0.1064986E+00
          2   -1    0    0  501    0  0.00000000000E+00  0.00000000000E+00  0.61374810958E+03  0.61374810959E+03  0.25500000000E-02 0.  1.
         -2   -1    0    0    0  501 -0.00000000000E+00 -0.00000000000E+00 -0.48281752118E+02  0.48281752185E+02  0.25500000000E-02 0. -1.
    5000001    1    1    2    0    0 -0.85892517612E+02  0.54589651376E+02  0.60585849391E+02  0.14126995351E+03  0.77000000000E+02 0.  0.
   -5000001    1    1    2    0    0  0.85892517612E+02 -0.54589651376E+02  0.50488050807E+03  0.52075990826E+03  0.77000000000E+02 0.  0.
<mgrwt>
<rscale>  0 0.34428380E+03</rscale>
<asrwt>0</asrwt>
<pdfrwt beam="1">  1        2 0.94422774E-01 0.34428380E+03</pdfrwt>
<pdfrwt beam="2">  1       -2 0.74279628E-02 0.34428380E+03</pdfrwt>
<totfact> 0.52376867E+03</totfact>
</mgrwt>
</event>
<event>
 4    1  0.4751076E-004  0.2546733E+03  0.7818608E-02  0.1110386E+00
          2   -1    0    0  501    0  0.00000000000E+00  0.00000000000E+00  0.45383618930E+03  0.45383618931E+03  0.25500000000E-02 0.  1.
         -2   -1    0    0    0  501 -0.00000000000E+00 -0.00000000000E+00 -0.35727926490E+02  0.35727926581E+02  0.25500000000E-02 0. -1.
    5000001    1    1    2    0    0 -0.36927357235E+02  0.79322650992E+02  0.11047231089E+03  0.16058905363E+03  0.77000000000E+02 0.  0.
   -5000001    1    1    2    0    0  0.36927357235E+02 -0.79322650992E+02  0.30763595192E+03  0.32897506226E+03  0.77000000000E+02 0.  0.
<mgrwt>
<rscale>  0 0.25467333E+03</rscale>
<asrwt>0</asrwt>
<pdfrwt beam="1">  1        2 0.69820948E-01 0.25467333E+03</pdfrwt>
<pdfrwt beam="2">  1       -2 0.54966044E-02 0.25467333E+03</pdfrwt>
<totfact> 0.11628344E+04</totfact>
</mgrwt>
</event>
<event>
 4    1  0.4751076E-004  0.1610045E+03  0.7818608E-02  0.1187567E+00
         -2   -1    0    0    0  501 -0.00000000000E+00  0.00000000000E+00  0.73693977881E+02  0.73693977925E+02  0.25500000000E-02 0. -1.
          2   -1    0    0  501    0  0.00000000000E+00 -0.00000000000E+00 -0.87939458402E+02  0.87939458439E+02  0.25500000000E-02 0.  1.
    5000001    1    1    2    0    0  0.15006519320E+02  0.10181059014E+02  0.78606769688E+01  0.79496162342E+02  0.77000000000E+02 0.  0.
   -5000001    1    1    2    0    0 -0.15006519320E+02 -0.10181059014E+02 -0.22106157490E+02  0.82137274022E+02  0.77000000000E+02 0.  0.
<mgrwt>
<rscale>  0 0.16100445E+03</rscale>
<asrwt>0</asrwt>
<pdfrwt beam="1">  1        2 0.13529147E-01 0.16100445E+03</pdfrwt>
<pdfrwt beam="2">  1       -2 0.11337535E-01 0.16100445E+03</pdfrwt>
<totfact> 0.22494571E+04</totfact>
</mgrwt>
</event>
<event>
 4    1  0.4751076E-004  0.2264664E+03  0.7818608E-02  0.1129152E+00
          2   -1    0    0  501    0  0.00000000000E+00  0.00000000000E+00  0.27629666036E+02  0.27629666153E+02  0.25500000000E-02 0.  1.
         -2   -1    0    0    0  501 -0.00000000000E+00 -0.00000000000E+00 -0.46405783277E+03  0.46405783278E+03  0.25500000000E-02 0. -1.
    5000001    1    1    2    0    0 -0.44477054595E+02 -0.53191275071E+02 -0.11907072674E+03  0.15784282719E+03  0.77000000000E+02 0.  0.
   -5000001    1    1    2    0    0  0.44477054595E+02  0.53191275071E+02 -0.31735744000E+03  0.33384467174E+03  0.77000000000E+02 0.  0.
<mgrwt>
<rscale>  0 0.22646645E+03</rscale>
<asrwt>0</asrwt>
<pdfrwt beam="1">  1        2 0.42507182E-02 0.22646645E+03</pdfrwt>
<pdfrwt beam="2">  1       -2 0.71393507E-01 0.22646645E+03</pdfrwt>
<totfact> 0.35218239E+03</totfact>
</mgrwt>
</event>
<event>
 4    1  0.4751076E-004  0.1921448E+03  0.7818608E-02  0.1156541E+00
         -2   -1    0    0    0  501 -0.00000000000E+00  0.00000000000E+00  0.79240561285E+01  0.79240565388E+01  0.25500000000E-02 0. -1.
          2   -1    0    0  501    0  0.00000000000E+00 -0.00000000000E+00 -0.11647950315E+04  0.11647950315E+04  0.25500000000E-02 0.  1.
    5000001    1    1    2    0    0 -0.17916778173E+02 -0.24069437913E+02 -0.27940113258E+03  0.29136633585E+03  0.77000000000E+02 0.  0.
   -5000001    1    1    2    0    0  0.17916778173E+02  0.24069437913E+02 -0.87746984284E+03  0.88135275223E+03  0.77000000000E+02 0.  0.
<mgrwt>
<rscale>  0 0.19214475E+03</rscale>
<asrwt>0</asrwt>
<pdfrwt beam="1">  1        2 0.17919910E+00 0.19214475E+03</pdfrwt>
<pdfrwt beam="2">  1       -2 0.12190865E-02 0.19214475E+03</pdfrwt>
<totfact> 0.32638097E+04</totfact>
</mgrwt>
</event>
<event>
 4    1  0.4751076E-004  0.2415272E+03  0.7818608E-02  0.1118780E+00
         -2   -1    0    0    0  501 -0.00000000000E+00  0.00000000000E+00  0.39294086847E+03  0.39294086848E+03  0.25500000000E-02 0. -1.
          2   -1    0    0  501    0  0.00000000000E+00 -0.00000000000E+00 -0.37114596455E+02  0.37114596543E+02  0.25500000000E-02 0.  1.
    5000001    1    1    2    0    0 -0.43151209860E+02  0.21669898556E+02  0.31950164401E+03  0.33217753076E+03  0.77000000000E+02 0.  0.
   -5000001    1    1    2    0    0  0.43151209860E+02 -0.21669898556E+02  0.36324628005E+02  0.97877934263E+02  0.77000000000E+02 0.  0.
<mgrwt>
<rscale>  0 0.24152716E+03</rscale>
<asrwt>0</asrwt>
<pdfrwt beam="1">  1        2 0.57099377E-02 0.24152716E+03</pdfrwt>
<pdfrwt beam="2">  1       -2 0.60452444E-01 0.24152716E+03</pdfrwt>
<totfact> 0.33977239E+03</totfact>
</mgrwt>
</event>
<event>
 4    1  0.4751076E-004  0.3250667E+03  0.7818608E-02  0.1073341E+00
          2   -1    0    0  501    0  0.00000000000E+00  0.00000000000E+00  0.66323922763E+02  0.66323922812E+02  0.25500000000E-02 0. -1.
         -2   -1    0    0    0  501 -0.00000000000E+00 -0.00000000000E+00 -0.39830406996E+03  0.39830406997E+03  0.25500000000E-02 0.  1.
    5000001    1    1    2    0    0 -0.85911986436E+02  0.11384295460E+03 -0.18331983340E+03  0.24469623831E+03  0.77000000000E+02 0.  0.
   -5000001    1    1    2    0    0  0.85911986436E+02 -0.11384295460E+03 -0.14866031380E+03  0.21993175447E+03  0.77000000000E+02 0.  0.
<mgrwt>
<rscale>  0 0.32506669E+03</rscale>
<asrwt>0</asrwt>
<pdfrwt beam="1">  1        2 0.10203681E-01 0.32506669E+03</pdfrwt>
<pdfrwt beam="2">  1       -2 0.61277548E-01 0.32506669E+03</pdfrwt>
<totfact> 0.15867489E+03</totfact>
</mgrwt>
</event>
<event>
 4    1  0.4751076E-004  0.1789624E+03  0.7818608E-02  0.1168811E+00
          2   -1    0    0  501    0  0.00000000000E+00  0.00000000000E+00  0.12435585090E+04  0.12435585090E+04  0.25500000000E-02 0.  1.
         -2   -1    0    0    0  501 -0.00000000000E+00 -0.00000000000E+00 -0.64386895036E+01  0.64386900086E+01  0.25500000000E-02 0. -1.
    5000001    1    1    2    0    0 -0.16113043709E+02  0.12666222099E+02  0.90295127360E+03  0.90646018438E+03  0.77000000000E+02 0.  0.
   -5000001    1    1    2    0    0  0.16113043709E+02 -0.12666222099E+02  0.33416854593E+03  0.34353701467E+03  0.77000000000E+02 0.  0.
<mgrwt>
<rscale>  0 0.17896243E+03</rscale>
<asrwt>0</asrwt>
<pdfrwt beam="1">  1        2 0.19131649E+00 0.17896243E+03</pdfrwt>
<pdfrwt beam="2">  1       -2 0.99056869E-03 0.17896243E+03</pdfrwt>
<totfact> 0.39580006E+04</totfact>
</mgrwt>
</event>
<event>
 4    1  0.4751076E-004  0.2305848E+03  0.7818608E-02  0.1126229E+00
         -2   -1    0    0    0  501 -0.00000000000E+00  0.00000000000E+00  0.57645708865E+01  0.57645714505E+01  0.25500000000E-02 0. -1.
          2   -1    0    0  501    0  0.00000000000E+00 -0.00000000000E+00 -0.23058684944E+04  0.23058684944E+04  0.25500000000E-02 0.  1.
    5000001    1    1    2    0    0 -0.34603536352E+02 -0.72442156965E+02 -0.84629478134E+03  0.85357432468E+03  0.77000000000E+02 0.  0.
   -5000001    1    1    2    0    0  0.34603536352E+02  0.72442156965E+02 -0.14538091422E+04  0.14580587412E+04  0.77000000000E+02 0.  0.
<mgrwt>
<rscale>  0 0.23058485E+03</rscale>
<asrwt>0</asrwt>
<pdfrwt beam="1">  1        2 0.35474826E+00 0.23058485E+03</pdfrwt>
<pdfrwt beam="2">  1       -2 0.88685895E-03 0.23058485E+03</pdfrwt>
<totfact> 0.12931729E+04</totfact>
</mgrwt>
</event>
<event>
 4    1  0.4751076E-004  0.2928278E+03  0.7818608E-02  0.1088882E+00
         -2   -1    0    0    0  501 -0.00000000000E+00  0.00000000000E+00  0.99130553041E+03  0.99130553041E+03  0.25500000000E-02 0. -1.
          2   -1    0    0  501    0  0.00000000000E+00 -0.00000000000E+00 -0.21625054574E+02  0.21625054724E+02  0.25500000000E-02 0.  1.
    5000001    1    1    2    0    0  0.49574198209E+02 -0.10532733300E+03  0.33183122346E+03  0.35998945688E+03  0.77000000000E+02 0.  0.
   -5000001    1    1    2    0    0 -0.49574198209E+02  0.10532733300E+03  0.63784925237E+03  0.65294112825E+03  0.77000000000E+02 0.  0.
<mgrwt>
<rscale>  0 0.29282784E+03</rscale>
<asrwt>0</asrwt>
<pdfrwt beam="1">  1        2 0.33269323E-02 0.29282784E+03</pdfrwt>
<pdfrwt beam="2">  1       -2 0.15250851E+00 0.29282784E+03</pdfrwt>
<totfact> 0.82799638E+02</totfact>
</mgrwt>
</event>
<event>
 4    1  0.4751076E-004  0.1631538E+03  0.7818608E-02  0.1185181E+00
          2   -1    0    0  501    0  0.00000000000E+00  0.00000000000E+00  0.23675706947E+03  0.23675706948E+03  0.25500000000E-02 0.  1.
         -2   -1    0    0    0  501 -0.00000000000E+00 -0.00000000000E+00 -0.28108110498E+02  0.28108110613E+02  0.25500000000E-02 0. -1.
    5000001    1    1    2    0    0 -0.11666623603E+02 -0.23115705429E+02  0.11640201466E+03  0.14194673283E+03  0.77000000000E+02 0.  0.
   -5000001    1    1    2    0    0  0.11666623603E+02  0.23115705429E+02  0.92246944307E+02  0.12291844726E+03  0.77000000000E+02 0.  0.
<mgrwt>
<rscale>  0 0.16315384E+03</rscale>
<asrwt>0</asrwt>
<pdfrwt beam="1">  1        2 0.36424163E-01 0.16315384E+03</pdfrwt>
<pdfrwt beam="2">  1       -2 0.43243248E-02 0.16315384E+03</pdfrwt>
<totfact> 0.32584255E+04</totfact>
</mgrwt>
</event>
<event>
 4    1  0.4751076E-004  0.2059788E+03  0.7818608E-02  0.1144790E+00
          2   -1    0    0  501    0  0.00000000000E+00  0.00000000000E+00  0.72013905755E+03  0.72013905756E+03  0.25500000000E-02 0.  1.
         -2   -1    0    0    0  501 -0.00000000000E+00 -0.00000000000E+00 -0.14728845011E+02  0.14728845232E+02  0.25500000000E-02 0. -1.
    5000001    1    1    2    0    0  0.41663436378E+02  0.43424883079E+02  0.46865516859E+03  0.47873607494E+03  0.77000000000E+02 0.  0.
   -5000001    1    1    2    0    0 -0.41663436378E+02 -0.43424883079E+02  0.23675504395E+03  0.25613182785E+03  0.77000000000E+02 0.  0.
<mgrwt>
<rscale>  0 0.20597880E+03</rscale>
<asrwt>0</asrwt>
<pdfrwt beam="1">  1        2 0.11079064E+00 0.20597880E+03</pdfrwt>
<pdfrwt beam="2">  1       -2 0.22659758E-02 0.20597880E+03</pdfrwt>
<totfact> 0.25404731E+04</totfact>
</mgrwt>
</event>
<event>
 4    1  0.4751076E-004  0.2287703E+03  0.7818608E-02  0.1127508E+00
         -2   -1    0    0    0  501 -0.00000000000E+00  0.00000000000E+00  0.87527778060E+01  0.87527781774E+01  0.25500000000E-02 0. -1.
          2   -1    0    0  501    0  0.00000000000E+00 -0.00000000000E+00 -0.14948356207E+04  0.14948356207E+04  0.25500000000E-02 0.  1.
    5000001    1    1    2    0    0  0.82120004782E+02  0.20263325473E+02 -0.73767455535E+03  0.74648981718E+03  0.77000000000E+02 0.  0.
   -5000001    1    1    2    0    0 -0.82120004782E+02 -0.20263325473E+02 -0.74840828751E+03  0.75709858167E+03  0.77000000000E+02 0.  0.
<mgrwt>
<rscale>  0 0.22877032E+03</rscale>
<asrwt>0</asrwt>
<pdfrwt beam="1">  1        2 0.22997451E+00 0.22877032E+03</pdfrwt>
<pdfrwt beam="2">  1       -2 0.13465824E-02 0.22877032E+03</pdfrwt>
<totfact> 0.18825482E+04</totfact>
</mgrwt>
</event>
<event>
 4    1  0.4751076E-004  0.2038001E+03  0.7818608E-02  0.1146572E+00
         -2   -1    0    0    0  501 -0.00000000000E+00  0.00000000000E+00  0.71702308643E+01  0.71702313177E+01  0.25500000000E-02 0. -1.
          2   -1    0    0  501    0  0.00000000000E+00 -0.00000000000E+00 -0.14481563984E+04  0.14481563984E+04  0.25500000000E-02 0.  1.
    5000001    1    1    2    0    0  0.46488295358E+02  0.12979976575E+02 -0.10496727844E+04  0.10535993525E+04  0.77000000000E+02 0.  0.
   -5000001    1    1    2    0    0 -0.46488295358E+02 -0.12979976575E+02 -0.39131338320E+03  0.40172727722E+03  0.77000000000E+02 0.  0.
<mgrwt>
<rscale>  0 0.20380006E+03</rscale>
<asrwt>0</asrwt>
<pdfrwt beam="1">  1        2 0.22279306E+00 0.20380006E+03</pdfrwt>
<pdfrwt beam="2">  1       -2 0.11031136E-02 0.20380006E+03</pdfrwt>
<totfact> 0.26471606E+04</totfact>
</mgrwt>
</event>
<event>
 4    1  0.4751076E-004  0.1929669E+03  0.7818608E-02  0.1155812E+00
          2   -1    0    0  501    0  0.00000000000E+00  0.00000000000E+00  0.27256861541E+04  0.27256861541E+04  0.25500000000E-02 0.  1.
         -2   -1    0    0    0  501 -0.00000000000E+00 -0.00000000000E+00 -0.34153080881E+01  0.34153090401E+01  0.25500000000E-02 0. -1.
    5000001    1    1    2    0    0  0.45445904468E+02  0.36178099468E+02  0.13954129485E+04  0.13987424645E+04  0.77000000000E+02 0.  0.
   -5000001    1    1    2    0    0 -0.45445904468E+02 -0.36178099468E+02  0.13268578975E+04  0.13303589986E+04  0.77000000000E+02 0.  0.
<mgrwt>
<rscale>  0 0.19296693E+03</rscale>
<asrwt>0</asrwt>
<pdfrwt beam="1">  1        2 0.41933661E+00 0.19296693E+03</pdfrwt>
<pdfrwt beam="2">  1       -2 0.52543174E-03 0.19296693E+03</pdfrwt>
<totfact> 0.16141824E+04</totfact>
</mgrwt>
</event>
<event>
 4    1  0.4751076E-004  0.2321234E+03  0.7818608E-02  0.1125154E+00
         -2   -1    0    0    0  501 -0.00000000000E+00  0.00000000000E+00  0.81760098329E+01  0.81760102306E+01  0.25500000000E-02 0. -1.
          2   -1    0    0  501    0  0.00000000000E+00 -0.00000000000E+00 -0.16475420830E+04  0.16475420830E+04  0.25500000000E-02 0.  1.
    5000001    1    1    2    0    0  0.69484479435E+02 -0.31218589404E+02 -0.11171033946E+04  0.11223420546E+04  0.77000000000E+02 0.  0.
   -5000001    1    1    2    0    0 -0.69484479435E+02  0.31218589404E+02 -0.52226267859E+03  0.53337603869E+03  0.77000000000E+02 0.  0.
<mgrwt>
<rscale>  0 0.23212342E+03</rscale>
<asrwt>0</asrwt>
<pdfrwt beam="1">  1        2 0.25346775E+00 0.23212342E+03</pdfrwt>
<pdfrwt beam="2">  1       -2 0.12578490E-02 0.23212342E+03</pdfrwt>
<totfact> 0.17272099E+04</totfact>
</mgrwt>
</event>
<event>
 4    1  0.4751076E-004  0.1725223E+03  0.7818608E-02  0.1175243E+00
         -2   -1    0    0    0  501 -0.00000000000E+00  0.00000000000E+00  0.25357418839E+02  0.25357418967E+02  0.25500000000E-02 0. -1.
          2   -1    0    0  501    0  0.00000000000E+00 -0.00000000000E+00 -0.29344401593E+03  0.29344401594E+03  0.25500000000E-02 0.  1.
    5000001    1    1    2    0    0 -0.25876705634E+02 -0.15135231659E+02 -0.17980613296E+03  0.19788361373E+03  0.77000000000E+02 0.  0.
   -5000001    1    1    2    0    0  0.25876705634E+02  0.15135231659E+02 -0.88280464132E+02  0.12091782118E+03  0.77000000000E+02 0.  0.
<mgrwt>
<rscale>  0 0.17252226E+03</rscale>
<asrwt>0</asrwt>
<pdfrwt beam="1">  1        2 0.45145231E-01 0.17252226E+03</pdfrwt>
<pdfrwt beam="2">  1       -2 0.39011416E-02 0.17252226E+03</pdfrwt>
<totfact> 0.30373623E+04</totfact>
</mgrwt>
</event>
<event>
 4    1  0.4751076E-004  0.2926542E+03  0.7818608E-02  0.1088971E+00
         -2   -1    0    0    0  501 -0.00000000000E+00  0.00000000000E+00  0.28029645596E+02  0.28029645712E+02  0.25500000000E-02 0. -1.
          2   -1    0    0  501    0  0.00000000000E+00 -0.00000000000E+00 -0.76389186644E+03  0.76389186644E+03  0.25500000000E-02 0.  1.
    5000001    1    1    2    0    0  0.11922002142E+03  0.31398807158E+02 -0.32238347718E+03  0.35363739191E+03  0.77000000000E+02 0.  0.
   -5000001    1    1    2    0    0 -0.11922002142E+03 -0.31398807158E+02 -0.41347874366E+03  0.43828412024E+03  0.77000000000E+02 0.  0.
<mgrwt>
<rscale>  0 0.29265419E+03</rscale>
<asrwt>0</asrwt>
<pdfrwt beam="1">  1        2 0.11752181E+00 0.29265419E+03</pdfrwt>
<pdfrwt beam="2">  1       -2 0.43122538E-02 0.29265419E+03</pdfrwt>
<totfact> 0.92207263E+03</totfact>
</mgrwt>
</event>
<event>
 4    1  0.4751076E-004  0.2664801E+03  0.7818608E-02  0.1103311E+00
         -2   -1    0    0    0  501 -0.00000000000E+00  0.00000000000E+00  0.17641084765E+03  0.17641084767E+03  0.25500000000E-02 0. -1.
          2   -1    0    0  501    0  0.00000000000E+00 -0.00000000000E+00 -0.10063386297E+03  0.10063386300E+03  0.25500000000E-02 0.  1.
    5000001    1    1    2    0    0  0.88788798682E+02 -0.33334884770E+02  0.93187842587E+02  0.15364777681E+03  0.77000000000E+02 0.  0.
   -5000001    1    1    2    0    0 -0.88788798682E+02  0.33334884770E+02 -0.17410857905E+02  0.12339693386E+03  0.77000000000E+02 0.  0.
<mgrwt>
<rscale>  0 0.26648006E+03</rscale>
<asrwt>0</asrwt>
<pdfrwt beam="1">  1        2 0.15482133E-01 0.26648006E+03</pdfrwt>
<pdfrwt beam="2">  1       -2 0.27140130E-01 0.26648006E+03</pdfrwt>
<totfact> 0.45680189E+03</totfact>
</mgrwt>
</event>
<event>
 4    1  0.4751076E-004  0.2486672E+03  0.7818608E-02  0.1114150E+00
          2   -1    0    0  501    0  0.00000000000E+00  0.00000000000E+00  0.14410054091E+03  0.14410054093E+03  0.25500000000E-02 0. -1.
         -2   -1    0    0    0  501 -0.00000000000E+00 -0.00000000000E+00 -0.10727818266E+03  0.10727818269E+03  0.25500000000E-02 0.  1.
    5000001    1    1    2    0    0  0.80303550100E+02  0.54712092418E+02  0.27881951234E+02  0.12707665569E+03  0.77000000000E+02 0.  0.
   -5000001    1    1    2    0    0 -0.80303550100E+02 -0.54712092418E+02  0.89404070115E+01  0.12430206794E+03  0.77000000000E+02 0.  0.
<mgrwt>
<rscale>  0 0.24866720E+03</rscale>
<asrwt>0</asrwt>
<pdfrwt beam="1">  1        2 0.22169314E-01 0.24866720E+03</pdfrwt>
<pdfrwt beam="2">  1       -2 0.16504336E-01 0.24866720E+03</pdfrwt>
<totfact> 0.70915299E+03</totfact>
</mgrwt>
</event>
<event>
 4    1  0.4751076E-004  0.2215206E+03  0.7818608E-02  0.1132754E+00
          2   -1    0    0  501    0  0.00000000000E+00  0.00000000000E+00  0.15478631127E+04  0.15478631127E+04  0.25500000000E-02 0.  1.
         -2   -1    0    0    0  501 -0.00000000000E+00 -0.00000000000E+00 -0.79256663210E+01  0.79256667312E+01  0.25500000000E-02 0. -1.
    5000001    1    1    2    0    0 -0.36198872223E+02 -0.66259760595E+02  0.94738438066E+03  0.95350242734E+03  0.77000000000E+02 0.  0.
   -5000001    1    1    2    0    0  0.36198872223E+02  0.66259760595E+02  0.59255306568E+03  0.60228635206E+03  0.77000000000E+02 0.  0.
<mgrwt>
<rscale>  0 0.22152063E+03</rscale>
<asrwt>0</asrwt>
<pdfrwt beam="1">  1        2 0.23813290E+00 0.22152063E+03</pdfrwt>
<pdfrwt beam="2">  1       -2 0.12193327E-02 0.22152063E+03</pdfrwt>
<totfact> 0.20353580E+04</totfact>
</mgrwt>
</event>
<event>
 4    1  0.4751076E-004  0.2421868E+03  0.7818608E-02  0.1118345E+00
         -2   -1    0    0    0  501 -0.00000000000E+00  0.00000000000E+00  0.15801060139E+02  0.15801060345E+02  0.25500000000E-02 0. -1.
          2   -1    0    0  501    0  0.00000000000E+00 -0.00000000000E+00 -0.92801446563E+03  0.92801446563E+03  0.25500000000E-02 0.  1.
    5000001    1    1    2    0    0  0.30299578663E+02  0.82796491441E+02 -0.33527980510E+03  0.35512655655E+03  0.77000000000E+02 0.  0.
   -5000001    1    1    2    0    0 -0.30299578663E+02 -0.82796491441E+02 -0.57693360039E+03  0.58868896943E+03  0.77000000000E+02 0.  0.
<mgrwt>
<rscale>  0 0.24218681E+03</rscale>
<asrwt>0</asrwt>
<pdfrwt beam="1">  1        2 0.14277141E+00 0.24218681E+03</pdfrwt>
<pdfrwt beam="2">  1       -2 0.24309331E-02 0.24218681E+03</pdfrwt>
<totfact> 0.16718489E+04</totfact>
</mgrwt>
</event>
<event>
 4    1  0.4751076E-004  0.2333311E+03  0.7818608E-02  0.1124317E+00
          2   -1    0    0  501    0  0.00000000000E+00  0.00000000000E+00  0.65333652424E+01  0.65333657400E+01  0.25500000000E-02 0.  1.
         -2   -1    0    0    0  501 -0.00000000000E+00 -0.00000000000E+00 -0.20832828607E+04  0.20832828607E+04  0.25500000000E-02 0. -1.
    5000001    1    1    2    0    0  0.53194227299E+02 -0.12503760181E+02 -0.16521281748E+04  0.16548240015E+04  0.77000000000E+02 0.  0.
   -5000001    1    1    2    0    0 -0.53194227299E+02  0.12503760181E+02 -0.42462132058E+03  0.43499222490E+03  0.77000000000E+02 0.  0.
<mgrwt>
<rscale>  0 0.23333108E+03</rscale>
<asrwt>0</asrwt>
<pdfrwt beam="1">  1        2 0.10051348E-02 0.23333108E+03</pdfrwt>
<pdfrwt beam="2">  1       -2 0.32050453E+00 0.23333108E+03</pdfrwt>
<totfact> 0.39696812E+02</totfact>
</mgrwt>
</event>
<event>
 4    1  0.4751076E-004  0.2150945E+03  0.7818608E-02  0.1137594E+00
         -2   -1    0    0    0  501 -0.00000000000E+00  0.00000000000E+00  0.65582700089E+02  0.65582700139E+02  0.25500000000E-02 0. -1.
          2   -1    0    0  501    0  0.00000000000E+00 -0.00000000000E+00 -0.17636379618E+03  0.17636379619E+03  0.25500000000E-02 0.  1.
    5000001    1    1    2    0    0  0.26240485042E+02 -0.64847933028E+02 -0.86063716544E+02  0.13501770543E+03  0.77000000000E+02 0.  0.
   -5000001    1    1    2    0    0 -0.26240485042E+02  0.64847933028E+02 -0.24717379542E+02  0.10692879091E+03  0.77000000000E+02 0.  0.
<mgrwt>
<rscale>  0 0.21509453E+03</rscale>
<asrwt>0</asrwt>
<pdfrwt beam="1">  1        2 0.27132892E-01 0.21509453E+03</pdfrwt>
<pdfrwt beam="2">  1       -2 0.10089646E-01 0.21509453E+03</pdfrwt>
<totfact> 0.12484421E+04</totfact>
</mgrwt>
</event>
<event>
 4    1  0.4751076E-004  0.3533269E+03  0.7818608E-02  0.1061258E+00
          2   -1    0    0  501    0  0.00000000000E+00  0.00000000000E+00  0.98502493246E+03  0.98502493246E+03  0.25500000000E-02 0.  1.
         -2   -1    0    0    0  501 -0.00000000000E+00 -0.00000000000E+00 -0.31684445273E+02  0.31684445376E+02  0.25500000000E-02 0. -1.
    5000001    1    1    2    0    0  0.15389746310E+03 -0.14774051260E+02  0.58349866918E+03  0.60852477244E+03  0.77000000000E+02 0.  0.
   -5000001    1    1    2    0    0 -0.15389746310E+03  0.14774051260E+02  0.36984181801E+03  0.40818460540E+03  0.77000000000E+02 0.  0.
<mgrwt>
<rscale>  0 0.35332687E+03</rscale>
<asrwt>0</asrwt>
<pdfrwt beam="1">  1        2 0.15154228E+00 0.35332687E+03</pdfrwt>
<pdfrwt beam="2">  1       -2 0.48745305E-02 0.35332687E+03</pdfrwt>
<totfact> 0.54826845E+03</totfact>
</mgrwt>
</event>
<event>
 4    1  0.4751076E-004  0.1856270E+03  0.7818608E-02  0.1162466E+00
          2   -1    0    0  501    0  0.00000000000E+00  0.00000000000E+00  0.21074440501E+03  0.21074440502E+03  0.25500000000E-02 0.  1.
         -2   -1    0    0    0  501 -0.00000000000E+00 -0.00000000000E+00 -0.40875814518E+02  0.40875814597E+02  0.25500000000E-02 0. -1.
    5000001    1    1    2    0    0  0.44229239604E+02  0.12835465453E+02  0.11713667462E+03  0.14754990800E+03  0.77000000000E+02 0.  0.
   -5000001    1    1    2    0    0 -0.44229239604E+02 -0.12835465453E+02  0.52731915867E+02  0.10407031162E+03  0.77000000000E+02 0.  0.
<mgrwt>
<rscale>  0 0.18562704E+03</rscale>
<asrwt>0</asrwt>
<pdfrwt beam="1">  1        2 0.32422216E-01 0.18562704E+03</pdfrwt>
<pdfrwt beam="2">  1       -2 0.62885870E-02 0.18562704E+03</pdfrwt>
<totfact> 0.21212250E+04</totfact>
</mgrwt>
</event>
<event>
 4    1  0.4751076E-004  0.3124494E+03  0.7818608E-02  0.1079178E+00
          2   -1    0    0  501    0  0.00000000000E+00  0.00000000000E+00  0.19320542683E+03  0.19320542685E+03  0.25500000000E-02 0.  1.
         -2   -1    0    0    0  501 -0.00000000000E+00 -0.00000000000E+00 -0.12632227796E+03  0.12632227798E+03  0.25500000000E-02 0. -1.
    5000001    1    1    2    0    0 -0.61386090944E+02 -0.11749570751E+03  0.26996887156E+01  0.15332899845E+03  0.77000000000E+02 0.  0.
   -5000001    1    1    2    0    0  0.61386090944E+02  0.11749570751E+03  0.64183460160E+02  0.16619870638E+03  0.77000000000E+02 0.  0.
<mgrwt>
<rscale>  0 0.31244935E+03</rscale>
<asrwt>0</asrwt>
<pdfrwt beam="1">  1        2 0.29723911E-01 0.31244935E+03</pdfrwt>
<pdfrwt beam="2">  1       -2 0.19434197E-01 0.31244935E+03</pdfrwt>
<totfact> 0.39115007E+03</totfact>
</mgrwt>
</event>
<event>
 4    1  0.4751076E-004  0.3300310E+03  0.7818608E-02  0.1071123E+00
          2   -1    0    0  501    0  0.00000000000E+00  0.00000000000E+00  0.75815191327E+02  0.75815191369E+02  0.25500000000E-02 0.  1.
         -2   -1    0    0    0  501 -0.00000000000E+00 -0.00000000000E+00 -0.35916437899E+03  0.35916437900E+03  0.25500000000E-02 0. -1.
    5000001    1    1    2    0    0 -0.10745495638E+03 -0.84594268759E+02 -0.20885824855E+03  0.26125375776E+03  0.77000000000E+02 0.  0.
   -5000001    1    1    2    0    0  0.10745495638E+03  0.84594268759E+02 -0.74490939116E+02  0.17372581261E+03  0.77000000000E+02 0.  0.
<mgrwt>
<rscale>  0 0.33003101E+03</rscale>
<asrwt>0</asrwt>
<pdfrwt beam="1">  1        2 0.11663876E-01 0.33003101E+03</pdfrwt>
<pdfrwt beam="2">  1       -2 0.55256057E-01 0.33003101E+03</pdfrwt>
<totfact> 0.16655378E+03</totfact>
</mgrwt>
</event>
<event>
 4    1  0.4751076E-004  0.2235847E+03  0.7818608E-02  0.1131238E+00
          2   -1    0    0  501    0  0.00000000000E+00  0.00000000000E+00  0.13743176608E+04  0.13743176608E+04  0.25500000000E-02 0.  1.
         -2   -1    0    0    0  501 -0.00000000000E+00 -0.00000000000E+00 -0.90936260118E+01  0.90936263694E+01  0.25500000000E-02 0. -1.
    5000001    1    1    2    0    0  0.46083462177E+02  0.66572400588E+02  0.66033640478E+03  0.66972288112E+03  0.77000000000E+02 0.  0.
   -5000001    1    1    2    0    0 -0.46083462177E+02 -0.66572400588E+02  0.70488762999E+03  0.71368840604E+03  0.77000000000E+02 0.  0.
<mgrwt>
<rscale>  0 0.22358471E+03</rscale>
<asrwt>0</asrwt>
<pdfrwt beam="1">  1        2 0.21143342E+00 0.22358471E+03</pdfrwt>
<pdfrwt beam="2">  1       -2 0.13990198E-02 0.22358471E+03</pdfrwt>
<totfact> 0.20647149E+04</totfact>
</mgrwt>
</event>
<event>
 4    1  0.4751076E-004  0.3859259E+03  0.7818608E-02  0.1048765E+00
          2   -1    0    0  501    0  0.00000000000E+00  0.00000000000E+00  0.22593319609E+03  0.22593319611E+03  0.25500000000E-02 0.  1.
         -2   -1    0    0    0  501 -0.00000000000E+00 -0.00000000000E+00 -0.16480402395E+03  0.16480402397E+03  0.25500000000E-02 0. -1.
    5000001    1    1    2    0    0 -0.94499660959E+02  0.14825486698E+03  0.50712636860E+02  0.19852068668E+03  0.77000000000E+02 0.  0.
   -5000001    1    1    2    0    0  0.94499660959E+02 -0.14825486698E+03  0.10416535281E+02  0.19221653340E+03  0.77000000000E+02 0.  0.
<mgrwt>
<rscale>  0 0.38592590E+03</rscale>
<asrwt>0</asrwt>
<pdfrwt beam="1">  1        2 0.34758953E-01 0.38592590E+03</pdfrwt>
<pdfrwt beam="2">  1       -2 0.25354465E-01 0.38592590E+03</pdfrwt>
<totfact> 0.20789497E+03</totfact>
</mgrwt>
</event>
<event>
 4    1  0.4751076E-004  0.3441226E+03  0.7818608E-02  0.1065054E+00
          2   -1    0    0  501    0  0.00000000000E+00  0.00000000000E+00  0.57219695234E+03  0.57219695235E+03  0.25500000000E-02 0.  1.
         -2   -1    0    0    0  501 -0.00000000000E+00 -0.00000000000E+00 -0.51739328569E+02  0.51739328631E+02  0.25500000000E-02 0. -1.
    5000001    1    1    2    0    0 -0.26536770675E+02 -0.11981715156E+03  0.42852461068E+03  0.45235239798E+03  0.77000000000E+02 0.  0.
   -5000001    1    1    2    0    0  0.26536770675E+02  0.11981715156E+03  0.91933013098E+02  0.17158388300E+03  0.77000000000E+02 0.  0.
<mgrwt>
<rscale>  0 0.34412257E+03</rscale>
<asrwt>0</asrwt>
<pdfrwt beam="1">  1        2 0.88030296E-01 0.34412257E+03</pdfrwt>
<pdfrwt beam="2">  1       -2 0.79598971E-02 0.34412257E+03</pdfrwt>
<totfact> 0.51007425E+03</totfact>
</mgrwt>
</event>
<event>
 4    1  0.4751076E-004  0.1891505E+03  0.7818608E-02  0.1159230E+00
          2   -1    0    0  501    0  0.00000000000E+00  0.00000000000E+00  0.70949357025E+03  0.70949357025E+03  0.25500000000E-02 0.  1.
         -2   -1    0    0    0  501 -0.00000000000E+00 -0.00000000000E+00 -0.12606851719E+02  0.12606851977E+02  0.25500000000E-02 0. -1.
    5000001    1    1    2    0    0 -0.40994614451E+02 -0.18109277198E+02  0.46958671664E+03  0.47796358521E+03  0.77000000000E+02 0.  0.
   -5000001    1    1    2    0    0  0.40994614451E+02  0.18109277198E+02  0.22730000189E+03  0.24413683703E+03  0.77000000000E+02 0.  0.
<mgrwt>
<rscale>  0 0.18915053E+03</rscale>
<asrwt>0</asrwt>
<pdfrwt beam="1">  1        2 0.10915286E+00 0.18915053E+03</pdfrwt>
<pdfrwt beam="2">  1       -2 0.19395156E-02 0.18915053E+03</pdfrwt>
<totfact> 0.32282841E+04</totfact>
</mgrwt>
</event>
<event>
 4    1  0.4751076E-004  0.2912657E+03  0.7818608E-02  0.1089690E+00
          2   -1    0    0  501    0  0.00000000000E+00  0.00000000000E+00  0.13418523468E+03  0.13418523471E+03  0.25500000000E-02 0.  1.
         -2   -1    0    0    0  501 -0.00000000000E+00 -0.00000000000E+00 -0.15805712869E+03  0.15805712871E+03  0.25500000000E-02 0. -1.
    5000001    1    1    2    0    0 -0.10490673989E+03  0.50865112445E+02 -0.53149815271E+02  0.14948774733E+03  0.77000000000E+02 0.  0.
   -5000001    1    1    2    0    0  0.10490673989E+03 -0.50865112445E+02  0.29277921264E+02  0.14275461608E+03  0.77000000000E+02 0.  0.
<mgrwt>
<rscale>  0 0.29126574E+03</rscale>
<asrwt>0</asrwt>
<pdfrwt beam="1">  1        2 0.20643882E-01 0.29126574E+03</pdfrwt>
<pdfrwt beam="2">  1       -2 0.24316481E-01 0.29126574E+03</pdfrwt>
<totfact> 0.39846520E+03</totfact>
</mgrwt>
</event>
<event>
 4    1  0.4751076E-004  0.2145541E+03  0.7818608E-02  0.1138010E+00
          2   -1    0    0  501    0  0.00000000000E+00  0.00000000000E+00  0.10262249542E+04  0.10262249542E+04  0.25500000000E-02 0.  1.
         -2   -1    0    0    0  501 -0.00000000000E+00 -0.00000000000E+00 -0.11214268362E+02  0.11214268652E+02  0.25500000000E-02 0. -1.
    5000001    1    1    2    0    0  0.14077488790E+02 -0.69095746772E+02  0.62663159332E+03  0.63527045553E+03  0.77000000000E+02 0.  0.
   -5000001    1    1    2    0    0 -0.14077488790E+02  0.69095746772E+02  0.38837909249E+03  0.40216876731E+03  0.77000000000E+02 0.  0.
<mgrwt>
<rscale>  0 0.21455407E+03</rscale>
<asrwt>0</asrwt>
<pdfrwt beam="1">  1        2 0.15788079E+00 0.21455407E+03</pdfrwt>
<pdfrwt beam="2">  1       -2 0.17252718E-02 0.21455407E+03</pdfrwt>
<totfact> 0.23901092E+04</totfact>
</mgrwt>
</event>
<event>
 4    1  0.4751076E-004  0.2091261E+03  0.7818608E-02  0.1142260E+00
         -2   -1    0    0    0  501 -0.00000000000E+00  0.00000000000E+00  0.18314699216E+02  0.18314699394E+02  0.25500000000E-02 0. -1.
          2   -1    0    0  501    0  0.00000000000E+00 -0.00000000000E+00 -0.59697555871E+03  0.59697555872E+03  0.25500000000E-02 0.  1.
    5000001    1    1    2    0    0 -0.58485899315E+02 -0.24057294850E+02 -0.38260663956E+03  0.39536842879E+03  0.77000000000E+02 0.  0.
   -5000001    1    1    2    0    0  0.58485899315E+02  0.24057294850E+02 -0.19605421994E+03  0.21992182932E+03  0.77000000000E+02 0.  0.
<mgrwt>
<rscale>  0 0.20912607E+03</rscale>
<asrwt>0</asrwt>
<pdfrwt beam="1">  1        2 0.91842379E-01 0.20912607E+03</pdfrwt>
<pdfrwt beam="2">  1       -2 0.28176465E-02 0.20912607E+03</pdfrwt>
<totfact> 0.23024689E+04</totfact>
</mgrwt>
</event>
<event>
 4    1  0.4751076E-004  0.2349105E+03  0.7818608E-02  0.1123231E+00
         -2   -1    0    0    0  501 -0.00000000000E+00  0.00000000000E+00  0.15149962952E+02  0.15149963166E+02  0.25500000000E-02 0.  1.
          2   -1    0    0  501    0  0.00000000000E+00 -0.00000000000E+00 -0.91061169965E+03  0.91061169965E+03  0.25500000000E-02 0. -1.
    5000001    1    1    2    0    0 -0.80660559843E+02 -0.13380675392E+02 -0.58319541469E+03  0.59391166019E+03  0.77000000000E+02 0.  0.
   -5000001    1    1    2    0    0  0.80660559843E+02  0.13380675392E+02 -0.31226632201E+03  0.33185000263E+03  0.77000000000E+02 0.  0.
<mgrwt>
<rscale>  0 0.23491048E+03</rscale>
<asrwt>0</asrwt>
<pdfrwt beam="1">  1        2 0.14009407E+00 0.23491048E+03</pdfrwt>
<pdfrwt beam="2">  1       -2 0.23307643E-02 0.23491048E+03</pdfrwt>
<totfact> 0.18221126E+04</totfact>
</mgrwt>
</event>
<event>
 4    1  0.4751076E-004  0.1916565E+03  0.7818608E-02  0.1156976E+00
         -2   -1    0    0    0  501 -0.00000000000E+00  0.00000000000E+00  0.30093719201E+02  0.30093719309E+02  0.25500000000E-02 0. -1.
          2   -1    0    0  501    0  0.00000000000E+00 -0.00000000000E+00 -0.30514848316E+03  0.30514848317E+03  0.25500000000E-02 0.  1.
    5000001    1    1    2    0    0  0.10195080461E+02  0.33575734812E+02 -0.21619750207E+03  0.23216724475E+03  0.77000000000E+02 0.  0.
   -5000001    1    1    2    0    0 -0.10195080461E+02 -0.33575734812E+02 -0.58857261887E+02  0.10307495773E+03  0.77000000000E+02 0.  0.
<mgrwt>
<rscale>  0 0.19165649E+03</rscale>
<asrwt>0</asrwt>
<pdfrwt beam="1">  1        2 0.46945918E-01 0.19165649E+03</pdfrwt>
<pdfrwt beam="2">  1       -2 0.46298032E-02 0.19165649E+03</pdfrwt>
<totfact> 0.22743955E+04</totfact>
</mgrwt>
</event>
<event>
 4    1  0.4751076E-004  0.2332392E+03  0.7818608E-02  0.1124380E+00
          2   -1    0    0  501    0  0.00000000000E+00  0.00000000000E+00  0.42273879742E+03  0.42273879743E+03  0.25500000000E-02 0.  1.
         -2   -1    0    0    0  501 -0.00000000000E+00 -0.00000000000E+00 -0.32171478831E+02  0.32171478932E+02  0.25500000000E-02 0. -1.
    5000001    1    1    2    0    0 -0.20681849649E+02 -0.81309400450E+02  0.24432279101E+03  0.26955812678E+03  0.77000000000E+02 0.  0.
   -5000001    1    1    2    0    0  0.20681849649E+02  0.81309400450E+02  0.14624452757E+03  0.18535214957E+03  0.77000000000E+02 0.  0.
<mgrwt>
<rscale>  0 0.23323921E+03</rscale>
<asrwt>0</asrwt>
<pdfrwt beam="1">  1        2 0.65036732E-01 0.23323921E+03</pdfrwt>
<pdfrwt beam="2">  1       -2 0.49494588E-02 0.23323921E+03</pdfrwt>
<totfact> 0.14674011E+04</totfact>
</mgrwt>
</event>
<event>
 4    1  0.4751076E-004  0.2140251E+03  0.7818608E-02  0.1138418E+00
          2   -1    0    0  501    0  0.00000000000E+00  0.00000000000E+00  0.17102638721E+03  0.17102638723E+03  0.25500000000E-02 0.  1.
         -2   -1    0    0    0  501 -0.00000000000E+00 -0.00000000000E+00 -0.66958592720E+02  0.66958592768E+02  0.25500000000E-02 0. -1.
    5000001    1    1    2    0    0 -0.38594649222E+02 -0.43572777199E+02  0.10340728884E+03  0.14145741849E+03  0.77000000000E+02 0.  0.
   -5000001    1    1    2    0    0  0.38594649222E+02  0.43572777199E+02  0.66050564510E+00  0.96527561500E+02  0.77000000000E+02 0.  0.
<mgrwt>
<rscale>  0 0.21402510E+03</rscale>
<asrwt>0</asrwt>
<pdfrwt beam="1">  1        2 0.26311752E-01 0.21402510E+03</pdfrwt>
<pdfrwt beam="2">  1       -2 0.10301322E-01 0.21402510E+03</pdfrwt>
<totfact> 0.12493573E+04</totfact>
</mgrwt>
</event>
<event>
 4    1  0.4751076E-004  0.1856829E+03  0.7818608E-02  0.1162414E+00
          2   -1    0    0  501    0  0.00000000000E+00  0.00000000000E+00  0.15566031166E+02  0.15566031375E+02  0.25500000000E-02 0.  1.
         -2   -1    0    0    0  501 -0.00000000000E+00 -0.00000000000E+00 -0.55373992062E+03  0.55373992062E+03  0.25500000000E-02 0. -1.
    5000001    1    1    2    0    0 -0.39581249193E+02  0.22537708796E+02 -0.34517776213E+03  0.35658282498E+03  0.77000000000E+02 0.  0.
   -5000001    1    1    2    0    0  0.39581249193E+02 -0.22537708796E+02 -0.19299612732E+03  0.21272312701E+03  0.77000000000E+02 0.  0.
<mgrwt>
<rscale>  0 0.18568288E+03</rscale>
<asrwt>0</asrwt>
<pdfrwt beam="1">  1        2 0.23947745E-02 0.18568288E+03</pdfrwt>
<pdfrwt beam="2">  1       -2 0.85190742E-01 0.18568288E+03</pdfrwt>
<totfact> 0.51306419E+03</totfact>
</mgrwt>
</event>
<event>
 4    1  0.4751076E-004  0.2096431E+03  0.7818608E-02  0.1141849E+00
          2   -1    0    0  501    0  0.00000000000E+00  0.00000000000E+00  0.21384403437E+04  0.21384403437E+04  0.25500000000E-02 0. -1.
         -2   -1    0    0    0  501 -0.00000000000E+00 -0.00000000000E+00 -0.51381176419E+01  0.51381182746E+01  0.25500000000E-02 0.  1.
    5000001    1    1    2    0    0  0.36095126862E+02  0.38140480393E+02  0.15571268180E+04  0.15599136136E+04  0.77000000000E+02 0.  0.
   -5000001    1    1    2    0    0 -0.36095126862E+02 -0.38140480393E+02  0.57617540802E+03  0.58366484838E+03  0.77000000000E+02 0.  0.
<mgrwt>
<rscale>  0 0.20964311E+03</rscale>
<asrwt>0</asrwt>
<pdfrwt beam="1">  1        2 0.32899106E+00 0.20964311E+03</pdfrwt>
<pdfrwt beam="2">  1       -2 0.79047912E-03 0.20964311E+03</pdfrwt>
<totfact> 0.18671873E+04</totfact>
</mgrwt>
</event>
<event>
 4    1  0.4751076E-004  0.3416228E+03  0.7818608E-02  0.1066107E+00
         -2   -1    0    0    0  501 -0.00000000000E+00  0.00000000000E+00  0.51092150071E+02  0.51092150135E+02  0.25500000000E-02 0. -1.
          2   -1    0    0  501    0  0.00000000000E+00 -0.00000000000E+00 -0.57105717585E+03  0.57105717586E+03  0.25500000000E-02 0.  1.
    5000001    1    1    2    0    0 -0.95999808747E+02  0.88089574077E+02 -0.11575638509E+03  0.19053681280E+03  0.77000000000E+02 0.  0.
   -5000001    1    1    2    0    0  0.95999808747E+02 -0.88089574077E+02 -0.40420864069E+03  0.43161251319E+03  0.77000000000E+02 0.  0.
<mgrwt>
<rscale>  0 0.34162283E+03</rscale>
<asrwt>0</asrwt>
<pdfrwt beam="1">  1        2 0.87854946E-01 0.34162283E+03</pdfrwt>
<pdfrwt beam="2">  1       -2 0.78603312E-02 0.34162283E+03</pdfrwt>
<totfact> 0.52138051E+03</totfact>
</mgrwt>
</event>
<event>
 4    1  0.4751076E-004  0.2573491E+03  0.7818608E-02  0.1108746E+00
         -2   -1    0    0    0  501 -0.00000000000E+00  0.00000000000E+00  0.12572432076E+02  0.12572432334E+02  0.25500000000E-02 0. -1.
          2   -1    0    0  501    0  0.00000000000E+00 -0.00000000000E+00 -0.13169398440E+04  0.13169398440E+04  0.25500000000E-02 0.  1.
    5000001    1    1    2    0    0  0.42433298153E+02  0.71050046528E+02 -0.96978600421E+03  0.97635167222E+03  0.77000000000E+02 0.  0.
   -5000001    1    1    2    0    0 -0.42433298153E+02 -0.71050046528E+02 -0.33458140768E+03  0.35316060407E+03  0.77000000000E+02 0.  0.
<mgrwt>
<rscale>  0 0.25734908E+03</rscale>
<asrwt>0</asrwt>
<pdfrwt beam="1">  1        2 0.20260602E+00 0.25734908E+03</pdfrwt>
<pdfrwt beam="2">  1       -2 0.19342214E-02 0.25734908E+03</pdfrwt>
<totfact> 0.13900133E+04</totfact>
</mgrwt>
</event>
<event>
 4    1  0.4751076E-004  0.1713713E+03  0.7818608E-02  0.1176425E+00
          2   -1    0    0  501    0  0.00000000000E+00  0.00000000000E+00  0.66684110064E+03  0.66684110064E+03  0.25500000000E-02 0.  1.
         -2   -1    0    0    0  501 -0.00000000000E+00 -0.00000000000E+00 -0.11010162808E+02  0.11010163104E+02  0.25500000000E-02 0. -1.
    5000001    1    1    2    0    0 -0.15061215762E+02  0.28059088695E+02  0.24891756087E+03  0.26249400905E+03  0.77000000000E+02 0.  0.
   -5000001    1    1    2    0    0  0.15061215762E+02 -0.28059088695E+02  0.40691337696E+03  0.41535725470E+03  0.77000000000E+02 0.  0.
<mgrwt>
<rscale>  0 0.17137128E+03</rscale>
<asrwt>0</asrwt>
<pdfrwt beam="1">  1        2 0.10259099E+00 0.17137128E+03</pdfrwt>
<pdfrwt beam="2">  1       -2 0.16938705E-02 0.17137128E+03</pdfrwt>
<totfact> 0.41986024E+04</totfact>
</mgrwt>
</event>
<event>
 4    1  0.4751076E-004  0.1915777E+03  0.7818608E-02  0.1157046E+00
         -2   -1    0    0    0  501 -0.00000000000E+00  0.00000000000E+00  0.13039064392E+04  0.13039064392E+04  0.25500000000E-02 0. -1.
          2   -1    0    0  501    0  0.00000000000E+00 -0.00000000000E+00 -0.70369369689E+01  0.70369374309E+01  0.25500000000E-02 0.  1.
    5000001    1    1    2    0    0 -0.53132042016E+02  0.19185885533E+02  0.59750440016E+03  0.60508810953E+03  0.77000000000E+02 0.  0.
   -5000001    1    1    2    0    0  0.53132042016E+02 -0.19185885533E+02  0.69936510206E+03  0.70585526708E+03  0.77000000000E+02 0.  0.
<mgrwt>
<rscale>  0 0.19157774E+03</rscale>
<asrwt>0</asrwt>
<pdfrwt beam="1">  1        2 0.10826054E-02 0.19157774E+03</pdfrwt>
<pdfrwt beam="2">  1       -2 0.20060104E+00 0.19157774E+03</pdfrwt>
<totfact> 0.18116846E+03</totfact>
</mgrwt>
</event>
<event>
 4    1  0.4751076E-004  0.2206917E+03  0.7818608E-02  0.1133368E+00
          2   -1    0    0  501    0  0.00000000000E+00  0.00000000000E+00  0.94075363463E+03  0.94075363463E+03  0.25500000000E-02 0.  1.
         -2   -1    0    0    0  501 -0.00000000000E+00 -0.00000000000E+00 -0.12943038467E+02  0.12943038718E+02  0.25500000000E-02 0. -1.
    5000001    1    1    2    0    0  0.31950330043E+02  0.43162378794E+02  0.71452384213E+03  0.72066437092E+03  0.77000000000E+02 0.  0.
   -5000001    1    1    2    0    0 -0.31950330043E+02 -0.43162378794E+02  0.21328675403E+03  0.23303230243E+03  0.77000000000E+02 0.  0.
<mgrwt>
<rscale>  0 0.22069174E+03</rscale>
<asrwt>0</asrwt>
<pdfrwt beam="1">  1        2 0.14473139E+00 0.22069174E+03</pdfrwt>
<pdfrwt beam="2">  1       -2 0.19912358E-02 0.22069174E+03</pdfrwt>
<totfact> 0.21902170E+04</totfact>
</mgrwt>
</event>
<event>
 4    1  0.4751076E-004  0.1670105E+03  0.7818608E-02  0.1181002E+00
          2   -1    0    0  501    0  0.00000000000E+00  0.00000000000E+00  0.63336193535E+03  0.63336193536E+03  0.25500000000E-02 0.  1.
         -2   -1    0    0    0  501 -0.00000000000E+00 -0.00000000000E+00 -0.11009697027E+02  0.11009697322E+02  0.25500000000E-02 0. -1.
    5000001    1    1    2    0    0 -0.28203490105E+02 -0.48681386357E+01  0.25330366067E+03  0.26629096894E+03  0.77000000000E+02 0.  0.
   -5000001    1    1    2    0    0  0.28203490105E+02  0.48681386357E+01  0.36904857765E+03  0.37808066374E+03  0.77000000000E+02 0.  0.
<mgrwt>
<rscale>  0 0.16701046E+03</rscale>
<asrwt>0</asrwt>
<pdfrwt beam="1">  1        2 0.97440340E-01 0.16701046E+03</pdfrwt>
<pdfrwt beam="2">  1       -2 0.16937988E-02 0.16701046E+03</pdfrwt>
<totfact> 0.44492887E+04</totfact>
</mgrwt>
</event>
<event>
 4    1  0.4751076E-004  0.2022559E+03  0.7818608E-02  0.1147850E+00
          2   -1    0    0  501    0  0.00000000000E+00  0.00000000000E+00  0.92978773839E+03  0.92978773839E+03  0.25500000000E-02 0.  1.
         -2   -1    0    0    0  501 -0.00000000000E+00 -0.00000000000E+00 -0.10999133748E+02  0.10999134044E+02  0.25500000000E-02 0. -1.
    5000001    1    1    2    0    0 -0.16782548034E+02 -0.46096425736E+02  0.66168375266E+03  0.66795278495E+03  0.77000000000E+02 0.  0.
   -5000001    1    1    2    0    0  0.16782548034E+02  0.46096425736E+02  0.25710485198E+03  0.27283408749E+03  0.77000000000E+02 0.  0.
<mgrwt>
<rscale>  0 0.20225588E+03</rscale>
<asrwt>0</asrwt>
<pdfrwt beam="1">  1        2 0.14304430E+00 0.20225588E+03</pdfrwt>
<pdfrwt beam="2">  1       -2 0.16921740E-02 0.20225588E+03</pdfrwt>
<totfact> 0.28073840E+04</totfact>
</mgrwt>
</event>
<event>
 4    1  0.4751076E-004  0.2626591E+03  0.7818608E-02  0.1105556E+00
          2   -1    0    0  501    0  0.00000000000E+00  0.00000000000E+00  0.37044809643E+03  0.37044809644E+03  0.25500000000E-02 0.  1.
         -2   -1    0    0    0  501 -0.00000000000E+00 -0.00000000000E+00 -0.46558343717E+02  0.46558343787E+02  0.25500000000E-02 0. -1.
    5000001    1    1    2    0    0  0.36539467732E+02  0.94647217293E+02  0.11111030710E+03  0.16901990648E+03  0.77000000000E+02 0.  0.
   -5000001    1    1    2    0    0 -0.36539467732E+02 -0.94647217293E+02  0.21277944561E+03  0.24798653374E+03  0.77000000000E+02 0.  0.
<mgrwt>
<rscale>  0 0.26265909E+03</rscale>
<asrwt>0</asrwt>
<pdfrwt beam="1">  1        2 0.56992015E-01 0.26265909E+03</pdfrwt>
<pdfrwt beam="2">  1       -2 0.71628221E-02 0.26265909E+03</pdfrwt>
<totfact> 0.96688637E+03</totfact>
</mgrwt>
</event>
<event>
 4    1  0.4751076E-004  0.1728931E+03  0.7818608E-02  0.1174864E+00
          2   -1    0    0  501    0  0.00000000000E+00  0.00000000000E+00  0.16846299679E+04  0.16846299679E+04  0.25500000000E-02 0.  1.
         -2   -1    0    0    0  501 -0.00000000000E+00 -0.00000000000E+00 -0.44359900133E+01  0.44359907463E+01  0.25500000000E-02 0. -1.
    5000001    1    1    2    0    0  0.81653737441E+01  0.36285403433E+02  0.71625298878E+03  0.72133948164E+03  0.77000000000E+02 0.  0.
   -5000001    1    1    2    0    0 -0.81653737441E+01 -0.36285403433E+02  0.96394098912E+03  0.96772647703E+03  0.77000000000E+02 0.  0.
<mgrwt>
<rscale>  0 0.17289306E+03</rscale>
<asrwt>0</asrwt>
<pdfrwt beam="1">  1        2 0.25917400E+00 0.17289306E+03</pdfrwt>
<pdfrwt beam="2">  1       -2 0.68245964E-03 0.17289306E+03</pdfrwt>
<totfact> 0.39284462E+04</totfact>
</mgrwt>
</event>
<event>
 4    1  0.4751076E-004  0.2364813E+03  0.7818608E-02  0.1122159E+00
          2   -1    0    0  501    0  0.00000000000E+00  0.00000000000E+00  0.15791855074E+02  0.15791855280E+02  0.25500000000E-02 0.  1.
         -2   -1    0    0    0  501 -0.00000000000E+00 -0.00000000000E+00 -0.88532023768E+03  0.88532023768E+03  0.25500000000E-02 0. -1.
    5000001    1    1    2    0    0 -0.82748435627E+02  0.34628254387E+02 -0.42588533125E+03  0.44198838783E+03  0.77000000000E+02 0.  0.
   -5000001    1    1    2    0    0  0.82748435627E+02 -0.34628254387E+02 -0.44364305135E+03  0.45912370513E+03  0.77000000000E+02 0.  0.
<mgrwt>
<rscale>  0 0.23648128E+03</rscale>
<asrwt>0</asrwt>
<pdfrwt beam="1">  1        2 0.24295169E-02 0.23648128E+03</pdfrwt>
<pdfrwt beam="2">  1       -2 0.13620307E+00 0.23648128E+03</pdfrwt>
<totfact> 0.16867932E+03</totfact>
</mgrwt>
</event>
<event>
 4    1  0.4751076E-004  0.1895489E+03  0.7818608E-02  0.1158869E+00
         -2   -1    0    0    0  501 -0.00000000000E+00  0.00000000000E+00  0.18147185685E+02  0.18147185864E+02  0.25500000000E-02 0. -1.
          2   -1    0    0  501    0  0.00000000000E+00 -0.00000000000E+00 -0.49496380959E+03  0.49496380959E+03  0.25500000000E-02 0.  1.
    5000001    1    1    2    0    0  0.55168649383E+02 -0.21121539846E+01 -0.23225967937E+03  0.25084178227E+03  0.77000000000E+02 0.  0.
   -5000001    1    1    2    0    0 -0.55168649383E+02  0.21121539846E+01 -0.24455694453E+03  0.26226921319E+03  0.77000000000E+02 0.  0.
<mgrwt>
<rscale>  0 0.18954894E+03</rscale>
<asrwt>0</asrwt>
<pdfrwt beam="1">  1        2 0.76148268E-01 0.18954894E+03</pdfrwt>
<pdfrwt beam="2">  1       -2 0.27918751E-02 0.18954894E+03</pdfrwt>
<totfact> 0.28623258E+04</totfact>
</mgrwt>
</event>
<event>
 4    1  0.4751076E-004  0.5249119E+03  0.7818608E-02  0.1007474E+00
         -2   -1    0    0    0  501 -0.00000000000E+00  0.00000000000E+00  0.86839681457E+02  0.86839681494E+02  0.25500000000E-02 0. -1.
          2   -1    0    0  501    0  0.00000000000E+00 -0.00000000000E+00 -0.79322176345E+03  0.79322176345E+03  0.25500000000E-02 0.  1.
    5000001    1    1    2    0    0 -0.20339801079E+03  0.14678119162E+03 -0.34276698851E+03  0.43166384771E+03  0.77000000000E+02 0.  0.
   -5000001    1    1    2    0    0  0.20339801079E+03 -0.14678119162E+03 -0.36361509348E+03  0.44839759724E+03  0.77000000000E+02 0.  0.
<mgrwt>
<rscale>  0 0.52491190E+03</rscale>
<asrwt>0</asrwt>
<pdfrwt beam="1">  1        2 0.12203411E+00 0.52491190E+03</pdfrwt>
<pdfrwt beam="2">  1       -2 0.13359952E-01 0.52491190E+03</pdfrwt>
<totfact> 0.14881945E+03</totfact>
</mgrwt>
</event>
<event>
 4    1  0.4751076E-004  0.3552428E+03  0.7818608E-02  0.1060484E+00
          2   -1    0    0  501    0  0.00000000000E+00  0.00000000000E+00  0.89233548026E+03  0.89233548027E+03  0.25500000000E-02 0.  1.
         -2   -1    0    0    0  501 -0.00000000000E+00 -0.00000000000E+00 -0.35355943959E+02  0.35355944051E+02  0.25500000000E-02 0. -1.
    5000001    1    1    2    0    0 -0.52186676178E+02 -0.13428100526E+03  0.61064562252E+03  0.63211700962E+03  0.77000000000E+02 0.  0.
   -5000001    1    1    2    0    0  0.52186676178E+02  0.13428100526E+03  0.24633391378E+03  0.29557441469E+03  0.77000000000E+02 0.  0.
<mgrwt>
<rscale>  0 0.35524281E+03</rscale>
<asrwt>0</asrwt>
<pdfrwt beam="1">  1        2 0.13728239E+00 0.35524281E+03</pdfrwt>
<pdfrwt beam="2">  1       -2 0.54393757E-02 0.35524281E+03</pdfrwt>
<totfact> 0.53125287E+03</totfact>
</mgrwt>
</event>
<event>
 4    1  0.4751076E-004  0.1990020E+03  0.7818608E-02  0.1150584E+00
         -2   -1    0    0    0  501 -0.00000000000E+00  0.00000000000E+00  0.40948130925E+02  0.40948131004E+02  0.25500000000E-02 0. -1.
          2   -1    0    0  501    0  0.00000000000E+00 -0.00000000000E+00 -0.24178022130E+03  0.24178022131E+03  0.25500000000E-02 0.  1.
    5000001    1    1    2    0    0  0.46307560893E+02  0.31922750873E+02 -0.14080071454E+03  0.17005085544E+03  0.77000000000E+02 0.  0.
   -5000001    1    1    2    0    0 -0.46307560893E+02 -0.31922750873E+02 -0.60031375835E+02  0.11267749688E+03  0.77000000000E+02 0.  0.
<mgrwt>
<rscale>  0 0.19900199E+03</rscale>
<asrwt>0</asrwt>
<pdfrwt beam="1">  1        2 0.37196956E-01 0.19900199E+03</pdfrwt>
<pdfrwt beam="2">  1       -2 0.62997126E-02 0.19900199E+03</pdfrwt>
<totfact> 0.18336953E+04</totfact>
</mgrwt>
</event>
<event>
 4    1  0.4751076E-004  0.2060424E+03  0.7818608E-02  0.1144739E+00
         -2   -1    0    0    0  501 -0.00000000000E+00  0.00000000000E+00  0.16937099946E+02  0.16937100138E+02  0.25500000000E-02 0. -1.
          2   -1    0    0  501    0  0.00000000000E+00 -0.00000000000E+00 -0.62663434318E+03  0.62663434318E+03  0.25500000000E-02 0.  1.
    5000001    1    1    2    0    0 -0.12961401344E+01 -0.68352221689E+02 -0.31504784510E+03  0.33144811192E+03  0.77000000000E+02 0.  0.
   -5000001    1    1    2    0    0  0.12961401344E+01  0.68352221689E+02 -0.29464939813E+03  0.31212333141E+03  0.77000000000E+02 0.  0.
<mgrwt>
<rscale>  0 0.20604241E+03</rscale>
<asrwt>0</asrwt>
<pdfrwt beam="1">  1        2 0.96405266E-01 0.20604241E+03</pdfrwt>
<pdfrwt beam="2">  1       -2 0.26057082E-02 0.20604241E+03</pdfrwt>
<totfact> 0.24405618E+04</totfact>
</mgrwt>
</event>
<event>
 4    1  0.4751076E-004  0.2495706E+03  0.7818608E-02  0.1113576E+00
          2   -1    0    0  501    0  0.00000000000E+00  0.00000000000E+00  0.34324313816E+03  0.34324313817E+03  0.25500000000E-02 0.  1.
         -2   -1    0    0    0  501 -0.00000000000E+00 -0.00000000000E+00 -0.45365437930E+02  0.45365438002E+02  0.25500000000E-02 0. -1.
    5000001    1    1    2    0    0 -0.61535905123E+02  0.32673453085E+02  0.25668528648E+03  0.27689448975E+03  0.77000000000E+02 0.  0.
   -5000001    1    1    2    0    0  0.61535905123E+02 -0.32673453085E+02  0.41192413752E+02  0.11171408643E+03  0.77000000000E+02 0.  0.
<mgrwt>
<rscale>  0 0.24957063E+03</rscale>
<asrwt>0</asrwt>
<pdfrwt beam="1">  1        2 0.52806636E-01 0.24957063E+03</pdfrwt>
<pdfrwt beam="2">  1       -2 0.69792983E-02 0.24957063E+03</pdfrwt>
<totfact> 0.10903225E+04</totfact>
</mgrwt>
</event>
<event>
 4    1  0.4751076E-004  0.2970316E+03  0.7818608E-02  0.1086734E+00
         -2   -1    0    0    0  501 -0.00000000000E+00  0.00000000000E+00  0.61297347158E+02  0.61297347211E+02  0.25500000000E-02 0. -1.
          2   -1    0    0  501    0  0.00000000000E+00 -0.00000000000E+00 -0.35983512499E+03  0.35983512500E+03  0.25500000000E-02 0.  1.
    5000001    1    1    2    0    0  0.66788770491E+02 -0.10438664019E+03 -0.18862738822E+03  0.23846719292E+03  0.77000000000E+02 0.  0.
   -5000001    1    1    2    0    0 -0.66788770491E+02  0.10438664019E+03 -0.10991038961E+03  0.18266527929E+03  0.77000000000E+02 0.  0.
<mgrwt>
<rscale>  0 0.29703157E+03</rscale>
<asrwt>0</asrwt>
<pdfrwt beam="1">  1        2 0.55359249E-01 0.29703157E+03</pdfrwt>
<pdfrwt beam="2">  1       -2 0.94303613E-02 0.29703157E+03</pdfrwt>
<totfact> 0.65148771E+03</totfact>
</mgrwt>
</event>
<event>
 4    1  0.4751076E-004  0.1968805E+03  0.7818608E-02  0.1152398E+00
          2   -1    0    0  501    0  0.00000000000E+00  0.00000000000E+00  0.64675518306E+03  0.64675518307E+03  0.25500000000E-02 0.  1.
         -2   -1    0    0    0  501 -0.00000000000E+00 -0.00000000000E+00 -0.14983234790E+02  0.14983235007E+02  0.25500000000E-02 0. -1.
    5000001    1    1    2    0    0  0.51122414539E+02 -0.29897850490E+02  0.36946412590E+03  0.38202110290E+03  0.77000000000E+02 0.  0.
   -5000001    1    1    2    0    0 -0.51122414539E+02  0.29897850490E+02  0.26230782238E+03  0.27971731518E+03  0.77000000000E+02 0.  0.
<mgrwt>
<rscale>  0 0.19688052E+03</rscale>
<asrwt>0</asrwt>
<pdfrwt beam="1">  1        2 0.99500800E-01 0.19688052E+03</pdfrwt>
<pdfrwt beam="2">  1       -2 0.23051130E-02 0.19688052E+03</pdfrwt>
<totfact> 0.28076059E+04</totfact>
</mgrwt>
</event>
<event>
 4    1  0.4751076E-004  0.2153519E+03  0.7818608E-02  0.1137397E+00
          2   -1    0    0  501    0  0.00000000000E+00  0.00000000000E+00  0.11407750707E+04  0.11407750707E+04  0.25500000000E-02 0.  1.
         -2   -1    0    0    0  501 -0.00000000000E+00 -0.00000000000E+00 -0.10163358713E+02  0.10163359033E+02  0.25500000000E-02 0. -1.
    5000001    1    1    2    0    0 -0.69953439795E+00 -0.60412819948E+02  0.80520632367E+03  0.81113280160E+03  0.77000000000E+02 0.  0.
   -5000001    1    1    2    0    0  0.69953439795E+00  0.60412819948E+02  0.32540538830E+03  0.33980562811E+03  0.77000000000E+02 0.  0.
<mgrwt>
<rscale>  0 0.21535187E+03</rscale>
<asrwt>0</asrwt>
<pdfrwt beam="1">  1        2 0.17550378E+00 0.21535187E+03</pdfrwt>
<pdfrwt beam="2">  1       -2 0.15635943E-02 0.21535187E+03</pdfrwt>
<totfact> 0.23637992E+04</totfact>
</mgrwt>
</event>
<event>
 4    1  0.4751076E-004  0.1610212E+03  0.7818608E-02  0.1187549E+00
          2   -1    0    0  501    0  0.00000000000E+00  0.00000000000E+00  0.88912032986E+03  0.88912032986E+03  0.25500000000E-02 0.  1.
         -2   -1    0    0    0  501 -0.00000000000E+00 -0.00000000000E+00 -0.72903061214E+01  0.72903065674E+01  0.25500000000E-02 0. -1.
    5000001    1    1    2    0    0 -0.77507676320E+01 -0.18392946871E+02  0.37169891785E+03  0.38011506209E+03  0.77000000000E+02 0.  0.
   -5000001    1    1    2    0    0  0.77507676320E+01  0.18392946871E+02  0.51013110588E+03  0.51629557434E+03  0.77000000000E+02 0.  0.
<mgrwt>
<rscale>  0 0.16102124E+03</rscale>
<asrwt>0</asrwt>
<pdfrwt beam="1">  1        2 0.13678779E+00 0.16102124E+03</pdfrwt>
<pdfrwt beam="2">  1       -2 0.11215852E-02 0.16102124E+03</pdfrwt>
<totfact> 0.53058068E+04</totfact>
</mgrwt>
</event>
<event>
 4    1  0.4751076E-004  0.2023696E+03  0.7818608E-02  0.1147755E+00
         -2   -1    0    0    0  501 -0.00000000000E+00  0.00000000000E+00  0.59795034250E+01  0.59795039687E+01  0.25500000000E-02 0. -1.
          2   -1    0    0  501    0  0.00000000000E+00 -0.00000000000E+00 -0.17122423348E+04  0.17122423348E+04  0.25500000000E-02 0.  1.
    5000001    1    1    2    0    0 -0.40182687795E+02  0.11154496099E+01 -0.12937774474E+04  0.12966900077E+04  0.77000000000E+02 0.  0.
   -5000001    1    1    2    0    0  0.40182687795E+02 -0.11154496099E+01 -0.41248538397E+03  0.42153183109E+03  0.77000000000E+02 0.  0.
<mgrwt>
<rscale>  0 0.20236956E+03</rscale>
<asrwt>0</asrwt>
<pdfrwt beam="1">  1        2 0.26342151E+00 0.20236956E+03</pdfrwt>
<pdfrwt beam="2">  1       -2 0.91992501E-03 0.20236956E+03</pdfrwt>
<totfact> 0.24981150E+04</totfact>
</mgrwt>
</event>
<event>
 4    1  0.4751076E-004  0.8513524E+03  0.7818608E-02  0.9488524E-01
          2   -1    0    0  501    0  0.00000000000E+00  0.00000000000E+00  0.12361266863E+04  0.12361266863E+04  0.25500000000E-02 0.  1.
         -2   -1    0    0    0  501 -0.00000000000E+00 -0.00000000000E+00 -0.14658708565E+03  0.14658708567E+03  0.25500000000E-02 0. -1.
    5000001    1    1    2    0    0 -0.61653555326E+02 -0.31685642903E+03  0.97775432094E+03  0.10325365222E+04  0.77000000000E+02 0.  0.
   -5000001    1    1    2    0    0  0.61653555326E+02  0.31685642903E+03  0.11178527968E+03  0.35017724977E+03  0.77000000000E+02 0.  0.
<mgrwt>
<rscale>  0 0.85135236E+03</rscale>
<asrwt>0</asrwt>
<pdfrwt beam="1">  1        2 0.19017333E+00 0.85135236E+03</pdfrwt>
<pdfrwt beam="2">  1       -2 0.22551860E-01 0.85135236E+03</pdfrwt>
<totfact> 0.31228262E+02</totfact>
</mgrwt>
</event>
<event>
 4    1  0.4751076E-004  0.3597271E+03  0.7818608E-02  0.1058692E+00
         -2   -1    0    0    0  501 -0.00000000000E+00  0.00000000000E+00  0.98634233898E+01  0.98634237194E+01  0.25500000000E-02 0. -1.
          2   -1    0    0  501    0  0.00000000000E+00 -0.00000000000E+00 -0.32798854387E+04  0.32798854387E+04  0.25500000000E-02 0.  1.
    5000001    1    1    2    0    0  0.13268784101E+03 -0.93787855725E+02 -0.15944471922E+04  0.16045538551E+04  0.77000000000E+02 0.  0.
   -5000001    1    1    2    0    0 -0.13268784101E+03  0.93787855725E+02 -0.16755748230E+04  0.16851950073E+04  0.77000000000E+02 0.  0.
<mgrwt>
<rscale>  0 0.35972711E+03</rscale>
<asrwt>0</asrwt>
<pdfrwt beam="1">  1        2 0.50459689E+00 0.35972711E+03</pdfrwt>
<pdfrwt beam="2">  1       -2 0.15174524E-02 0.35972711E+03</pdfrwt>
<totfact> 0.16113390E+03</totfact>
</mgrwt>
</event>
<event>
 4    1  0.4751076E-004  0.1659888E+03  0.7818608E-02  0.1182097E+00
          2   -1    0    0  501    0  0.00000000000E+00  0.00000000000E+00  0.21856870131E+03  0.21856870133E+03  0.25500000000E-02 0.  1.
         -2   -1    0    0    0  501 -0.00000000000E+00 -0.00000000000E+00 -0.31514443075E+02  0.31514443178E+02  0.25500000000E-02 0. -1.
    5000001    1    1    2    0    0  0.26218534626E+02 -0.78988928130E+01  0.71732181271E+02  0.10873964270E+03  0.77000000000E+02 0.  0.
   -5000001    1    1    2    0    0 -0.26218534626E+02  0.78988928130E+01  0.11532207697E+03  0.14134350180E+03  0.77000000000E+02 0.  0.
<mgrwt>
<rscale>  0 0.16598881E+03</rscale>
<asrwt>0</asrwt>
<pdfrwt beam="1">  1        2 0.33625954E-01 0.16598881E+03</pdfrwt>
<pdfrwt beam="2">  1       -2 0.48483759E-02 0.16598881E+03</pdfrwt>
<totfact> 0.29957976E+04</totfact>
</mgrwt>
</event>
<event>
 4    1  0.4751076E-004  0.3064809E+03  0.7818608E-02  0.1082045E+00
          2   -1    0    0  501    0  0.00000000000E+00  0.00000000000E+00  0.23749253235E+03  0.23749253236E+03  0.25500000000E-02 0. -1.
         -2   -1    0    0    0  501 -0.00000000000E+00 -0.00000000000E+00 -0.98877367502E+02  0.98877367534E+02  0.25500000000E-02 0.  1.
    5000001    1    1    2    0    0  0.96475743065E+02 -0.57409751080E+01  0.16877194103E+03  0.20917336321E+03  0.77000000000E+02 0.  0.
   -5000001    1    1    2    0    0 -0.96475743065E+02  0.57409751080E+01 -0.30156776189E+02  0.12719653669E+03  0.77000000000E+02 0.  0.
<mgrwt>
<rscale>  0 0.30648091E+03</rscale>
<asrwt>0</asrwt>
<pdfrwt beam="1">  1        2 0.36537312E-01 0.30648091E+03</pdfrwt>
<pdfrwt beam="2">  1       -2 0.15211903E-01 0.30648091E+03</pdfrwt>
<totfact> 0.47105562E+03</totfact>
</mgrwt>
</event>
<event>
 4    1  0.4751076E-004  0.2618341E+03  0.7818608E-02  0.1106046E+00
         -2   -1    0    0    0  501 -0.00000000000E+00  0.00000000000E+00  0.12763059907E+02  0.12763060162E+02  0.25500000000E-02 0. -1.
          2   -1    0    0  501    0  0.00000000000E+00 -0.00000000000E+00 -0.13428808629E+04  0.13428808629E+04  0.25500000000E-02 0.  1.
    5000001    1    1    2    0    0  0.38603691299E+02  0.97630035749E+02 -0.73612462492E+03  0.74754955172E+03  0.77000000000E+02 0.  0.
   -5000001    1    1    2    0    0 -0.38603691299E+02 -0.97630035749E+02 -0.59399317803E+03  0.60809437130E+03  0.77000000000E+02 0.  0.
<mgrwt>
<rscale>  0 0.26183406E+03</rscale>
<asrwt>0</asrwt>
<pdfrwt beam="1">  1        2 0.20659694E+00 0.26183406E+03</pdfrwt>
<pdfrwt beam="2">  1       -2 0.19635488E-02 0.26183406E+03</pdfrwt>
<totfact> 0.13164507E+04</totfact>
</mgrwt>
</event>
<event>
 4    1  0.4751076E-004  0.1967655E+03  0.7818608E-02  0.1152497E+00
         -2   -1    0    0    0  501 -0.00000000000E+00  0.00000000000E+00  0.14107649851E+03  0.14107649853E+03  0.25500000000E-02 0. -1.
          2   -1    0    0  501    0  0.00000000000E+00 -0.00000000000E+00 -0.68609358913E+02  0.68609358960E+02  0.25500000000E-02 0.  1.
    5000001    1    1    2    0    0  0.63287560024E+01  0.60098545724E+02  0.25668990449E+02  0.10119182487E+03  0.77000000000E+02 0.  0.
   -5000001    1    1    2    0    0 -0.63287560024E+01 -0.60098545724E+02  0.46798149150E+02  0.10849403262E+03  0.77000000000E+02 0.  0.
<mgrwt>
<rscale>  0 0.19676553E+03</rscale>
<asrwt>0</asrwt>
<pdfrwt beam="1">  1        2 0.10555286E-01 0.19676553E+03</pdfrwt>
<pdfrwt beam="2">  1       -2 0.21704077E-01 0.19676553E+03</pdfrwt>
<totfact> 0.10556749E+04</totfact>
</mgrwt>
</event>
<event>
 4    1  0.4751076E-004  0.2079298E+03  0.7818608E-02  0.1143216E+00
          2   -1    0    0  501    0  0.00000000000E+00  0.00000000000E+00  0.50775189789E+02  0.50775189853E+02  0.25500000000E-02 0.  1.
         -2   -1    0    0    0  501 -0.00000000000E+00 -0.00000000000E+00 -0.21287375044E+03  0.21287375045E+03  0.25500000000E-02 0. -1.
    5000001    1    1    2    0    0  0.25756260926E+02 -0.63855631432E+02 -0.95986515311E+02  0.14100828970E+03  0.77000000000E+02 0.  0.
   -5000001    1    1    2    0    0 -0.25756260926E+02  0.63855631432E+02 -0.66112045338E+02  0.12264065061E+03  0.77000000000E+02 0.  0.
<mgrwt>
<rscale>  0 0.20792984E+03</rscale>
<asrwt>0</asrwt>
<pdfrwt beam="1">  1        2 0.78115678E-02 0.20792984E+03</pdfrwt>
<pdfrwt beam="2">  1       -2 0.32749807E-01 0.20792984E+03</pdfrwt>
<totfact> 0.74303565E+03</totfact>
</mgrwt>
</event>
<event>
 4    1  0.4751076E-004  0.1987693E+03  0.7818608E-02  0.1150782E+00
          2   -1    0    0  501    0  0.00000000000E+00  0.00000000000E+00  0.66608538993E+03  0.66608538994E+03  0.25500000000E-02 0.  1.
         -2   -1    0    0    0  501 -0.00000000000E+00 -0.00000000000E+00 -0.14828892561E+02  0.14828892781E+02  0.25500000000E-02 0. -1.
    5000001    1    1    2    0    0 -0.11013820840E+02  0.40810357720E+02  0.48489410593E+03  0.49278604233E+03  0.77000000000E+02 0.  0.
   -5000001    1    1    2    0    0  0.11013820840E+02 -0.40810357720E+02  0.16636239144E+03  0.18812824039E+03  0.77000000000E+02 0.  0.
<mgrwt>
<rscale>  0 0.19876930E+03</rscale>
<asrwt>0</asrwt>
<pdfrwt beam="1">  1        2 0.10247466E+00 0.19876930E+03</pdfrwt>
<pdfrwt beam="2">  1       -2 0.22813684E-02 0.19876930E+03</pdfrwt>
<totfact> 0.27552128E+04</totfact>
</mgrwt>
</event>
<event>
 4    1  0.4751076E-004  0.2122607E+03  0.7818608E-02  0.1139788E+00
         -2   -1    0    0    0  501 -0.00000000000E+00  0.00000000000E+00  0.15558389415E+03  0.15558389417E+03  0.25500000000E-02 0. -1.
          2   -1    0    0  501    0  0.00000000000E+00 -0.00000000000E+00 -0.72396013742E+02  0.72396013787E+02  0.25500000000E-02 0.  1.
    5000001    1    1    2    0    0 -0.68118387097E+02  0.11146235961E+02  0.67243434822E+02  0.12334923090E+03  0.77000000000E+02 0.  0.
   -5000001    1    1    2    0    0  0.68118387097E+02 -0.11146235961E+02  0.15944445587E+02  0.10463067706E+03  0.77000000000E+02 0.  0.
<mgrwt>
<rscale>  0 0.21226072E+03</rscale>
<asrwt>0</asrwt>
<pdfrwt beam="1">  1        2 0.11137848E-01 0.21226072E+03</pdfrwt>
<pdfrwt beam="2">  1       -2 0.23935984E-01 0.21226072E+03</pdfrwt>
<totfact> 0.83812013E+03</totfact>
</mgrwt>
</event>
<event>
 4    1  0.4751076E-004  0.2286121E+03  0.7818608E-02  0.1127620E+00
          2   -1    0    0  501    0  0.00000000000E+00  0.00000000000E+00  0.10216792483E+04  0.10216792483E+04  0.25500000000E-02 0.  1.
         -2   -1    0    0    0  501 -0.00000000000E+00 -0.00000000000E+00 -0.12788627723E+02  0.12788627977E+02  0.25500000000E-02 0. -1.
    5000001    1    1    2    0    0 -0.57386135022E+02  0.57790103221E+02  0.40285838115E+03  0.41815874951E+03  0.77000000000E+02 0.  0.
   -5000001    1    1    2    0    0  0.57386135022E+02 -0.57790103221E+02  0.60603223939E+03  0.61630912674E+03  0.77000000000E+02 0.  0.
<mgrwt>
<rscale>  0 0.22861212E+03</rscale>
<asrwt>0</asrwt>
<pdfrwt beam="1">  1        2 0.15718138E+00 0.22861212E+03</pdfrwt>
<pdfrwt beam="2">  1       -2 0.19674817E-02 0.22861212E+03</pdfrwt>
<totfact> 0.19917340E+04</totfact>
</mgrwt>
</event>
<event>
 4    1  0.4751076E-004  0.3083457E+03  0.7818608E-02  0.1081142E+00
          2   -1    0    0  501    0  0.00000000000E+00  0.00000000000E+00  0.13781547820E+04  0.13781547821E+04  0.25500000000E-02 0.  1.
         -2   -1    0    0    0  501 -0.00000000000E+00 -0.00000000000E+00 -0.17247165166E+02  0.17247165355E+02  0.25500000000E-02 0. -1.
    5000001    1    1    2    0    0 -0.29345339565E+01  0.12366084155E+03  0.90851334484E+03  0.92012287928E+03  0.77000000000E+02 0.  0.
   -5000001    1    1    2    0    0  0.29345339565E+01 -0.12366084155E+03  0.45239427204E+03  0.47527906813E+03  0.77000000000E+02 0.  0.
<mgrwt>
<rscale>  0 0.30834567E+03</rscale>
<asrwt>0</asrwt>
<pdfrwt beam="1">  1        2 0.21202382E+00 0.30834567E+03</pdfrwt>
<pdfrwt beam="2">  1       -2 0.26534100E-02 0.30834567E+03</pdfrwt>
<totfact> 0.80979082E+03</totfact>
</mgrwt>
</event>
<event>
 4    1  0.4751076E-004  0.2042867E+03  0.7818608E-02  0.1146172E+00
          2   -1    0    0  501    0  0.00000000000E+00  0.00000000000E+00  0.34634200434E+03  0.34634200435E+03  0.25500000000E-02 0.  1.
         -2   -1    0    0    0  501 -0.00000000000E+00 -0.00000000000E+00 -0.30124162285E+02  0.30124162393E+02  0.25500000000E-02 0. -1.
    5000001    1    1    2    0    0 -0.45140717834E+02 -0.48518111343E+02  0.13855654263E+03  0.17180979902E+03  0.77000000000E+02 0.  0.
   -5000001    1    1    2    0    0  0.45140717834E+02  0.48518111343E+02  0.17766129943E+03  0.20465636772E+03  0.77000000000E+02 0.  0.
<mgrwt>
<rscale>  0 0.20428669E+03</rscale>
<asrwt>0</asrwt>
<pdfrwt beam="1">  1        2 0.53283384E-01 0.20428669E+03</pdfrwt>
<pdfrwt beam="2">  1       -2 0.46344866E-02 0.20428669E+03</pdfrwt>
<totfact> 0.19926262E+04</totfact>
</mgrwt>
</event>
<event>
 4    1  0.4751076E-004  0.1866246E+03  0.7818608E-02  0.1161541E+00
         -2   -1    0    0    0  501 -0.00000000000E+00  0.00000000000E+00  0.15487589997E+03  0.15487589999E+03  0.25500000000E-02 0. -1.
          2   -1    0    0  501    0  0.00000000000E+00 -0.00000000000E+00 -0.56220425034E+02  0.56220425091E+02  0.25500000000E-02 0.  1.
    5000001    1    1    2    0    0  0.38482326162E+02  0.31728935329E+02  0.30046265078E+02  0.96537002279E+02  0.77000000000E+02 0.  0.
   -5000001    1    1    2    0    0 -0.38482326162E+02 -0.31728935329E+02  0.68609209861E+02  0.11455932281E+03  0.77000000000E+02 0.  0.
<mgrwt>
<rscale>  0 0.18662464E+03</rscale>
<asrwt>0</asrwt>
<pdfrwt beam="1">  1        2 0.86492962E-02 0.18662464E+03</pdfrwt>
<pdfrwt beam="2">  1       -2 0.23827061E-01 0.18662464E+03</pdfrwt>
<totfact> 0.11456169E+04</totfact>
</mgrwt>
</event>
<event>
 4    1  0.4751076E-004  0.2380140E+03  0.7818608E-02  0.1121123E+00
          2   -1    0    0  501    0  0.00000000000E+00  0.00000000000E+00  0.11715613118E+04  0.11715613118E+04  0.25500000000E-02 0.  1.
         -2   -1    0    0    0  501 -0.00000000000E+00 -0.00000000000E+00 -0.12088712661E+02  0.12088712930E+02  0.25500000000E-02 0. -1.
    5000001    1    1    2    0    0 -0.12191139926E+02  0.74514317465E+02  0.83000658646E+03  0.83698323817E+03  0.77000000000E+02 0.  0.
   -5000001    1    1    2    0    0  0.12191139926E+02 -0.74514317465E+02  0.32946601271E+03  0.34666678660E+03  0.77000000000E+02 0.  0.
<mgrwt>
<rscale>  0 0.23801402E+03</rscale>
<asrwt>0</asrwt>
<pdfrwt beam="1">  1        2 0.18024022E+00 0.23801402E+03</pdfrwt>
<pdfrwt beam="2">  1       -2 0.18598018E-02 0.23801402E+03</pdfrwt>
<totfact> 0.17705486E+04</totfact>
</mgrwt>
</event>
<event>
 4    1  0.4751076E-004  0.2988231E+03  0.7818608E-02  0.1085830E+00
          2   -1    0    0  501    0  0.00000000000E+00  0.00000000000E+00  0.84800097576E+02  0.84800097615E+02  0.25500000000E-02 0.  1.
         -2   -1    0    0    0  501 -0.00000000000E+00 -0.00000000000E+00 -0.26325217439E+03  0.26325217440E+03  0.25500000000E-02 0. -1.
    5000001    1    1    2    0    0 -0.30161530779E+02  0.76979582211E+02  0.24652507011E+02  0.11563874834E+03  0.77000000000E+02 0.  0.
   -5000001    1    1    2    0    0  0.30161530779E+02 -0.76979582211E+02 -0.20310458383E+03  0.23241352368E+03  0.77000000000E+02 0.  0.
<mgrwt>
<rscale>  0 0.29882309E+03</rscale>
<asrwt>0</asrwt>
<pdfrwt beam="1">  1        2 0.13046169E-01 0.29882309E+03</pdfrwt>
<pdfrwt beam="2">  1       -2 0.40500334E-01 0.29882309E+03</pdfrwt>
<totfact> 0.26820097E+03</totfact>
</mgrwt>
</event>
<event>
 4    1  0.4751076E-004  0.2276174E+03  0.7818608E-02  0.1128328E+00
         -2   -1    0    0    0  501 -0.00000000000E+00  0.00000000000E+00  0.93679702586E+01  0.93679706057E+01  0.25500000000E-02 0. -1.
          2   -1    0    0  501    0  0.00000000000E+00 -0.00000000000E+00 -0.13826287676E+04  0.13826287676E+04  0.25500000000E-02 0.  1.
    5000001    1    1    2    0    0  0.65253870582E+01  0.83448357604E+02 -0.71200523576E+03  0.72103166700E+03  0.77000000000E+02 0.  0.
   -5000001    1    1    2    0    0 -0.65253870582E+01 -0.83448357604E+02 -0.66125556160E+03  0.67096507123E+03  0.77000000000E+02 0.  0.
<mgrwt>
<rscale>  0 0.22761745E+03</rscale>
<asrwt>0</asrwt>
<pdfrwt beam="1">  1        2 0.21271196E+00 0.22761745E+03</pdfrwt>
<pdfrwt beam="2">  1       -2 0.14412273E-02 0.22761745E+03</pdfrwt>
<totfact> 0.19585231E+04</totfact>
</mgrwt>
</event>
<event>
 4    1  0.4751076E-004  0.2114190E+03  0.7818608E-02  0.1140447E+00
          2   -1    0    0  501    0  0.00000000000E+00  0.00000000000E+00  0.25484926997E+04  0.25484926997E+04  0.25500000000E-02 0.  1.
         -2   -1    0    0    0  501 -0.00000000000E+00 -0.00000000000E+00 -0.43847466557E+01  0.43847473972E+01  0.25500000000E-02 0. -1.
    5000001    1    1    2    0    0 -0.47679478380E+02  0.31715258203E+02  0.73661312453E+03  0.74283718640E+03  0.77000000000E+02 0.  0.
   -5000001    1    1    2    0    0  0.47679478380E+02 -0.31715258203E+02  0.18074948285E+04  0.18100402607E+04  0.77000000000E+02 0.  0.
<mgrwt>
<rscale>  0 0.21141898E+03</rscale>
<asrwt>0</asrwt>
<pdfrwt beam="1">  1        2 0.39207672E+00 0.21141898E+03</pdfrwt>
<pdfrwt beam="2">  1       -2 0.67457489E-03 0.21141898E+03</pdfrwt>
<totfact> 0.14165307E+04</totfact>
</mgrwt>
</event>
<event>
 4    1  0.4751076E-004  0.2112316E+03  0.7818608E-02  0.1140594E+00
          2   -1    0    0  501    0  0.00000000000E+00  0.00000000000E+00  0.41498241044E+04  0.41498241044E+04  0.25500000000E-02 0.  1.
         -2   -1    0    0    0  501 -0.00000000000E+00 -0.00000000000E+00 -0.26879928325E+01  0.26879940420E+01  0.25500000000E-02 0. -1.
    5000001    1    1    2    0    0  0.19420317432E+02  0.60838809908E+02  0.27394078143E+04  0.27412337884E+04  0.77000000000E+02 0.  0.
   -5000001    1    1    2    0    0 -0.19420317432E+02 -0.60838809908E+02  0.14077282973E+04  0.14112783101E+04  0.77000000000E+02 0.  0.
<mgrwt>
<rscale>  0 0.21123163E+03</rscale>
<asrwt>0</asrwt>
<pdfrwt beam="1">  1        2 0.63843813E+00 0.21123163E+03</pdfrwt>
<pdfrwt beam="2">  1       -2 0.41353508E-03 0.21123163E+03</pdfrwt>
<totfact> 0.26331909E+03</totfact>
</mgrwt>
</event>
<event>
 4    1  0.4751076E-004  0.2245539E+03  0.7818608E-02  0.1130533E+00
         -2   -1    0    0    0  501 -0.00000000000E+00  0.00000000000E+00  0.13082413761E+04  0.13082413761E+04  0.25500000000E-02 0. -1.
          2   -1    0    0  501    0  0.00000000000E+00 -0.00000000000E+00 -0.96359187947E+01  0.96359191321E+01  0.25500000000E-02 0.  1.
    5000001    1    1    2    0    0  0.54645814284E+02  0.47273312746E+02  0.42534733829E+03  0.43825824500E+03  0.77000000000E+02 0.  0.
   -5000001    1    1    2    0    0 -0.54645814284E+02 -0.47273312746E+02  0.87325811903E+03  0.87961905026E+03  0.77000000000E+02 0.  0.
<mgrwt>
<rscale>  0 0.22455385E+03</rscale>
<asrwt>0</asrwt>
<pdfrwt beam="1">  1        2 0.14824500E-02 0.22455385E+03</pdfrwt>
<pdfrwt beam="2">  1       -2 0.20126778E+00 0.22455385E+03</pdfrwt>
<totfact> 0.11674615E+03</totfact>
</mgrwt>
</event>
<event>
 4    1  0.4751076E-004  0.2066173E+03  0.7818608E-02  0.1144273E+00
          2   -1    0    0  501    0  0.00000000000E+00  0.00000000000E+00  0.34095275330E+04  0.34095275330E+04  0.25500000000E-02 0.  1.
         -2   -1    0    0    0  501 -0.00000000000E+00 -0.00000000000E+00 -0.31302495138E+01  0.31302505524E+01  0.25500000000E-02 0. -1.
    5000001    1    1    2    0    0 -0.36822338559E+02  0.47099096087E+02  0.11383662479E+04  0.11425326796E+04  0.77000000000E+02 0.  0.
   -5000001    1    1    2    0    0  0.36822338559E+02 -0.47099096087E+02  0.22680310356E+04  0.22701251040E+04  0.77000000000E+02 0.  0.
<mgrwt>
<rscale>  0 0.20661727E+03</rscale>
<asrwt>0</asrwt>
<pdfrwt beam="1">  1        2 0.52454250E+00 0.20661727E+03</pdfrwt>
<pdfrwt beam="2">  1       -2 0.48157711E-03 0.20661727E+03</pdfrwt>
<totfact> 0.71527082E+03</totfact>
</mgrwt>
</event>
<event>
 4    1  0.4751076E-004  0.2119208E+03  0.7818608E-02  0.1140054E+00
         -2   -1    0    0    0  501 -0.00000000000E+00  0.00000000000E+00  0.97698336230E+01  0.97698339558E+01  0.25500000000E-02 0. -1.
          2   -1    0    0  501    0  0.00000000000E+00 -0.00000000000E+00 -0.11492120194E+04  0.11492120194E+04  0.25500000000E-02 0.  1.
    5000001    1    1    2    0    0  0.70482472983E+02 -0.15299219015E+02 -0.62351868586E+03  0.63238152781E+03  0.77000000000E+02 0.  0.
   -5000001    1    1    2    0    0 -0.70482472983E+02  0.15299219015E+02 -0.51592349993E+03  0.52660032556E+03  0.77000000000E+02 0.  0.
<mgrwt>
<rscale>  0 0.21192084E+03</rscale>
<asrwt>0</asrwt>
<pdfrwt beam="1">  1        2 0.17680174E+00 0.21192084E+03</pdfrwt>
<pdfrwt beam="2">  1       -2 0.15030523E-02 0.21192084E+03</pdfrwt>
<totfact> 0.24736970E+04</totfact>
</mgrwt>
</event>
<event>
 4    1  0.4751076E-004  0.2503869E+03  0.7818608E-02  0.1113061E+00
          2   -1    0    0  501    0  0.00000000000E+00  0.00000000000E+00  0.63276251569E+03  0.63276251570E+03  0.25500000000E-02 0.  1.
         -2   -1    0    0    0  501 -0.00000000000E+00 -0.00000000000E+00 -0.24769793421E+02  0.24769793552E+02  0.25500000000E-02 0. -1.
    5000001    1    1    2    0    0  0.37537059974E+02  0.52563765669E+02  0.50002851977E+03  0.51002892164E+03  0.77000000000E+02 0.  0.
   -5000001    1    1    2    0    0 -0.37537059974E+02 -0.52563765669E+02  0.10796420251E+03  0.14750338761E+03  0.77000000000E+02 0.  0.
<mgrwt>
<rscale>  0 0.25038688E+03</rscale>
<asrwt>0</asrwt>
<pdfrwt beam="1">  1        2 0.97348070E-01 0.25038688E+03</pdfrwt>
<pdfrwt beam="2">  1       -2 0.38107378E-02 0.25038688E+03</pdfrwt>
<totfact> 0.13870840E+04</totfact>
</mgrwt>
</event>
<event>
 4    1  0.4751076E-004  0.5148928E+03  0.7818608E-02  0.1009963E+00
          2   -1    0    0  501    0  0.00000000000E+00  0.00000000000E+00  0.18941773125E+04  0.18941773125E+04  0.25500000000E-02 0.  1.
         -2   -1    0    0    0  501 -0.00000000000E+00 -0.00000000000E+00 -0.34990737298E+02  0.34990737391E+02  0.25500000000E-02 0. -1.
    5000001    1    1    2    0    0  0.22135416433E+03  0.10274196444E+03  0.10353072899E+04  0.10664632023E+04  0.77000000000E+02 0.  0.
   -5000001    1    1    2    0    0 -0.22135416433E+03 -0.10274196444E+03  0.82387928527E+03  0.86270484757E+03  0.77000000000E+02 0.  0.
<mgrwt>
<rscale>  0 0.51489285E+03</rscale>
<asrwt>0</asrwt>
<pdfrwt beam="1">  1        2 0.29141201E+00 0.51489285E+03</pdfrwt>
<pdfrwt beam="2">  1       -2 0.53831882E-02 0.51489285E+03</pdfrwt>
<totfact> 0.14536212E+03</totfact>
</mgrwt>
</event>
<event>
 4    1  0.4751076E-004  0.2297973E+03  0.7818608E-02  0.1126783E+00
         -2   -1    0    0    0  501 -0.00000000000E+00  0.00000000000E+00  0.50220495644E+01  0.50220502118E+01  0.25500000000E-02 0. -1.
          2   -1    0    0  501    0  0.00000000000E+00 -0.00000000000E+00 -0.26287462946E+04  0.26287462946E+04  0.25500000000E-02 0.  1.
    5000001    1    1    2    0    0  0.13372510170E+02 -0.82207582805E+02 -0.15218832319E+04  0.15261043484E+04  0.77000000000E+02 0.  0.
   -5000001    1    1    2    0    0 -0.13372510170E+02  0.82207582805E+02 -0.11018410131E+04  0.11076639964E+04  0.77000000000E+02 0.  0.
<mgrwt>
<rscale>  0 0.22979726E+03</rscale>
<asrwt>0</asrwt>
<pdfrwt beam="1">  1        2 0.40442141E+00 0.22979726E+03</pdfrwt>
<pdfrwt beam="2">  1       -2 0.77262516E-03 0.22979726E+03</pdfrwt>
<totfact> 0.10537560E+04</totfact>
</mgrwt>
</event>
<event>
 4    1  0.4751076E-004  0.4019322E+03  0.7818608E-02  0.1043113E+00
          2   -1    0    0  501    0  0.00000000000E+00  0.00000000000E+00  0.87218376147E+03  0.87218376148E+03  0.25500000000E-02 0.  1.
         -2   -1    0    0    0  501 -0.00000000000E+00 -0.00000000000E+00 -0.46306032080E+02  0.46306032150E+02  0.25500000000E-02 0. -1.
    5000001    1    1    2    0    0  0.18231158976E+03 -0.14750935111E+02  0.34055712020E+03  0.39416146180E+03  0.77000000000E+02 0.  0.
   -5000001    1    1    2    0    0 -0.18231158976E+03  0.14750935111E+02  0.48532060920E+03  0.52432833183E+03  0.77000000000E+02 0.  0.
<mgrwt>
<rscale>  0 0.40193218E+03</rscale>
<asrwt>0</asrwt>
<pdfrwt beam="1">  1        2 0.13418211E+00 0.40193218E+03</pdfrwt>
<pdfrwt beam="2">  1       -2 0.71240053E-02 0.40193218E+03</pdfrwt>
<totfact> 0.36100425E+03</totfact>
</mgrwt>
</event>
<event>
 4    1  0.4751076E-004  0.2807533E+03  0.7818608E-02  0.1095278E+00
          2   -1    0    0  501    0  0.00000000000E+00  0.00000000000E+00  0.11365762180E+04  0.11365762180E+04  0.25500000000E-02 0.  1.
         -2   -1    0    0    0  501 -0.00000000000E+00 -0.00000000000E+00 -0.17337685918E+02  0.17337686105E+02  0.25500000000E-02 0. -1.
    5000001    1    1    2    0    0 -0.52056961356E+02 -0.93292591155E+02  0.75941938880E+03  0.77075303624E+03  0.77000000000E+02 0.  0.
   -5000001    1    1    2    0    0  0.52056961356E+02  0.93292591155E+02  0.35981914325E+03  0.38316086783E+03  0.77000000000E+02 0.  0.
<mgrwt>
<rscale>  0 0.28075328E+03</rscale>
<asrwt>0</asrwt>
<pdfrwt beam="1">  1        2 0.17485791E+00 0.28075328E+03</pdfrwt>
<pdfrwt beam="2">  1       -2 0.26673359E-02 0.28075328E+03</pdfrwt>
<totfact> 0.10963187E+04</totfact>
</mgrwt>
</event>
<event>
 4    1  0.4751076E-004  0.2036585E+03  0.7818608E-02  0.1146688E+00
          2   -1    0    0  501    0  0.00000000000E+00  0.00000000000E+00  0.23735874475E+04  0.23735874475E+04  0.25500000000E-02 0.  1.
         -2   -1    0    0    0  501 -0.00000000000E+00 -0.00000000000E+00 -0.43685771120E+01  0.43685778562E+01  0.25500000000E-02 0. -1.
    5000001    1    1    2    0    0 -0.19144309714E+02  0.20398089323E+01  0.19294676157E+04  0.19310994137E+04  0.77000000000E+02 0.  0.
   -5000001    1    1    2    0    0  0.19144309714E+02 -0.20398089323E+01  0.43975125465E+03  0.44685661166E+03  0.77000000000E+02 0.  0.
<mgrwt>
<rscale>  0 0.20365854E+03</rscale>
<asrwt>0</asrwt>
<pdfrwt beam="1">  1        2 0.36516734E+00 0.20365854E+03</pdfrwt>
<pdfrwt beam="2">  1       -2 0.67208877E-03 0.20365854E+03</pdfrwt>
<totfact> 0.17686468E+04</totfact>
</mgrwt>
</event>
<event>
 4    1  0.4751076E-004  0.1919038E+03  0.7818608E-02  0.1156755E+00
         -2   -1    0    0    0  501 -0.00000000000E+00  0.00000000000E+00  0.79352924820E+01  0.79352928918E+01  0.25500000000E-02 0. -1.
          2   -1    0    0  501    0  0.00000000000E+00 -0.00000000000E+00 -0.11602298785E+04  0.11602298785E+04  0.25500000000E-02 0.  1.
    5000001    1    1    2    0    0 -0.20321671153E+02 -0.51687827729E+02 -0.49154514217E+03  0.50062983196E+03  0.77000000000E+02 0.  0.
   -5000001    1    1    2    0    0  0.20321671153E+02  0.51687827729E+02 -0.66074944387E+03  0.66753533946E+03  0.77000000000E+02 0.  0.
<mgrwt>
<rscale>  0 0.19190376E+03</rscale>
<asrwt>0</asrwt>
<pdfrwt beam="1">  1        2 0.17849677E+00 0.19190376E+03</pdfrwt>
<pdfrwt beam="2">  1       -2 0.12208152E-02 0.19190376E+03</pdfrwt>
<totfact> 0.32763471E+04</totfact>
</mgrwt>
</event>
<event>
 4    1  0.4751076E-004  0.5510647E+03  0.7818608E-02  0.1001248E+00
          2   -1    0    0  501    0  0.00000000000E+00  0.00000000000E+00  0.14558699191E+04  0.14558699191E+04  0.25500000000E-02 0.  1.
         -2   -1    0    0    0  501 -0.00000000000E+00 -0.00000000000E+00 -0.52146196349E+02  0.52146196412E+02  0.25500000000E-02 0. -1.
    5000001    1    1    2    0    0 -0.14810687741E+03  0.21868970762E+03  0.66051881697E+03  0.71552424342E+03  0.77000000000E+02 0.  0.
   -5000001    1    1    2    0    0  0.14810687741E+03 -0.21868970762E+03  0.74320490575E+03  0.79249187206E+03  0.77000000000E+02 0.  0.
<mgrwt>
<rscale>  0 0.55106471E+03</rscale>
<asrwt>0</asrwt>
<pdfrwt beam="1">  1        2 0.22398001E+00 0.55106471E+03</pdfrwt>
<pdfrwt beam="2">  1       -2 0.80224910E-02 0.55106471E+03</pdfrwt>
<totfact> 0.13412871E+03</totfact>
</mgrwt>
</event>
<event>
 4    1  0.4751076E-004  0.3258896E+03  0.7818608E-02  0.1072970E+00
         -2   -1    0    0    0  501 -0.00000000000E+00  0.00000000000E+00  0.27949978378E+03  0.27949978379E+03  0.25500000000E-02 0. -1.
          2   -1    0    0  501    0  0.00000000000E+00 -0.00000000000E+00 -0.94994750900E+02  0.94994750934E+02  0.25500000000E-02 0.  1.
    5000001    1    1    2    0    0 -0.89114687335E+02  0.60786398690E+02 -0.16677721608E+02  0.13357978950E+03  0.77000000000E+02 0.  0.
   -5000001    1    1    2    0    0  0.89114687335E+02 -0.60786398690E+02  0.20118275449E+03  0.24091474523E+03  0.77000000000E+02 0.  0.
<mgrwt>
<rscale>  0 0.32588963E+03</rscale>
<asrwt>0</asrwt>
<pdfrwt beam="1">  1        2 0.14614577E-01 0.32588963E+03</pdfrwt>
<pdfrwt beam="2">  1       -2 0.42999966E-01 0.32588963E+03</pdfrwt>
<totfact> 0.20883958E+03</totfact>
</mgrwt>
</event>
<event>
 4    1  0.4751076E-004  0.2080742E+03  0.7818608E-02  0.1143100E+00
         -2   -1    0    0    0  501 -0.00000000000E+00  0.00000000000E+00  0.25682553019E+02  0.25682553145E+02  0.25500000000E-02 0. -1.
          2   -1    0    0  501    0  0.00000000000E+00 -0.00000000000E+00 -0.42144246963E+03  0.42144246964E+03  0.25500000000E-02 0.  1.
    5000001    1    1    2    0    0 -0.34229767256E+02 -0.58610103478E+02 -0.16141887163E+03  0.19129002409E+03  0.77000000000E+02 0.  0.
   -5000001    1    1    2    0    0  0.34229767256E+02  0.58610103478E+02 -0.23434104498E+03  0.25583499870E+03  0.77000000000E+02 0.  0.
<mgrwt>
<rscale>  0 0.20807420E+03</rscale>
<asrwt>0</asrwt>
<pdfrwt beam="1">  1        2 0.64837298E-01 0.20807420E+03</pdfrwt>
<pdfrwt beam="2">  1       -2 0.39511623E-02 0.20807420E+03</pdfrwt>
<totfact> 0.20519130E+04</totfact>
</mgrwt>
</event>
<event>
 4    1  0.4751076E-004  0.3600913E+03  0.7818608E-02  0.1058548E+00
         -2   -1    0    0    0  501 -0.00000000000E+00  0.00000000000E+00  0.44978888788E+02  0.44978888861E+02  0.25500000000E-02 0. -1.
          2   -1    0    0  501    0  0.00000000000E+00 -0.00000000000E+00 -0.72070352661E+03  0.72070352662E+03  0.25500000000E-02 0.  1.
    5000001    1    1    2    0    0 -0.31374150308E+02  0.14350014830E+03 -0.48687139865E+03  0.51434364844E+03  0.77000000000E+02 0.  0.
   -5000001    1    1    2    0    0  0.31374150308E+02 -0.14350014830E+03 -0.18885323917E+03  0.25133876703E+03  0.77000000000E+02 0.  0.
<mgrwt>
<rscale>  0 0.36009134E+03</rscale>
<asrwt>0</asrwt>
<pdfrwt beam="1">  1        2 0.11087746E+00 0.36009134E+03</pdfrwt>
<pdfrwt beam="2">  1       -2 0.69198296E-02 0.36009134E+03</pdfrwt>
<totfact> 0.48228098E+03</totfact>
</mgrwt>
</event>
<event>
 4    1  0.4751076E-004  0.1918085E+03  0.7818608E-02  0.1156840E+00
         -2   -1    0    0    0  501 -0.00000000000E+00  0.00000000000E+00  0.18534095350E+02  0.18534095526E+02  0.25500000000E-02 0. -1.
          2   -1    0    0  501    0  0.00000000000E+00 -0.00000000000E+00 -0.49625417861E+03  0.49625417862E+03  0.25500000000E-02 0.  1.
    5000001    1    1    2    0    0  0.35212235180E+02 -0.45005584821E+02 -0.23404540726E+03  0.25292618851E+03  0.77000000000E+02 0.  0.
   -5000001    1    1    2    0    0 -0.35212235180E+02  0.45005584821E+02 -0.24367467600E+03  0.26186208564E+03  0.77000000000E+02 0.  0.
<mgrwt>
<rscale>  0 0.19180847E+03</rscale>
<asrwt>0</asrwt>
<pdfrwt beam="1">  1        2 0.76346787E-01 0.19180847E+03</pdfrwt>
<pdfrwt beam="2">  1       -2 0.28513997E-02 0.19180847E+03</pdfrwt>
<totfact> 0.27692349E+04</totfact>
</mgrwt>
</event>
<event>
 4    1  0.4751076E-004  0.2112198E+03  0.7818608E-02  0.1140604E+00
         -2   -1    0    0    0  501 -0.00000000000E+00  0.00000000000E+00  0.43879052251E+02  0.43879052325E+02  0.25500000000E-02 0. -1.
          2   -1    0    0  501    0  0.00000000000E+00 -0.00000000000E+00 -0.25418633804E+03  0.25418633805E+03  0.25500000000E-02 0.  1.
    5000001    1    1    2    0    0 -0.60133179580E+02  0.22806970538E+02 -0.58600303984E+02  0.11618585464E+03  0.77000000000E+02 0.  0.
   -5000001    1    1    2    0    0  0.60133179580E+02 -0.22806970538E+02 -0.15170698181E+03  0.18187953574E+03  0.77000000000E+02 0.  0.
<mgrwt>
<rscale>  0 0.21121984E+03</rscale>
<asrwt>0</asrwt>
<pdfrwt beam="1">  1        2 0.39105589E-01 0.21121984E+03</pdfrwt>
<pdfrwt beam="2">  1       -2 0.67506236E-02 0.21121984E+03</pdfrwt>
<totfact> 0.15691286E+04</totfact>
</mgrwt>
</event>
<event>
 4    1  0.4751076E-004  0.2391356E+03  0.7818608E-02  0.1120370E+00
         -2   -1    0    0    0  501 -0.00000000000E+00  0.00000000000E+00  0.56562739967E+02  0.56562740024E+02  0.25500000000E-02 0. -1.
          2   -1    0    0  501    0  0.00000000000E+00 -0.00000000000E+00 -0.25275396221E+03  0.25275396222E+03  0.25500000000E-02 0.  1.
    5000001    1    1    2    0    0  0.89331399897E+02  0.15137788657E+01 -0.12347766856E+03  0.17075750398E+03  0.77000000000E+02 0.  0.
   -5000001    1    1    2    0    0 -0.89331399897E+02 -0.15137788657E+01 -0.72713553685E+02  0.13855919826E+03  0.77000000000E+02 0.  0.
<mgrwt>
<rscale>  0 0.23913558E+03</rscale>
<asrwt>0</asrwt>
<pdfrwt beam="1">  1        2 0.38885225E-01 0.23913558E+03</pdfrwt>
<pdfrwt beam="2">  1       -2 0.87019601E-02 0.23913558E+03</pdfrwt>
<totfact> 0.10720927E+04</totfact>
</mgrwt>
</event>
<event>
 4    1  0.4751076E-004  0.2394707E+03  0.7818608E-02  0.1120146E+00
          2   -1    0    0  501    0  0.00000000000E+00  0.00000000000E+00  0.98164169597E+03  0.98164169598E+03  0.25500000000E-02 0.  1.
         -2   -1    0    0    0  501 -0.00000000000E+00 -0.00000000000E+00 -0.14604671661E+02  0.14604671884E+02  0.25500000000E-02 0. -1.
    5000001    1    1    2    0    0 -0.81111027711E+02  0.38278985301E+02  0.40422598586E+03  0.42115546675E+03  0.77000000000E+02 0.  0.
   -5000001    1    1    2    0    0  0.81111027711E+02 -0.38278985301E+02  0.56281103846E+03  0.57509090111E+03  0.77000000000E+02 0.  0.
<mgrwt>
<rscale>  0 0.23947071E+03</rscale>
<asrwt>0</asrwt>
<pdfrwt beam="1">  1        2 0.15102183E+00 0.23947071E+03</pdfrwt>
<pdfrwt beam="2">  1       -2 0.22468722E-02 0.23947071E+03</pdfrwt>
<totfact> 0.17373886E+04</totfact>
</mgrwt>
</event>
<event>
 4    1  0.4751076E-004  0.2377670E+03  0.7818608E-02  0.1121289E+00
         -2   -1    0    0    0  501 -0.00000000000E+00  0.00000000000E+00  0.56351705070E+02  0.56351705128E+02  0.25500000000E-02 0. -1.
          2   -1    0    0  501    0  0.00000000000E+00 -0.00000000000E+00 -0.25080502533E+03  0.25080502535E+03  0.25500000000E-02 0.  1.
    5000001    1    1    2    0    0 -0.77303523764E+02  0.46179445676E+02 -0.84574889952E+02  0.14556884282E+03  0.77000000000E+02 0.  0.
   -5000001    1    1    2    0    0  0.77303523764E+02 -0.46179445676E+02 -0.10987843031E+03  0.16158788766E+03  0.77000000000E+02 0.  0.
<mgrwt>
<rscale>  0 0.23776704E+03</rscale>
<asrwt>0</asrwt>
<pdfrwt beam="1">  1        2 0.38585388E-01 0.23776704E+03</pdfrwt>
<pdfrwt beam="2">  1       -2 0.86694932E-02 0.23776704E+03</pdfrwt>
<totfact> 0.10871117E+04</totfact>
</mgrwt>
</event>
<event>
 4    1  0.4751076E-004  0.1855560E+03  0.7818608E-02  0.1162532E+00
         -2   -1    0    0    0  501 -0.00000000000E+00  0.00000000000E+00  0.18078664850E+02  0.18078665030E+02  0.25500000000E-02 0. -1.
          2   -1    0    0  501    0  0.00000000000E+00 -0.00000000000E+00 -0.47612806966E+03  0.47612806967E+03  0.25500000000E-02 0.  1.
    5000001    1    1    2    0    0  0.13032237446E+02 -0.48431106713E+02 -0.26306483254E+03  0.27865304131E+03  0.77000000000E+02 0.  0.
   -5000001    1    1    2    0    0 -0.13032237446E+02  0.48431106713E+02 -0.19498457227E+03  0.21555369339E+03  0.77000000000E+02 0.  0.
<mgrwt>
<rscale>  0 0.18555603E+03</rscale>
<asrwt>0</asrwt>
<pdfrwt beam="1">  1        2 0.73250463E-01 0.18555603E+03</pdfrwt>
<pdfrwt beam="2">  1       -2 0.27813334E-02 0.18555603E+03</pdfrwt>
<totfact> 0.29989501E+04</totfact>
</mgrwt>
</event>
<event>
 4    1  0.4751076E-004  0.2545320E+03  0.7818608E-02  0.1110474E+00
         -2   -1    0    0    0  501 -0.00000000000E+00  0.00000000000E+00  0.22814968087E+03  0.22814968088E+03  0.25500000000E-02 0. -1.
          2   -1    0    0  501    0  0.00000000000E+00 -0.00000000000E+00 -0.70991264078E+02  0.70991264124E+02  0.25500000000E-02 0.  1.
    5000001    1    1    2    0    0 -0.28206340988E+02  0.83729917469E+02  0.13688598897E+03  0.18020285993E+03  0.77000000000E+02 0.  0.
   -5000001    1    1    2    0    0  0.28206340988E+02 -0.83729917469E+02  0.20272427820E+02  0.11893808507E+03  0.77000000000E+02 0.  0.
<mgrwt>
<rscale>  0 0.25453200E+03</rscale>
<asrwt>0</asrwt>
<pdfrwt beam="1">  1        2 0.10921733E-01 0.25453200E+03</pdfrwt>
<pdfrwt beam="2">  1       -2 0.35099951E-01 0.25453200E+03</pdfrwt>
<totfact> 0.43435533E+03</totfact>
</mgrwt>
</event>
<event>
 4    1  0.4751076E-004  0.2995479E+03  0.7818608E-02  0.1085467E+00
         -2   -1    0    0    0  501 -0.00000000000E+00  0.00000000000E+00  0.78629909761E+01  0.78629913896E+01  0.25500000000E-02 0. -1.
          2   -1    0    0  501    0  0.00000000000E+00 -0.00000000000E+00 -0.28528878164E+04  0.28528878164E+04  0.25500000000E-02 0.  1.
    5000001    1    1    2    0    0 -0.10195076808E+03  0.71909944497E+02 -0.17150414844E+04  0.17212963988E+04  0.77000000000E+02 0.  0.
   -5000001    1    1    2    0    0  0.10195076808E+03 -0.71909944497E+02 -0.11299833409E+04  0.11394544089E+04  0.77000000000E+02 0.  0.
<mgrwt>
<rscale>  0 0.29954787E+03</rscale>
<asrwt>0</asrwt>
<pdfrwt beam="1">  1        2 0.43890499E+00 0.29954787E+03</pdfrwt>
<pdfrwt beam="2">  1       -2 0.12096932E-02 0.29954787E+03</pdfrwt>
<totfact> 0.40984246E+03</totfact>
</mgrwt>
</event>
<event>
 4    1  0.4751076E-004  0.2770626E+03  0.7818608E-02  0.1097304E+00
          2   -1    0    0  501    0  0.00000000000E+00  0.00000000000E+00  0.50504836259E+03  0.50504836260E+03  0.25500000000E-02 0.  1.
         -2   -1    0    0    0  501 -0.00000000000E+00 -0.00000000000E+00 -0.37998175606E+02  0.37998175691E+02  0.25500000000E-02 0. -1.
    5000001    1    1    2    0    0 -0.79459931445E+02  0.44098148890E+01  0.70377149855E+02  0.13120697540E+03  0.77000000000E+02 0.  0.
   -5000001    1    1    2    0    0  0.79459931445E+02 -0.44098148890E+01  0.39667303713E+03  0.41183956289E+03  0.77000000000E+02 0.  0.
<mgrwt>
<rscale>  0 0.27706257E+03</rscale>
<asrwt>0</asrwt>
<pdfrwt beam="1">  1        2 0.77699750E-01 0.27706257E+03</pdfrwt>
<pdfrwt beam="2">  1       -2 0.58458730E-02 0.27706257E+03</pdfrwt>
<totfact> 0.94319777E+03</totfact>
</mgrwt>
</event>
<event>
 4    1  0.4751076E-004  0.3800732E+03  0.7818608E-02  0.1050907E+00
         -2   -1    0    0    0  501 -0.00000000000E+00  0.00000000000E+00  0.81933722638E+02  0.81933722678E+02  0.25500000000E-02 0. -1.
          2   -1    0    0  501    0  0.00000000000E+00 -0.00000000000E+00 -0.44076986803E+03  0.44076986803E+03  0.25500000000E-02 0.  1.
    5000001    1    1    2    0    0  0.52724815796E+02 -0.57087859942E+02 -0.39312109739E+03  0.40805897511E+03  0.77000000000E+02 0.  0.
   -5000001    1    1    2    0    0 -0.52724815796E+02  0.57087859942E+02  0.34284952000E+02  0.11464461560E+03  0.77000000000E+02 0.  0.
<mgrwt>
<rscale>  0 0.38007324E+03</rscale>
<asrwt>0</asrwt>
<pdfrwt beam="1">  1        2 0.67810747E-01 0.38007324E+03</pdfrwt>
<pdfrwt beam="2">  1       -2 0.12605188E-01 0.38007324E+03</pdfrwt>
<totfact> 0.32889078E+03</totfact>
</mgrwt>
</event>
<event>
 4    1  0.4751076E-004  0.5016041E+03  0.7818608E-02  0.1013361E+00
         -2   -1    0    0    0  501 -0.00000000000E+00  0.00000000000E+00  0.92901487188E+02  0.92901487223E+02  0.25500000000E-02 0. -1.
          2   -1    0    0  501    0  0.00000000000E+00 -0.00000000000E+00 -0.67707927761E+03  0.67707927761E+03  0.25500000000E-02 0.  1.
    5000001    1    1    2    0    0 -0.13790291577E+03 -0.15502578287E+03 -0.47321324642E+03  0.52240787142E+03  0.77000000000E+02 0.  0.
   -5000001    1    1    2    0    0  0.13790291577E+03  0.15502578287E+03 -0.11096454400E+03  0.24757289342E+03  0.77000000000E+02 0.  0.
<mgrwt>
<rscale>  0 0.50160411E+03</rscale>
<asrwt>0</asrwt>
<pdfrwt beam="1">  1        2 0.10416604E+00 0.50160411E+03</pdfrwt>
<pdfrwt beam="2">  1       -2 0.14292537E-01 0.50160411E+03</pdfrwt>
<totfact> 0.16255165E+03</totfact>
</mgrwt>
</event>
<event>
 4    1  0.4751076E-004  0.1773710E+03  0.7818608E-02  0.1170372E+00
          2   -1    0    0  501    0  0.00000000000E+00  0.00000000000E+00  0.12240524716E+03  0.12240524719E+03  0.25500000000E-02 0.  1.
         -2   -1    0    0    0  501 -0.00000000000E+00 -0.00000000000E+00 -0.64254724693E+02  0.64254724743E+02  0.25500000000E-02 0. -1.
    5000001    1    1    2    0    0  0.15583661916E+02 -0.27011165571E+02 -0.35933738023E+01  0.83152666340E+02  0.77000000000E+02 0.  0.
   -5000001    1    1    2    0    0 -0.15583661916E+02  0.27011165571E+02  0.61743896275E+02  0.10350730559E+03  0.77000000000E+02 0.  0.
<mgrwt>
<rscale>  0 0.17737097E+03</rscale>
<asrwt>0</asrwt>
<pdfrwt beam="1">  1        2 0.18831576E-01 0.17737097E+03</pdfrwt>
<pdfrwt beam="2">  1       -2 0.98853424E-02 0.17737097E+03</pdfrwt>
<totfact> 0.19164244E+04</totfact>
</mgrwt>
</event>
<event>
 4    1  0.4751076E-004  0.3239214E+03  0.7818608E-02  0.1073859E+00
          2   -1    0    0  501    0  0.00000000000E+00  0.00000000000E+00  0.17557740601E+03  0.17557740603E+03  0.25500000000E-02 0.  1.
         -2   -1    0    0    0  501 -0.00000000000E+00 -0.00000000000E+00 -0.14940004429E+03  0.14940004431E+03  0.25500000000E-02 0. -1.
    5000001    1    1    2    0    0  0.64687970199E+02  0.12500421375E+03 -0.91575871338E+01  0.16069675897E+03  0.77000000000E+02 0.  0.
   -5000001    1    1    2    0    0 -0.64687970199E+02 -0.12500421375E+03  0.35334948857E+02  0.16428069136E+03  0.77000000000E+02 0.  0.
<mgrwt>
<rscale>  0 0.32392142E+03</rscale>
<asrwt>0</asrwt>
<pdfrwt beam="1">  1        2 0.27011909E-01 0.32392142E+03</pdfrwt>
<pdfrwt beam="2">  1       -2 0.22984622E-01 0.32392142E+03</pdfrwt>
<totfact> 0.32566285E+03</totfact>
</mgrwt>
</event>
<event>
 4    1  0.4751076E-004  0.2088915E+03  0.7818608E-02  0.1142447E+00
         -2   -1    0    0    0  501 -0.00000000000E+00  0.00000000000E+00  0.23122770394E+02  0.23122770535E+02  0.25500000000E-02 0. -1.
          2   -1    0    0  501    0  0.00000000000E+00 -0.00000000000E+00 -0.47178225681E+03  0.47178225681E+03  0.25500000000E-02 0.  1.
    5000001    1    1    2    0    0  0.49582691591E+02 -0.41167851483E+02 -0.15621059605E+03  0.18569864194E+03  0.77000000000E+02 0.  0.
   -5000001    1    1    2    0    0 -0.49582691591E+02  0.41167851483E+02 -0.29244889036E+03  0.30920638541E+03  0.77000000000E+02 0.  0.
<mgrwt>
<rscale>  0 0.20889148E+03</rscale>
<asrwt>0</asrwt>
<pdfrwt beam="1">  1        2 0.72581878E-01 0.20889148E+03</pdfrwt>
<pdfrwt beam="2">  1       -2 0.35573497E-02 0.20889148E+03</pdfrwt>
<totfact> 0.21223073E+04</totfact>
</mgrwt>
</event>
<event>
 4    1  0.4751076E-004  0.2845177E+03  0.7818608E-02  0.1093247E+00
         -2   -1    0    0    0  501 -0.00000000000E+00  0.00000000000E+00  0.20157267129E+03  0.20157267131E+03  0.25500000000E-02 0. -1.
          2   -1    0    0  501    0  0.00000000000E+00 -0.00000000000E+00 -0.10039844360E+03  0.10039844363E+03  0.25500000000E-02 0.  1.
    5000001    1    1    2    0    0  0.40950261594E+02  0.87771700120E+02 -0.23917310583E+02  0.12602314475E+03  0.77000000000E+02 0.  0.
   -5000001    1    1    2    0    0 -0.40950261594E+02 -0.87771700120E+02  0.12509153827E+03  0.17594797019E+03  0.77000000000E+02 0.  0.
<mgrwt>
<rscale>  0 0.28451771E+03</rscale>
<asrwt>0</asrwt>
<pdfrwt beam="1">  1        2 0.15445915E-01 0.28451771E+03</pdfrwt>
<pdfrwt beam="2">  1       -2 0.31011180E-01 0.28451771E+03</pdfrwt>
<totfact> 0.36077047E+03</totfact>
</mgrwt>
</event>
<event>
 4    1  0.4751076E-004  0.2180118E+03  0.7818608E-02  0.1135374E+00
         -2   -1    0    0    0  501 -0.00000000000E+00  0.00000000000E+00  0.13660985776E+02  0.13660986014E+02  0.25500000000E-02 0. -1.
          2   -1    0    0  501    0  0.00000000000E+00 -0.00000000000E+00 -0.86979674852E+03  0.86979674852E+03  0.25500000000E-02 0.  1.
    5000001    1    1    2    0    0 -0.68027212996E+02 -0.36381559282E+02 -0.42239235964E+03  0.43622886774E+03  0.77000000000E+02 0.  0.
   -5000001    1    1    2    0    0  0.68027212996E+02  0.36381559282E+02 -0.43374340310E+03  0.44722886679E+03  0.77000000000E+02 0.  0.
<mgrwt>
<rscale>  0 0.21801175E+03</rscale>
<asrwt>0</asrwt>
<pdfrwt beam="1">  1        2 0.13381484E+00 0.21801175E+03</pdfrwt>
<pdfrwt beam="2">  1       -2 0.21016908E-02 0.21801175E+03</pdfrwt>
<totfact> 0.22449225E+04</totfact>
</mgrwt>
</event>
<event>
 4    1  0.4751076E-004  0.1786226E+03  0.7818608E-02  0.1169143E+00
         -2   -1    0    0    0  501 -0.00000000000E+00  0.00000000000E+00  0.33768174402E+01  0.33768184031E+01  0.25500000000E-02 0. -1.
          2   -1    0    0  501    0  0.00000000000E+00 -0.00000000000E+00 -0.23621383291E+04  0.23621383291E+04  0.25500000000E-02 0.  1.
    5000001    1    1    2    0    0  0.16866767784E+00 -0.42426531177E+02 -0.97105050820E+03  0.97502211691E+03  0.77000000000E+02 0.  0.
   -5000001    1    1    2    0    0 -0.16866767784E+00  0.42426531177E+02 -0.13877110035E+04  0.13904930306E+04  0.77000000000E+02 0.  0.
<mgrwt>
<rscale>  0 0.17862263E+03</rscale>
<asrwt>0</asrwt>
<pdfrwt beam="1">  1        2 0.36340458E+00 0.17862263E+03</pdfrwt>
<pdfrwt beam="2">  1       -2 0.51951234E-03 0.17862263E+03</pdfrwt>
<totfact> 0.25808082E+04</totfact>
</mgrwt>
</event>
<event>
 4    1  0.4751076E-004  0.4178133E+03  0.7818608E-02  0.1037780E+00
         -2   -1    0    0    0  501 -0.00000000000E+00  0.00000000000E+00  0.16138947554E+02  0.16138947755E+02  0.25500000000E-02 0. -1.
          2   -1    0    0  501    0  0.00000000000E+00 -0.00000000000E+00 -0.27041409416E+04  0.27041409416E+04  0.25500000000E-02 0.  1.
    5000001    1    1    2    0    0  0.26262670850E+02 -0.16785453645E+03 -0.73157061646E+03  0.75497645007E+03  0.77000000000E+02 0.  0.
   -5000001    1    1    2    0    0 -0.26262670850E+02  0.16785453645E+03 -0.19564313776E+04  0.19653034393E+04  0.77000000000E+02 0.  0.
<mgrwt>
<rscale>  0 0.41781330E+03</rscale>
<asrwt>0</asrwt>
<pdfrwt beam="1">  1        2 0.41602132E+00 0.41781330E+03</pdfrwt>
<pdfrwt beam="2">  1       -2 0.24829172E-02 0.41781330E+03</pdfrwt>
<totfact> 0.17069132E+03</totfact>
</mgrwt>
</event>
<event>
 4    1  0.4751076E-004  0.2484291E+03  0.7818608E-02  0.1114302E+00
          2   -1    0    0  501    0  0.00000000000E+00  0.00000000000E+00  0.64181828045E+03  0.64181828045E+03  0.25500000000E-02 0.  1.
         -2   -1    0    0    0  501 -0.00000000000E+00 -0.00000000000E+00 -0.24039916464E+02  0.24039916599E+02  0.25500000000E-02 0. -1.
    5000001    1    1    2    0    0 -0.76517408712E+02 -0.55249733432E+02  0.24363063986E+03  0.27238270055E+03  0.77000000000E+02 0.  0.
   -5000001    1    1    2    0    0  0.76517408712E+02  0.55249733432E+02  0.37414772412E+03  0.39347549650E+03  0.77000000000E+02 0.  0.
<mgrwt>
<rscale>  0 0.24842913E+03</rscale>
<asrwt>0</asrwt>
<pdfrwt beam="1">  1        2 0.98741287E-01 0.24842913E+03</pdfrwt>
<pdfrwt beam="2">  1       -2 0.36984482E-02 0.24842913E+03</pdfrwt>
<totfact> 0.14260577E+04</totfact>
</mgrwt>
</event>
<event>
 4    1  0.4751076E-004  0.1981920E+03  0.7818608E-02  0.1151273E+00
         -2   -1    0    0    0  501 -0.00000000000E+00  0.00000000000E+00  0.15169928250E+03  0.15169928253E+03  0.25500000000E-02 0. -1.
          2   -1    0    0  501    0  0.00000000000E+00 -0.00000000000E+00 -0.64733471009E+02  0.64733471059E+02  0.25500000000E-02 0.  1.
    5000001    1    1    2    0    0  0.57352587247E+02  0.20720516104E+02  0.57819883763E+02  0.11397718197E+03  0.77000000000E+02 0.  0.
   -5000001    1    1    2    0    0 -0.57352587247E+02 -0.20720516104E+02  0.29145927733E+02  0.10245557161E+03  0.77000000000E+02 0.  0.
<mgrwt>
<rscale>  0 0.19819204E+03</rscale>
<asrwt>0</asrwt>
<pdfrwt beam="1">  1        2 0.99589956E-02 0.19819204E+03</pdfrwt>
<pdfrwt beam="2">  1       -2 0.23338351E-01 0.19819204E+03</pdfrwt>
<totfact> 0.10007351E+04</totfact>
</mgrwt>
</event>
<event>
 4    1  0.4751076E-004  0.3650085E+03  0.7818608E-02  0.1056618E+00
          2   -1    0    0  501    0  0.00000000000E+00  0.00000000000E+00  0.25419698114E+03  0.25419698116E+03  0.25500000000E-02 0.  1.
         -2   -1    0    0    0  501 -0.00000000000E+00 -0.00000000000E+00 -0.13103147937E+03  0.13103147939E+03  0.25500000000E-02 0. -1.
    5000001    1    1    2    0    0 -0.53396860525E+02 -0.15652999429E+03  0.66958298500E+02  0.19433290396E+03  0.77000000000E+02 0.  0.
   -5000001    1    1    2    0    0  0.53396860525E+02  0.15652999429E+03  0.56207203274E+02  0.19089555659E+03  0.77000000000E+02 0.  0.
<mgrwt>
<rscale>  0 0.36500853E+03</rscale>
<asrwt>0</asrwt>
<pdfrwt beam="1">  1        2 0.39107228E-01 0.36500853E+03</pdfrwt>
<pdfrwt beam="2">  1       -2 0.20158689E-01 0.36500853E+03</pdfrwt>
<totfact> 0.27287751E+03</totfact>
</mgrwt>
</event>
<event>
 4    1  0.4751076E-004  0.1642649E+03  0.7818608E-02  0.1183964E+00
         -2   -1    0    0    0  501 -0.00000000000E+00  0.00000000000E+00  0.62177486944E+01  0.62177492173E+01  0.25500000000E-02 0. -1.
          2   -1    0    0  501    0  0.00000000000E+00 -0.00000000000E+00 -0.10849168061E+04  0.10849168061E+04  0.25500000000E-02 0.  1.
    5000001    1    1    2    0    0 -0.12644806060E+02  0.21773612456E+02 -0.44955023593E+03  0.45679141404E+03  0.77000000000E+02 0.  0.
   -5000001    1    1    2    0    0  0.12644806060E+02 -0.21773612456E+02 -0.62914882144E+03  0.63434314124E+03  0.77000000000E+02 0.  0.
<mgrwt>
<rscale>  0 0.16426491E+03</rscale>
<asrwt>0</asrwt>
<pdfrwt beam="1">  1        2 0.16691013E+00 0.16426491E+03</pdfrwt>
<pdfrwt beam="2">  1       -2 0.95657763E-03 0.16426491E+03</pdfrwt>
<totfact> 0.50818184E+04</totfact>
</mgrwt>
</event>
<event>
 4    1  0.4751076E-004  0.2184332E+03  0.7818608E-02  0.1135057E+00
          2   -1    0    0  501    0  0.00000000000E+00  0.00000000000E+00  0.20172002562E+04  0.20172002562E+04  0.25500000000E-02 0.  1.
         -2   -1    0    0    0  501 -0.00000000000E+00 -0.00000000000E+00 -0.59132799536E+01  0.59132805034E+01  0.25500000000E-02 0. -1.
    5000001    1    1    2    0    0  0.40917845156E+02 -0.13651967777E+02  0.16014832958E+04  0.16039134618E+04  0.77000000000E+02 0.  0.
   -5000001    1    1    2    0    0 -0.40917845156E+02  0.13651967777E+02  0.40980368039E+03  0.41920007483E+03  0.77000000000E+02 0.  0.
<mgrwt>
<rscale>  0 0.21843324E+03</rscale>
<asrwt>0</asrwt>
<pdfrwt beam="1">  1        2 0.31033847E+00 0.21843324E+03</pdfrwt>
<pdfrwt beam="2">  1       -2 0.90973551E-03 0.21843324E+03</pdfrwt>
<totfact> 0.17670639E+04</totfact>
</mgrwt>
</event>
<event>
 4    1  0.4751076E-004  0.2270497E+03  0.7818608E-02  0.1128734E+00
          2   -1    0    0  501    0  0.00000000000E+00  0.00000000000E+00  0.20729818238E+02  0.20729818395E+02  0.25500000000E-02 0.  1.
         -2   -1    0    0    0  501 -0.00000000000E+00 -0.00000000000E+00 -0.62170812843E+03  0.62170812843E+03  0.25500000000E-02 0. -1.
    5000001    1    1    2    0    0  0.71917878404E+02 -0.37895299936E+02 -0.24750399518E+03  0.27165320286E+03  0.77000000000E+02 0.  0.
   -5000001    1    1    2    0    0 -0.71917878404E+02  0.37895299936E+02 -0.35347431501E+03  0.37078474397E+03  0.77000000000E+02 0.  0.
<mgrwt>
<rscale>  0 0.22704974E+03</rscale>
<asrwt>0</asrwt>
<pdfrwt beam="1">  1        2 0.31892033E-02 0.22704974E+03</pdfrwt>
<pdfrwt beam="2">  1       -2 0.95647390E-01 0.22704974E+03</pdfrwt>
<totfact> 0.27090057E+03</totfact>
</mgrwt>
</event>
<event>
 4    1  0.4751076E-004  0.5878406E+03  0.7818608E-02  0.9930959E-01
          2   -1    0    0  501    0  0.00000000000E+00  0.00000000000E+00  0.17123256561E+04  0.17123256561E+04  0.25500000000E-02 0.  1.
         -2   -1    0    0    0  501 -0.00000000000E+00 -0.00000000000E+00 -0.50451356481E+02  0.50451356546E+02  0.25500000000E-02 0. -1.
    5000001    1    1    2    0    0  0.27571871969E+02 -0.23959960391E+03  0.12786628653E+04  0.13034860572E+04  0.77000000000E+02 0.  0.
   -5000001    1    1    2    0    0 -0.27571871969E+02  0.23959960391E+03  0.38321143427E+03  0.45929095536E+03  0.77000000000E+02 0.  0.
<mgrwt>
<rscale>  0 0.58784063E+03</rscale>
<asrwt>0</asrwt>
<pdfrwt beam="1">  1        2 0.26343471E+00 0.58784063E+03</pdfrwt>
<pdfrwt beam="2">  1       -2 0.77617472E-02 0.58784063E+03</pdfrwt>
<totfact> 0.10216427E+03</totfact>
</mgrwt>
</event>
<event>
 4    1  0.4751076E-004  0.6208014E+03  0.7818608E-02  0.9863165E-01
         -2   -1    0    0    0  501 -0.00000000000E+00  0.00000000000E+00  0.30795190893E+03  0.30795190894E+03  0.25500000000E-02 0. -1.
          2   -1    0    0  501    0  0.00000000000E+00 -0.00000000000E+00 -0.31286898713E+03  0.31286898714E+03  0.25500000000E-02 0.  1.
    5000001    1    1    2    0    0 -0.23124810243E+03  0.17245628615E+03  0.82413118044E+02  0.30973824036E+03  0.77000000000E+02 0.  0.
   -5000001    1    1    2    0    0  0.23124810243E+03 -0.17245628615E+03 -0.87330196246E+02  0.31108265572E+03  0.77000000000E+02 0.  0.
<mgrwt>
<rscale>  0 0.62080142E+03</rscale>
<asrwt>0</asrwt>
<pdfrwt beam="1">  1        2 0.48133690E-01 0.62080142E+03</pdfrwt>
<pdfrwt beam="2">  1       -2 0.47377217E-01 0.62080142E+03</pdfrwt>
<totfact> 0.44626638E+02</totfact>
</mgrwt>
</event>
<event>
 4    1  0.4751076E-004  0.4959950E+03  0.7818608E-02  0.1014830E+00
         -2   -1    0    0    0  501 -0.00000000000E+00  0.00000000000E+00  0.13303426113E+03  0.13303426116E+03  0.25500000000E-02 0. -1.
          2   -1    0    0  501    0  0.00000000000E+00 -0.00000000000E+00 -0.46230768905E+03  0.46230768905E+03  0.25500000000E-02 0.  1.
    5000001    1    1    2    0    0 -0.50083905909E+02 -0.20500174872E+03 -0.29075172396E+03  0.36742302541E+03  0.77000000000E+02 0.  0.
   -5000001    1    1    2    0    0  0.50083905909E+02  0.20500174872E+03 -0.38521703948E+02  0.22791892480E+03  0.77000000000E+02 0.  0.
<mgrwt>
<rscale>  0 0.49599501E+03</rscale>
<asrwt>0</asrwt>
<pdfrwt beam="1">  1        2 0.71124259E-01 0.49599501E+03</pdfrwt>
<pdfrwt beam="2">  1       -2 0.20466810E-01 0.49599501E+03</pdfrwt>
<totfact> 0.13804920E+03</totfact>
</mgrwt>
</event>
<event>
 4    1  0.4751076E-004  0.1797489E+03  0.7818608E-02  0.1168046E+00
          2   -1    0    0  501    0  0.00000000000E+00  0.00000000000E+00  0.11404364865E+04  0.11404364865E+04  0.25500000000E-02 0.  1.
         -2   -1    0    0    0  501 -0.00000000000E+00 -0.00000000000E+00 -0.70827444961E+01  0.70827449552E+01  0.25500000000E-02 0. -1.
    5000001    1    1    2    0    0  0.45039388163E+02 -0.88445595292E+01  0.60787615126E+03  0.61445031369E+03  0.77000000000E+02 0.  0.
   -5000001    1    1    2    0    0 -0.45039388163E+02  0.88445595292E+01  0.52547759072E+03  0.53306891775E+03  0.77000000000E+02 0.  0.
<mgrwt>
<rscale>  0 0.17974894E+03</rscale>
<asrwt>0</asrwt>
<pdfrwt beam="1">  1        2 0.17545183E+00 0.17974894E+03</pdfrwt>
<pdfrwt beam="2">  1       -2 0.10896526E-02 0.17974894E+03</pdfrwt>
<totfact> 0.39434774E+04</totfact>
</mgrwt>
</event>
<event>
 4    1  0.4751076E-004  0.2995547E+03  0.7818608E-02  0.1085463E+00
          2   -1    0    0  501    0  0.00000000000E+00  0.00000000000E+00  0.17841000848E+03  0.17841000850E+03  0.25500000000E-02 0.  1.
         -2   -1    0    0    0  501 -0.00000000000E+00 -0.00000000000E+00 -0.12573987739E+03  0.12573987742E+03  0.25500000000E-02 0. -1.
    5000001    1    1    2    0    0  0.75036707201E+02  0.43639930971E+02 -0.69824136935E+02  0.13542289726E+03  0.77000000000E+02 0.  0.
   -5000001    1    1    2    0    0 -0.75036707201E+02 -0.43639930971E+02  0.12249426803E+03  0.16872698866E+03  0.77000000000E+02 0.  0.
<mgrwt>
<rscale>  0 0.29955469E+03</rscale>
<asrwt>0</asrwt>
<pdfrwt beam="1">  1        2 0.27447694E-01 0.29955469E+03</pdfrwt>
<pdfrwt beam="2">  1       -2 0.19344597E-01 0.29955469E+03</pdfrwt>
<totfact> 0.43007080E+03</totfact>
</mgrwt>
</event>
<event>
 4    1  0.4751076E-004  0.1956950E+03  0.7818608E-02  0.1153423E+00
         -2   -1    0    0    0  501 -0.00000000000E+00  0.00000000000E+00  0.88531861315E+01  0.88531864987E+01  0.25500000000E-02 0. -1.
          2   -1    0    0  501    0  0.00000000000E+00 -0.00000000000E+00 -0.10814336968E+04  0.10814336968E+04  0.25500000000E-02 0.  1.
    5000001    1    1    2    0    0  0.32554561027E+02 -0.40173762297E+02 -0.36264582911E+03  0.37431901901E+03  0.77000000000E+02 0.  0.
   -5000001    1    1    2    0    0 -0.32554561027E+02  0.40173762297E+02 -0.70993468156E+03  0.71596786429E+03  0.77000000000E+02 0.  0.
<mgrwt>
<rscale>  0 0.19569501E+03</rscale>
<asrwt>0</asrwt>
<pdfrwt beam="1">  1        2 0.16637431E+00 0.19569501E+03</pdfrwt>
<pdfrwt beam="2">  1       -2 0.13620295E-02 0.19569501E+03</pdfrwt>
<totfact> 0.31084557E+04</totfact>
</mgrwt>
</event>
<event>
 4    1  0.4751076E-004  0.2551245E+03  0.7818608E-02  0.1110108E+00
         -2   -1    0    0    0  501 -0.00000000000E+00  0.00000000000E+00  0.45932985747E+02  0.45932985818E+02  0.25500000000E-02 0.  1.
          2   -1    0    0  501    0  0.00000000000E+00 -0.00000000000E+00 -0.35425795719E+03  0.35425795720E+03  0.25500000000E-02 0. -1.
    5000001    1    1    2    0    0 -0.93270835574E+02  0.27751695900E+02 -0.10780161109E+03  0.16437698363E+03  0.77000000000E+02 0.  0.
   -5000001    1    1    2    0    0  0.93270835574E+02 -0.27751695900E+02 -0.20052336036E+03  0.23581395939E+03  0.77000000000E+02 0.  0.
<mgrwt>
<rscale>  0 0.25512449E+03</rscale>
<asrwt>0</asrwt>
<pdfrwt beam="1">  1        2 0.54501223E-01 0.25512449E+03</pdfrwt>
<pdfrwt beam="2">  1       -2 0.70666134E-02 0.25512449E+03</pdfrwt>
<totfact> 0.10348325E+04</totfact>
</mgrwt>
</event>
<event>
 4    1  0.4751076E-004  0.2078316E+03  0.7818608E-02  0.1143295E+00
          2   -1    0    0  501    0  0.00000000000E+00  0.00000000000E+00  0.26163592889E+03  0.26163592890E+03  0.25500000000E-02 0.  1.
         -2   -1    0    0    0  501 -0.00000000000E+00 -0.00000000000E+00 -0.41272972137E+02  0.41272972216E+02  0.25500000000E-02 0. -1.
    5000001    1    1    2    0    0  0.53491631586E+02 -0.37996025488E+02  0.14480803421E+03  0.17664489626E+03  0.77000000000E+02 0.  0.
   -5000001    1    1    2    0    0 -0.53491631586E+02  0.37996025488E+02  0.75554922540E+02  0.12626400486E+03  0.77000000000E+02 0.  0.
<mgrwt>
<rscale>  0 0.20783159E+03</rscale>
<asrwt>0</asrwt>
<pdfrwt beam="1">  1        2 0.40251682E-01 0.20783159E+03</pdfrwt>
<pdfrwt beam="2">  1       -2 0.63496879E-02 0.20783159E+03</pdfrwt>
<totfact> 0.16694157E+04</totfact>
</mgrwt>
</event>
<event>
 4    1  0.4751076E-004  0.2213735E+03  0.7818608E-02  0.1132863E+00
         -2   -1    0    0    0  501 -0.00000000000E+00  0.00000000000E+00  0.27480394639E+03  0.27480394640E+03  0.25500000000E-02 0. -1.
          2   -1    0    0  501    0  0.00000000000E+00 -0.00000000000E+00 -0.44582910833E+02  0.44582910906E+02  0.25500000000E-02 0.  1.
    5000001    1    1    2    0    0  0.86969353863E+01 -0.37458452417E+02  0.21552211928E+03  0.23207230822E+03  0.77000000000E+02 0.  0.
   -5000001    1    1    2    0    0 -0.86969353863E+01  0.37458452417E+02  0.14698916274E+02  0.87314549087E+02  0.77000000000E+02 0.  0.
<mgrwt>
<rscale>  0 0.22137353E+03</rscale>
<asrwt>0</asrwt>
<pdfrwt beam="1">  1        2 0.68589092E-02 0.22137353E+03</pdfrwt>
<pdfrwt beam="2">  1       -2 0.42277532E-01 0.22137353E+03</pdfrwt>
<totfact> 0.54481282E+03</totfact>
</mgrwt>
</event>
<event>
 4    1  0.4751076E-004  0.1712559E+03  0.7818608E-02  0.1176544E+00
          2   -1    0    0  501    0  0.00000000000E+00  0.00000000000E+00  0.16517850458E+04  0.16517850458E+04  0.25500000000E-02 0.  1.
         -2   -1    0    0    0  501 -0.00000000000E+00 -0.00000000000E+00 -0.44389200994E+01  0.44389208318E+01  0.25500000000E-02 0. -1.
    5000001    1    1    2    0    0 -0.21881405090E+02 -0.29987964775E+02  0.87209454046E+03  0.87627390776E+03  0.77000000000E+02 0.  0.
   -5000001    1    1    2    0    0  0.21881405090E+02  0.29987964775E+02  0.77525158527E+03  0.77995005890E+03  0.77000000000E+02 0.  0.
<mgrwt>
<rscale>  0 0.17125586E+03</rscale>
<asrwt>0</asrwt>
<pdfrwt beam="1">  1        2 0.25412075E+00 0.17125586E+03</pdfrwt>
<pdfrwt beam="2">  1       -2 0.68291091E-03 0.17125586E+03</pdfrwt>
<totfact> 0.40790905E+04</totfact>
</mgrwt>
</event>
<event>
 4    1  0.4751076E-004  0.4304126E+03  0.7818608E-02  0.1033730E+00
         -2   -1    0    0    0  501 -0.00000000000E+00  0.00000000000E+00  0.10551446264E+03  0.10551446267E+03  0.25500000000E-02 0. -1.
          2   -1    0    0  501    0  0.00000000000E+00 -0.00000000000E+00 -0.43893277621E+03  0.43893277622E+03  0.25500000000E-02 0.  1.
    5000001    1    1    2    0    0 -0.48268621738E+02  0.19485899493E+03 -0.15505600256E+03  0.26508725296E+03  0.77000000000E+02 0.  0.
   -5000001    1    1    2    0    0  0.48268621738E+02 -0.19485899493E+03 -0.17836231101E+03  0.27935998593E+03  0.77000000000E+02 0.  0.
<mgrwt>
<rscale>  0 0.43041262E+03</rscale>
<asrwt>0</asrwt>
<pdfrwt beam="1">  1        2 0.67528119E-01 0.43041262E+03</pdfrwt>
<pdfrwt beam="2">  1       -2 0.16232994E-01 0.43041262E+03</pdfrwt>
<totfact> 0.21745639E+03</totfact>
</mgrwt>
</event>
<event>
 4    1  0.4751076E-004  0.2881605E+03  0.7818608E-02  0.1091314E+00
          2   -1    0    0  501    0  0.00000000000E+00  0.00000000000E+00  0.20200937430E+03  0.20200937432E+03  0.25500000000E-02 0.  1.
         -2   -1    0    0    0  501 -0.00000000000E+00 -0.00000000000E+00 -0.10276311185E+03  0.10276311189E+03  0.25500000000E-02 0. -1.
    5000001    1    1    2    0    0  0.85050085432E+02  0.60532427652E+02  0.11594722593E+03  0.17398405395E+03  0.77000000000E+02 0.  0.
   -5000001    1    1    2    0    0 -0.85050085432E+02 -0.60532427652E+02 -0.16700963481E+02  0.13078843225E+03  0.77000000000E+02 0.  0.
<mgrwt>
<rscale>  0 0.28816045E+03</rscale>
<asrwt>0</asrwt>
<pdfrwt beam="1">  1        2 0.31078365E-01 0.28816045E+03</pdfrwt>
<pdfrwt beam="2">  1       -2 0.15809710E-01 0.28816045E+03</pdfrwt>
<totfact> 0.52622064E+03</totfact>
</mgrwt>
</event>
<event>
 4    1  0.4751076E-004  0.1732962E+03  0.7818608E-02  0.1174453E+00
          2   -1    0    0  501    0  0.00000000000E+00  0.00000000000E+00  0.96520375232E+03  0.96520375232E+03  0.25500000000E-02 0.  1.
         -2   -1    0    0    0  501 -0.00000000000E+00 -0.00000000000E+00 -0.77785619307E+01  0.77785623487E+01  0.25500000000E-02 0. -1.
    5000001    1    1    2    0    0  0.26048478043E+01  0.38942415471E+02  0.43684723835E+03  0.44529519042E+03  0.77000000000E+02 0.  0.
   -5000001    1    1    2    0    0 -0.26048478043E+01 -0.38942415471E+02  0.52057795204E+03  0.52768712425E+03  0.77000000000E+02 0.  0.
<mgrwt>
<rscale>  0 0.17329625E+03</rscale>
<asrwt>0</asrwt>
<pdfrwt beam="1">  1        2 0.14849287E+00 0.17329625E+03</pdfrwt>
<pdfrwt beam="2">  1       -2 0.11967020E-02 0.17329625E+03</pdfrwt>
<totfact> 0.43589506E+04</totfact>
</mgrwt>
</event>
<event>
 4    1  0.4751076E-004  0.2152141E+03  0.7818608E-02  0.1137502E+00
          2   -1    0    0  501    0  0.00000000000E+00  0.00000000000E+00  0.63136682810E+03  0.63136682810E+03  0.25500000000E-02 0.  1.
         -2   -1    0    0    0  501 -0.00000000000E+00 -0.00000000000E+00 -0.18340019810E+02  0.18340019988E+02  0.25500000000E-02 0. -1.
    5000001    1    1    2    0    0 -0.59911212282E+02 -0.42060850510E+02  0.35808350862E+03  0.37351207162E+03  0.77000000000E+02 0.  0.
   -5000001    1    1    2    0    0  0.59911212282E+02  0.42060850510E+02  0.25494329967E+03  0.27619477647E+03  0.77000000000E+02 0.  0.
<mgrwt>
<rscale>  0 0.21521413E+03</rscale>
<asrwt>0</asrwt>
<pdfrwt beam="1">  1        2 0.97133352E-01 0.21521413E+03</pdfrwt>
<pdfrwt beam="2">  1       -2 0.28215417E-02 0.21521413E+03</pdfrwt>
<totfact> 0.21572574E+04</totfact>
</mgrwt>
</event>
<event>
 4    1  0.4751076E-004  0.1890197E+03  0.7818608E-02  0.1159349E+00
          2   -1    0    0  501    0  0.00000000000E+00  0.00000000000E+00  0.25838842393E+03  0.25838842394E+03  0.25500000000E-02 0.  1.
         -2   -1    0    0    0  501 -0.00000000000E+00 -0.00000000000E+00 -0.34568531888E+02  0.34568531982E+02  0.25500000000E-02 0. -1.
    5000001    1    1    2    0    0  0.53895985790E+02  0.38437824159E+01  0.97742647406E+02  0.13565462421E+03  0.77000000000E+02 0.  0.
   -5000001    1    1    2    0    0 -0.53895985790E+02 -0.38437824159E+01  0.12607724463E+03  0.15730233171E+03  0.77000000000E+02 0.  0.
<mgrwt>
<rscale>  0 0.18901967E+03</rscale>
<asrwt>0</asrwt>
<pdfrwt beam="1">  1        2 0.39752065E-01 0.18901967E+03</pdfrwt>
<pdfrwt beam="2">  1       -2 0.53182357E-02 0.18901967E+03</pdfrwt>
<totfact> 0.22011378E+04</totfact>
</mgrwt>
</event>
<event>
 4    1  0.4751076E-004  0.3957901E+03  0.7818608E-02  0.1045247E+00
          2   -1    0    0  501    0  0.00000000000E+00  0.00000000000E+00  0.88656976728E+03  0.88656976728E+03  0.25500000000E-02 0.  1.
         -2   -1    0    0    0  501 -0.00000000000E+00 -0.00000000000E+00 -0.44173003585E+02  0.44173003659E+02  0.25500000000E-02 0. -1.
    5000001    1    1    2    0    0 -0.11869923706E+03 -0.13046757910E+03  0.31286733464E+03  0.36732311003E+03  0.77000000000E+02 0.  0.
   -5000001    1    1    2    0    0  0.11869923706E+03  0.13046757910E+03  0.52952942905E+03  0.56341966091E+03  0.77000000000E+02 0.  0.
<mgrwt>
<rscale>  0 0.39579009E+03</rscale>
<asrwt>0</asrwt>
<pdfrwt beam="1">  1        2 0.13639535E+00 0.39579009E+03</pdfrwt>
<pdfrwt beam="2">  1       -2 0.67958468E-02 0.39579009E+03</pdfrwt>
<totfact> 0.38011634E+03</totfact>
</mgrwt>
</event>
<event>
 4    1  0.4751076E-004  0.2132436E+03  0.7818608E-02  0.1139023E+00
          2   -1    0    0  501    0  0.00000000000E+00  0.00000000000E+00  0.35592557530E+03  0.35592557531E+03  0.25500000000E-02 0.  1.
         -2   -1    0    0    0  501 -0.00000000000E+00 -0.00000000000E+00 -0.31939832813E+02  0.31939832915E+02  0.25500000000E-02 0. -1.
    5000001    1    1    2    0    0 -0.63952935048E+02  0.17653296142E+02  0.10340370498E+03  0.14499290662E+03  0.77000000000E+02 0.  0.
   -5000001    1    1    2    0    0  0.63952935048E+02 -0.17653296142E+02  0.22058203751E+03  0.24287250161E+03  0.77000000000E+02 0.  0.
<mgrwt>
<rscale>  0 0.21324355E+03</rscale>
<asrwt>0</asrwt>
<pdfrwt beam="1">  1        2 0.54757782E-01 0.21324355E+03</pdfrwt>
<pdfrwt beam="2">  1       -2 0.49138203E-02 0.21324355E+03</pdfrwt>
<totfact> 0.17766718E+04</totfact>
</mgrwt>
</event>
<event>
 4    1  0.4751076E-004  0.1896871E+03  0.7818608E-02  0.1158744E+00
         -2   -1    0    0    0  501 -0.00000000000E+00  0.00000000000E+00  0.56032545480E+01  0.56032551282E+01  0.25500000000E-02 0. -1.
          2   -1    0    0  501    0  0.00000000000E+00 -0.00000000000E+00 -0.16053708258E+04  0.16053708258E+04  0.25500000000E-02 0.  1.
    5000001    1    1    2    0    0 -0.63106926571E+01 -0.37912642371E+02 -0.46133015943E+03  0.46928851392E+03  0.77000000000E+02 0.  0.
   -5000001    1    1    2    0    0  0.63106926571E+01  0.37912642371E+02 -0.11384374118E+04  0.11416855670E+04  0.77000000000E+02 0.  0.
<mgrwt>
<rscale>  0 0.18968713E+03</rscale>
<asrwt>0</asrwt>
<pdfrwt beam="1">  1        2 0.24697976E+00 0.18968713E+03</pdfrwt>
<pdfrwt beam="2">  1       -2 0.86204049E-03 0.18968713E+03</pdfrwt>
<totfact> 0.31079272E+04</totfact>
</mgrwt>
</event>
<event>
 4    1  0.4751076E-004  0.2556772E+03  0.7818608E-02  0.1109769E+00
         -2   -1    0    0    0  501 -0.00000000000E+00  0.00000000000E+00  0.28100272903E+03  0.28100272904E+03  0.25500000000E-02 0. -1.
          2   -1    0    0  501    0  0.00000000000E+00 -0.00000000000E+00 -0.58158531398E+02  0.58158531454E+02  0.25500000000E-02 0.  1.
    5000001    1    1    2    0    0 -0.10007883844E+03  0.19805519095E+02  0.11458177128E+03  0.17165667712E+03  0.77000000000E+02 0.  0.
   -5000001    1    1    2    0    0  0.10007883844E+03 -0.19805519095E+02  0.10826242635E+03  0.16750458337E+03  0.77000000000E+02 0.  0.
<mgrwt>
<rscale>  0 0.25567719E+03</rscale>
<asrwt>0</asrwt>
<pdfrwt beam="1">  1        2 0.89474663E-02 0.25567719E+03</pdfrwt>
<pdfrwt beam="2">  1       -2 0.43231189E-01 0.25567719E+03</pdfrwt>
<totfact> 0.37465880E+03</totfact>
</mgrwt>
</event>
<event>
 4    1  0.4751076E-004  0.4281005E+03  0.7818608E-02  0.1034462E+00
          2   -1    0    0  501    0  0.00000000000E+00  0.00000000000E+00  0.76046262320E+03  0.76046262320E+03  0.25500000000E-02 0.  1.
         -2   -1    0    0    0  501 -0.00000000000E+00 -0.00000000000E+00 -0.60249528034E+02  0.60249528088E+02  0.25500000000E-02 0. -1.
    5000001    1    1    2    0    0 -0.72478710859E+02  0.18294779908E+03  0.28465912156E+03  0.35451780802E+03  0.77000000000E+02 0.  0.
   -5000001    1    1    2    0    0  0.72478710859E+02 -0.18294779908E+03  0.41555397361E+03  0.46619434327E+03  0.77000000000E+02 0.  0.
<mgrwt>
<rscale>  0 0.42810052E+03</rscale>
<asrwt>0</asrwt>
<pdfrwt beam="1">  1        2 0.11699426E+00 0.42810052E+03</pdfrwt>
<pdfrwt beam="2">  1       -2 0.92691573E-02 0.42810052E+03</pdfrwt>
<totfact> 0.28484036E+03</totfact>
</mgrwt>
</event>
<event>
 4    1  0.4751076E-004  0.5596599E+03  0.7818608E-02  0.9992824E-01
          2   -1    0    0  501    0  0.00000000000E+00  0.00000000000E+00  0.73357733625E+02  0.73357733669E+02  0.25500000000E-02 0.  1.
         -2   -1    0    0    0  501 -0.00000000000E+00 -0.00000000000E+00 -0.10674376508E+04  0.10674376508E+04  0.25500000000E-02 0. -1.
    5000001    1    1    2    0    0  0.45498128159E+02  0.26486956396E+03 -0.47208830624E+03  0.54865502318E+03  0.77000000000E+02 0.  0.
   -5000001    1    1    2    0    0 -0.45498128159E+02 -0.26486956396E+03 -0.52199161094E+03  0.59214036129E+03  0.77000000000E+02 0.  0.
<mgrwt>
<rscale>  0 0.55965992E+03</rscale>
<asrwt>0</asrwt>
<pdfrwt beam="1">  1        2 0.11285806E-01 0.55965992E+03</pdfrwt>
<pdfrwt beam="2">  1       -2 0.16422117E+00 0.55965992E+03</pdfrwt>
<totfact> 0.13640012E+02</totfact>
</mgrwt>
</event>
<event>
 4    1  0.4751076E-004  0.2060916E+03  0.7818608E-02  0.1144699E+00
          2   -1    0    0  501    0  0.00000000000E+00  0.00000000000E+00  0.21988943465E+04  0.21988943465E+04  0.25500000000E-02 0.  1.
         -2   -1    0    0    0  501 -0.00000000000E+00 -0.00000000000E+00 -0.48289892386E+01  0.48289899119E+01  0.25500000000E-02 0. -1.
    5000001    1    1    2    0    0 -0.31967309239E+02 -0.10953267119E+02  0.46014723080E+03  0.46776741756E+03  0.77000000000E+02 0.  0.
   -5000001    1    1    2    0    0  0.31967309239E+02  0.10953267119E+02  0.17339181265E+04  0.17359559189E+04  0.77000000000E+02 0.  0.
<mgrwt>
<rscale>  0 0.20609161E+03</rscale>
<asrwt>0</asrwt>
<pdfrwt beam="1">  1        2 0.33829253E+00 0.20609161E+03</pdfrwt>
<pdfrwt beam="2">  1       -2 0.74291908E-03 0.20609161E+03</pdfrwt>
<totfact> 0.18964127E+04</totfact>
</mgrwt>
</event>
<event>
 4    1  0.4751076E-004  0.4173113E+03  0.7818608E-02  0.1037945E+00
          2   -1    0    0  501    0  0.00000000000E+00  0.00000000000E+00  0.35191379449E+03  0.35191379450E+03  0.25500000000E-02 0.  1.
         -2   -1    0    0    0  501 -0.00000000000E+00 -0.00000000000E+00 -0.12371545145E+03  0.12371545148E+03  0.25500000000E-02 0. -1.
    5000001    1    1    2    0    0 -0.14284482968E+03  0.71662754149E-02 -0.35392570965E+02  0.16609117827E+03  0.77000000000E+02 0.  0.
   -5000001    1    1    2    0    0  0.14284482968E+03 -0.71662754149E-02  0.26359091400E+03  0.30953806771E+03  0.77000000000E+02 0.  0.
<mgrwt>
<rscale>  0 0.41731127E+03</rscale>
<asrwt>0</asrwt>
<pdfrwt beam="1">  1        2 0.54140582E-01 0.41731127E+03</pdfrwt>
<pdfrwt beam="2">  1       -2 0.19033147E-01 0.41731127E+03</pdfrwt>
<totfact> 0.21169749E+03</totfact>
</mgrwt>
</event>
<event>
 4    1  0.4751076E-004  0.2633245E+03  0.7818608E-02  0.1105162E+00
          2   -1    0    0  501    0  0.00000000000E+00  0.00000000000E+00  0.45259838924E+04  0.45259838924E+04  0.25500000000E-02 0.  1.
         -2   -1    0    0    0  501 -0.00000000000E+00 -0.00000000000E+00 -0.38300931548E+01  0.38300940037E+01  0.25500000000E-02 0. -1.
    5000001    1    1    2    0    0  0.71723847148E+02 -0.41536356299E+02  0.34197023496E+04  0.34215731380E+04  0.77000000000E+02 0.  0.
   -5000001    1    1    2    0    0 -0.71723847148E+02  0.41536356299E+02  0.11024514497E+04  0.11082408484E+04  0.77000000000E+02 0.  0.
<mgrwt>
<rscale>  0 0.26332445E+03</rscale>
<asrwt>0</asrwt>
<pdfrwt beam="1">  1        2 0.69629938E+00 0.26332445E+03</pdfrwt>
<pdfrwt beam="2">  1       -2 0.58925010E-03 0.26332445E+03</pdfrwt>
<totfact> 0.73896053E+02</totfact>
</mgrwt>
</event>
<event>
 4    1  0.4751076E-004  0.1962550E+03  0.7818608E-02  0.1152938E+00
          2   -1    0    0  501    0  0.00000000000E+00  0.00000000000E+00  0.11578749723E+04  0.11578749723E+04  0.25500000000E-02 0.  1.
         -2   -1    0    0    0  501 -0.00000000000E+00 -0.00000000000E+00 -0.83161038171E+01  0.83161042080E+01  0.25500000000E-02 0. -1.
    5000001    1    1    2    0    0  0.56849452679E+02 -0.21004410285E+02  0.54392379648E+03  0.55267996336E+03  0.77000000000E+02 0.  0.
   -5000001    1    1    2    0    0 -0.56849452679E+02  0.21004410285E+02  0.60563507203E+03  0.61351111318E+03  0.77000000000E+02 0.  0.
<mgrwt>
<rscale>  0 0.19625502E+03</rscale>
<asrwt>0</asrwt>
<pdfrwt beam="1">  1        2 0.17813454E+00 0.19625502E+03</pdfrwt>
<pdfrwt beam="2">  1       -2 0.12794011E-02 0.19625502E+03</pdfrwt>
<totfact> 0.30755166E+04</totfact>
</mgrwt>
</event>
<event>
 4    1  0.4751076E-004  0.3294667E+03  0.7818608E-02  0.1071373E+00
         -2   -1    0    0    0  501 -0.00000000000E+00  0.00000000000E+00  0.85966333342E+02  0.85966333380E+02  0.25500000000E-02 0. -1.
          2   -1    0    0  501    0  0.00000000000E+00 -0.00000000000E+00 -0.31567105800E+03  0.31567105801E+03  0.25500000000E-02 0.  1.
    5000001    1    1    2    0    0  0.96922779390E+02  0.89318444094E+02 -0.19035764790E+03  0.24400172896E+03  0.77000000000E+02 0.  0.
   -5000001    1    1    2    0    0 -0.96922779390E+02 -0.89318444094E+02 -0.39347076752E+02  0.15763566243E+03  0.77000000000E+02 0.  0.
<mgrwt>
<rscale>  0 0.32946674E+03</rscale>
<asrwt>0</asrwt>
<pdfrwt beam="1">  1        2 0.48564778E-01 0.32946674E+03</pdfrwt>
<pdfrwt beam="2">  1       -2 0.13225590E-01 0.32946674E+03</pdfrwt>
<totfact> 0.43677306E+03</totfact>
</mgrwt>
</event>
<event>
 4    1  0.4751076E-004  0.3317783E+03  0.7818608E-02  0.1070353E+00
          2   -1    0    0  501    0  0.00000000000E+00  0.00000000000E+00  0.46841169787E+03  0.46841169787E+03  0.25500000000E-02 0.  1.
         -2   -1    0    0    0  501 -0.00000000000E+00 -0.00000000000E+00 -0.58750050101E+02  0.58750050156E+02  0.25500000000E-02 0. -1.
    5000001    1    1    2    0    0  0.93014145457E+02 -0.81481958770E+02  0.78723295421E+02  0.16558169616E+03  0.77000000000E+02 0.  0.
   -5000001    1    1    2    0    0 -0.93014145457E+02  0.81481958770E+02  0.33093835235E+03  0.36158005187E+03  0.77000000000E+02 0.  0.
<mgrwt>
<rscale>  0 0.33177830E+03</rscale>
<asrwt>0</asrwt>
<pdfrwt beam="1">  1        2 0.72063338E-01 0.33177830E+03</pdfrwt>
<pdfrwt beam="2">  1       -2 0.90384693E-02 0.33177830E+03</pdfrwt>
<totfact> 0.52348917E+03</totfact>
</mgrwt>
</event>
<event>
 4    1  0.4751076E-004  0.1979021E+03  0.7818608E-02  0.1151521E+00
         -2   -1    0    0    0  501 -0.00000000000E+00  0.00000000000E+00  0.58754532651E+01  0.58754538185E+01  0.25500000000E-02 0. -1.
          2   -1    0    0  501    0  0.00000000000E+00 -0.00000000000E+00 -0.16664771167E+04  0.16664771167E+04  0.25500000000E-02 0.  1.
    5000001    1    1    2    0    0 -0.44555323779E+02  0.37707520335E+02 -0.10106085556E+04  0.10152170638E+04  0.77000000000E+02 0.  0.
   -5000001    1    1    2    0    0  0.44555323779E+02 -0.37707520335E+02 -0.64999310777E+03  0.65713550666E+03  0.77000000000E+02 0.  0.
<mgrwt>
<rscale>  0 0.19790209E+03</rscale>
<asrwt>0</asrwt>
<pdfrwt beam="1">  1        2 0.25638072E+00 0.19790209E+03</pdfrwt>
<pdfrwt beam="2">  1       -2 0.90391726E-03 0.19790209E+03</pdfrwt>
<totfact> 0.27036345E+04</totfact>
</mgrwt>
</event>
<event>
 4    1  0.4751076E-004  0.1911444E+03  0.7818608E-02  0.1157433E+00
          2   -1    0    0  501    0  0.00000000000E+00  0.00000000000E+00  0.32378425105E+04  0.32378425105E+04  0.25500000000E-02 0.  1.
         -2   -1    0    0    0  501 -0.00000000000E+00 -0.00000000000E+00 -0.28210281991E+01  0.28210293516E+01  0.25500000000E-02 0. -1.
    5000001    1    1    2    0    0  0.29930390241E+02 -0.44535456367E+02  0.19235348964E+04  0.19258231313E+04  0.77000000000E+02 0.  0.
   -5000001    1    1    2    0    0 -0.29930390241E+02  0.44535456367E+02  0.13114865858E+04  0.13148404086E+04  0.77000000000E+02 0.  0.
<mgrwt>
<rscale>  0 0.19114442E+03</rscale>
<asrwt>0</asrwt>
<pdfrwt beam="1">  1        2 0.49812738E+00 0.19114442E+03</pdfrwt>
<pdfrwt beam="2">  1       -2 0.43400638E-03 0.19114442E+03</pdfrwt>
<totfact> 0.10637698E+04</totfact>
</mgrwt>
</event>
<event>
 4    1  0.4751076E-004  0.4003146E+03  0.7818608E-02  0.1043671E+00
          2   -1    0    0  501    0  0.00000000000E+00  0.00000000000E+00  0.36745741478E+04  0.36745741478E+04  0.25500000000E-02 0.  1.
         -2   -1    0    0    0  501 -0.00000000000E+00 -0.00000000000E+00 -0.10902742615E+02  0.10902742913E+02  0.25500000000E-02 0. -1.
    5000001    1    1    2    0    0  0.14205211275E+03 -0.74713708948E+02  0.98940780693E+03  0.10052948570E+04  0.77000000000E+02 0.  0.
   -5000001    1    1    2    0    0 -0.14205211275E+03  0.74713708948E+02  0.26742635983E+04  0.26801820337E+04  0.77000000000E+02 0.  0.
<mgrwt>
<rscale>  0 0.40031456E+03</rscale>
<asrwt>0</asrwt>
<pdfrwt beam="1">  1        2 0.56531996E+00 0.40031456E+03</pdfrwt>
<pdfrwt beam="2">  1       -2 0.16773425E-02 0.40031456E+03</pdfrwt>
<totfact> 0.75380916E+02</totfact>
</mgrwt>
</event>
<event>
 4    1  0.4751076E-004  0.1903394E+03  0.7818608E-02  0.1158156E+00
         -2   -1    0    0    0  501 -0.00000000000E+00  0.00000000000E+00  0.13529090359E+03  0.13529090362E+03  0.25500000000E-02 0. -1.
          2   -1    0    0  501    0  0.00000000000E+00 -0.00000000000E+00 -0.66946630195E+02  0.66946630243E+02  0.25500000000E-02 0.  1.
    5000001    1    1    2    0    0  0.36110525854E+02  0.34761135758E+02  0.78021092923E+01  0.92207264064E+02  0.77000000000E+02 0.  0.
   -5000001    1    1    2    0    0 -0.36110525854E+02 -0.34761135758E+02  0.60542164104E+02  0.11003026979E+03  0.77000000000E+02 0.  0.
<mgrwt>
<rscale>  0 0.19033938E+03</rscale>
<asrwt>0</asrwt>
<pdfrwt beam="1">  1        2 0.10299482E-01 0.19033938E+03</pdfrwt>
<pdfrwt beam="2">  1       -2 0.20813985E-01 0.19033938E+03</pdfrwt>
<totfact> 0.11663437E+04</totfact>
</mgrwt>
</event>
<event>
 4    1  0.4751076E-004  0.1738926E+03  0.7818608E-02  0.1173848E+00
         -2   -1    0    0    0  501 -0.00000000000E+00  0.00000000000E+00  0.68781819052E+02  0.68781819099E+02  0.25500000000E-02 0. -1.
          2   -1    0    0  501    0  0.00000000000E+00 -0.00000000000E+00 -0.10990780495E+03  0.10990780498E+03  0.25500000000E-02 0.  1.
    5000001    1    1    2    0    0  0.21147893084E+02  0.34004141426E+02 -0.15209304284E+02  0.88112643547E+02  0.77000000000E+02 0.  0.
   -5000001    1    1    2    0    0 -0.21147893084E+02 -0.34004141426E+02 -0.25916681612E+02  0.90576980529E+02  0.77000000000E+02 0.  0.
<mgrwt>
<rscale>  0 0.17389260E+03</rscale>
<asrwt>0</asrwt>
<pdfrwt beam="1">  1        2 0.16908893E-01 0.17389260E+03</pdfrwt>
<pdfrwt beam="2">  1       -2 0.10581818E-01 0.17389260E+03</pdfrwt>
<totfact> 0.19449585E+04</totfact>
</mgrwt>
</event>
<event>
 4    1  0.4751076E-004  0.1961688E+03  0.7818608E-02  0.1153012E+00
          2   -1    0    0  501    0  0.00000000000E+00  0.00000000000E+00  0.37213987570E+03  0.37213987571E+03  0.25500000000E-02 0.  1.
         -2   -1    0    0    0  501 -0.00000000000E+00 -0.00000000000E+00 -0.25851967627E+02  0.25851967752E+02  0.25500000000E-02 0. -1.
    5000001    1    1    2    0    0  0.19704670150E+02 -0.57317879547E+02  0.16455201112E+03  0.19152017571E+03  0.77000000000E+02 0.  0.
   -5000001    1    1    2    0    0 -0.19704670150E+02  0.57317879547E+02  0.18173589695E+03  0.20647166775E+03  0.77000000000E+02 0.  0.
<mgrwt>
<rscale>  0 0.19616878E+03</rscale>
<asrwt>0</asrwt>
<pdfrwt beam="1">  1        2 0.57252287E-01 0.19616878E+03</pdfrwt>
<pdfrwt beam="2">  1       -2 0.39772259E-02 0.19616878E+03</pdfrwt>
<totfact> 0.23139389E+04</totfact>
</mgrwt>
</event>
<event>
 4    1  0.4751076E-004  0.2592879E+03  0.7818608E-02  0.1107572E+00
         -2   -1    0    0    0  501 -0.00000000000E+00  0.00000000000E+00  0.11858384017E+02  0.11858384291E+02  0.25500000000E-02 0. -1.
          2   -1    0    0  501    0  0.00000000000E+00 -0.00000000000E+00 -0.14173561056E+04  0.14173561056E+04  0.25500000000E-02 0.  1.
    5000001    1    1    2    0    0 -0.25279394586E+02  0.94863787735E+02 -0.89687780808E+03  0.90551476445E+03  0.77000000000E+02 0.  0.
   -5000001    1    1    2    0    0  0.25279394586E+02 -0.94863787735E+02 -0.50861991346E+03  0.52369972540E+03  0.77000000000E+02 0.  0.
<mgrwt>
<rscale>  0 0.25928790E+03</rscale>
<asrwt>0</asrwt>
<pdfrwt beam="1">  1        2 0.21805465E+00 0.25928790E+03</pdfrwt>
<pdfrwt beam="2">  1       -2 0.18243679E-02 0.25928790E+03</pdfrwt>
<totfact> 0.13354566E+04</totfact>
</mgrwt>
</event>
<event>
 4    1  0.4751076E-004  0.1826995E+03  0.7818608E-02  0.1165216E+00
          2   -1    0    0  501    0  0.00000000000E+00  0.00000000000E+00  0.18793093549E+03  0.18793093551E+03  0.25500000000E-02 0.  1.
         -2   -1    0    0    0  501 -0.00000000000E+00 -0.00000000000E+00 -0.44403434191E+02  0.44403434265E+02  0.25500000000E-02 0. -1.
    5000001    1    1    2    0    0 -0.46101311582E+02 -0.11251493309E+02  0.88041778817E+02  0.12622314308E+03  0.77000000000E+02 0.  0.
   -5000001    1    1    2    0    0  0.46101311582E+02  0.11251493309E+02  0.55485722484E+02  0.10611122670E+03  0.77000000000E+02 0.  0.
<mgrwt>
<rscale>  0 0.18269952E+03</rscale>
<asrwt>0</asrwt>
<pdfrwt beam="1">  1        2 0.28912452E-01 0.18269952E+03</pdfrwt>
<pdfrwt beam="2">  1       -2 0.68312975E-02 0.18269952E+03</pdfrwt>
<totfact> 0.21137938E+04</totfact>
</mgrwt>
</event>
<event>
 4    1  0.4751076E-004  0.2078912E+03  0.7818608E-02  0.1143247E+00
          2   -1    0    0  501    0  0.00000000000E+00  0.00000000000E+00  0.34154783691E+03  0.34154783692E+03  0.25500000000E-02 0.  1.
         -2   -1    0    0    0  501 -0.00000000000E+00 -0.00000000000E+00 -0.31634472613E+02  0.31634472716E+02  0.25500000000E-02 0. -1.
    5000001    1    1    2    0    0  0.39185937099E+02 -0.39287419323E+02  0.78868654071E+02  0.12340301284E+03  0.77000000000E+02 0.  0.
   -5000001    1    1    2    0    0 -0.39185937099E+02  0.39287419323E+02  0.23104471023E+03  0.24977929680E+03  0.77000000000E+02 0.  0.
<mgrwt>
<rscale>  0 0.20789118E+03</rscale>
<asrwt>0</asrwt>
<pdfrwt beam="1">  1        2 0.52545821E-01 0.20789118E+03</pdfrwt>
<pdfrwt beam="2">  1       -2 0.48668419E-02 0.20789118E+03</pdfrwt>
<totfact> 0.18810033E+04</totfact>
</mgrwt>
</event>
<event>
 4    1  0.4751076E-004  0.2354239E+03  0.7818608E-02  0.1122879E+00
         -2   -1    0    0    0  501 -0.00000000000E+00  0.00000000000E+00  0.19261683522E+02  0.19261683691E+02  0.25500000000E-02 0. -1.
          2   -1    0    0  501    0  0.00000000000E+00 -0.00000000000E+00 -0.71936123242E+03  0.71936123243E+03  0.25500000000E-02 0.  1.
    5000001    1    1    2    0    0  0.53632607594E+02  0.68352561768E+02 -0.28900471814E+03  0.31145024708E+03  0.77000000000E+02 0.  0.
   -5000001    1    1    2    0    0 -0.53632607594E+02 -0.68352561768E+02 -0.41109483076E+03  0.42717266904E+03  0.77000000000E+02 0.  0.
<mgrwt>
<rscale>  0 0.23542394E+03</rscale>
<asrwt>0</asrwt>
<pdfrwt beam="1">  1        2 0.11067094E+00 0.23542394E+03</pdfrwt>
<pdfrwt beam="2">  1       -2 0.29633365E-02 0.23542394E+03</pdfrwt>
<totfact> 0.17259892E+04</totfact>
</mgrwt>
</event>
<event>
 4    1  0.4751076E-004  0.2130421E+03  0.7818608E-02  0.1139179E+00
         -2   -1    0    0    0  501 -0.00000000000E+00  0.00000000000E+00  0.83847105195E+01  0.83847109073E+01  0.25500000000E-02 0.  1.
          2   -1    0    0  501    0  0.00000000000E+00 -0.00000000000E+00 -0.13532642573E+04  0.13532642573E+04  0.25500000000E-02 0. -1.
    5000001    1    1    2    0    0 -0.32702851555E+02 -0.46972183580E+02 -0.96823832743E+03  0.97298012377E+03  0.77000000000E+02 0.  0.
   -5000001    1    1    2    0    0  0.32702851555E+02  0.46972183580E+02 -0.37664121931E+03  0.38866884441E+03  0.77000000000E+02 0.  0.
<mgrwt>
<rscale>  0 0.21304206E+03</rscale>
<asrwt>0</asrwt>
<pdfrwt beam="1">  1        2 0.20819433E+00 0.21304206E+03</pdfrwt>
<pdfrwt beam="2">  1       -2 0.12899566E-02 0.21304206E+03</pdfrwt>
<totfact> 0.23792707E+04</totfact>
</mgrwt>
</event>
<event>
 4    1  0.4751076E-004  0.3287417E+03  0.7818608E-02  0.1071695E+00
          2   -1    0    0  501    0  0.00000000000E+00  0.00000000000E+00  0.80738518947E+03  0.80738518947E+03  0.25500000000E-02 0.  1.
         -2   -1    0    0    0  501 -0.00000000000E+00 -0.00000000000E+00 -0.33463307097E+02  0.33463307194E+02  0.25500000000E-02 0. -1.
    5000001    1    1    2    0    0  0.39421895099E+02 -0.13660330088E+03  0.46258779407E+03  0.49003164678E+03  0.77000000000E+02 0.  0.
   -5000001    1    1    2    0    0 -0.39421895099E+02  0.13660330088E+03  0.31133408830E+03  0.35081684989E+03  0.77000000000E+02 0.  0.
<mgrwt>
<rscale>  0 0.32874171E+03</rscale>
<asrwt>0</asrwt>
<pdfrwt beam="1">  1        2 0.12421311E+00 0.32874171E+03</pdfrwt>
<pdfrwt beam="2">  1       -2 0.51482011E-02 0.32874171E+03</pdfrwt>
<totfact> 0.65845497E+03</totfact>
</mgrwt>
</event>
<event>
 4    1  0.4751076E-004  0.1715060E+03  0.7818608E-02  0.1176286E+00
          2   -1    0    0  501    0  0.00000000000E+00  0.00000000000E+00  0.42839757866E+03  0.42839757867E+03  0.25500000000E-02 0.  1.
         -2   -1    0    0    0  501 -0.00000000000E+00 -0.00000000000E+00 -0.17165312282E+02  0.17165312472E+02  0.25500000000E-02 0. -1.
    5000001    1    1    2    0    0  0.36938091658E+02  0.59097357441E+01  0.19256662768E+03  0.21073740458E+03  0.77000000000E+02 0.  0.
   -5000001    1    1    2    0    0 -0.36938091658E+02 -0.59097357441E+01  0.21866563870E+03  0.23482548656E+03  0.77000000000E+02 0.  0.
<mgrwt>
<rscale>  0 0.17150601E+03</rscale>
<asrwt>0</asrwt>
<pdfrwt beam="1">  1        2 0.65907323E-01 0.17150601E+03</pdfrwt>
<pdfrwt beam="2">  1       -2 0.26408172E-02 0.17150601E+03</pdfrwt>
<totfact> 0.36071021E+04</totfact>
</mgrwt>
</event>
<event>
 4    1  0.4751076E-004  0.3177012E+03  0.7818608E-02  0.1076712E+00
         -2   -1    0    0    0  501 -0.00000000000E+00  0.00000000000E+00  0.10292103864E+02  0.10292104180E+02  0.25500000000E-02 0. -1.
          2   -1    0    0  501    0  0.00000000000E+00 -0.00000000000E+00 -0.24517358418E+04  0.24517358418E+04  0.25500000000E-02 0.  1.
    5000001    1    1    2    0    0 -0.19601826183E+02  0.83373420564E+02 -0.37289744389E+03  0.39027792982E+03  0.77000000000E+02 0.  0.
   -5000001    1    1    2    0    0  0.19601826183E+02 -0.83373420564E+02 -0.20685462940E+04  0.20717500162E+04  0.77000000000E+02 0.  0.
<mgrwt>
<rscale>  0 0.31770125E+03</rscale>
<asrwt>0</asrwt>
<pdfrwt beam="1">  1        2 0.37718967E+00 0.31770125E+03</pdfrwt>
<pdfrwt beam="2">  1       -2 0.15834026E-02 0.31770125E+03</pdfrwt>
<totfact> 0.46384003E+03</totfact>
</mgrwt>
</event>
<event>
 4    1  0.4751076E-004  0.1749101E+03  0.7818608E-02  0.1172822E+00
          2   -1    0    0  501    0  0.00000000000E+00  0.00000000000E+00  0.11207102579E+04  0.11207102579E+04  0.25500000000E-02 0.  1.
         -2   -1    0    0    0  501 -0.00000000000E+00 -0.00000000000E+00 -0.68245900972E+01  0.68245905736E+01  0.25500000000E-02 0. -1.
    5000001    1    1    2    0    0 -0.24597510477E+02  0.32742467393E+02  0.51502573086E+03  0.52235774153E+03  0.77000000000E+02 0.  0.
   -5000001    1    1    2    0    0  0.24597510477E+02 -0.32742467393E+02  0.59885993698E+03  0.60517710698E+03  0.77000000000E+02 0.  0.
<mgrwt>
<rscale>  0 0.17491013E+03</rscale>
<asrwt>0</asrwt>
<pdfrwt beam="1">  1        2 0.17241690E+00 0.17491013E+03</pdfrwt>
<pdfrwt beam="2">  1       -2 0.10499374E-02 0.17491013E+03</pdfrwt>
<totfact> 0.42606806E+04</totfact>
</mgrwt>
</event>
<event>
 4    1  0.4751076E-004  0.2052368E+03  0.7818608E-02  0.1145394E+00
         -2   -1    0    0    0  501 -0.00000000000E+00  0.00000000000E+00  0.12176323286E+02  0.12176323553E+02  0.25500000000E-02 0. -1.
          2   -1    0    0  501    0  0.00000000000E+00 -0.00000000000E+00 -0.86483675210E+03  0.86483675210E+03  0.25500000000E-02 0.  1.
    5000001    1    1    2    0    0  0.56945126533E+02  0.34978850973E+02 -0.37663175648E+03  0.39018809239E+03  0.77000000000E+02 0.  0.
   -5000001    1    1    2    0    0 -0.56945126533E+02 -0.34978850973E+02 -0.47602867233E+03  0.48682498326E+03  0.77000000000E+02 0.  0.
<mgrwt>
<rscale>  0 0.20523676E+03</rscale>
<asrwt>0</asrwt>
<pdfrwt beam="1">  1        2 0.13305176E+00 0.20523676E+03</pdfrwt>
<pdfrwt beam="2">  1       -2 0.18732812E-02 0.20523676E+03</pdfrwt>
<totfact> 0.26665191E+04</totfact>
</mgrwt>
</event>
<event>
 4    1  0.4751076E-004  0.2787689E+03  0.7818608E-02  0.1096363E+00
          2   -1    0    0  501    0  0.00000000000E+00  0.00000000000E+00  0.38724204774E+03  0.38724204775E+03  0.25500000000E-02 0.  1.
         -2   -1    0    0    0  501 -0.00000000000E+00 -0.00000000000E+00 -0.50170236317E+02  0.50170236382E+02  0.25500000000E-02 0. -1.
    5000001    1    1    2    0    0 -0.11318097134E+03 -0.24495614783E+02  0.15372838813E+03  0.20729540452E+03  0.77000000000E+02 0.  0.
   -5000001    1    1    2    0    0  0.11318097134E+03  0.24495614783E+02  0.18334342330E+03  0.23011687962E+03  0.77000000000E+02 0.  0.
<mgrwt>
<rscale>  0 0.27876890E+03</rscale>
<asrwt>0</asrwt>
<pdfrwt beam="1">  1        2 0.59575699E-01 0.27876890E+03</pdfrwt>
<pdfrwt beam="2">  1       -2 0.77184980E-02 0.27876890E+03</pdfrwt>
<totfact> 0.82251615E+03</totfact>
</mgrwt>
</event>
<event>
 4    1  0.4751076E-004  0.8447495E+03  0.7818608E-02  0.9497411E-01
          2   -1    0    0  501    0  0.00000000000E+00  0.00000000000E+00  0.16235295360E+04  0.16235295360E+04  0.25500000000E-02 0.  1.
         -2   -1    0    0    0  501 -0.00000000000E+00 -0.00000000000E+00 -0.10988431120E+03  0.10988431123E+03  0.25500000000E-02 0. -1.
    5000001    1    1    2    0    0  0.36045613908E+03  0.20562887110E+03  0.72376309408E+03  0.83783881336E+03  0.77000000000E+02 0.  0.
   -5000001    1    1    2    0    0 -0.36045613908E+03 -0.20562887110E+03  0.78988213071E+03  0.89557503384E+03  0.77000000000E+02 0.  0.
<mgrwt>
<rscale>  0 0.84474949E+03</rscale>
<asrwt>0</asrwt>
<pdfrwt beam="1">  1        2 0.24977378E+00 0.84474949E+03</pdfrwt>
<pdfrwt beam="2">  1       -2 0.16905278E-01 0.84474949E+03</pdfrwt>
<totfact> 0.31192816E+02</totfact>
</mgrwt>
</event>
<event>
 4    1  0.4751076E-004  0.1957273E+03  0.7818608E-02  0.1153395E+00
         -2   -1    0    0    0  501 -0.00000000000E+00  0.00000000000E+00  0.68588373298E+01  0.68588378038E+01  0.25500000000E-02 0. -1.
          2   -1    0    0  501    0  0.00000000000E+00 -0.00000000000E+00 -0.13963431635E+04  0.13963431636E+04  0.25500000000E-02 0.  1.
    5000001    1    1    2    0    0 -0.30909564484E+01  0.39989119186E+02 -0.37096803955E+03  0.38099208658E+03  0.77000000000E+02 0.  0.
   -5000001    1    1    2    0    0  0.30909564484E+01 -0.39989119186E+02 -0.10185162867E+04  0.10222099148E+04  0.77000000000E+02 0.  0.
<mgrwt>
<rscale>  0 0.19572727E+03</rscale>
<asrwt>0</asrwt>
<pdfrwt beam="1">  1        2 0.21482180E+00 0.19572727E+03</pdfrwt>
<pdfrwt beam="2">  1       -2 0.10552069E-02 0.19572727E+03</pdfrwt>
<totfact> 0.30015900E+04</totfact>
</mgrwt>
</event>
<event>
 4    1  0.4751076E-004  0.2139585E+03  0.7818608E-02  0.1138469E+00
         -2   -1    0    0    0  501 -0.00000000000E+00  0.00000000000E+00  0.37512697767E+01  0.37512706434E+01  0.25500000000E-02 0. -1.
          2   -1    0    0  501    0  0.00000000000E+00 -0.00000000000E+00 -0.30508505573E+04  0.30508505573E+04  0.25500000000E-02 0.  1.
    5000001    1    1    2    0    0 -0.24937068391E+02  0.52020568333E+02 -0.85581218256E+03  0.86120351179E+03  0.77000000000E+02 0.  0.
   -5000001    1    1    2    0    0  0.24937068391E+02 -0.52020568333E+02 -0.21912871050E+04  0.21933983161E+04  0.77000000000E+02 0.  0.
<mgrwt>
<rscale>  0 0.21395855E+03</rscale>
<asrwt>0</asrwt>
<pdfrwt beam="1">  1        2 0.46935964E+00 0.21395855E+03</pdfrwt>
<pdfrwt beam="2">  1       -2 0.57712093E-03 0.21395855E+03</pdfrwt>
<totfact> 0.91849542E+03</totfact>
</mgrwt>
</event>
<event>
 4    1  0.4751076E-004  0.4547564E+03  0.7818608E-02  0.1026313E+00
         -2   -1    0    0    0  501 -0.00000000000E+00  0.00000000000E+00  0.56646532545E+03  0.56646532545E+03  0.25500000000E-02 0. -1.
          2   -1    0    0  501    0  0.00000000000E+00 -0.00000000000E+00 -0.91269226053E+02  0.91269226089E+02  0.25500000000E-02 0.  1.
    5000001    1    1    2    0    0  0.17084146448E+03  0.10268814440E+03  0.35000602945E+03  0.41007911631E+03  0.77000000000E+02 0.  0.
   -5000001    1    1    2    0    0 -0.17084146448E+03 -0.10268814440E+03  0.12519006995E+03  0.24765543523E+03  0.77000000000E+02 0.  0.
<mgrwt>
<rscale>  0 0.45475643E+03</rscale>
<asrwt>0</asrwt>
<pdfrwt beam="1">  1        2 0.14041419E-01 0.45475643E+03</pdfrwt>
<pdfrwt beam="2">  1       -2 0.87148514E-01 0.45475643E+03</pdfrwt>
<totfact> 0.49888931E+02</totfact>
</mgrwt>
</event>
<event>
 4    1  0.4751076E-004  0.3041069E+03  0.7818608E-02  0.1083205E+00
         -2   -1    0    0    0  501 -0.00000000000E+00  0.00000000000E+00  0.64896191176E+01  0.64896196186E+01  0.25500000000E-02 0. -1.
          2   -1    0    0  501    0  0.00000000000E+00 -0.00000000000E+00 -0.35626508437E+04  0.35626508437E+04  0.25500000000E-02 0.  1.
    5000001    1    1    2    0    0 -0.80234338875E+02 -0.39102290591E+01 -0.56187397460E+03  0.57278634966E+03  0.77000000000E+02 0.  0.
   -5000001    1    1    2    0    0  0.80234338875E+02  0.39102290591E+01 -0.29942872500E+04  0.29963541137E+04  0.77000000000E+02 0.  0.
<mgrwt>
<rscale>  0 0.30410688E+03</rscale>
<asrwt>0</asrwt>
<pdfrwt beam="1">  1        2 0.54809857E+00 0.30410688E+03</pdfrwt>
<pdfrwt beam="2">  1       -2 0.99840583E-03 0.30410688E+03</pdfrwt>
<totfact> 0.19594283E+03</totfact>
</mgrwt>
</event>
<event>
 4    1  0.4751076E-004  0.3646719E+03  0.7818608E-02  0.1056749E+00
         -2   -1    0    0    0  501 -0.00000000000E+00  0.00000000000E+00  0.24328458261E+03  0.24328458263E+03  0.25500000000E-02 0. -1.
          2   -1    0    0  501    0  0.00000000000E+00 -0.00000000000E+00 -0.13665639172E+03  0.13665639175E+03  0.25500000000E-02 0.  1.
    5000001    1    1    2    0    0 -0.11628131829E+03  0.61426770108E+02 -0.50991691373E+02  0.16069768405E+03  0.77000000000E+02 0.  0.
   -5000001    1    1    2    0    0  0.11628131829E+03 -0.61426770108E+02  0.15761988226E+03  0.21924329033E+03  0.77000000000E+02 0.  0.
<mgrwt>
<rscale>  0 0.36467187E+03</rscale>
<asrwt>0</asrwt>
<pdfrwt beam="1">  1        2 0.21024061E-01 0.36467187E+03</pdfrwt>
<pdfrwt beam="2">  1       -2 0.37428397E-01 0.36467187E+03</pdfrwt>
<totfact> 0.17837026E+03</totfact>
</mgrwt>
</event>
<event>
 4    1  0.4751076E-004  0.2322911E+03  0.7818608E-02  0.1125038E+00
         -2   -1    0    0    0  501 -0.00000000000E+00  0.00000000000E+00  0.70368395590E+02  0.70368395636E+02  0.25500000000E-02 0. -1.
          2   -1    0    0  501    0  0.00000000000E+00 -0.00000000000E+00 -0.19170237201E+03  0.19170237202E+03  0.25500000000E-02 0.  1.
    5000001    1    1    2    0    0  0.50492891683E+02 -0.45253998931E+02  0.74825272461E+00  0.10260124956E+03  0.77000000000E+02 0.  0.
   -5000001    1    1    2    0    0 -0.50492891683E+02  0.45253998931E+02 -0.12208222914E+03  0.15946951810E+03  0.77000000000E+02 0.  0.
<mgrwt>
<rscale>  0 0.23229110E+03</rscale>
<asrwt>0</asrwt>
<pdfrwt beam="1">  1        2 0.29492672E-01 0.23229110E+03</pdfrwt>
<pdfrwt beam="2">  1       -2 0.10825907E-01 0.23229110E+03</pdfrwt>
<totfact> 0.10230283E+04</totfact>
</mgrwt>
</event>
<event>
 4    1  0.4751076E-004  0.2726485E+03  0.7818608E-02  0.1099773E+00
         -2   -1    0    0    0  501 -0.00000000000E+00  0.00000000000E+00  0.40810823478E+03  0.40810823478E+03  0.25500000000E-02 0. -1.
          2   -1    0    0  501    0  0.00000000000E+00 -0.00000000000E+00 -0.45537673732E+02  0.45537673803E+02  0.25500000000E-02 0.  1.
    5000001    1    1    2    0    0 -0.46418053737E+01 -0.11228426386E+03  0.18976885340E+03  0.23360333900E+03  0.77000000000E+02 0.  0.
   -5000001    1    1    2    0    0  0.46418053737E+01  0.11228426386E+03  0.17280170764E+03  0.22004256959E+03  0.77000000000E+02 0.  0.
<mgrwt>
<rscale>  0 0.27264849E+03</rscale>
<asrwt>0</asrwt>
<pdfrwt beam="1">  1        2 0.70057961E-02 0.27264849E+03</pdfrwt>
<pdfrwt beam="2">  1       -2 0.62785881E-01 0.27264849E+03</pdfrwt>
<totfact> 0.24188941E+03</totfact>
</mgrwt>
</event>
<event>
 4    1  0.4751076E-004  0.1809948E+03  0.7818608E-02  0.1166844E+00
         -2   -1    0    0    0  501 -0.00000000000E+00  0.00000000000E+00  0.22788955119E+01  0.22788969386E+01  0.25500000000E-02 0. -1.
          2   -1    0    0  501    0  0.00000000000E+00 -0.00000000000E+00 -0.35937499333E+04  0.35937499333E+04  0.25500000000E-02 0.  1.
    5000001    1    1    2    0    0 -0.11813720257E+02 -0.44951928283E+02 -0.19949558120E+04  0.19969822061E+04  0.77000000000E+02 0.  0.
   -5000001    1    1    2    0    0  0.11813720257E+02  0.44951928283E+02 -0.15965152258E+04  0.15990466241E+04  0.77000000000E+02 0.  0.
<mgrwt>
<rscale>  0 0.18099484E+03</rscale>
<asrwt>0</asrwt>
<pdfrwt beam="1">  1        2 0.55288007E+00 0.18099484E+03</pdfrwt>
<pdfrwt beam="2">  1       -2 0.35060230E-03 0.18099484E+03</pdfrwt>
<totfact> 0.85213021E+03</totfact>
</mgrwt>
</event>
<event>
 4    1  0.4751076E-004  0.2352638E+03  0.7818608E-02  0.1122989E+00
         -2   -1    0    0    0  501 -0.00000000000E+00  0.00000000000E+00  0.13418442949E+02  0.13418443192E+02  0.25500000000E-02 0. -1.
          2   -1    0    0  501    0  0.00000000000E+00 -0.00000000000E+00 -0.10312123798E+04  0.10312123798E+04  0.25500000000E-02 0.  1.
    5000001    1    1    2    0    0 -0.67128759043E+02  0.32161686639E+02 -0.29284225814E+03  0.31181121297E+03  0.77000000000E+02 0.  0.
   -5000001    1    1    2    0    0  0.67128759043E+02 -0.32161686639E+02 -0.72495167867E+03  0.73281960999E+03  0.77000000000E+02 0.  0.
<mgrwt>
<rscale>  0 0.23526381E+03</rscale>
<asrwt>0</asrwt>
<pdfrwt beam="1">  1        2 0.15864800E+00 0.23526381E+03</pdfrwt>
<pdfrwt beam="2">  1       -2 0.20643767E-02 0.23526381E+03</pdfrwt>
<totfact> 0.18343589E+04</totfact>
</mgrwt>
</event>
<event>
 4    1  0.4751076E-004  0.3891682E+03  0.7818608E-02  0.1047596E+00
          2   -1    0    0  501    0  0.00000000000E+00  0.00000000000E+00  0.15950449737E+04  0.15950449737E+04  0.25500000000E-02 0.  1.
         -2   -1    0    0    0  501 -0.00000000000E+00 -0.00000000000E+00 -0.23737865064E+02  0.23737865201E+02  0.25500000000E-02 0. -1.
    5000001    1    1    2    0    0  0.96762864852E+02 -0.98339422849E+02  0.31320918960E+03  0.35080292267E+03  0.77000000000E+02 0.  0.
   -5000001    1    1    2    0    0 -0.96762864852E+02  0.98339422849E+02  0.12580979190E+04  0.12679799162E+04  0.77000000000E+02 0.  0.
<mgrwt>
<rscale>  0 0.38916815E+03</rscale>
<asrwt>0</asrwt>
<pdfrwt beam="1">  1        2 0.24539153E+00 0.38916815E+03</pdfrwt>
<pdfrwt beam="2">  1       -2 0.36519793E-02 0.38916815E+03</pdfrwt>
<totfact> 0.38301872E+03</totfact>
</mgrwt>
</event>
<event>
 4    1  0.4751076E-004  0.1774352E+03  0.7818608E-02  0.1170309E+00
         -2   -1    0    0    0  501 -0.00000000000E+00  0.00000000000E+00  0.43824134959E+01  0.43824142378E+01  0.25500000000E-02 0. -1.
          2   -1    0    0  501    0  0.00000000000E+00 -0.00000000000E+00 -0.17959995061E+04  0.17959995061E+04  0.25500000000E-02 0.  1.
    5000001    1    1    2    0    0 -0.34263501134E+02 -0.23567248650E+02 -0.10436896761E+04  0.10473521580E+04  0.77000000000E+02 0.  0.
   -5000001    1    1    2    0    0  0.34263501134E+02  0.23567248650E+02 -0.74792741646E+03  0.75302976237E+03  0.77000000000E+02 0.  0.
<mgrwt>
<rscale>  0 0.17743521E+03</rscale>
<asrwt>0</asrwt>
<pdfrwt beam="1">  1        2 0.27630703E+00 0.17743521E+03</pdfrwt>
<pdfrwt beam="2">  1       -2 0.67421895E-03 0.17743521E+03</pdfrwt>
<totfact> 0.35065272E+04</totfact>
</mgrwt>
</event>
<event>
 4    1  0.4751076E-004  0.2225840E+03  0.7818608E-02  0.1131971E+00
         -2   -1    0    0    0  501 -0.00000000000E+00  0.00000000000E+00  0.18715732813E+02  0.18715732987E+02  0.25500000000E-02 0. -1.
          2   -1    0    0  501    0  0.00000000000E+00 -0.00000000000E+00 -0.66179156334E+03  0.66179156334E+03  0.25500000000E-02 0.  1.
    5000001    1    1    2    0    0 -0.57010224698E+01  0.62733608743E+02 -0.47406363263E+03  0.48438965215E+03  0.77000000000E+02 0.  0.
   -5000001    1    1    2    0    0  0.57010224698E+01 -0.62733608743E+02 -0.16901219789E+03  0.19611764418E+03  0.77000000000E+02 0.  0.
<mgrwt>
<rscale>  0 0.22258404E+03</rscale>
<asrwt>0</asrwt>
<pdfrwt beam="1">  1        2 0.10181407E+00 0.22258404E+03</pdfrwt>
<pdfrwt beam="2">  1       -2 0.28793440E-02 0.22258404E+03</pdfrwt>
<totfact> 0.19847804E+04</totfact>
</mgrwt>
</event>
<event>
 4    1  0.4751076E-004  0.2692292E+03  0.7818608E-02  0.1101722E+00
          2   -1    0    0  501    0  0.00000000000E+00  0.00000000000E+00  0.22464101138E+04  0.22464101138E+04  0.25500000000E-02 0.  1.
         -2   -1    0    0    0  501 -0.00000000000E+00 -0.00000000000E+00 -0.80666902697E+01  0.80666906728E+01  0.25500000000E-02 0. -1.
    5000001    1    1    2    0    0  0.87730967587E+02  0.51949247579E+02  0.76423161502E+03  0.77483831113E+03  0.77000000000E+02 0.  0.
   -5000001    1    1    2    0    0 -0.87730967587E+02 -0.51949247579E+02  0.14741118085E+04  0.14796384933E+04  0.77000000000E+02 0.  0.
<mgrwt>
<rscale>  0 0.26922923E+03</rscale>
<asrwt>0</asrwt>
<pdfrwt beam="1">  1        2 0.34560196E+00 0.26922923E+03</pdfrwt>
<pdfrwt beam="2">  1       -2 0.12410278E-02 0.26922923E+03</pdfrwt>
<totfact> 0.85599486E+03</totfact>
</mgrwt>
</event>
<event>
 4    1  0.4751076E-004  0.3704389E+03  0.7818608E-02  0.1054525E+00
          2   -1    0    0  501    0  0.00000000000E+00  0.00000000000E+00  0.13872878821E+04  0.13872878821E+04  0.25500000000E-02 0.  1.
         -2   -1    0    0    0  501 -0.00000000000E+00 -0.00000000000E+00 -0.24729003223E+02  0.24729003354E+02  0.25500000000E-02 0. -1.
    5000001    1    1    2    0    0 -0.88297658586E+02  0.10392562220E+03  0.10582417582E+04  0.10697670916E+04  0.77000000000E+02 0.  0.
   -5000001    1    1    2    0    0  0.88297658586E+02 -0.10392562220E+03  0.30431712067E+03  0.34224979386E+03  0.77000000000E+02 0.  0.
<mgrwt>
<rscale>  0 0.37043891E+03</rscale>
<asrwt>0</asrwt>
<pdfrwt beam="1">  1        2 0.21342893E+00 0.37043891E+03</pdfrwt>
<pdfrwt beam="2">  1       -2 0.38044616E-02 0.37043891E+03</pdfrwt>
<totfact> 0.46696438E+03</totfact>
</mgrwt>
</event>
<event>
 4    1  0.4751076E-004  0.2938250E+03  0.7818608E-02  0.1088369E+00
          2   -1    0    0  501    0  0.00000000000E+00  0.00000000000E+00  0.31577886018E+03  0.31577886019E+03  0.25500000000E-02 0.  1.
         -2   -1    0    0    0  501 -0.00000000000E+00 -0.00000000000E+00 -0.68349341021E+02  0.68349341069E+02  0.25500000000E-02 0. -1.
    5000001    1    1    2    0    0 -0.11428458431E+03  0.33574110587E+02  0.73657415241E+02  0.15982053038E+03  0.77000000000E+02 0.  0.
   -5000001    1    1    2    0    0  0.11428458431E+03 -0.33574110587E+02  0.17377210391E+03  0.22430767087E+03  0.77000000000E+02 0.  0.
<mgrwt>
<rscale>  0 0.29382496E+03</rscale>
<asrwt>0</asrwt>
<pdfrwt beam="1">  1        2 0.48581363E-01 0.29382496E+03</pdfrwt>
<pdfrwt beam="2">  1       -2 0.10515283E-01 0.29382496E+03</pdfrwt>
<totfact> 0.63063439E+03</totfact>
</mgrwt>
</event>
<event>
 4    1  0.4751076E-004  0.3626644E+03  0.7818608E-02  0.1057534E+00
         -2   -1    0    0    0  501 -0.00000000000E+00  0.00000000000E+00  0.44829430504E+02  0.44829430576E+02  0.25500000000E-02 0. -1.
          2   -1    0    0  501    0  0.00000000000E+00 -0.00000000000E+00 -0.73347721775E+03  0.73347721775E+03  0.25500000000E-02 0.  1.
    5000001    1    1    2    0    0  0.11139543459E+03  0.79463013805E+02 -0.14964416257E+03  0.21690018165E+03  0.77000000000E+02 0.  0.
   -5000001    1    1    2    0    0 -0.11139543459E+03 -0.79463013805E+02 -0.53900362468E+03  0.56140646668E+03  0.77000000000E+02 0.  0.
<mgrwt>
<rscale>  0 0.36266440E+03</rscale>
<asrwt>0</asrwt>
<pdfrwt beam="1">  1        2 0.11284264E+00 0.36266440E+03</pdfrwt>
<pdfrwt beam="2">  1       -2 0.68968360E-02 0.36266440E+03</pdfrwt>
<totfact> 0.47437343E+03</totfact>
</mgrwt>
</event>
<event>
 4    1  0.4751076E-004  0.1911289E+03  0.7818608E-02  0.1157447E+00
          2   -1    0    0  501    0  0.00000000000E+00  0.00000000000E+00  0.89421429818E+03  0.89421429818E+03  0.25500000000E-02 0.  1.
         -2   -1    0    0    0  501 -0.00000000000E+00 -0.00000000000E+00 -0.10212951078E+02  0.10212951396E+02  0.25500000000E-02 0. -1.
    5000001    1    1    2    0    0  0.36698140398E+02 -0.29011413085E+02  0.59276987128E+03  0.59957779803E+03  0.77000000000E+02 0.  0.
   -5000001    1    1    2    0    0 -0.36698140398E+02  0.29011413085E+02  0.29123147582E+03  0.30484945154E+03  0.77000000000E+02 0.  0.
<mgrwt>
<rscale>  0 0.19112893E+03</rscale>
<asrwt>0</asrwt>
<pdfrwt beam="1">  1        2 0.13757142E+00 0.19112893E+03</pdfrwt>
<pdfrwt beam="2">  1       -2 0.15712233E-02 0.19112893E+03</pdfrwt>
<totfact> 0.32812183E+04</totfact>
</mgrwt>
</event>
<event>
 4    1  0.4751076E-004  0.3306782E+03  0.7818608E-02  0.1070837E+00
          2   -1    0    0  501    0  0.00000000000E+00  0.00000000000E+00  0.14993344390E+03  0.14993344392E+03  0.25500000000E-02 0.  1.
         -2   -1    0    0    0  501 -0.00000000000E+00 -0.00000000000E+00 -0.18232772101E+03  0.18232772103E+03  0.25500000000E-02 0. -1.
    5000001    1    1    2    0    0 -0.14364813274E+03  0.17324421706E+02 -0.38052155327E+02  0.16826136857E+03  0.77000000000E+02 0.  0.
   -5000001    1    1    2    0    0  0.14364813274E+03 -0.17324421706E+02  0.56578782195E+01  0.16399979638E+03  0.77000000000E+02 0.  0.
<mgrwt>
<rscale>  0 0.33067823E+03</rscale>
<asrwt>0</asrwt>
<pdfrwt beam="1">  1        2 0.23066684E-01 0.33067823E+03</pdfrwt>
<pdfrwt beam="2">  1       -2 0.28050419E-01 0.33067823E+03</pdfrwt>
<totfact> 0.27314970E+03</totfact>
</mgrwt>
</event>
<event>
 4    1  0.4751076E-004  0.2878346E+03  0.7818608E-02  0.1091485E+00
          2   -1    0    0  501    0  0.00000000000E+00  0.00000000000E+00  0.45218581292E+02  0.45218581364E+02  0.25500000000E-02 0.  1.
         -2   -1    0    0    0  501 -0.00000000000E+00 -0.00000000000E+00 -0.45804595677E+03  0.45804595678E+03  0.25500000000E-02 0. -1.
    5000001    1    1    2    0    0 -0.65627785218E+01  0.98041615898E+02 -0.33161983389E+03  0.35433874011E+03  0.77000000000E+02 0.  0.
   -5000001    1    1    2    0    0  0.65627785218E+01 -0.98041615898E+02 -0.81207541587E+02  0.14892579804E+03  0.77000000000E+02 0.  0.
<mgrwt>
<rscale>  0 0.28783459E+03</rscale>
<asrwt>0</asrwt>
<pdfrwt beam="1">  1        2 0.69567052E-02 0.28783459E+03</pdfrwt>
<pdfrwt beam="2">  1       -2 0.70468605E-01 0.28783459E+03</pdfrwt>
<totfact> 0.19140994E+03</totfact>
</mgrwt>
</event>
<event>
 4    1  0.4751076E-004  0.1637466E+03  0.7818608E-02  0.1184531E+00
         -2   -1    0    0    0  501 -0.00000000000E+00  0.00000000000E+00  0.20317294850E+01  0.20317310852E+01  0.25500000000E-02 0. -1.
          2   -1    0    0  501    0  0.00000000000E+00 -0.00000000000E+00 -0.32992744526E+04  0.32992744526E+04  0.25500000000E-02 0.  1.
    5000001    1    1    2    0    0 -0.11196582367E+02 -0.25068980287E+02 -0.17397230696E+04  0.17416426660E+04  0.77000000000E+02 0.  0.
   -5000001    1    1    2    0    0  0.11196582367E+02  0.25068980287E+02 -0.15575196535E+04  0.15596635177E+04  0.77000000000E+02 0.  0.
<mgrwt>
<rscale>  0 0.16374658E+03</rscale>
<asrwt>0</asrwt>
<pdfrwt beam="1">  1        2 0.50757640E+00 0.16374658E+03</pdfrwt>
<pdfrwt beam="2">  1       -2 0.31257653E-03 0.16374658E+03</pdfrwt>
<totfact> 0.15510959E+04</totfact>
</mgrwt>
</event>
<event>
 4    1  0.4751076E-004  0.2278386E+03  0.7818608E-02  0.1128170E+00
          2   -1    0    0  501    0  0.00000000000E+00  0.00000000000E+00  0.12444773176E+04  0.12444773176E+04  0.25500000000E-02 0.  1.
         -2   -1    0    0    0  501 -0.00000000000E+00 -0.00000000000E+00 -0.10428162231E+02  0.10428162543E+02  0.25500000000E-02 0. -1.
    5000001    1    1    2    0    0  0.88155387066E+01  0.76931006352E+02  0.79571382548E+03  0.80317220166E+03  0.77000000000E+02 0.  0.
   -5000001    1    1    2    0    0 -0.88155387066E+01 -0.76931006352E+02  0.43833532986E+03  0.45173327846E+03  0.77000000000E+02 0.  0.
<mgrwt>
<rscale>  0 0.22783864E+03</rscale>
<asrwt>0</asrwt>
<pdfrwt beam="1">  1        2 0.19145807E+00 0.22783864E+03</pdfrwt>
<pdfrwt beam="2">  1       -2 0.16043325E-02 0.22783864E+03</pdfrwt>
<totfact> 0.19949435E+04</totfact>
</mgrwt>
</event>
<event>
 4    1  0.4751076E-004  0.1821519E+03  0.7818608E-02  0.1165737E+00
          2   -1    0    0  501    0  0.00000000000E+00  0.00000000000E+00  0.58739616141E+03  0.58739616141E+03  0.25500000000E-02 0.  1.
         -2   -1    0    0    0  501 -0.00000000000E+00 -0.00000000000E+00 -0.14121355464E+02  0.14121355694E+02  0.25500000000E-02 0. -1.
    5000001    1    1    2    0    0  0.27192337600E+02 -0.95273619719E+01  0.15723012276E+03  0.17742746505E+03  0.77000000000E+02 0.  0.
   -5000001    1    1    2    0    0 -0.27192337600E+02  0.95273619719E+01  0.41604468318E+03  0.42409005206E+03  0.77000000000E+02 0.  0.
<mgrwt>
<rscale>  0 0.18215192E+03</rscale>
<asrwt>0</asrwt>
<pdfrwt beam="1">  1        2 0.90368629E-01 0.18215192E+03</pdfrwt>
<pdfrwt beam="2">  1       -2 0.21725165E-02 0.18215192E+03</pdfrwt>
<totfact> 0.34023285E+04</totfact>
</mgrwt>
</event>
<event>
 4    1  0.4751076E-004  0.2571727E+03  0.7818608E-02  0.1108854E+00
          2   -1    0    0  501    0  0.00000000000E+00  0.00000000000E+00  0.17310745872E+03  0.17310745874E+03  0.25500000000E-02 0.  1.
         -2   -1    0    0    0  501 -0.00000000000E+00 -0.00000000000E+00 -0.95515488989E+02  0.95515489023E+02  0.25500000000E-02 0. -1.
    5000001    1    1    2    0    0 -0.91190326053E+02  0.10890864810E+02  0.87466276052E+02  0.14836992939E+03  0.77000000000E+02 0.  0.
   -5000001    1    1    2    0    0  0.91190326053E+02 -0.10890864810E+02 -0.98743063180E+01  0.12025301837E+03  0.77000000000E+02 0.  0.
<mgrwt>
<rscale>  0 0.25717265E+03</rscale>
<asrwt>0</asrwt>
<pdfrwt beam="1">  1        2 0.26631916E-01 0.25717265E+03</pdfrwt>
<pdfrwt beam="2">  1       -2 0.14694691E-01 0.25717265E+03</pdfrwt>
<totfact> 0.70111631E+03</totfact>
</mgrwt>
</event>
<event>
 4    1  0.4751076E-004  0.2122072E+03  0.7818608E-02  0.1139830E+00
         -2   -1    0    0    0  501 -0.00000000000E+00  0.00000000000E+00  0.59583255339E+01  0.59583260795E+01  0.25500000000E-02 0. -1.
          2   -1    0    0  501    0  0.00000000000E+00 -0.00000000000E+00 -0.18894516853E+04  0.18894516853E+04  0.25500000000E-02 0.  1.
    5000001    1    1    2    0    0 -0.64314138101E+02  0.16886025069E+02 -0.12108207605E+04  0.12150873879E+04  0.77000000000E+02 0.  0.
   -5000001    1    1    2    0    0  0.64314138101E+02 -0.16886025069E+02 -0.67267259926E+03  0.68032262347E+03  0.77000000000E+02 0.  0.
<mgrwt>
<rscale>  0 0.21220715E+03</rscale>
<asrwt>0</asrwt>
<pdfrwt beam="1">  1        2 0.29068440E+00 0.21220715E+03</pdfrwt>
<pdfrwt beam="2">  1       -2 0.91666702E-03 0.21220715E+03</pdfrwt>
<totfact> 0.20351671E+04</totfact>
</mgrwt>
</event>
<event>
 4    1  0.4751076E-004  0.2575219E+03  0.7818608E-02  0.1108641E+00
         -2   -1    0    0    0  501 -0.00000000000E+00  0.00000000000E+00  0.16407797893E+04  0.16407797893E+04  0.25500000000E-02 0. -1.
          2   -1    0    0  501    0  0.00000000000E+00 -0.00000000000E+00 -0.10104572153E+02  0.10104572474E+02  0.25500000000E-02 0.  1.
    5000001    1    1    2    0    0  0.75869314434E+02  0.65905863637E+02  0.66490661414E+03  0.67685267323E+03  0.77000000000E+02 0.  0.
   -5000001    1    1    2    0    0 -0.75869314434E+02 -0.65905863637E+02  0.96576860304E+03  0.97403168858E+03  0.77000000000E+02 0.  0.
<mgrwt>
<rscale>  0 0.25752187E+03</rscale>
<asrwt>0</asrwt>
<pdfrwt beam="1">  1        2 0.15545526E-02 0.25752187E+03</pdfrwt>
<pdfrwt beam="2">  1       -2 0.25242717E+00 0.25752187E+03</pdfrwt>
<totfact> 0.53917624E+02</totfact>
</mgrwt>
</event>
<event>
 4    1  0.4751076E-004  0.2071387E+03  0.7818608E-02  0.1143852E+00
         -2   -1    0    0    0  501 -0.00000000000E+00  0.00000000000E+00  0.11824613477E+02  0.11824613752E+02  0.25500000000E-02 0. -1.
          2   -1    0    0  501    0  0.00000000000E+00 -0.00000000000E+00 -0.90714251973E+03  0.90714251973E+03  0.25500000000E-02 0.  1.
    5000001    1    1    2    0    0  0.65955221980E+02 -0.31479186433E+01 -0.54046620471E+03  0.54990246329E+03  0.77000000000E+02 0.  0.
   -5000001    1    1    2    0    0 -0.65955221980E+02  0.31479186433E+01 -0.35485170154E+03  0.36906467019E+03  0.77000000000E+02 0.  0.
<mgrwt>
<rscale>  0 0.20713870E+03</rscale>
<asrwt>0</asrwt>
<pdfrwt beam="1">  1        2 0.13956033E+00 0.20713870E+03</pdfrwt>
<pdfrwt beam="2">  1       -2 0.18191720E-02 0.20713870E+03</pdfrwt>
<totfact> 0.26150126E+04</totfact>
</mgrwt>
</event>
<event>
 4    1  0.4751076E-004  0.2826056E+03  0.7818608E-02  0.1094274E+00
          2   -1    0    0  501    0  0.00000000000E+00  0.00000000000E+00  0.13089371906E+04  0.13089371906E+04  0.25500000000E-02 0.  1.
         -2   -1    0    0    0  501 -0.00000000000E+00 -0.00000000000E+00 -0.15253961973E+02  0.15253962186E+02  0.25500000000E-02 0. -1.
    5000001    1    1    2    0    0  0.42522627680E+02 -0.89582370125E+02  0.34302118413E+03  0.36527483853E+03  0.77000000000E+02 0.  0.
   -5000001    1    1    2    0    0 -0.42522627680E+02  0.89582370125E+02  0.95066204445E+03  0.95891631421E+03  0.77000000000E+02 0.  0.
<mgrwt>
<rscale>  0 0.28260558E+03</rscale>
<asrwt>0</asrwt>
<pdfrwt beam="1">  1        2 0.20137496E+00 0.28260558E+03</pdfrwt>
<pdfrwt beam="2">  1       -2 0.23467633E-02 0.28260558E+03</pdfrwt>
<totfact> 0.10588912E+04</totfact>
</mgrwt>
</event>
<event>
 4    1  0.4751076E-004  0.2434804E+03  0.7818608E-02  0.1117496E+00
          2   -1    0    0  501    0  0.00000000000E+00  0.00000000000E+00  0.12523582062E+02  0.12523582322E+02  0.25500000000E-02 0.  1.
         -2   -1    0    0    0  501 -0.00000000000E+00 -0.00000000000E+00 -0.11834215797E+04  0.11834215797E+04  0.25500000000E-02 0. -1.
    5000001    1    1    2    0    0  0.80751489561E+02  0.24147297475E+02 -0.79313373055E+03  0.80130768721E+03  0.77000000000E+02 0.  0.
   -5000001    1    1    2    0    0 -0.80751489561E+02 -0.24147297475E+02 -0.37776426709E+03  0.39463747482E+03  0.77000000000E+02 0.  0.
<mgrwt>
<rscale>  0 0.24348041E+03</rscale>
<asrwt>0</asrwt>
<pdfrwt beam="1">  1        2 0.19267059E-02 0.24348041E+03</pdfrwt>
<pdfrwt beam="2">  1       -2 0.18206477E+00 0.24348041E+03</pdfrwt>
<totfact> 0.10827750E+03</totfact>
</mgrwt>
</event>
<event>
 4    1  0.4751076E-004  0.1974205E+03  0.7818608E-02  0.1151934E+00
         -2   -1    0    0    0  501 -0.00000000000E+00  0.00000000000E+00  0.11250505690E+02  0.11250505978E+02  0.25500000000E-02 0. -1.
          2   -1    0    0  501    0  0.00000000000E+00 -0.00000000000E+00 -0.86606879731E+03  0.86606879732E+03  0.25500000000E-02 0.  1.
    5000001    1    1    2    0    0 -0.34677136390E+02 -0.49107800758E+02 -0.36446349024E+03  0.37732839225E+03  0.77000000000E+02 0.  0.
   -5000001    1    1    2    0    0  0.34677136390E+02  0.49107800758E+02 -0.49035480138E+03  0.49999091104E+03  0.77000000000E+02 0.  0.
<mgrwt>
<rscale>  0 0.19742049E+03</rscale>
<asrwt>0</asrwt>
<pdfrwt beam="1">  1        2 0.13324130E+00 0.19742049E+03</pdfrwt>
<pdfrwt beam="2">  1       -2 0.17308477E-02 0.19742049E+03</pdfrwt>
<totfact> 0.29792334E+04</totfact>
</mgrwt>
</event>
<event>
 4    1  0.4751076E-004  0.2540263E+03  0.7818608E-02  0.1110786E+00
         -2   -1    0    0    0  501 -0.00000000000E+00  0.00000000000E+00  0.30190389076E+02  0.30190389184E+02  0.25500000000E-02 0. -1.
          2   -1    0    0  501    0  0.00000000000E+00 -0.00000000000E+00 -0.53435330005E+03  0.53435330006E+03  0.25500000000E-02 0.  1.
    5000001    1    1    2    0    0  0.68759934865E+02 -0.43500198822E+02 -0.11905110572E+03  0.16346975780E+03  0.77000000000E+02 0.  0.
   -5000001    1    1    2    0    0 -0.68759934865E+02  0.43500198822E+02 -0.38511180525E+03  0.40107393144E+03  0.77000000000E+02 0.  0.
<mgrwt>
<rscale>  0 0.25402625E+03</rscale>
<asrwt>0</asrwt>
<pdfrwt beam="1">  1        2 0.82208193E-01 0.25402625E+03</pdfrwt>
<pdfrwt beam="2">  1       -2 0.46446757E-02 0.25402625E+03</pdfrwt>
<totfact> 0.12516721E+04</totfact>
</mgrwt>
</event>
<event>
 4    1  0.4751076E-004  0.6015590E+03  0.7818608E-02  0.9902177E-01
          2   -1    0    0  501    0  0.00000000000E+00  0.00000000000E+00  0.22491815839E+03  0.22491815840E+03  0.25500000000E-02 0.  1.
         -2   -1    0    0    0  501 -0.00000000000E+00 -0.00000000000E+00 -0.40222767090E+03  0.40222767091E+03  0.25500000000E-02 0. -1.
    5000001    1    1    2    0    0  0.14107361366E+03  0.20690039832E+03 -0.24268814441E+03  0.35712193258E+03  0.77000000000E+02 0.  0.
   -5000001    1    1    2    0    0 -0.14107361366E+03 -0.20690039832E+03  0.65378631895E+02  0.27002389673E+03  0.77000000000E+02 0.  0.
<mgrwt>
<rscale>  0 0.60155900E+03</rscale>
<asrwt>0</asrwt>
<pdfrwt beam="1">  1        2 0.34602794E-01 0.60155900E+03</pdfrwt>
<pdfrwt beam="2">  1       -2 0.61881180E-01 0.60155900E+03</pdfrwt>
<totfact> 0.37112690E+02</totfact>
</mgrwt>
</event>
<event>
 4    1  0.4751076E-004  0.2235682E+03  0.7818608E-02  0.1131250E+00
          2   -1    0    0  501    0  0.00000000000E+00  0.00000000000E+00  0.75345860755E+03  0.75345860756E+03  0.25500000000E-02 0.  1.
         -2   -1    0    0    0  501 -0.00000000000E+00 -0.00000000000E+00 -0.16584438893E+02  0.16584439089E+02  0.25500000000E-02 0. -1.
    5000001    1    1    2    0    0 -0.69489062967E+02  0.36487133778E+01  0.22539796928E+03  0.24814368325E+03  0.77000000000E+02 0.  0.
   -5000001    1    1    2    0    0  0.69489062967E+02 -0.36487133778E+01  0.51147619938E+03  0.52189936339E+03  0.77000000000E+02 0.  0.
<mgrwt>
<rscale>  0 0.22356823E+03</rscale>
<asrwt>0</asrwt>
<pdfrwt beam="1">  1        2 0.11591672E+00 0.22356823E+03</pdfrwt>
<pdfrwt beam="2">  1       -2 0.25514520E-02 0.22356823E+03</pdfrwt>
<totfact> 0.20288120E+04</totfact>
</mgrwt>
</event>
<event>
 4    1  0.4751076E-004  0.3886691E+03  0.7818608E-02  0.1047775E+00
         -2   -1    0    0    0  501 -0.00000000000E+00  0.00000000000E+00  0.42080584844E+02  0.42080584921E+02  0.25500000000E-02 0. -1.
          2   -1    0    0  501    0  0.00000000000E+00 -0.00000000000E+00 -0.89746657538E+03  0.89746657538E+03  0.25500000000E-02 0.  1.
    5000001    1    1    2    0    0 -0.16153225569E+03  0.58106485770E+02 -0.31006278460E+03  0.36268024996E+03  0.77000000000E+02 0.  0.
   -5000001    1    1    2    0    0  0.16153225569E+03 -0.58106485770E+02 -0.54532320593E+03  0.57686691034E+03  0.77000000000E+02 0.  0.
<mgrwt>
<rscale>  0 0.38866911E+03</rscale>
<asrwt>0</asrwt>
<pdfrwt beam="1">  1        2 0.13807177E+00 0.38866911E+03</pdfrwt>
<pdfrwt beam="2">  1       -2 0.64739368E-02 0.38866911E+03</pdfrwt>
<totfact> 0.40318525E+03</totfact>
</mgrwt>
</event>
<event>
 4    1  0.4751076E-004  0.2359046E+03  0.7818608E-02  0.1122552E+00
         -2   -1    0    0    0  501 -0.00000000000E+00  0.00000000000E+00  0.11416355693E+02  0.11416355977E+02  0.25500000000E-02 0. -1.
          2   -1    0    0  501    0  0.00000000000E+00 -0.00000000000E+00 -0.12186673515E+04  0.12186673515E+04  0.25500000000E-02 0.  1.
    5000001    1    1    2    0    0  0.73063226783E+01  0.88933273242E+02 -0.57959955666E+03  0.59146188002E+03  0.77000000000E+02 0.  0.
   -5000001    1    1    2    0    0 -0.73063226783E+01 -0.88933273242E+02 -0.62765143918E+03  0.63862182749E+03  0.77000000000E+02 0.  0.
<mgrwt>
<rscale>  0 0.23590456E+03</rscale>
<asrwt>0</asrwt>
<pdfrwt beam="1">  1        2 0.18748718E+00 0.23590456E+03</pdfrwt>
<pdfrwt beam="2">  1       -2 0.17563634E-02 0.23590456E+03</pdfrwt>
<totfact> 0.18098310E+04</totfact>
</mgrwt>
</event>
<event>
 4    1  0.4751076E-004  0.3993218E+03  0.7818608E-02  0.1044015E+00
         -2   -1    0    0    0  501 -0.00000000000E+00  0.00000000000E+00  0.47727970293E+02  0.47727970361E+02  0.25500000000E-02 0. -1.
          2   -1    0    0  501    0  0.00000000000E+00 -0.00000000000E+00 -0.83524357000E+03  0.83524357000E+03  0.25500000000E-02 0.  1.
    5000001    1    1    2    0    0  0.18390604415E+03  0.17259171512E+01 -0.37045441319E+03  0.42070165690E+03  0.77000000000E+02 0.  0.
   -5000001    1    1    2    0    0 -0.18390604415E+03 -0.17259171512E+01 -0.41706118652E+03  0.46226988347E+03  0.77000000000E+02 0.  0.
<mgrwt>
<rscale>  0 0.39932183E+03</rscale>
<asrwt>0</asrwt>
<pdfrwt beam="1">  1        2 0.12849900E+00 0.39932183E+03</pdfrwt>
<pdfrwt beam="2">  1       -2 0.73427653E-02 0.39932183E+03</pdfrwt>
<totfact> 0.36464126E+03</totfact>
</mgrwt>
</event>
<event>
 4    1  0.4751076E-004  0.2772065E+03  0.7818608E-02  0.1097225E+00
          2   -1    0    0  501    0  0.00000000000E+00  0.00000000000E+00  0.36447125995E+03  0.36447125996E+03  0.25500000000E-02 0.  1.
         -2   -1    0    0    0  501 -0.00000000000E+00 -0.00000000000E+00 -0.52708859690E+02  0.52708859751E+02  0.25500000000E-02 0. -1.
    5000001    1    1    2    0    0  0.40866716426E+02 -0.10691033775E+03  0.13558087607E+03  0.19341944780E+03  0.77000000000E+02 0.  0.
   -5000001    1    1    2    0    0 -0.40866716426E+02  0.10691033775E+03  0.17618152419E+03  0.22376067192E+03  0.77000000000E+02 0.  0.
<mgrwt>
<rscale>  0 0.27720653E+03</rscale>
<asrwt>0</asrwt>
<pdfrwt beam="1">  1        2 0.56072501E-01 0.27720653E+03</pdfrwt>
<pdfrwt beam="2">  1       -2 0.81090555E-02 0.27720653E+03</pdfrwt>
<totfact> 0.81297429E+03</totfact>
</mgrwt>
</event>
<event>
 4    1  0.4751076E-004  0.2716752E+03  0.7818608E-02  0.1100325E+00
          2   -1    0    0  501    0  0.00000000000E+00  0.00000000000E+00  0.10461645494E+03  0.10461645497E+03  0.25500000000E-02 0.  1.
         -2   -1    0    0    0  501 -0.00000000000E+00 -0.00000000000E+00 -0.17637623551E+03  0.17637623553E+03  0.25500000000E-02 0. -1.
    5000001    1    1    2    0    0  0.16151505122E+02 -0.11054737854E+03 -0.42523783892E+02  0.14219305966E+03  0.77000000000E+02 0.  0.
   -5000001    1    1    2    0    0 -0.16151505122E+02  0.11054737854E+03 -0.29235996683E+02  0.13879963084E+03  0.77000000000E+02 0.  0.
<mgrwt>
<rscale>  0 0.27167522E+03</rscale>
<asrwt>0</asrwt>
<pdfrwt beam="1">  1        2 0.16094839E-01 0.27167522E+03</pdfrwt>
<pdfrwt beam="2">  1       -2 0.27134805E-01 0.27167522E+03</pdfrwt>
<totfact> 0.43683588E+03</totfact>
</mgrwt>
</event>
<event>
 4    1  0.4751076E-004  0.4717797E+03  0.7818608E-02  0.1021419E+00
          2   -1    0    0  501    0  0.00000000000E+00  0.00000000000E+00  0.39564558864E+03  0.39564558865E+03  0.25500000000E-02 0.  1.
         -2   -1    0    0    0  501 -0.00000000000E+00 -0.00000000000E+00 -0.14064106321E+03  0.14064106324E+03  0.25500000000E-02 0. -1.
    5000001    1    1    2    0    0 -0.80622255365E+01  0.11393249585E+03  0.34517782660E+03  0.37164814686E+03  0.77000000000E+02 0.  0.
   -5000001    1    1    2    0    0  0.80622255365E+01 -0.11393249585E+03 -0.90173301169E+02  0.16463850502E+03  0.77000000000E+02 0.  0.
<mgrwt>
<rscale>  0 0.47177968E+03</rscale>
<asrwt>0</asrwt>
<pdfrwt beam="1">  1        2 0.60868552E-01 0.47177968E+03</pdfrwt>
<pdfrwt beam="2">  1       -2 0.21637087E-01 0.47177968E+03</pdfrwt>
<totfact> 0.14909587E+03</totfact>
</mgrwt>
</event>
<event>
 4    1  0.4751076E-004  0.1655227E+03  0.7818608E-02  0.1182599E+00
          2   -1    0    0  501    0  0.00000000000E+00  0.00000000000E+00  0.59376260927E+02  0.59376260982E+02  0.25500000000E-02 0.  1.
         -2   -1    0    0    0  501 -0.00000000000E+00 -0.00000000000E+00 -0.11535662536E+03  0.11535662539E+03  0.25500000000E-02 0. -1.
    5000001    1    1    2    0    0 -0.14846363945E+02 -0.26303484600E+02 -0.31005196478E+02  0.88332383830E+02  0.77000000000E+02 0.  0.
   -5000001    1    1    2    0    0  0.14846363945E+02  0.26303484600E+02 -0.24975167952E+02  0.86400502538E+02  0.77000000000E+02 0.  0.
<mgrwt>
<rscale>  0 0.16552275E+03</rscale>
<asrwt>0</asrwt>
<pdfrwt beam="1">  1        2 0.91348094E-02 0.16552275E+03</pdfrwt>
<pdfrwt beam="2">  1       -2 0.17747173E-01 0.16552275E+03</pdfrwt>
<totfact> 0.17517227E+04</totfact>
</mgrwt>
</event>
<event>
 4    1  0.4751076E-004  0.2738935E+03  0.7818608E-02  0.1099072E+00
         -2   -1    0    0    0  501 -0.00000000000E+00  0.00000000000E+00  0.97082240773E+01  0.97082244122E+01  0.25500000000E-02 0. -1.
          2   -1    0    0  501    0  0.00000000000E+00 -0.00000000000E+00 -0.19318071308E+04  0.19318071308E+04  0.25500000000E-02 0.  1.
    5000001    1    1    2    0    0  0.63509824694E+02  0.76794573923E+02 -0.57967924872E+03  0.59320142937E+03  0.77000000000E+02 0.  0.
   -5000001    1    1    2    0    0 -0.63509824694E+02 -0.76794573923E+02 -0.13424196580E+04  0.13483139258E+04  0.77000000000E+02 0.  0.
<mgrwt>
<rscale>  0 0.27389353E+03</rscale>
<asrwt>0</asrwt>
<pdfrwt beam="1">  1        2 0.29720079E+00 0.27389353E+03</pdfrwt>
<pdfrwt beam="2">  1       -2 0.14935745E-02 0.27389353E+03</pdfrwt>
<totfact> 0.95793775E+03</totfact>
</mgrwt>
</event>
<event>
 4    1  0.4751076E-004  0.2053152E+03  0.7818608E-02  0.1145330E+00
         -2   -1    0    0    0  501 -0.00000000000E+00  0.00000000000E+00  0.21866709883E+02  0.21866710032E+02  0.25500000000E-02 0. -1.
          2   -1    0    0  501    0  0.00000000000E+00 -0.00000000000E+00 -0.48194652527E+03  0.48194652528E+03  0.25500000000E-02 0.  1.
    5000001    1    1    2    0    0  0.64085612132E+02  0.22399478106E+02 -0.23234520330E+03  0.25401180248E+03  0.77000000000E+02 0.  0.
   -5000001    1    1    2    0    0 -0.64085612132E+02 -0.22399478106E+02 -0.22773461208E+03  0.24980143282E+03  0.77000000000E+02 0.  0.
<mgrwt>
<rscale>  0 0.20531522E+03</rscale>
<asrwt>0</asrwt>
<pdfrwt beam="1">  1        2 0.74145611E-01 0.20531522E+03</pdfrwt>
<pdfrwt beam="2">  1       -2 0.33641096E-02 0.20531522E+03</pdfrwt>
<totfact> 0.22500354E+04</totfact>
</mgrwt>
</event>
<event>
 4    1  0.4751076E-004  0.2644604E+03  0.7818608E-02  0.1104493E+00
          2   -1    0    0  501    0  0.00000000000E+00  0.00000000000E+00  0.41698720315E+03  0.41698720316E+03  0.25500000000E-02 0.  1.
         -2   -1    0    0    0  501 -0.00000000000E+00 -0.00000000000E+00 -0.41931314868E+02  0.41931314946E+02  0.25500000000E-02 0. -1.
    5000001    1    1    2    0    0 -0.52316022279E+02 -0.93355024116E+02  0.20519865109E+03  0.24390082641E+03  0.77000000000E+02 0.  0.
   -5000001    1    1    2    0    0  0.52316022279E+02  0.93355024116E+02  0.16985723720E+03  0.21501769170E+03  0.77000000000E+02 0.  0.
<mgrwt>
<rscale>  0 0.26446037E+03</rscale>
<asrwt>0</asrwt>
<pdfrwt beam="1">  1        2 0.64151880E-01 0.26446037E+03</pdfrwt>
<pdfrwt beam="2">  1       -2 0.64509713E-02 0.26446037E+03</pdfrwt>
<totfact> 0.99995501E+03</totfact>
</mgrwt>
</event>
<event>
 4    1  0.4751076E-004  0.2622122E+03  0.7818608E-02  0.1105821E+00
         -2   -1    0    0    0  501 -0.00000000000E+00  0.00000000000E+00  0.79808778275E+03  0.79808778275E+03  0.25500000000E-02 0. -1.
          2   -1    0    0  501    0  0.00000000000E+00 -0.00000000000E+00 -0.21537487860E+02  0.21537488011E+02  0.25500000000E-02 0.  1.
    5000001    1    1    2    0    0 -0.74811705199E+02 -0.57927880051E+02  0.53842386442E+03  0.55207036535E+03  0.77000000000E+02 0.  0.
   -5000001    1    1    2    0    0  0.74811705199E+02  0.57927880051E+02  0.23812643046E+03  0.26755490541E+03  0.77000000000E+02 0.  0.
<mgrwt>
<rscale>  0 0.26221217E+03</rscale>
<asrwt>0</asrwt>
<pdfrwt beam="1">  1        2 0.33134596E-02 0.26221217E+03</pdfrwt>
<pdfrwt beam="2">  1       -2 0.12278274E+00 0.26221217E+03</pdfrwt>
<totfact> 0.14332586E+03</totfact>
</mgrwt>
</event>
<event>
 4    1  0.4751076E-004  0.2355722E+03  0.7818608E-02  0.1122778E+00
          2   -1    0    0  501    0  0.00000000000E+00  0.00000000000E+00  0.21047977010E+04  0.21047977010E+04  0.25500000000E-02 0.  1.
         -2   -1    0    0    0  501 -0.00000000000E+00 -0.00000000000E+00 -0.65914030979E+01  0.65914035911E+01  0.25500000000E-02 0. -1.
    5000001    1    1    2    0    0  0.64224376754E+01  0.85572909934E+02  0.83313850004E+03  0.84107831434E+03  0.77000000000E+02 0.  0.
   -5000001    1    1    2    0    0 -0.64224376754E+01 -0.85572909934E+02  0.12650677979E+04  0.12703107902E+04  0.77000000000E+02 0.  0.
<mgrwt>
<rscale>  0 0.23557224E+03</rscale>
<asrwt>0</asrwt>
<pdfrwt beam="1">  1        2 0.32381514E+00 0.23557224E+03</pdfrwt>
<pdfrwt beam="2">  1       -2 0.10140617E-02 0.23557224E+03</pdfrwt>
<totfact> 0.13616691E+04</totfact>
</mgrwt>
</event>
<event>
 4    1  0.4751076E-004  0.2321764E+03  0.7818608E-02  0.1125117E+00
          2   -1    0    0  501    0  0.00000000000E+00  0.00000000000E+00  0.90746885176E+03  0.90746885177E+03  0.25500000000E-02 0.  1.
         -2   -1    0    0    0  501 -0.00000000000E+00 -0.00000000000E+00 -0.14850617052E+02  0.14850617271E+02  0.25500000000E-02 0. -1.
    5000001    1    1    2    0    0  0.68553769977E+02 -0.94706938629E+01  0.65493727443E+03  0.66306948871E+03  0.77000000000E+02 0.  0.
   -5000001    1    1    2    0    0 -0.68553769977E+02  0.94706938629E+01  0.23768096028E+03  0.25924998033E+03  0.77000000000E+02 0.  0.
<mgrwt>
<rscale>  0 0.23217642E+03</rscale>
<asrwt>0</asrwt>
<pdfrwt beam="1">  1        2 0.13961061E+00 0.23217642E+03</pdfrwt>
<pdfrwt beam="2">  1       -2 0.22847100E-02 0.23217642E+03</pdfrwt>
<totfact> 0.18840364E+04</totfact>
</mgrwt>
</event>
<event>
 4    1  0.4751076E-004  0.3191031E+03  0.7818608E-02  0.1076063E+00
         -2   -1    0    0    0  501 -0.00000000000E+00  0.00000000000E+00  0.21138739839E+02  0.21138739993E+02  0.25500000000E-02 0. -1.
          2   -1    0    0  501    0  0.00000000000E+00 -0.00000000000E+00 -0.12042677415E+04  0.12042677415E+04  0.25500000000E-02 0.  1.
    5000001    1    1    2    0    0  0.22017776459E+02  0.10709023463E+03 -0.25734714034E+03  0.29001663999E+03  0.77000000000E+02 0.  0.
   -5000001    1    1    2    0    0 -0.22017776459E+02 -0.10709023463E+03 -0.92578186135E+03  0.93538984153E+03  0.77000000000E+02 0.  0.
<mgrwt>
<rscale>  0 0.31910313E+03</rscale>
<asrwt>0</asrwt>
<pdfrwt beam="1">  1        2 0.18527191E+00 0.31910313E+03</pdfrwt>
<pdfrwt beam="2">  1       -2 0.32521148E-02 0.31910313E+03</pdfrwt>
<totfact> 0.74783759E+03</totfact>
</mgrwt>
</event>
<event>
 4    1  0.4751076E-004  0.2777884E+03  0.7818608E-02  0.1096903E+00
          2   -1    0    0  501    0  0.00000000000E+00  0.00000000000E+00  0.21769520135E+04  0.21769520135E+04  0.25500000000E-02 0.  1.
         -2   -1    0    0    0  501 -0.00000000000E+00 -0.00000000000E+00 -0.88617482380E+01  0.88617486048E+01  0.25500000000E-02 0. -1.
    5000001    1    1    2    0    0 -0.77329136222E+01  0.65128193225E+02  0.18330592487E+04  0.18358476758E+04  0.77000000000E+02 0.  0.
   -5000001    1    1    2    0    0  0.77329136222E+01 -0.65128193225E+02  0.33503101663E+03  0.34996608637E+03  0.77000000000E+02 0.  0.
<mgrwt>
<rscale>  0 0.27778842E+03</rscale>
<asrwt>0</asrwt>
<pdfrwt beam="1">  1        2 0.33491615E+00 0.27778842E+03</pdfrwt>
<pdfrwt beam="2">  1       -2 0.13633440E-02 0.27778842E+03</pdfrwt>
<totfact> 0.81273120E+03</totfact>
</mgrwt>
</event>
<event>
 4    1  0.4751076E-004  0.3652875E+03  0.7818608E-02  0.1056510E+00
          2   -1    0    0  501    0  0.00000000000E+00  0.00000000000E+00  0.65595016516E+02  0.65595016565E+02  0.25500000000E-02 0.  1.
         -2   -1    0    0    0  501 -0.00000000000E+00 -0.00000000000E+00 -0.50855611073E+03  0.50855611073E+03  0.25500000000E-02 0. -1.
    5000001    1    1    2    0    0 -0.56117268726E+02 -0.13438500173E+03 -0.97506468799E+02  0.19142880660E+03  0.77000000000E+02 0.  0.
   -5000001    1    1    2    0    0  0.56117268726E+02  0.13438500173E+03 -0.34545462541E+03  0.38272232069E+03  0.77000000000E+02 0.  0.
<mgrwt>
<rscale>  0 0.36528754E+03</rscale>
<asrwt>0</asrwt>
<pdfrwt beam="1">  1        2 0.10091541E-01 0.36528754E+03</pdfrwt>
<pdfrwt beam="2">  1       -2 0.78239399E-01 0.36528754E+03</pdfrwt>
<totfact> 0.95360955E+02</totfact>
</mgrwt>
</event>
<event>
 4    1  0.4751076E-004  0.2572904E+03  0.7818608E-02  0.1108782E+00
         -2   -1    0    0    0  501 -0.00000000000E+00  0.00000000000E+00  0.50838619504E+02  0.50838619568E+02  0.25500000000E-02 0. -1.
          2   -1    0    0  501    0  0.00000000000E+00 -0.00000000000E+00 -0.32553169588E+03  0.32553169589E+03  0.25500000000E-02 0.  1.
    5000001    1    1    2    0    0 -0.64519414122E+02 -0.75604356486E+02 -0.97504847400E+02  0.15910678422E+03  0.77000000000E+02 0.  0.
   -5000001    1    1    2    0    0  0.64519414122E+02  0.75604356486E+02 -0.17718822898E+03  0.21726353124E+03  0.77000000000E+02 0.  0.
<mgrwt>
<rscale>  0 0.25729036E+03</rscale>
<asrwt>0</asrwt>
<pdfrwt beam="1">  1        2 0.50081798E-01 0.25729036E+03</pdfrwt>
<pdfrwt beam="2">  1       -2 0.78213263E-02 0.25729036E+03</pdfrwt>
<totfact> 0.96858874E+03</totfact>
</mgrwt>
</event>
<event>
 4    1  0.4751076E-004  0.4801268E+03  0.7818608E-02  0.1019100E+00
         -2   -1    0    0    0  501 -0.00000000000E+00  0.00000000000E+00  0.93267101277E+02  0.93267101312E+02  0.25500000000E-02 0.  1.
          2   -1    0    0  501    0  0.00000000000E+00 -0.00000000000E+00 -0.61790731544E+03  0.61790731545E+03  0.25500000000E-02 0. -1.
    5000001    1    1    2    0    0  0.57704981807E+02 -0.21941082906E+03 -0.28480578985E+03  0.37217511304E+03  0.77000000000E+02 0.  0.
   -5000001    1    1    2    0    0 -0.57704981807E+02  0.21941082906E+03 -0.23983442431E+03  0.33899930372E+03  0.77000000000E+02 0.  0.
<mgrwt>
<rscale>  0 0.48012675E+03</rscale>
<asrwt>0</asrwt>
<pdfrwt beam="1">  1        2 0.95062661E-01 0.48012675E+03</pdfrwt>
<pdfrwt beam="2">  1       -2 0.14348785E-01 0.48012675E+03</pdfrwt>
<totfact> 0.18044814E+03</totfact>
</mgrwt>
</event>
<event>
 4    1  0.4751076E-004  0.3822403E+03  0.7818608E-02  0.1050109E+00
         -2   -1    0    0    0  501 -0.00000000000E+00  0.00000000000E+00  0.75824000222E+02  0.75824000265E+02  0.25500000000E-02 0. -1.
          2   -1    0    0  501    0  0.00000000000E+00 -0.00000000000E+00 -0.48173280467E+03  0.48173280467E+03  0.25500000000E-02 0.  1.
    5000001    1    1    2    0    0 -0.29445289551E+02  0.17241684688E+03 -0.20029895384E+03  0.27684520056E+03  0.77000000000E+02 0.  0.
   -5000001    1    1    2    0    0  0.29445289551E+02 -0.17241684688E+03 -0.20560985061E+03  0.28071160438E+03  0.77000000000E+02 0.  0.
<mgrwt>
<rscale>  0 0.38224028E+03</rscale>
<asrwt>0</asrwt>
<pdfrwt beam="1">  1        2 0.74112737E-01 0.38224028E+03</pdfrwt>
<pdfrwt beam="2">  1       -2 0.11665231E-01 0.38224028E+03</pdfrwt>
<totfact> 0.33788322E+03</totfact>
</mgrwt>
</event>
<event>
 4    1  0.4751076E-004  0.3555653E+03  0.7818608E-02  0.1060354E+00
         -2   -1    0    0    0  501 -0.00000000000E+00  0.00000000000E+00  0.30756829422E+02  0.30756829528E+02  0.25500000000E-02 0. -1.
          2   -1    0    0  501    0  0.00000000000E+00 -0.00000000000E+00 -0.10276311291E+04  0.10276311291E+04  0.25500000000E-02 0.  1.
    5000001    1    1    2    0    0 -0.86336574234E+02 -0.30616932522E+02 -0.88979693117E+03  0.89780787440E+03  0.77000000000E+02 0.  0.
   -5000001    1    1    2    0    0  0.86336574234E+02  0.30616932522E+02 -0.10707736852E+03  0.16058008424E+03  0.77000000000E+02 0.  0.
<mgrwt>
<rscale>  0 0.35556533E+03</rscale>
<asrwt>0</asrwt>
<pdfrwt beam="1">  1        2 0.15809707E+00 0.35556533E+03</pdfrwt>
<pdfrwt beam="2">  1       -2 0.47318207E-02 0.35556533E+03</pdfrwt>
<totfact> 0.54004416E+03</totfact>
</mgrwt>
</event>
<event>
 4    1  0.4751076E-004  0.1806622E+03  0.7818608E-02  0.1167164E+00
          2   -1    0    0  501    0  0.00000000000E+00  0.00000000000E+00  0.11775877133E+04  0.11775877133E+04  0.25500000000E-02 0.  1.
         -2   -1    0    0    0  501 -0.00000000000E+00 -0.00000000000E+00 -0.69291689362E+01  0.69291694054E+01  0.25500000000E-02 0. -1.
    5000001    1    1    2    0    0  0.35125353507E+02 -0.29819306021E+02  0.51727924743E+03  0.52500457264E+03  0.77000000000E+02 0.  0.
   -5000001    1    1    2    0    0 -0.35125353507E+02  0.29819306021E+02  0.65337929695E+03  0.65951231008E+03  0.77000000000E+02 0.  0.
<mgrwt>
<rscale>  0 0.18066217E+03</rscale>
<asrwt>0</asrwt>
<pdfrwt beam="1">  1        2 0.18116751E+00 0.18066217E+03</pdfrwt>
<pdfrwt beam="2">  1       -2 0.10660250E-02 0.18066217E+03</pdfrwt>
<totfact> 0.38787867E+04</totfact>
</mgrwt>
</event>
<event>
 4    1  0.4751076E-004  0.3170181E+03  0.7818608E-02  0.1077030E+00
         -2   -1    0    0    0  501 -0.00000000000E+00  0.00000000000E+00  0.15729145399E+02  0.15729145606E+02  0.25500000000E-02 0. -1.
          2   -1    0    0  501    0  0.00000000000E+00 -0.00000000000E+00 -0.15973610802E+04  0.15973610802E+04  0.25500000000E-02 0.  1.
    5000001    1    1    2    0    0  0.62767089376E+02  0.11919528358E+03 -0.62602175768E+03  0.64496469998E+03  0.77000000000E+02 0.  0.
   -5000001    1    1    2    0    0 -0.62767089376E+02 -0.11919528358E+03 -0.95561017710E+03  0.96812552581E+03  0.77000000000E+02 0.  0.
<mgrwt>
<rscale>  0 0.31701814E+03</rscale>
<asrwt>0</asrwt>
<pdfrwt beam="1">  1        2 0.24574773E+00 0.31701814E+03</pdfrwt>
<pdfrwt beam="2">  1       -2 0.24198698E-02 0.31701814E+03</pdfrwt>
<totfact> 0.70748680E+03</totfact>
</mgrwt>
</event>
<event>
 4    1  0.4751076E-004  0.1760928E+03  0.7818608E-02  0.1171639E+00
         -2   -1    0    0    0  501 -0.00000000000E+00  0.00000000000E+00  0.63413496037E+02  0.63413496088E+02  0.25500000000E-02 0. -1.
          2   -1    0    0  501    0  0.00000000000E+00 -0.00000000000E+00 -0.12224796902E+03  0.12224796905E+03  0.25500000000E-02 0.  1.
    5000001    1    1    2    0    0 -0.42252714325E+02 -0.61521580329E+01 -0.29234042560E+02  0.92772680034E+02  0.77000000000E+02 0.  0.
   -5000001    1    1    2    0    0  0.42252714325E+02  0.61521580329E+01 -0.29600430424E+02  0.92888785101E+02  0.77000000000E+02 0.  0.
<mgrwt>
<rscale>  0 0.17609283E+03</rscale>
<asrwt>0</asrwt>
<pdfrwt beam="1">  1        2 0.18807380E-01 0.17609283E+03</pdfrwt>
<pdfrwt beam="2">  1       -2 0.97559225E-02 0.17609283E+03</pdfrwt>
<totfact> 0.19583416E+04</totfact>
</mgrwt>
</event>
<event>
 4    1  0.4751076E-004  0.2248327E+03  0.7818608E-02  0.1130330E+00
         -2   -1    0    0    0  501 -0.00000000000E+00  0.00000000000E+00  0.14591863414E+02  0.14591863637E+02  0.25500000000E-02 0. -1.
          2   -1    0    0  501    0  0.00000000000E+00 -0.00000000000E+00 -0.86606071635E+03  0.86606071636E+03  0.25500000000E-02 0.  1.
    5000001    1    1    2    0    0  0.45410903645E+02 -0.48922849473E+02 -0.61164781474E+03  0.62007874069E+03  0.77000000000E+02 0.  0.
   -5000001    1    1    2    0    0 -0.45410903645E+02  0.48922849473E+02 -0.23982103819E+03  0.26057383931E+03  0.77000000000E+02 0.  0.
<mgrwt>
<rscale>  0 0.22483274E+03</rscale>
<asrwt>0</asrwt>
<pdfrwt beam="1">  1        2 0.13324007E+00 0.22483274E+03</pdfrwt>
<pdfrwt beam="2">  1       -2 0.22449028E-02 0.22483274E+03</pdfrwt>
<totfact> 0.20529513E+04</totfact>
</mgrwt>
</event>
<event>
 4    1  0.4751076E-004  0.1967722E+03  0.7818608E-02  0.1152491E+00
          2   -1    0    0  501    0  0.00000000000E+00  0.00000000000E+00  0.91351517053E+03  0.91351517054E+03  0.25500000000E-02 0.  1.
         -2   -1    0    0    0  501 -0.00000000000E+00 -0.00000000000E+00 -0.10596234907E+02  0.10596235214E+02  0.25500000000E-02 0. -1.
    5000001    1    1    2    0    0 -0.44569997582E+02  0.27605603188E+02  0.30277949319E+03  0.31678537767E+03  0.77000000000E+02 0.  0.
   -5000001    1    1    2    0    0  0.44569997582E+02 -0.27605603188E+02  0.60013944244E+03  0.60732602808E+03  0.77000000000E+02 0.  0.
<mgrwt>
<rscale>  0 0.19677217E+03</rscale>
<asrwt>0</asrwt>
<pdfrwt beam="1">  1        2 0.14054074E+00 0.19677217E+03</pdfrwt>
<pdfrwt beam="2">  1       -2 0.16301907E-02 0.19677217E+03</pdfrwt>
<totfact> 0.30294838E+04</totfact>
</mgrwt>
</event>
<event>
 4    1  0.4751076E-004  0.2449743E+03  0.7818608E-02  0.1116523E+00
          2   -1    0    0  501    0  0.00000000000E+00  0.00000000000E+00  0.78899291726E+03  0.78899291727E+03  0.25500000000E-02 0.  1.
         -2   -1    0    0    0  501 -0.00000000000E+00 -0.00000000000E+00 -0.19015504693E+02  0.19015504864E+02  0.25500000000E-02 0. -1.
    5000001    1    1    2    0    0  0.83722315580E+02 -0.43550189452E+02  0.42774687981E+03  0.44474986038E+03  0.77000000000E+02 0.  0.
   -5000001    1    1    2    0    0 -0.83722315580E+02  0.43550189452E+02  0.34223053276E+03  0.36325856175E+03  0.77000000000E+02 0.  0.
<mgrwt>
<rscale>  0 0.24497427E+03</rscale>
<asrwt>0</asrwt>
<pdfrwt beam="1">  1        2 0.12138353E+00 0.24497427E+03</pdfrwt>
<pdfrwt beam="2">  1       -2 0.29254621E-02 0.24497427E+03</pdfrwt>
<totfact> 0.15719238E+04</totfact>
</mgrwt>
</event>
<event>
 4    1  0.4751076E-004  0.2499809E+03  0.7818608E-02  0.1113317E+00
         -2   -1    0    0    0  501 -0.00000000000E+00  0.00000000000E+00  0.58794006722E+01  0.58794012252E+01  0.25500000000E-02 0. -1.
          2   -1    0    0  501    0  0.00000000000E+00 -0.00000000000E+00 -0.26571779589E+04  0.26571779589E+04  0.25500000000E-02 0.  1.
    5000001    1    1    2    0    0 -0.80256272366E+02  0.31695150195E+02 -0.82055991088E+03  0.82866954761E+03  0.77000000000E+02 0.  0.
   -5000001    1    1    2    0    0  0.80256272366E+02 -0.31695150195E+02 -0.18307386473E+04  0.18343878125E+04  0.77000000000E+02 0.  0.
<mgrwt>
<rscale>  0 0.24998092E+03</rscale>
<asrwt>0</asrwt>
<pdfrwt beam="1">  1        2 0.40879565E+00 0.24998092E+03</pdfrwt>
<pdfrwt beam="2">  1       -2 0.90452534E-03 0.24998092E+03</pdfrwt>
<totfact> 0.80952818E+03</totfact>
</mgrwt>
</event>
<event>
 4    1  0.4751076E-004  0.2426714E+03  0.7818608E-02  0.1118026E+00
          2   -1    0    0  501    0  0.00000000000E+00  0.00000000000E+00  0.13131446949E+03  0.13131446951E+03  0.25500000000E-02 0.  1.
         -2   -1    0    0    0  501 -0.00000000000E+00 -0.00000000000E+00 -0.11211525988E+03  0.11211525991E+03  0.25500000000E-02 0. -1.
    5000001    1    1    2    0    0 -0.15661639538E+02  0.74707230138E+02  0.64239055348E+02  0.12602425727E+03  0.77000000000E+02 0.  0.
   -5000001    1    1    2    0    0  0.15661639538E+02 -0.74707230138E+02 -0.45039845741E+02  0.11740547216E+03  0.77000000000E+02 0.  0.
<mgrwt>
<rscale>  0 0.24267143E+03</rscale>
<asrwt>0</asrwt>
<pdfrwt beam="1">  1        2 0.20202226E-01 0.24267143E+03</pdfrwt>
<pdfrwt beam="2">  1       -2 0.17248502E-01 0.24267143E+03</pdfrwt>
<totfact> 0.73126205E+03</totfact>
</mgrwt>
</event>
<event>
 4    1  0.4751076E-004  0.1802614E+03  0.7818608E-02  0.1167550E+00
         -2   -1    0    0    0  501 -0.00000000000E+00  0.00000000000E+00  0.14696736467E+02  0.14696736689E+02  0.25500000000E-02 0. -1.
          2   -1    0    0  501    0  0.00000000000E+00 -0.00000000000E+00 -0.55274483368E+03  0.55274483369E+03  0.25500000000E-02 0.  1.
    5000001    1    1    2    0    0 -0.29174187357E+02  0.33708739694E+02 -0.22371938889E+03  0.24076290683E+03  0.77000000000E+02 0.  0.
   -5000001    1    1    2    0    0  0.29174187357E+02 -0.33708739694E+02 -0.31432870832E+03  0.32667866355E+03  0.77000000000E+02 0.  0.
<mgrwt>
<rscale>  0 0.18026142E+03</rscale>
<asrwt>0</asrwt>
<pdfrwt beam="1">  1        2 0.85037651E-01 0.18026142E+03</pdfrwt>
<pdfrwt beam="2">  1       -2 0.22610368E-02 0.18026142E+03</pdfrwt>
<totfact> 0.34352967E+04</totfact>
</mgrwt>
</event>
<event>
 4    1  0.4751076E-004  0.2681192E+03  0.7818608E-02  0.1102361E+00
          2   -1    0    0  501    0  0.00000000000E+00  0.00000000000E+00  0.25533174577E+04  0.25533174577E+04  0.25500000000E-02 0.  1.
         -2   -1    0    0    0  501 -0.00000000000E+00 -0.00000000000E+00 -0.70386744028E+01  0.70386748647E+01  0.25500000000E-02 0. -1.
    5000001    1    1    2    0    0 -0.40206322284E+02  0.92683404351E+02  0.86394130994E+03  0.87322983734E+03  0.77000000000E+02 0.  0.
   -5000001    1    1    2    0    0  0.40206322284E+02 -0.92683404351E+02  0.16823374734E+04  0.16871262952E+04  0.77000000000E+02 0.  0.
<mgrwt>
<rscale>  0 0.26811916E+03</rscale>
<asrwt>0</asrwt>
<pdfrwt beam="1">  1        2 0.39281899E+00 0.26811916E+03</pdfrwt>
<pdfrwt beam="2">  1       -2 0.10828705E-02 0.26811916E+03</pdfrwt>
<totfact> 0.71185189E+03</totfact>
</mgrwt>
</event>
<event>
 4    1  0.4751076E-004  0.4238382E+03  0.7818608E-02  0.1035824E+00
          2   -1    0    0  501    0  0.00000000000E+00  0.00000000000E+00  0.63505330170E+03  0.63505330170E+03  0.25500000000E-02 0.  1.
         -2   -1    0    0    0  501 -0.00000000000E+00 -0.00000000000E+00 -0.70718025362E+02  0.70718025408E+02  0.25500000000E-02 0. -1.
    5000001    1    1    2    0    0 -0.12207950132E+03  0.13708912606E+03  0.40321084862E+03  0.44967190436E+03  0.77000000000E+02 0.  0.
   -5000001    1    1    2    0    0  0.12207950132E+03 -0.13708912606E+03  0.16112442772E+03  0.25609942275E+03  0.77000000000E+02 0.  0.
<mgrwt>
<rscale>  0 0.42383825E+03</rscale>
<asrwt>0</asrwt>
<pdfrwt beam="1">  1        2 0.97700507E-01 0.42383825E+03</pdfrwt>
<pdfrwt beam="2">  1       -2 0.10879696E-01 0.42383825E+03</pdfrwt>
<totfact> 0.27494726E+03</totfact>
</mgrwt>
</event>
<event>
 4    1  0.4751076E-004  0.2726376E+03  0.7818608E-02  0.1099779E+00
          2   -1    0    0  501    0  0.00000000000E+00  0.00000000000E+00  0.92696551395E+02  0.92696551430E+02  0.25500000000E-02 0.  1.
         -2   -1    0    0    0  501 -0.00000000000E+00 -0.00000000000E+00 -0.20046933400E+03  0.20046933402E+03  0.25500000000E-02 0. -1.
    5000001    1    1    2    0    0 -0.43614364116E+02  0.57290487980E+01 -0.16521335797E+03  0.18750863556E+03  0.77000000000E+02 0.  0.
   -5000001    1    1    2    0    0  0.43614364116E+02 -0.57290487980E+01  0.57440575359E+02  0.10565724989E+03  0.77000000000E+02 0.  0.
<mgrwt>
<rscale>  0 0.27263761E+03</rscale>
<asrwt>0</asrwt>
<pdfrwt beam="1">  1        2 0.14261008E-01 0.27263761E+03</pdfrwt>
<pdfrwt beam="2">  1       -2 0.30841436E-01 0.27263761E+03</pdfrwt>
<totfact> 0.40010345E+03</totfact>
</mgrwt>
</event>
<event>
 4    1  0.4751076E-004  0.1987979E+03  0.7818608E-02  0.1150757E+00
         -2   -1    0    0    0  501 -0.00000000000E+00  0.00000000000E+00  0.98800170575E+01  0.98800173865E+01  0.25500000000E-02 0. -1.
          2   -1    0    0  501    0  0.00000000000E+00 -0.00000000000E+00 -0.10000136770E+04  0.10000136770E+04  0.25500000000E-02 0.  1.
    5000001    1    1    2    0    0  0.48290504741E+02  0.18589887257E+02 -0.31377442144E+03  0.32720168751E+03  0.77000000000E+02 0.  0.
   -5000001    1    1    2    0    0 -0.48290504741E+02 -0.18589887257E+02 -0.67635923852E+03  0.68269200690E+03  0.77000000000E+02 0.  0.
<mgrwt>
<rscale>  0 0.19879791E+03</rscale>
<asrwt>0</asrwt>
<pdfrwt beam="1">  1        2 0.15384818E+00 0.19879791E+03</pdfrwt>
<pdfrwt beam="2">  1       -2 0.15200034E-02 0.19879791E+03</pdfrwt>
<totfact> 0.29667336E+04</totfact>
</mgrwt>
</event>
<event>
 4    1  0.4751076E-004  0.3834226E+03  0.7818608E-02  0.1049676E+00
         -2   -1    0    0    0  501 -0.00000000000E+00  0.00000000000E+00  0.23926300064E+02  0.23926300200E+02  0.25500000000E-02 0. -1.
          2   -1    0    0  501    0  0.00000000000E+00 -0.00000000000E+00 -0.15361010005E+04  0.15361010005E+04  0.25500000000E-02 0.  1.
    5000001    1    1    2    0    0 -0.10067911303E+03  0.13874814761E+03 -0.91031597710E+03  0.92951143642E+03  0.77000000000E+02 0.  0.
   -5000001    1    1    2    0    0  0.10067911303E+03 -0.13874814761E+03 -0.60185872338E+03  0.63051586433E+03  0.77000000000E+02 0.  0.
<mgrwt>
<rscale>  0 0.38342255E+03</rscale>
<asrwt>0</asrwt>
<pdfrwt beam="1">  1        2 0.23632315E+00 0.38342255E+03</pdfrwt>
<pdfrwt beam="2">  1       -2 0.36809705E-02 0.38342255E+03</pdfrwt>
<totfact> 0.40721478E+03</totfact>
</mgrwt>
</event>
<event>
 4    1  0.4751076E-004  0.2484432E+03  0.7818608E-02  0.1114293E+00
         -2   -1    0    0    0  501 -0.00000000000E+00  0.00000000000E+00  0.97459400724E+02  0.97459400758E+02  0.25500000000E-02 0. -1.
          2   -1    0    0  501    0  0.00000000000E+00 -0.00000000000E+00 -0.15833270716E+03  0.15833270718E+03  0.25500000000E-02 0.  1.
    5000001    1    1    2    0    0 -0.51123144251E+02 -0.13655831170E+02  0.53850357611E+02  0.10783746389E+03  0.77000000000E+02 0.  0.
   -5000001    1    1    2    0    0  0.51123144251E+02  0.13655831170E+02 -0.11472366404E+03  0.14795464404E+03  0.77000000000E+02 0.  0.
<mgrwt>
<rscale>  0 0.24844324E+03</rscale>
<asrwt>0</asrwt>
<pdfrwt beam="1">  1        2 0.24358878E-01 0.24844324E+03</pdfrwt>
<pdfrwt beam="2">  1       -2 0.14993754E-01 0.24844324E+03</pdfrwt>
<totfact> 0.74795108E+03</totfact>
</mgrwt>
</event>
<event>
 4    1  0.4751076E-004  0.1986306E+03  0.7818608E-02  0.1150900E+00
         -2   -1    0    0    0  501 -0.00000000000E+00  0.00000000000E+00  0.13819995048E+03  0.13819995051E+03  0.25500000000E-02 0. -1.
          2   -1    0    0  501    0  0.00000000000E+00 -0.00000000000E+00 -0.71371441989E+02  0.71371442034E+02  0.25500000000E-02 0.  1.
    5000001    1    1    2    0    0 -0.49533167971E+02  0.38356954651E+02  0.36706894401E+02  0.10583565938E+03  0.77000000000E+02 0.  0.
   -5000001    1    1    2    0    0  0.49533167971E+02 -0.38356954651E+02  0.30121614095E+02  0.10373573316E+03  0.77000000000E+02 0.  0.
<mgrwt>
<rscale>  0 0.19863061E+03</rscale>
<asrwt>0</asrwt>
<pdfrwt beam="1">  1        2 0.10980222E-01 0.19863061E+03</pdfrwt>
<pdfrwt beam="2">  1       -2 0.21261531E-01 0.19863061E+03</pdfrwt>
<totfact> 0.10427200E+04</totfact>
</mgrwt>
</event>
<event>
 4    1  0.4751076E-004  0.2052335E+03  0.7818608E-02  0.1145397E+00
         -2   -1    0    0    0  501 -0.00000000000E+00  0.00000000000E+00  0.38520385891E+02  0.38520385976E+02  0.25500000000E-02 0. -1.
          2   -1    0    0  501    0  0.00000000000E+00 -0.00000000000E+00 -0.27336698205E+03  0.27336698206E+03  0.25500000000E-02 0.  1.
    5000001    1    1    2    0    0  0.20346930270E+02  0.63423652529E+02 -0.13692277241E+03  0.17062650109E+03  0.77000000000E+02 0.  0.
   -5000001    1    1    2    0    0 -0.20346930270E+02 -0.63423652529E+02 -0.97923823750E+02  0.14126086694E+03  0.77000000000E+02 0.  0.
<mgrwt>
<rscale>  0 0.20523354E+03</rscale>
<asrwt>0</asrwt>
<pdfrwt beam="1">  1        2 0.42056458E-01 0.20523354E+03</pdfrwt>
<pdfrwt beam="2">  1       -2 0.59262134E-02 0.20523354E+03</pdfrwt>
<totfact> 0.17686070E+04</totfact>
</mgrwt>
</event>
<event>
 4    1  0.4751076E-004  0.1890658E+03  0.7818608E-02  0.1159307E+00
          2   -1    0    0  501    0  0.00000000000E+00  0.00000000000E+00  0.50086699686E+03  0.50086699687E+03  0.25500000000E-02 0.  1.
         -2   -1    0    0    0  501 -0.00000000000E+00 -0.00000000000E+00 -0.17842000585E+02  0.17842000767E+02  0.25500000000E-02 0. -1.
    5000001    1    1    2    0    0 -0.46641381696E+02  0.21901945780E+02  0.19001319156E+03  0.21139802904E+03  0.77000000000E+02 0.  0.
   -5000001    1    1    2    0    0  0.46641381696E+02 -0.21901945780E+02  0.29301180471E+03  0.30731096859E+03  0.77000000000E+02 0.  0.
<mgrwt>
<rscale>  0 0.18906580E+03</rscale>
<asrwt>0</asrwt>
<pdfrwt beam="1">  1        2 0.77056467E-01 0.18906580E+03</pdfrwt>
<pdfrwt beam="2">  1       -2 0.27449230E-02 0.18906580E+03</pdfrwt>
<totfact> 0.28959235E+04</totfact>
</mgrwt>
</event>
<event>
 4    1  0.4751076E-004  0.2413275E+03  0.7818608E-02  0.1118912E+00
         -2   -1    0    0    0  501 -0.00000000000E+00  0.00000000000E+00  0.14304221439E+02  0.14304221666E+02  0.25500000000E-02 0. -1.
          2   -1    0    0  501    0  0.00000000000E+00 -0.00000000000E+00 -0.10178631135E+04  0.10178631135E+04  0.25500000000E-02 0.  1.
    5000001    1    1    2    0    0  0.61941374917E+02 -0.18626866905E+02 -0.78699886726E+03  0.79339770050E+03  0.77000000000E+02 0.  0.
   -5000001    1    1    2    0    0 -0.61941374917E+02  0.18626866905E+02 -0.21656002483E+03  0.23876963469E+03  0.77000000000E+02 0.  0.
<mgrwt>
<rscale>  0 0.24132749E+03</rscale>
<asrwt>0</asrwt>
<pdfrwt beam="1">  1        2 0.15659427E+00 0.24132749E+03</pdfrwt>
<pdfrwt beam="2">  1       -2 0.22006503E-02 0.24132749E+03</pdfrwt>
<totfact> 0.17030819E+04</totfact>
</mgrwt>
</event>
<event>
 4    1  0.4751076E-004  0.3055999E+03  0.7818608E-02  0.1082474E+00
          2   -1    0    0  501    0  0.00000000000E+00  0.00000000000E+00  0.92937836198E+03  0.92937836199E+03  0.25500000000E-02 0.  1.
         -2   -1    0    0    0  501 -0.00000000000E+00 -0.00000000000E+00 -0.25121979962E+02  0.25121980092E+02  0.25500000000E-02 0. -1.
    5000001    1    1    2    0    0 -0.11272988444E+03  0.27009742021E+02  0.25505216945E+03  0.29054803760E+03  0.77000000000E+02 0.  0.
   -5000001    1    1    2    0    0  0.11272988444E+03 -0.27009742021E+02  0.64920421257E+03  0.66395230448E+03  0.77000000000E+02 0.  0.
<mgrwt>
<rscale>  0 0.30559990E+03</rscale>
<asrwt>0</asrwt>
<pdfrwt beam="1">  1        2 0.14298127E+00 0.30559990E+03</pdfrwt>
<pdfrwt beam="2">  1       -2 0.38649205E-02 0.30559990E+03</pdfrwt>
<totfact> 0.84293573E+03</totfact>
</mgrwt>
</event>
<event>
 4    1  0.4751076E-004  0.3547794E+03  0.7818608E-02  0.1060670E+00
         -2   -1    0    0    0  501 -0.00000000000E+00  0.00000000000E+00  0.17208191941E+02  0.17208192130E+02  0.25500000000E-02 0. -1.
          2   -1    0    0  501    0  0.00000000000E+00 -0.00000000000E+00 -0.18286122568E+04  0.18286122568E+04  0.25500000000E-02 0.  1.
    5000001    1    1    2    0    0  0.69714092733E+02 -0.14089215789E+03 -0.75604281286E+03  0.77604148714E+03  0.77000000000E+02 0.  0.
   -5000001    1    1    2    0    0 -0.69714092733E+02  0.14089215789E+03 -0.10553612520E+04  0.10697789618E+04  0.77000000000E+02 0.  0.
<mgrwt>
<rscale>  0 0.35477943E+03</rscale>
<asrwt>0</asrwt>
<pdfrwt beam="1">  1        2 0.28132481E+00 0.35477943E+03</pdfrwt>
<pdfrwt beam="2">  1       -2 0.26474156E-02 0.35477943E+03</pdfrwt>
<totfact> 0.46655686E+03</totfact>
</mgrwt>
</event>
<event>
 4    1  0.4751076E-004  0.1886977E+03  0.7818608E-02  0.1159641E+00
         -2   -1    0    0    0  501 -0.00000000000E+00  0.00000000000E+00  0.10457495611E+04  0.10457495611E+04  0.25500000000E-02 0. -1.
          2   -1    0    0  501    0  0.00000000000E+00 -0.00000000000E+00 -0.85122688626E+01  0.85122692445E+01  0.25500000000E-02 0.  1.
    5000001    1    1    2    0    0 -0.57746319792E+01  0.22853919691E+02  0.24393986449E+03  0.25688772938E+03  0.77000000000E+02 0.  0.
   -5000001    1    1    2    0    0  0.57746319792E+01 -0.22853919691E+02  0.79329742774E+03  0.79737410096E+03  0.77000000000E+02 0.  0.
<mgrwt>
<rscale>  0 0.18869766E+03</rscale>
<asrwt>0</asrwt>
<pdfrwt beam="1">  1        2 0.13095797E-02 0.18869766E+03</pdfrwt>
<pdfrwt beam="2">  1       -2 0.16088456E+00 0.18869766E+03</pdfrwt>
<totfact> 0.25502726E+03</totfact>
</mgrwt>
</event>
<event>
 4    1  0.4751076E-004  0.1829065E+03  0.7818608E-02  0.1165019E+00
         -2   -1    0    0    0  501 -0.00000000000E+00  0.00000000000E+00  0.29994759239E+01  0.29994770078E+01  0.25500000000E-02 0. -1.
          2   -1    0    0  501    0  0.00000000000E+00 -0.00000000000E+00 -0.27883863172E+04  0.27883863172E+04  0.25500000000E-02 0.  1.
    5000001    1    1    2    0    0  0.22789718824E+02  0.32191068993E+02 -0.18451747369E+04  0.18472017881E+04  0.77000000000E+02 0.  0.
   -5000001    1    1    2    0    0 -0.22789718824E+02 -0.32191068993E+02 -0.94021210441E+03  0.94418400616E+03  0.77000000000E+02 0.  0.
<mgrwt>
<rscale>  0 0.18290652E+03</rscale>
<asrwt>0</asrwt>
<pdfrwt beam="1">  1        2 0.42898044E+00 0.18290652E+03</pdfrwt>
<pdfrwt beam="2">  1       -2 0.46146015E-03 0.18290652E+03</pdfrwt>
<totfact> 0.17895214E+04</totfact>
</mgrwt>
</event>
<event>
 4    1  0.4751076E-004  0.3192164E+03  0.7818608E-02  0.1076010E+00
          2   -1    0    0  501    0  0.00000000000E+00  0.00000000000E+00  0.19154896979E+04  0.19154896979E+04  0.25500000000E-02 0.  1.
         -2   -1    0    0    0  501 -0.00000000000E+00 -0.00000000000E+00 -0.13299358529E+02  0.13299358773E+02  0.25500000000E-02 0. -1.
    5000001    1    1    2    0    0 -0.12067541296E+03  0.70021021787E+02  0.10052352111E+04  0.10177879584E+04  0.77000000000E+02 0.  0.
   -5000001    1    1    2    0    0  0.12067541296E+03 -0.70021021787E+02  0.89695512832E+03  0.91100109824E+03  0.77000000000E+02 0.  0.
<mgrwt>
<rscale>  0 0.31921644E+03</rscale>
<asrwt>0</asrwt>
<pdfrwt beam="1">  1        2 0.29469063E+00 0.31921644E+03</pdfrwt>
<pdfrwt beam="2">  1       -2 0.20460558E-02 0.31921644E+03</pdfrwt>
<totfact> 0.61565766E+03</totfact>
</mgrwt>
</event>
<event>
 4    1  0.4751076E-004  0.2510604E+03  0.7818608E-02  0.1112637E+00
         -2   -1    0    0    0  501 -0.00000000000E+00  0.00000000000E+00  0.89484475255E+02  0.89484475291E+02  0.25500000000E-02 0. -1.
          2   -1    0    0  501    0  0.00000000000E+00 -0.00000000000E+00 -0.17609562836E+03  0.17609562838E+03  0.25500000000E-02 0.  1.
    5000001    1    1    2    0    0 -0.91168017122E+02 -0.33875505255E+02 -0.22966877986E+02  0.12615718246E+03  0.77000000000E+02 0.  0.
   -5000001    1    1    2    0    0  0.91168017122E+02  0.33875505255E+02 -0.63644275117E+02  0.13942292121E+03  0.77000000000E+02 0.  0.
<mgrwt>
<rscale>  0 0.25106035E+03</rscale>
<asrwt>0</asrwt>
<pdfrwt beam="1">  1        2 0.27091635E-01 0.25106035E+03</pdfrwt>
<pdfrwt beam="2">  1       -2 0.13766842E-01 0.25106035E+03</pdfrwt>
<totfact> 0.76486356E+03</totfact>
</mgrwt>
</event>
<event>
 4    1  0.4751076E-004  0.2165007E+03  0.7818608E-02  0.1136519E+00
         -2   -1    0    0    0  501 -0.00000000000E+00  0.00000000000E+00  0.61157125335E+01  0.61157130652E+01  0.25500000000E-02 0. -1.
          2   -1    0    0  501    0  0.00000000000E+00 -0.00000000000E+00 -0.19160705394E+04  0.19160705394E+04  0.25500000000E-02 0.  1.
    5000001    1    1    2    0    0  0.14530674315E+02  0.65225075483E+02 -0.12779968810E+04  0.12820571278E+04  0.77000000000E+02 0.  0.
   -5000001    1    1    2    0    0 -0.14530674315E+02 -0.65225075483E+02 -0.63195794588E+03  0.64012912473E+03  0.77000000000E+02 0.  0.
<mgrwt>
<rscale>  0 0.21650069E+03</rscale>
<asrwt>0</asrwt>
<pdfrwt beam="1">  1        2 0.29477961E+00 0.21650069E+03</pdfrwt>
<pdfrwt beam="2">  1       -2 0.94088042E-03 0.21650069E+03</pdfrwt>
<totfact> 0.18999145E+04</totfact>
</mgrwt>
</event>
<event>
 4    1  0.4751076E-004  0.2960630E+03  0.7818608E-02  0.1087225E+00
         -2   -1    0    0    0  501 -0.00000000000E+00  0.00000000000E+00  0.12258427403E+04  0.12258427403E+04  0.25500000000E-02 0. -1.
          2   -1    0    0  501    0  0.00000000000E+00 -0.00000000000E+00 -0.17876128580E+02  0.17876128762E+02  0.25500000000E-02 0.  1.
    5000001    1    1    2    0    0 -0.17552551417E+02  0.10426567560E+03  0.89517585683E+03  0.90468129074E+03  0.77000000000E+02 0.  0.
   -5000001    1    1    2    0    0  0.17552551417E+02 -0.10426567560E+03  0.31279075486E+03  0.33903757829E+03  0.77000000000E+02 0.  0.
<mgrwt>
<rscale>  0 0.29606298E+03</rscale>
<asrwt>0</asrwt>
<pdfrwt beam="1">  1        2 0.27501739E-02 0.29606298E+03</pdfrwt>
<pdfrwt beam="2">  1       -2 0.18859117E+00 0.29606298E+03</pdfrwt>
<totfact> 0.60354514E+02</totfact>
</mgrwt>
</event>
<event>
 4    1  0.4751076E-004  0.2329767E+03  0.7818608E-02  0.1124562E+00
         -2   -1    0    0    0  501 -0.00000000000E+00  0.00000000000E+00  0.47893390509E+02  0.47893390576E+02  0.25500000000E-02 0. -1.
          2   -1    0    0  501    0  0.00000000000E+00 -0.00000000000E+00 -0.28332801833E+03  0.28332801834E+03  0.25500000000E-02 0.  1.
    5000001    1    1    2    0    0 -0.35654330953E+02 -0.15630976617E+02 -0.64524060216E+01  0.86522784798E+02  0.77000000000E+02 0.  0.
   -5000001    1    1    2    0    0  0.35654330953E+02  0.15630976617E+02 -0.22898222180E+03  0.24469862412E+03  0.77000000000E+02 0.  0.
<mgrwt>
<rscale>  0 0.23297673E+03</rscale>
<asrwt>0</asrwt>
<pdfrwt beam="1">  1        2 0.43588925E-01 0.23297673E+03</pdfrwt>
<pdfrwt beam="2">  1       -2 0.73682142E-02 0.23297673E+03</pdfrwt>
<totfact> 0.12274780E+04</totfact>
</mgrwt>
</event>
<event>
 4    1  0.4751076E-004  0.2488387E+03  0.7818608E-02  0.1114041E+00
          2   -1    0    0  501    0  0.00000000000E+00  0.00000000000E+00  0.58621769937E+02  0.58621769992E+02  0.25500000000E-02 0.  1.
         -2   -1    0    0    0  501 -0.00000000000E+00 -0.00000000000E+00 -0.26406878010E+03  0.26406878011E+03  0.25500000000E-02 0. -1.
    5000001    1    1    2    0    0  0.73052863045E+02  0.24005106356E+02 -0.24504490467E+02  0.11154566770E+03  0.77000000000E+02 0.  0.
   -5000001    1    1    2    0    0 -0.73052863045E+02 -0.24005106356E+02 -0.18094251970E+03  0.21114488240E+03  0.77000000000E+02 0.  0.
<mgrwt>
<rscale>  0 0.24883874E+03</rscale>
<asrwt>0</asrwt>
<pdfrwt beam="1">  1        2 0.90187340E-02 0.24883874E+03</pdfrwt>
<pdfrwt beam="2">  1       -2 0.40625966E-01 0.24883874E+03</pdfrwt>
<totfact> 0.41766144E+03</totfact>
</mgrwt>
</event>
<event>
 4    1  0.4751076E-004  0.2420701E+03  0.7818608E-02  0.1118421E+00
         -2   -1    0    0    0  501 -0.00000000000E+00  0.00000000000E+00  0.71252496411E+03  0.71252496411E+03  0.25500000000E-02 0. -1.
          2   -1    0    0  501    0  0.00000000000E+00 -0.00000000000E+00 -0.20559956245E+02  0.20559956403E+02  0.25500000000E-02 0.  1.
    5000001    1    1    2    0    0  0.91669241647E+02  0.59603165967E+01  0.39681154329E+03  0.41452041702E+03  0.77000000000E+02 0.  0.
   -5000001    1    1    2    0    0 -0.91669241647E+02 -0.59603165967E+01  0.29515346457E+03  0.31856450349E+03  0.77000000000E+02 0.  0.
<mgrwt>
<rscale>  0 0.24207009E+03</rscale>
<asrwt>0</asrwt>
<pdfrwt beam="1">  1        2 0.31630703E-02 0.24207009E+03</pdfrwt>
<pdfrwt beam="2">  1       -2 0.10961922E+00 0.24207009E+03</pdfrwt>
<totfact> 0.19986271E+03</totfact>
</mgrwt>
</event>
<event>
 4    1  0.4751076E-004  0.2954271E+03  0.7818608E-02  0.1087549E+00
          2   -1    0    0  501    0  0.00000000000E+00  0.00000000000E+00  0.71931089799E+03  0.71931089799E+03  0.25500000000E-02 0.  1.
         -2   -1    0    0    0  501 -0.00000000000E+00 -0.00000000000E+00 -0.30333611807E+02  0.30333611915E+02  0.25500000000E-02 0. -1.
    5000001    1    1    2    0    0 -0.95706075155E+02  0.79077651234E+02  0.39992982456E+03  0.42577669302E+03  0.77000000000E+02 0.  0.
   -5000001    1    1    2    0    0  0.95706075155E+02 -0.79077651234E+02  0.28904746162E+03  0.32386781689E+03  0.77000000000E+02 0.  0.
<mgrwt>
<rscale>  0 0.29542713E+03</rscale>
<asrwt>0</asrwt>
<pdfrwt beam="1">  1        2 0.11066320E+00 0.29542713E+03</pdfrwt>
<pdfrwt beam="2">  1       -2 0.46667100E-02 0.29542713E+03</pdfrwt>
<totfact> 0.88170014E+03</totfact>
</mgrwt>
</event>
<event>
 4    1  0.4751076E-004  0.4348445E+03  0.7818608E-02  0.1032340E+00
          2   -1    0    0  501    0  0.00000000000E+00  0.00000000000E+00  0.63648686318E+02  0.63648686369E+02  0.25500000000E-02 0.  1.
         -2   -1    0    0    0  501 -0.00000000000E+00 -0.00000000000E+00 -0.74270856201E+03  0.74270856202E+03  0.25500000000E-02 0. -1.
    5000001    1    1    2    0    0  0.14582932442E+03  0.13876764574E+03 -0.39265568824E+03  0.44791756036E+03  0.77000000000E+02 0.  0.
   -5000001    1    1    2    0    0 -0.14582932442E+03 -0.13876764574E+03 -0.28640418745E+03  0.35843968803E+03  0.77000000000E+02 0.  0.
<mgrwt>
<rscale>  0 0.43484445E+03</rscale>
<asrwt>0</asrwt>
<pdfrwt beam="1">  1        2 0.97921062E-02 0.43484445E+03</pdfrwt>
<pdfrwt beam="2">  1       -2 0.11426285E+00 0.43484445E+03</pdfrwt>
<totfact> 0.41316896E+02</totfact>
</mgrwt>
</event>
<event>
 4    1  0.4751076E-004  0.2599532E+03  0.7818608E-02  0.1107171E+00
          2   -1    0    0  501    0  0.00000000000E+00  0.00000000000E+00  0.41616949580E+03  0.41616949581E+03  0.25500000000E-02 0.  1.
         -2   -1    0    0    0  501 -0.00000000000E+00 -0.00000000000E+00 -0.40593849841E+02  0.40593849921E+02  0.25500000000E-02 0. -1.
    5000001    1    1    2    0    0 -0.87859786954E+02  0.55522321395E+02  0.16536490332E+03  0.20994432973E+03  0.77000000000E+02 0.  0.
   -5000001    1    1    2    0    0  0.87859786954E+02 -0.55522321395E+02  0.21021074265E+03  0.24681901600E+03  0.77000000000E+02 0.  0.
<mgrwt>
<rscale>  0 0.25995324E+03</rscale>
<asrwt>0</asrwt>
<pdfrwt beam="1">  1        2 0.64026075E-01 0.25995324E+03</pdfrwt>
<pdfrwt beam="2">  1       -2 0.62452078E-02 0.25995324E+03</pdfrwt>
<totfact> 0.10525519E+04</totfact>
</mgrwt>
</event>
<event>
 4    1  0.4751076E-004  0.2024439E+03  0.7818608E-02  0.1147693E+00
         -2   -1    0    0    0  501 -0.00000000000E+00  0.00000000000E+00  0.21215348498E+02  0.21215348651E+02  0.25500000000E-02 0. -1.
          2   -1    0    0  501    0  0.00000000000E+00 -0.00000000000E+00 -0.48294650929E+03  0.48294650930E+03  0.25500000000E-02 0.  1.
    5000001    1    1    2    0    0  0.58686685028E+02  0.25347854298E+02 -0.19307759622E+03  0.21747321417E+03  0.77000000000E+02 0.  0.
   -5000001    1    1    2    0    0 -0.58686685028E+02 -0.25347854298E+02 -0.26865356457E+03  0.28668864379E+03  0.77000000000E+02 0.  0.
<mgrwt>
<rscale>  0 0.20244385E+03</rscale>
<asrwt>0</asrwt>
<pdfrwt beam="1">  1        2 0.74299455E-01 0.20244385E+03</pdfrwt>
<pdfrwt beam="2">  1       -2 0.32639001E-02 0.20244385E+03</pdfrwt>
<totfact> 0.23457250E+04</totfact>
</mgrwt>
</event>
<event>
 4    1  0.4751076E-004  0.2025214E+03  0.7818608E-02  0.1147629E+00
         -2   -1    0    0    0  501 -0.00000000000E+00  0.00000000000E+00  0.26551020390E+02  0.26551020512E+02  0.25500000000E-02 0. -1.
          2   -1    0    0  501    0  0.00000000000E+00 -0.00000000000E+00 -0.38618981154E+03  0.38618981155E+03  0.25500000000E-02 0.  1.
    5000001    1    1    2    0    0 -0.35472790009E+02 -0.11894444738E+01 -0.29264863559E+03  0.30468337257E+03  0.77000000000E+02 0.  0.
   -5000001    1    1    2    0    0  0.35472790009E+02  0.11894444738E+01 -0.66990155561E+02  0.10805745949E+03  0.77000000000E+02 0.  0.
<mgrwt>
<rscale>  0 0.20252144E+03</rscale>
<asrwt>0</asrwt>
<pdfrwt beam="1">  1        2 0.59413813E-01 0.20252144E+03</pdfrwt>
<pdfrwt beam="2">  1       -2 0.40847726E-02 0.20252144E+03</pdfrwt>
<totfact> 0.21415076E+04</totfact>
</mgrwt>
</event>
<event>
 4    1  0.4751076E-004  0.2351906E+03  0.7818608E-02  0.1123039E+00
          2   -1    0    0  501    0  0.00000000000E+00  0.00000000000E+00  0.34434419223E+02  0.34434419317E+02  0.25500000000E-02 0.  1.
         -2   -1    0    0    0  501 -0.00000000000E+00 -0.00000000000E+00 -0.40159412077E+03  0.40159412078E+03  0.25500000000E-02 0. -1.
    5000001    1    1    2    0    0  0.74240222169E+02  0.48653697159E+02 -0.19204881058E+03  0.22514559396E+03  0.77000000000E+02 0.  0.
   -5000001    1    1    2    0    0 -0.74240222169E+02 -0.48653697159E+02 -0.17511089096E+03  0.21088294613E+03  0.77000000000E+02 0.  0.
<mgrwt>
<rscale>  0 0.23519065E+03</rscale>
<asrwt>0</asrwt>
<pdfrwt beam="1">  1        2 0.52976032E-02 0.23519065E+03</pdfrwt>
<pdfrwt beam="2">  1       -2 0.61783708E-01 0.23519065E+03</pdfrwt>
<totfact> 0.35785257E+03</totfact>
</mgrwt>
</event>
<event>
 4    1  0.4751076E-004  0.1888631E+03  0.7818608E-02  0.1159491E+00
         -2   -1    0    0    0  501 -0.00000000000E+00  0.00000000000E+00  0.96488474231E+01  0.96488477601E+01  0.25500000000E-02 0. -1.
          2   -1    0    0  501    0  0.00000000000E+00 -0.00000000000E+00 -0.92418432897E+03  0.92418432898E+03  0.25500000000E-02 0.  1.
    5000001    1    1    2    0    0  0.26438690251E+02 -0.17298785354E+02 -0.23669313041E+03  0.25090016002E+03  0.77000000000E+02 0.  0.
   -5000001    1    1    2    0    0 -0.26438690251E+02  0.17298785354E+02 -0.67784235114E+03  0.68293301671E+03  0.77000000000E+02 0.  0.
<mgrwt>
<rscale>  0 0.18886306E+03</rscale>
<asrwt>0</asrwt>
<pdfrwt beam="1">  1        2 0.14218213E+00 0.18886306E+03</pdfrwt>
<pdfrwt beam="2">  1       -2 0.14844388E-02 0.18886306E+03</pdfrwt>
<totfact> 0.34075999E+04</totfact>
</mgrwt>
</event>
<event>
 4    1  0.4751076E-004  0.2594355E+03  0.7818608E-02  0.1107483E+00
          2   -1    0    0  501    0  0.00000000000E+00  0.00000000000E+00  0.13603625494E+04  0.13603625494E+04  0.25500000000E-02 0.  1.
         -2   -1    0    0    0  501 -0.00000000000E+00 -0.00000000000E+00 -0.12369271654E+02  0.12369271917E+02  0.25500000000E-02 0. -1.
    5000001    1    1    2    0    0  0.34625649528E+02  0.96544309958E+02  0.57112961193E+03  0.58535269113E+03  0.77000000000E+02 0.  0.
   -5000001    1    1    2    0    0 -0.34625649528E+02 -0.96544309958E+02  0.77686366582E+03  0.78737913019E+03  0.77000000000E+02 0.  0.
<mgrwt>
<rscale>  0 0.25943550E+03</rscale>
<asrwt>0</asrwt>
<pdfrwt beam="1">  1        2 0.20928655E+00 0.25943550E+03</pdfrwt>
<pdfrwt beam="2">  1       -2 0.19029649E-02 0.25943550E+03</pdfrwt>
<totfact> 0.13480677E+04</totfact>
</mgrwt>
</event>
<event>
 4    1  0.4751076E-004  0.2039673E+03  0.7818608E-02  0.1146434E+00
          2   -1    0    0  501    0  0.00000000000E+00  0.00000000000E+00  0.15042541442E+02  0.15042541658E+02  0.25500000000E-02 0.  1.
         -2   -1    0    0    0  501 -0.00000000000E+00 -0.00000000000E+00 -0.69141692726E+03  0.69141692726E+03  0.25500000000E-02 0. -1.
    5000001    1    1    2    0    0  0.44965820522E+02 -0.48280351885E+02 -0.30044350757E+03  0.31709339103E+03  0.77000000000E+02 0.  0.
   -5000001    1    1    2    0    0 -0.44965820522E+02  0.48280351885E+02 -0.37593087825E+03  0.38936607789E+03  0.77000000000E+02 0.  0.
<mgrwt>
<rscale>  0 0.20396733E+03</rscale>
<asrwt>0</asrwt>
<pdfrwt beam="1">  1        2 0.23142377E-02 0.20396733E+03</pdfrwt>
<pdfrwt beam="2">  1       -2 0.10637181E+00 0.20396733E+03</pdfrwt>
<totfact> 0.32560258E+03</totfact>
</mgrwt>
</event>
<event>
 4    1  0.4751076E-004  0.1904199E+03  0.7818608E-02  0.1158083E+00
          2   -1    0    0  501    0  0.00000000000E+00  0.00000000000E+00  0.70197358968E+03  0.70197358968E+03  0.25500000000E-02 0.  1.
         -2   -1    0    0    0  501 -0.00000000000E+00 -0.00000000000E+00 -0.12913492766E+02  0.12913493017E+02  0.25500000000E-02 0. -1.
    5000001    1    1    2    0    0  0.29584499460E+02 -0.47276672765E+02  0.32553309637E+03  0.33913289907E+03  0.77000000000E+02 0.  0.
   -5000001    1    1    2    0    0 -0.29584499460E+02  0.47276672765E+02  0.36352700054E+03  0.37575418363E+03  0.77000000000E+02 0.  0.
<mgrwt>
<rscale>  0 0.19041986E+03</rscale>
<asrwt>0</asrwt>
<pdfrwt beam="1">  1        2 0.10799594E+00 0.19041986E+03</pdfrwt>
<pdfrwt beam="2">  1       -2 0.19866912E-02 0.19041986E+03</pdfrwt>
<totfact> 0.31588463E+04</totfact>
</mgrwt>
</event>
<event>
 4    1  0.4751076E-004  0.2917823E+03  0.7818608E-02  0.1089422E+00
         -2   -1    0    0    0  501 -0.00000000000E+00  0.00000000000E+00  0.84351379286E+01  0.84351383141E+01  0.25500000000E-02 0. -1.
          2   -1    0    0  501    0  0.00000000000E+00 -0.00000000000E+00 -0.25232814076E+04  0.25232814076E+04  0.25500000000E-02 0.  1.
    5000001    1    1    2    0    0 -0.78772014092E+02  0.94609528477E+02 -0.11349508018E+04  0.11442020432E+04  0.77000000000E+02 0.  0.
   -5000001    1    1    2    0    0  0.78772014092E+02 -0.94609528477E+02 -0.13798954678E+04  0.13875145027E+04  0.77000000000E+02 0.  0.
<mgrwt>
<rscale>  0 0.29178230E+03</rscale>
<asrwt>0</asrwt>
<pdfrwt beam="1">  1        2 0.38819654E+00 0.29178230E+03</pdfrwt>
<pdfrwt beam="2">  1       -2 0.12977156E-02 0.29178230E+03</pdfrwt>
<totfact> 0.56773854E+03</totfact>
</mgrwt>
</event>
<event>
 4    1  0.4751076E-004  0.1888707E+03  0.7818608E-02  0.1159484E+00
         -2   -1    0    0    0  501 -0.00000000000E+00  0.00000000000E+00  0.13326821574E+02  0.13326821818E+02  0.25500000000E-02 0. -1.
          2   -1    0    0  501    0  0.00000000000E+00 -0.00000000000E+00 -0.66917935123E+03  0.66917935123E+03  0.25500000000E-02 0.  1.
    5000001    1    1    2    0    0 -0.33079019082E+02  0.43529442674E+02 -0.32794117676E+03  0.34126741610E+03  0.77000000000E+02 0.  0.
   -5000001    1    1    2    0    0  0.33079019082E+02 -0.43529442674E+02 -0.32791135290E+03  0.34123875694E+03  0.77000000000E+02 0.  0.
<mgrwt>
<rscale>  0 0.18887068E+03</rscale>
<asrwt>0</asrwt>
<pdfrwt beam="1">  1        2 0.10295064E+00 0.18887068E+03</pdfrwt>
<pdfrwt beam="2">  1       -2 0.20502808E-02 0.18887068E+03</pdfrwt>
<totfact> 0.31918074E+04</totfact>
</mgrwt>
</event>
<event>
 4    1  0.4751076E-004  0.2233768E+03  0.7818608E-02  0.1131390E+00
         -2   -1    0    0    0  501 -0.00000000000E+00  0.00000000000E+00  0.26626828135E+02  0.26626828257E+02  0.25500000000E-02 0. -1.
          2   -1    0    0  501    0  0.00000000000E+00 -0.00000000000E+00 -0.46848592970E+03  0.46848592971E+03  0.25500000000E-02 0.  1.
    5000001    1    1    2    0    0 -0.27686550796E+02  0.64398324830E+02 -0.31046059407E+03  0.32745758474E+03  0.77000000000E+02 0.  0.
   -5000001    1    1    2    0    0  0.27686550796E+02 -0.64398324830E+02 -0.13139850750E+03  0.16765517322E+03  0.77000000000E+02 0.  0.
<mgrwt>
<rscale>  0 0.22337676E+03</rscale>
<asrwt>0</asrwt>
<pdfrwt beam="1">  1        2 0.72074752E-01 0.22337676E+03</pdfrwt>
<pdfrwt beam="2">  1       -2 0.40964355E-02 0.22337676E+03</pdfrwt>
<totfact> 0.17394748E+04</totfact>
</mgrwt>
</event>
<event>
 4    1  0.4751076E-004  0.2406550E+03  0.7818608E-02  0.1119357E+00
          2   -1    0    0  501    0  0.00000000000E+00  0.00000000000E+00  0.15388642906E+04  0.15388642906E+04  0.25500000000E-02 0.  1.
         -2   -1    0    0    0  501 -0.00000000000E+00 -0.00000000000E+00 -0.94086981809E+01  0.94086985265E+01  0.25500000000E-02 0. -1.
    5000001    1    1    2    0    0 -0.18582583897E+02 -0.88389571149E+02  0.63740124496E+03  0.64835744447E+03  0.77000000000E+02 0.  0.
   -5000001    1    1    2    0    0  0.18582583897E+02  0.88389571149E+02  0.89205434743E+03  0.89991554464E+03  0.77000000000E+02 0.  0.
<mgrwt>
<rscale>  0 0.24065502E+03</rscale>
<asrwt>0</asrwt>
<pdfrwt beam="1">  1        2 0.23674830E+00 0.24065502E+03</pdfrwt>
<pdfrwt beam="2">  1       -2 0.14474924E-02 0.24065502E+03</pdfrwt>
<totfact> 0.16087670E+04</totfact>
</mgrwt>
</event>
<event>
 4    1  0.4751076E-004  0.3172158E+03  0.7818608E-02  0.1076938E+00
         -2   -1    0    0    0  501 -0.00000000000E+00  0.00000000000E+00  0.37733145696E+02  0.37733145782E+02  0.25500000000E-02 0. -1.
          2   -1    0    0  501    0  0.00000000000E+00 -0.00000000000E+00 -0.66669429777E+03  0.66669429777E+03  0.25500000000E-02 0.  1.
    5000001    1    1    2    0    0 -0.90950999149E+02  0.90487655447E+02 -0.43130005096E+03  0.45651816392E+03  0.77000000000E+02 0.  0.
   -5000001    1    1    2    0    0  0.90950999149E+02 -0.90487655447E+02 -0.19766110111E+03  0.24790927963E+03  0.77000000000E+02 0.  0.
<mgrwt>
<rscale>  0 0.31721585E+03</rscale>
<asrwt>0</asrwt>
<pdfrwt beam="1">  1        2 0.10256835E+00 0.31721585E+03</pdfrwt>
<pdfrwt beam="2">  1       -2 0.58050998E-02 0.31721585E+03</pdfrwt>
<totfact> 0.69420632E+03</totfact>
</mgrwt>
</event>
<event>
 4    1  0.4751076E-004  0.2114440E+03  0.7818608E-02  0.1140428E+00
          2   -1    0    0  501    0  0.00000000000E+00  0.00000000000E+00  0.47884691989E+03  0.47884691989E+03  0.25500000000E-02 0.  1.
         -2   -1    0    0    0  501 -0.00000000000E+00 -0.00000000000E+00 -0.23341781747E+02  0.23341781886E+02  0.25500000000E-02 0. -1.
    5000001    1    1    2    0    0 -0.63945380389E+02 -0.33405480819E+02  0.24336340194E+03  0.26525399757E+03  0.77000000000E+02 0.  0.
   -5000001    1    1    2    0    0  0.63945380389E+02  0.33405480819E+02  0.21214173620E+03  0.23693470421E+03  0.77000000000E+02 0.  0.
<mgrwt>
<rscale>  0 0.21144399E+03</rscale>
<asrwt>0</asrwt>
<pdfrwt beam="1">  1        2 0.73668755E-01 0.21144399E+03</pdfrwt>
<pdfrwt beam="2">  1       -2 0.35910435E-02 0.21144399E+03</pdfrwt>
<totfact> 0.20603639E+04</totfact>
</mgrwt>
</event>
<event>
 4    1  0.4751076E-004  0.1826640E+03  0.7818608E-02  0.1165249E+00
          2   -1    0    0  501    0  0.00000000000E+00  0.00000000000E+00  0.23020586495E+03  0.23020586497E+03  0.25500000000E-02 0.  1.
         -2   -1    0    0    0  501 -0.00000000000E+00 -0.00000000000E+00 -0.36235092589E+02  0.36235092679E+02  0.25500000000E-02 0. -1.
    5000001    1    1    2    0    0 -0.82479654822E+01  0.47741593567E+02  0.10876720271E+03  0.14179771887E+03  0.77000000000E+02 0.  0.
   -5000001    1    1    2    0    0  0.82479654822E+01 -0.47741593567E+02  0.85203569650E+02  0.12464323877E+03  0.77000000000E+02 0.  0.
<mgrwt>
<rscale>  0 0.18266396E+03</rscale>
<asrwt>0</asrwt>
<pdfrwt beam="1">  1        2 0.35416286E-01 0.18266396E+03</pdfrwt>
<pdfrwt beam="2">  1       -2 0.55746297E-02 0.18266396E+03</pdfrwt>
<totfact> 0.23136411E+04</totfact>
</mgrwt>
</event>
<event>
 4    1  0.4751076E-004  0.3859413E+03  0.7818608E-02  0.1048759E+00
          2   -1    0    0  501    0  0.00000000000E+00  0.00000000000E+00  0.24868017133E+04  0.24868017133E+04  0.25500000000E-02 0.  1.
         -2   -1    0    0    0  501 -0.00000000000E+00 -0.00000000000E+00 -0.14974123346E+02  0.14974123564E+02  0.25500000000E-02 0. -1.
    5000001    1    1    2    0    0 -0.13981217630E+03 -0.10474424301E+03  0.14180961189E+04  0.14308893750E+04  0.77000000000E+02 0.  0.
   -5000001    1    1    2    0    0  0.13981217630E+03  0.10474424301E+03  0.10537314710E+04  0.10708864618E+04  0.77000000000E+02 0.  0.
<mgrwt>
<rscale>  0 0.38594132E+03</rscale>
<asrwt>0</asrwt>
<pdfrwt beam="1">  1        2 0.38258459E+00 0.38594132E+03</pdfrwt>
<pdfrwt beam="2">  1       -2 0.23037130E-02 0.38594132E+03</pdfrwt>
<totfact> 0.25364757E+03</totfact>
</mgrwt>
</event>
<event>
 4    1  0.4751076E-004  0.2628831E+03  0.7818608E-02  0.1105423E+00
         -2   -1    0    0    0  501 -0.00000000000E+00  0.00000000000E+00  0.90964482518E+01  0.90964486092E+01  0.25500000000E-02 0.  1.
          2   -1    0    0  501    0  0.00000000000E+00 -0.00000000000E+00 -0.18992993648E+04  0.18992993648E+04  0.25500000000E-02 0. -1.
    5000001    1    1    2    0    0  0.74002966073E+01 -0.99138725524E+02 -0.66727768820E+03  0.67902265387E+03  0.77000000000E+02 0.  0.
   -5000001    1    1    2    0    0 -0.74002966073E+01  0.99138725524E+02 -0.12229252283E+04  0.12293731595E+04  0.77000000000E+02 0.  0.
<mgrwt>
<rscale>  0 0.26288308E+03</rscale>
<asrwt>0</asrwt>
<pdfrwt beam="1">  1        2 0.29219959E+00 0.26288308E+03</pdfrwt>
<pdfrwt beam="2">  1       -2 0.13994551E-02 0.26288308E+03</pdfrwt>
<totfact> 0.10950721E+04</totfact>
</mgrwt>
</event>
<event>
 4    1  0.4751076E-004  0.1735804E+03  0.7818608E-02  0.1174165E+00
         -2   -1    0    0    0  501 -0.00000000000E+00  0.00000000000E+00  0.27826667261E+02  0.27826667378E+02  0.25500000000E-02 0. -1.
          2   -1    0    0  501    0  0.00000000000E+00 -0.00000000000E+00 -0.27069493740E+03  0.27069493742E+03  0.25500000000E-02 0.  1.
    5000001    1    1    2    0    0 -0.24134140130E+02 -0.13294579019E+02 -0.17140681168E+03  0.18991708096E+03  0.77000000000E+02 0.  0.
   -5000001    1    1    2    0    0  0.24134140130E+02  0.13294579019E+02 -0.71461458465E+02  0.10860452383E+03  0.77000000000E+02 0.  0.
<mgrwt>
<rscale>  0 0.17358039E+03</rscale>
<asrwt>0</asrwt>
<pdfrwt beam="1">  1        2 0.41645373E-01 0.17358039E+03</pdfrwt>
<pdfrwt beam="2">  1       -2 0.42810259E-02 0.17358039E+03</pdfrwt>
<totfact> 0.28827016E+04</totfact>
</mgrwt>
</event>
<event>
 4    1  0.4751076E-004  0.3183566E+03  0.7818608E-02  0.1076408E+00
         -2   -1    0    0    0  501 -0.00000000000E+00  0.00000000000E+00  0.21173567715E+02  0.21173567869E+02  0.25500000000E-02 0. -1.
          2   -1    0    0  501    0  0.00000000000E+00 -0.00000000000E+00 -0.11966682699E+04  0.11966682699E+04  0.25500000000E-02 0.  1.
    5000001    1    1    2    0    0  0.48291599340E+02 -0.12142340564E+03 -0.40297553594E+03  0.43057404076E+03  0.77000000000E+02 0.  0.
   -5000001    1    1    2    0    0 -0.48291599340E+02  0.12142340564E+03 -0.77251916622E+03  0.78726779699E+03  0.77000000000E+02 0.  0.
<mgrwt>
<rscale>  0 0.31835663E+03</rscale>
<asrwt>0</asrwt>
<pdfrwt beam="1">  1        2 0.18410276E+00 0.31835663E+03</pdfrwt>
<pdfrwt beam="2">  1       -2 0.32574729E-02 0.31835663E+03</pdfrwt>
<totfact> 0.75346651E+03</totfact>
</mgrwt>
</event>
<event>
 4    1  0.4751076E-004  0.2252391E+03  0.7818608E-02  0.1130036E+00
          2   -1    0    0  501    0  0.00000000000E+00  0.00000000000E+00  0.75045419405E+03  0.75045419406E+03  0.25500000000E-02 0.  1.
         -2   -1    0    0    0  501 -0.00000000000E+00 -0.00000000000E+00 -0.16900641811E+02  0.16900642004E+02  0.25500000000E-02 0. -1.
    5000001    1    1    2    0    0  0.74211688938E+02  0.32358224177E+02  0.41492410436E+03  0.42970390018E+03  0.77000000000E+02 0.  0.
   -5000001    1    1    2    0    0 -0.74211688938E+02 -0.32358224177E+02  0.31862944788E+03  0.33765093589E+03  0.77000000000E+02 0.  0.
<mgrwt>
<rscale>  0 0.22523905E+03</rscale>
<asrwt>0</asrwt>
<pdfrwt beam="1">  1        2 0.11545450E+00 0.22523905E+03</pdfrwt>
<pdfrwt beam="2">  1       -2 0.26000987E-02 0.22523905E+03</pdfrwt>
<totfact> 0.19836716E+04</totfact>
</mgrwt>
</event>
<event>
 4    1  0.4751076E-004  0.2588181E+03  0.7818608E-02  0.1107855E+00
          2   -1    0    0  501    0  0.00000000000E+00  0.00000000000E+00  0.27289495396E+03  0.27289495397E+03  0.25500000000E-02 0.  1.
         -2   -1    0    0    0  501 -0.00000000000E+00 -0.00000000000E+00 -0.61366840516E+02  0.61366840569E+02  0.25500000000E-02 0. -1.
    5000001    1    1    2    0    0  0.30119225028E+02 -0.63180944019E+02  0.64054856738E+01  0.10425463851E+03  0.77000000000E+02 0.  0.
   -5000001    1    1    2    0    0 -0.30119225028E+02  0.63180944019E+02  0.20512262777E+03  0.23000715603E+03  0.77000000000E+02 0.  0.
<mgrwt>
<rscale>  0 0.25881809E+03</rscale>
<asrwt>0</asrwt>
<pdfrwt beam="1">  1        2 0.41983839E-01 0.25881809E+03</pdfrwt>
<pdfrwt beam="2">  1       -2 0.94410524E-02 0.25881809E+03</pdfrwt>
<totfact> 0.87154798E+03</totfact>
</mgrwt>
</event>
<event>
 4    1  0.4751076E-004  0.1769536E+03  0.7818608E-02  0.1170784E+00
          2   -1    0    0  501    0  0.00000000000E+00  0.00000000000E+00  0.91670544924E+03  0.91670544924E+03  0.25500000000E-02 0.  1.
         -2   -1    0    0    0  501 -0.00000000000E+00 -0.00000000000E+00 -0.85394341173E+01  0.85394344980E+01  0.25500000000E-02 0. -1.
    5000001    1    1    2    0    0 -0.24956989182E+02  0.33172274869E+02  0.52342938605E+03  0.53068877255E+03  0.77000000000E+02 0.  0.
   -5000001    1    1    2    0    0  0.24956989182E+02 -0.33172274869E+02  0.38473662907E+03  0.39455611119E+03  0.77000000000E+02 0.  0.
<mgrwt>
<rscale>  0 0.17695362E+03</rscale>
<asrwt>0</asrwt>
<pdfrwt beam="1">  1        2 0.14103162E+00 0.17695362E+03</pdfrwt>
<pdfrwt beam="2">  1       -2 0.13137590E-02 0.17695362E+03</pdfrwt>
<totfact> 0.40904284E+04</totfact>
</mgrwt>
</event>
<event>
 4    1  0.4751076E-004  0.2077032E+03  0.7818608E-02  0.1143398E+00
         -2   -1    0    0    0  501 -0.00000000000E+00  0.00000000000E+00  0.39886819036E+01  0.39886827188E+01  0.25500000000E-02 0. -1.
          2   -1    0    0  501    0  0.00000000000E+00 -0.00000000000E+00 -0.27039400709E+04  0.27039400709E+04  0.25500000000E-02 0.  1.
    5000001    1    1    2    0    0 -0.63172705588E+02  0.27044635537E+01 -0.17318769277E+04  0.17347405562E+04  0.77000000000E+02 0.  0.
   -5000001    1    1    2    0    0  0.63172705588E+02 -0.27044635537E+01 -0.96807446126E+03  0.97318819732E+03  0.77000000000E+02 0.  0.
<mgrwt>
<rscale>  0 0.20770323E+03</rscale>
<asrwt>0</asrwt>
<pdfrwt beam="1">  1        2 0.41598932E+00 0.20770323E+03</pdfrwt>
<pdfrwt beam="2">  1       -2 0.61364559E-03 0.20770323E+03</pdfrwt>
<totfact> 0.13312657E+04</totfact>
</mgrwt>
</event>
<event>
 4    1  0.4751076E-004  0.1821311E+03  0.7818608E-02  0.1165756E+00
         -2   -1    0    0    0  501 -0.00000000000E+00  0.00000000000E+00  0.21157268048E+02  0.21157268202E+02  0.25500000000E-02 0. -1.
          2   -1    0    0  501    0  0.00000000000E+00 -0.00000000000E+00 -0.39196611331E+03  0.39196611332E+03  0.25500000000E-02 0.  1.
    5000001    1    1    2    0    0  0.36280136065E+02 -0.29689623765E+02 -0.21464759360E+03  0.23280960347E+03  0.77000000000E+02 0.  0.
   -5000001    1    1    2    0    0 -0.36280136065E+02  0.29689623765E+02 -0.15616125166E+03  0.18031377805E+03  0.77000000000E+02 0.  0.
<mgrwt>
<rscale>  0 0.18213108E+03</rscale>
<asrwt>0</asrwt>
<pdfrwt beam="1">  1        2 0.60302474E-01 0.18213108E+03</pdfrwt>
<pdfrwt beam="2">  1       -2 0.32549646E-02 0.18213108E+03</pdfrwt>
<totfact> 0.29314659E+04</totfact>
</mgrwt>
</event>
<event>
 4    1  0.4751076E-004  0.2111269E+03  0.7818608E-02  0.1140677E+00
         -2   -1    0    0    0  501 -0.00000000000E+00  0.00000000000E+00  0.77254684848E+01  0.77254689057E+01  0.25500000000E-02 0. -1.
          2   -1    0    0  501    0  0.00000000000E+00 -0.00000000000E+00 -0.14424547759E+04  0.14424547759E+04  0.25500000000E-02 0.  1.
    5000001    1    1    2    0    0  0.64774131830E+02 -0.31247885622E+02 -0.67257489609E+03  0.68077757701E+03  0.77000000000E+02 0.  0.
   -5000001    1    1    2    0    0 -0.64774131830E+02  0.31247885622E+02 -0.76215441128E+03  0.76940266775E+03  0.77000000000E+02 0.  0.
<mgrwt>
<rscale>  0 0.21112687E+03</rscale>
<asrwt>0</asrwt>
<pdfrwt beam="1">  1        2 0.22191590E+00 0.21112687E+03</pdfrwt>
<pdfrwt beam="2">  1       -2 0.11885348E-02 0.21112687E+03</pdfrwt>
<totfact> 0.23975265E+04</totfact>
</mgrwt>
</event>
<event>
 4    1  0.4751076E-004  0.2548644E+03  0.7818608E-02  0.1110269E+00
          2   -1    0    0  501    0  0.00000000000E+00  0.00000000000E+00  0.11159499694E+04  0.11159499694E+04  0.25500000000E-02 0. -1.
         -2   -1    0    0    0  501 -0.00000000000E+00 -0.00000000000E+00 -0.14551701645E+02  0.14551701869E+02  0.25500000000E-02 0.  1.
    5000001    1    1    2    0    0 -0.43695829828E+01 -0.97639354858E+02  0.67277629769E+03  0.68418526994E+03  0.77000000000E+02 0.  0.
   -5000001    1    1    2    0    0  0.43695829828E+01  0.97639354858E+02  0.42862197004E+03  0.44631640130E+03  0.77000000000E+02 0.  0.
<mgrwt>
<rscale>  0 0.25486444E+03</rscale>
<asrwt>0</asrwt>
<pdfrwt beam="1">  1        2 0.17168465E+00 0.25486444E+03</pdfrwt>
<pdfrwt beam="2">  1       -2 0.22387229E-02 0.25486444E+03</pdfrwt>
<totfact> 0.14556137E+04</totfact>
</mgrwt>
</event>
<event>
 4    1  0.4751076E-004  0.2166807E+03  0.7818608E-02  0.1136382E+00
          2   -1    0    0  501    0  0.00000000000E+00  0.00000000000E+00  0.23747922613E+04  0.23747922613E+04  0.25500000000E-02 0.  1.
         -2   -1    0    0    0  501 -0.00000000000E+00 -0.00000000000E+00 -0.49425938207E+01  0.49425944785E+01  0.25500000000E-02 0. -1.
    5000001    1    1    2    0    0  0.26345517710E+01  0.57349691740E+02  0.17354525082E+04  0.17381082637E+04  0.77000000000E+02 0.  0.
   -5000001    1    1    2    0    0 -0.26345517710E+01 -0.57349691740E+02  0.63439715925E+03  0.64162659208E+03  0.77000000000E+02 0.  0.
<mgrwt>
<rscale>  0 0.21668073E+03</rscale>
<asrwt>0</asrwt>
<pdfrwt beam="1">  1        2 0.36535344E+00 0.21668073E+03</pdfrwt>
<pdfrwt beam="2">  1       -2 0.76039747E-03 0.21668073E+03</pdfrwt>
<totfact> 0.14812173E+04</totfact>
</mgrwt>
</event>
<event>
 4    1  0.4751076E-004  0.1901513E+03  0.7818608E-02  0.1158325E+00
          2   -1    0    0  501    0  0.00000000000E+00  0.00000000000E+00  0.14722692043E+04  0.14722692043E+04  0.25500000000E-02 0.  1.
         -2   -1    0    0    0  501 -0.00000000000E+00 -0.00000000000E+00 -0.61397599802E+01  0.61397605097E+01  0.25500000000E-02 0. -1.
    5000001    1    1    2    0    0 -0.50138069614E+02  0.59073567756E+01  0.91732464156E+03  0.92193395691E+03  0.77000000000E+02 0.  0.
   -5000001    1    1    2    0    0  0.50138069614E+02 -0.59073567756E+01  0.54880480278E+03  0.55647500793E+03  0.77000000000E+02 0.  0.
<mgrwt>
<rscale>  0 0.19015131E+03</rscale>
<asrwt>0</asrwt>
<pdfrwt beam="1">  1        2 0.22650298E+00 0.19015131E+03</pdfrwt>
<pdfrwt beam="2">  1       -2 0.94457837E-03 0.19015131E+03</pdfrwt>
<totfact> 0.32020241E+04</totfact>
</mgrwt>
</event>
<event>
 4    1  0.4751076E-004  0.1815497E+03  0.7818608E-02  0.1166312E+00
         -2   -1    0    0    0  501 -0.00000000000E+00  0.00000000000E+00  0.43081987231E+01  0.43081994778E+01  0.25500000000E-02 0. -1.
          2   -1    0    0  501    0  0.00000000000E+00 -0.00000000000E+00 -0.19126494074E+04  0.19126494074E+04  0.25500000000E-02 0.  1.
    5000001    1    1    2    0    0  0.10498167209E+02  0.46296586983E+02 -0.87411177388E+03  0.87877982380E+03  0.77000000000E+02 0.  0.
   -5000001    1    1    2    0    0 -0.10498167209E+02 -0.46296586983E+02 -0.10342294348E+04  0.10381777830E+04  0.77000000000E+02 0.  0.
<mgrwt>
<rscale>  0 0.18154971E+03</rscale>
<asrwt>0</asrwt>
<pdfrwt beam="1">  1        2 0.29425308E+00 0.18154971E+03</pdfrwt>
<pdfrwt beam="2">  1       -2 0.66280139E-03 0.18154971E+03</pdfrwt>
<totfact> 0.31317209E+04</totfact>
</mgrwt>
</event>
<event>
 4    1  0.4751076E-004  0.1619095E+03  0.7818608E-02  0.1186558E+00
         -2   -1    0    0    0  501 -0.00000000000E+00  0.00000000000E+00  0.57692383615E+01  0.57692389250E+01  0.25500000000E-02 0. -1.
          2   -1    0    0  501    0  0.00000000000E+00 -0.00000000000E+00 -0.11359678292E+04  0.11359678292E+04  0.25500000000E-02 0.  1.
    5000001    1    1    2    0    0 -0.56168885830E+01 -0.24204880231E+02 -0.58407850690E+03  0.58965594027E+03  0.77000000000E+02 0.  0.
   -5000001    1    1    2    0    0  0.56168885830E+01  0.24204880231E+02 -0.54612008396E+03  0.55208112788E+03  0.77000000000E+02 0.  0.
<mgrwt>
<rscale>  0 0.16190947E+03</rscale>
<asrwt>0</asrwt>
<pdfrwt beam="1">  1        2 0.17476410E+00 0.16190947E+03</pdfrwt>
<pdfrwt beam="2">  1       -2 0.88757608E-03 0.16190947E+03</pdfrwt>
<totfact> 0.52817677E+04</totfact>
</mgrwt>
</event>
<event>
 4    1  0.4751076E-004  0.4036900E+03  0.7818608E-02  0.1042509E+00
         -2   -1    0    0    0  501 -0.00000000000E+00  0.00000000000E+00  0.28371933468E+02  0.28371933583E+02  0.25500000000E-02 0. -1.
          2   -1    0    0  501    0  0.00000000000E+00 -0.00000000000E+00 -0.14359757098E+04  0.14359757098E+04  0.25500000000E-02 0.  1.
    5000001    1    1    2    0    0 -0.17420577300E+03 -0.64103214678E+02 -0.63540494455E+03  0.66642727814E+03  0.77000000000E+02 0.  0.
   -5000001    1    1    2    0    0  0.17420577300E+03  0.64103214678E+02 -0.77219883173E+03  0.79792036520E+03  0.77000000000E+02 0.  0.
<mgrwt>
<rscale>  0 0.40369002E+03</rscale>
<asrwt>0</asrwt>
<pdfrwt beam="1">  1        2 0.22091928E+00 0.40369002E+03</pdfrwt>
<pdfrwt beam="2">  1       -2 0.43649140E-02 0.40369002E+03</pdfrwt>
<totfact> 0.35627092E+03</totfact>
</mgrwt>
</event>
<event>
 4    1  0.4751076E-004  0.3130283E+03  0.7818608E-02  0.1078903E+00
         -2   -1    0    0    0  501 -0.00000000000E+00  0.00000000000E+00  0.25670952308E+02  0.25670952434E+02  0.25500000000E-02 0. -1.
          2   -1    0    0  501    0  0.00000000000E+00 -0.00000000000E+00 -0.95425695811E+03  0.95425695811E+03  0.25500000000E-02 0.  1.
    5000001    1    1    2    0    0 -0.12537100351E+03 -0.39188795011E+02 -0.57777158453E+03  0.59749699084E+03  0.77000000000E+02 0.  0.
   -5000001    1    1    2    0    0  0.12537100351E+03  0.39188795011E+02 -0.35081442127E+03  0.38243091971E+03  0.77000000000E+02 0.  0.
<mgrwt>
<rscale>  0 0.31302834E+03</rscale>
<asrwt>0</asrwt>
<pdfrwt beam="1">  1        2 0.14680874E+00 0.31302834E+03</pdfrwt>
<pdfrwt beam="2">  1       -2 0.39493780E-02 0.31302834E+03</pdfrwt>
<totfact> 0.78724831E+03</totfact>
</mgrwt>
</event>
<event>
 4    1  0.4751076E-004  0.9517548E+03  0.7818608E-02  0.9363102E-01
         -2   -1    0    0    0  501 -0.00000000000E+00  0.00000000000E+00  0.15827036190E+03  0.15827036192E+03  0.25500000000E-02 0. -1.
          2   -1    0    0  501    0  0.00000000000E+00 -0.00000000000E+00 -0.14308382936E+04  0.14308382936E+04  0.25500000000E-02 0.  1.
    5000001    1    1    2    0    0 -0.41217798200E+03 -0.11348594010E+03 -0.96073387853E+03  0.10543758025E+04  0.77000000000E+02 0.  0.
   -5000001    1    1    2    0    0  0.41217798200E+03  0.11348594010E+03 -0.31183405319E+03  0.53473285309E+03  0.77000000000E+02 0.  0.
<mgrwt>
<rscale>  0 0.95175479E+03</rscale>
<asrwt>0</asrwt>
<pdfrwt beam="1">  1        2 0.22012896E+00 0.95175479E+03</pdfrwt>
<pdfrwt beam="2">  1       -2 0.24349287E-01 0.95175479E+03</pdfrwt>
<totfact> 0.20902349E+02</totfact>
</mgrwt>
</event>
<event>
 4    1  0.4751076E-004  0.1883092E+03  0.7818608E-02  0.1159995E+00
         -2   -1    0    0    0  501 -0.00000000000E+00  0.00000000000E+00  0.21242287989E+02  0.21242288142E+02  0.25500000000E-02 0. -1.
          2   -1    0    0  501    0  0.00000000000E+00 -0.00000000000E+00 -0.41733218352E+03  0.41733218353E+03  0.25500000000E-02 0.  1.
    5000001    1    1    2    0    0  0.37389734620E+02 -0.17283401474E+02 -0.28003749944E+03  0.29333719388E+03  0.77000000000E+02 0.  0.
   -5000001    1    1    2    0    0 -0.37389734620E+02  0.17283401474E+02 -0.11605239610E+03  0.14523727780E+03  0.77000000000E+02 0.  0.
<mgrwt>
<rscale>  0 0.18830922E+03</rscale>
<asrwt>0</asrwt>
<pdfrwt beam="1">  1        2 0.64204945E-01 0.18830922E+03</pdfrwt>
<pdfrwt beam="2">  1       -2 0.32680446E-02 0.18830922E+03</pdfrwt>
<totfact> 0.27311350E+04</totfact>
</mgrwt>
</event>
<event>
 4    1  0.4751076E-004  0.2082259E+03  0.7818608E-02  0.1142979E+00
         -2   -1    0    0    0  501 -0.00000000000E+00  0.00000000000E+00  0.42814287304E+03  0.42814287305E+03  0.25500000000E-02 0.  1.
          2   -1    0    0  501    0  0.00000000000E+00 -0.00000000000E+00 -0.25317495235E+02  0.25317495363E+02  0.25500000000E-02 0. -1.
    5000001    1    1    2    0    0 -0.60922854910E+02 -0.27218161898E+02  0.24802241019E+03  0.26813529896E+03  0.77000000000E+02 0.  0.
   -5000001    1    1    2    0    0  0.60922854910E+02  0.27218161898E+02  0.15480296761E+03  0.18532506945E+03  0.77000000000E+02 0.  0.
<mgrwt>
<rscale>  0 0.20822589E+03</rscale>
<asrwt>0</asrwt>
<pdfrwt beam="1">  1        2 0.38949994E-02 0.20822589E+03</pdfrwt>
<pdfrwt beam="2">  1       -2 0.65868133E-01 0.20822589E+03</pdfrwt>
<totfact> 0.46754379E+03</totfact>
</mgrwt>
</event>
<event>
 4    1  0.4751076E-004  0.1875778E+03  0.7818608E-02  0.1160664E+00
          2   -1    0    0  501    0  0.00000000000E+00  0.00000000000E+00  0.14495210953E+04  0.14495210953E+04  0.25500000000E-02 0.  1.
         -2   -1    0    0    0  501 -0.00000000000E+00 -0.00000000000E+00 -0.60684568704E+01  0.60684574061E+01  0.25500000000E-02 0. -1.
    5000001    1    1    2    0    0  0.21021992901E+02 -0.48393530678E+02  0.79263464505E+03  0.79811185841E+03  0.77000000000E+02 0.  0.
   -5000001    1    1    2    0    0 -0.21021992901E+02  0.48393530678E+02  0.65081799341E+03  0.65747769433E+03  0.77000000000E+02 0.  0.
<mgrwt>
<rscale>  0 0.18757779E+03</rscale>
<asrwt>0</asrwt>
<pdfrwt beam="1">  1        2 0.22300326E+00 0.18757779E+03</pdfrwt>
<pdfrwt beam="2">  1       -2 0.93360872E-03 0.18757779E+03</pdfrwt>
<totfact> 0.33452917E+04</totfact>
</mgrwt>
</event>
<event>
 4    1  0.4751076E-004  0.2412968E+03  0.7818608E-02  0.1118932E+00
          2   -1    0    0  501    0  0.00000000000E+00  0.00000000000E+00  0.22897432094E+04  0.22897432094E+04  0.25500000000E-02 0.  1.
         -2   -1    0    0    0  501 -0.00000000000E+00 -0.00000000000E+00 -0.63570608616E+01  0.63570613730E+01  0.25500000000E-02 0. -1.
    5000001    1    1    2    0    0  0.91227610279E+02  0.16300409949E+02  0.10823765755E+04  0.10890620880E+04  0.77000000000E+02 0.  0.
   -5000001    1    1    2    0    0 -0.91227610279E+02 -0.16300409949E+02  0.12010095730E+04  0.12070381828E+04  0.77000000000E+02 0.  0.
<mgrwt>
<rscale>  0 0.24129681E+03</rscale>
<asrwt>0</asrwt>
<pdfrwt beam="1">  1        2 0.35226888E+00 0.24129681E+03</pdfrwt>
<pdfrwt beam="2">  1       -2 0.97800747E-03 0.24129681E+03</pdfrwt>
<totfact> 0.11458766E+04</totfact>
</mgrwt>
</event>
<event>
 4    1  0.4751076E-004  0.5764947E+03  0.7818608E-02  0.9955409E-01
         -2   -1    0    0    0  501 -0.00000000000E+00  0.00000000000E+00  0.57817285644E+02  0.57817285700E+02  0.25500000000E-02 0. -1.
          2   -1    0    0  501    0  0.00000000000E+00 -0.00000000000E+00 -0.14370536200E+04  0.14370536200E+04  0.25500000000E-02 0.  1.
    5000001    1    1    2    0    0 -0.15313346926E+03 -0.13948675149E+03 -0.11695126832E+04  0.11902081034E+04  0.77000000000E+02 0.  0.
   -5000001    1    1    2    0    0  0.15313346926E+03  0.13948675149E+03 -0.20972365115E+03  0.30466280229E+03  0.77000000000E+02 0.  0.
<mgrwt>
<rscale>  0 0.57649472E+03</rscale>
<asrwt>0</asrwt>
<pdfrwt beam="1">  1        2 0.22108515E+00 0.57649472E+03</pdfrwt>
<pdfrwt beam="2">  1       -2 0.88949681E-02 0.57649472E+03</pdfrwt>
<totfact> 0.11637738E+03</totfact>
</mgrwt>
</event>
<event>
 4    1  0.4751076E-004  0.2141683E+03  0.7818608E-02  0.1138307E+00
          2   -1    0    0  501    0  0.00000000000E+00  0.00000000000E+00  0.92848942132E+02  0.92848942168E+02  0.25500000000E-02 0.  1.
         -2   -1    0    0    0  501 -0.00000000000E+00 -0.00000000000E+00 -0.12350187915E+03  0.12350187917E+03  0.25500000000E-02 0. -1.
    5000001    1    1    2    0    0  0.29221519442E+01 -0.74143087278E+02 -0.95868015704E+01  0.10736220530E+03  0.77000000000E+02 0.  0.
   -5000001    1    1    2    0    0 -0.29221519442E+01  0.74143087278E+02 -0.21066135442E+02  0.10898861604E+03  0.77000000000E+02 0.  0.
<mgrwt>
<rscale>  0 0.21416833E+03</rscale>
<asrwt>0</asrwt>
<pdfrwt beam="1">  1        2 0.14284453E-01 0.21416833E+03</pdfrwt>
<pdfrwt beam="2">  1       -2 0.19000289E-01 0.21416833E+03</pdfrwt>
<totfact> 0.92412121E+03</totfact>
</mgrwt>
</event>
<event>
 4    1  0.4751076E-004  0.2388069E+03  0.7818608E-02  0.1120590E+00
         -2   -1    0    0    0  501 -0.00000000000E+00  0.00000000000E+00  0.91646407668E+02  0.91646407704E+02  0.25500000000E-02 0. -1.
          2   -1    0    0  501    0  0.00000000000E+00 -0.00000000000E+00 -0.15556726286E+03  0.15556726288E+03  0.25500000000E-02 0.  1.
    5000001    1    1    2    0    0  0.77012867142E+02 -0.42759987830E+02 -0.56649159562E+02  0.12999048251E+03  0.77000000000E+02 0.  0.
   -5000001    1    1    2    0    0 -0.77012867142E+02  0.42759987830E+02 -0.72716956305E+01  0.11722318807E+03  0.77000000000E+02 0.  0.
<mgrwt>
<rscale>  0 0.23880687E+03</rscale>
<asrwt>0</asrwt>
<pdfrwt beam="1">  1        2 0.23933425E-01 0.23880687E+03</pdfrwt>
<pdfrwt beam="2">  1       -2 0.14099447E-01 0.23880687E+03</pdfrwt>
<totfact> 0.84244043E+03</totfact>
</mgrwt>
</event>
<event>
 4    1  0.4751076E-004  0.2338739E+03  0.7818608E-02  0.1123942E+00
         -2   -1    0    0    0  501 -0.00000000000E+00  0.00000000000E+00  0.22260274753E+02  0.22260274899E+02  0.25500000000E-02 0. -1.
          2   -1    0    0  501    0  0.00000000000E+00 -0.00000000000E+00 -0.61428915313E+03  0.61428915313E+03  0.25500000000E-02 0.  1.
    5000001    1    1    2    0    0  0.78634449328E+02  0.16313791483E+02 -0.39398769375E+03  0.40939567565E+03  0.77000000000E+02 0.  0.
   -5000001    1    1    2    0    0 -0.78634449328E+02 -0.16313791483E+02 -0.19804118463E+03  0.22715375238E+03  0.77000000000E+02 0.  0.
<mgrwt>
<rscale>  0 0.23387386E+03</rscale>
<asrwt>0</asrwt>
<pdfrwt beam="1">  1        2 0.94506011E-01 0.23387386E+03</pdfrwt>
<pdfrwt beam="2">  1       -2 0.34246581E-02 0.23387386E+03</pdfrwt>
<totfact> 0.16788874E+04</totfact>
</mgrwt>
</event>
<event>
 4    1  0.4751076E-004  0.2194530E+03  0.7818608E-02  0.1134291E+00
          2   -1    0    0  501    0  0.00000000000E+00  0.00000000000E+00  0.23968874248E+03  0.23968874249E+03  0.25500000000E-02 0.  1.
         -2   -1    0    0    0  501 -0.00000000000E+00 -0.00000000000E+00 -0.50231429914E+02  0.50231429978E+02  0.25500000000E-02 0. -1.
    5000001    1    1    2    0    0  0.46344192714E+02  0.86892901566E+01  0.17710049701E+03  0.19878851577E+03  0.77000000000E+02 0.  0.
   -5000001    1    1    2    0    0 -0.46344192714E+02 -0.86892901566E+01  0.12356815554E+02  0.91131656697E+02  0.77000000000E+02 0.  0.
<mgrwt>
<rscale>  0 0.21945303E+03</rscale>
<asrwt>0</asrwt>
<pdfrwt beam="1">  1        2 0.36875191E-01 0.21945303E+03</pdfrwt>
<pdfrwt beam="2">  1       -2 0.77279124E-02 0.21945303E+03</pdfrwt>
<totfact> 0.13596093E+04</totfact>
</mgrwt>
</event>
<event>
 4    1  0.4751076E-004  0.2184896E+03  0.7818608E-02  0.1135014E+00
         -2   -1    0    0    0  501 -0.00000000000E+00  0.00000000000E+00  0.38582617902E+02  0.38582617987E+02  0.25500000000E-02 0. -1.
          2   -1    0    0  501    0  0.00000000000E+00 -0.00000000000E+00 -0.30932137764E+03  0.30932137765E+03  0.25500000000E-02 0.  1.
    5000001    1    1    2    0    0 -0.63847745630E+02  0.21248215502E+02 -0.74165532924E+02  0.12632318694E+03  0.77000000000E+02 0.  0.
   -5000001    1    1    2    0    0  0.63847745630E+02 -0.21248215502E+02 -0.19657322681E+03  0.22158080870E+03  0.77000000000E+02 0.  0.
<mgrwt>
<rscale>  0 0.21848962E+03</rscale>
<asrwt>0</asrwt>
<pdfrwt beam="1">  1        2 0.47587903E-01 0.21848962E+03</pdfrwt>
<pdfrwt beam="2">  1       -2 0.59357876E-02 0.21848962E+03</pdfrwt>
<totfact> 0.15521707E+04</totfact>
</mgrwt>
</event>
<event>
 4    1  0.4751076E-004  0.1867058E+03  0.7818608E-02  0.1161467E+00
          2   -1    0    0  501    0  0.00000000000E+00  0.00000000000E+00  0.42031016519E+03  0.42031016519E+03  0.25500000000E-02 0.  1.
         -2   -1    0    0    0  501 -0.00000000000E+00 -0.00000000000E+00 -0.20734115163E+02  0.20734115319E+02  0.25500000000E-02 0. -1.
    5000001    1    1    2    0    0  0.29518077835E+02 -0.43640071372E+02  0.20725310664E+03  0.22728533380E+03  0.77000000000E+02 0.  0.
   -5000001    1    1    2    0    0 -0.29518077835E+02  0.43640071372E+02  0.19232294339E+03  0.21375894672E+03  0.77000000000E+02 0.  0.
<mgrwt>
<rscale>  0 0.18670575E+03</rscale>
<asrwt>0</asrwt>
<pdfrwt beam="1">  1        2 0.64663104E-01 0.18670575E+03</pdfrwt>
<pdfrwt beam="2">  1       -2 0.31898638E-02 0.18670575E+03</pdfrwt>
<totfact> 0.28072611E+04</totfact>
</mgrwt>
</event>
<event>
 4    1  0.4751076E-004  0.2248775E+03  0.7818608E-02  0.1130298E+00
         -2   -1    0    0    0  501 -0.00000000000E+00  0.00000000000E+00  0.27787772321E+02  0.27787772438E+02  0.25500000000E-02 0. -1.
          2   -1    0    0  501    0  0.00000000000E+00 -0.00000000000E+00 -0.45496534256E+03  0.45496534256E+03  0.25500000000E-02 0.  1.
    5000001    1    1    2    0    0  0.38590419996E+02  0.52567462369E+02 -0.32008332741E+03  0.33561122613E+03  0.77000000000E+02 0.  0.
   -5000001    1    1    2    0    0 -0.38590419996E+02 -0.52567462369E+02 -0.10709424282E+03  0.14714188887E+03  0.77000000000E+02 0.  0.
<mgrwt>
<rscale>  0 0.22487751E+03</rscale>
<asrwt>0</asrwt>
<pdfrwt beam="1">  1        2 0.69994663E-01 0.22487751E+03</pdfrwt>
<pdfrwt beam="2">  1       -2 0.42750422E-02 0.22487751E+03</pdfrwt>
<totfact> 0.16855607E+04</totfact>
</mgrwt>
</event>
<event>
 4    1  0.4751076E-004  0.2664655E+03  0.7818608E-02  0.1103320E+00
          2   -1    0    0  501    0  0.00000000000E+00  0.00000000000E+00  0.12518477384E+03  0.12518477387E+03  0.25500000000E-02 0.  1.
         -2   -1    0    0    0  501 -0.00000000000E+00 -0.00000000000E+00 -0.14179807642E+03  0.14179807645E+03  0.25500000000E-02 0. -1.
    5000001    1    1    2    0    0  0.99790164667E+02 -0.23859246890E+02 -0.44357336094E+02  0.13573471881E+03  0.77000000000E+02 0.  0.
   -5000001    1    1    2    0    0 -0.99790164667E+02  0.23859246890E+02  0.27744033510E+02  0.13124813150E+03  0.77000000000E+02 0.  0.
<mgrwt>
<rscale>  0 0.26646546E+03</rscale>
<asrwt>0</asrwt>
<pdfrwt beam="1">  1        2 0.19259196E-01 0.26646546E+03</pdfrwt>
<pdfrwt beam="2">  1       -2 0.21815088E-01 0.26646546E+03</pdfrwt>
<totfact> 0.51990711E+03</totfact>
</mgrwt>
</event>
<event>
 4    1  0.4751076E-004  0.3044300E+03  0.7818608E-02  0.1083047E+00
          2   -1    0    0  501    0  0.00000000000E+00  0.00000000000E+00  0.13752582636E+04  0.13752582636E+04  0.25500000000E-02 0.  1.
         -2   -1    0    0    0  501 -0.00000000000E+00 -0.00000000000E+00 -0.16847310092E+02  0.16847310285E+02  0.25500000000E-02 0. -1.
    5000001    1    1    2    0    0 -0.26049685218E+02  0.11805062860E+03  0.91353175860E+03  0.92470741913E+03  0.77000000000E+02 0.  0.
   -5000001    1    1    2    0    0  0.26049685218E+02 -0.11805062860E+03  0.44487919486E+03  0.46739815471E+03  0.77000000000E+02 0.  0.
<mgrwt>
<rscale>  0 0.30442998E+03</rscale>
<asrwt>0</asrwt>
<pdfrwt beam="1">  1        2 0.21157827E+00 0.30442998E+03</pdfrwt>
<pdfrwt beam="2">  1       -2 0.25918929E-02 0.30442998E+03</pdfrwt>
<totfact> 0.84142789E+03</totfact>
</mgrwt>
</event>
<event>
 4    1  0.4751076E-004  0.1739489E+03  0.7818608E-02  0.1173791E+00
          2   -1    0    0  501    0  0.00000000000E+00  0.00000000000E+00  0.17891773392E+04  0.17891773392E+04  0.25500000000E-02 0.  1.
         -2   -1    0    0    0  501 -0.00000000000E+00 -0.00000000000E+00 -0.42279505667E+01  0.42279513357E+01  0.25500000000E-02 0. -1.
    5000001    1    1    2    0    0 -0.36334860278E+02  0.83904776886E+01  0.73112081298E+03  0.73610954712E+03  0.77000000000E+02 0.  0.
   -5000001    1    1    2    0    0  0.36334860278E+02 -0.83904776886E+01  0.10538285756E+04  0.10572957434E+04  0.77000000000E+02 0.  0.
<mgrwt>
<rscale>  0 0.17394889E+03</rscale>
<asrwt>0</asrwt>
<pdfrwt beam="1">  1        2 0.27525832E+00 0.17394889E+03</pdfrwt>
<pdfrwt beam="2">  1       -2 0.65045336E-03 0.17394889E+03</pdfrwt>
<totfact> 0.37167371E+04</totfact>
</mgrwt>
</event>
<event>
 4    1  0.4751076E-004  0.3796932E+03  0.7818608E-02  0.1051047E+00
         -2   -1    0    0    0  501 -0.00000000000E+00  0.00000000000E+00  0.25657336634E+02  0.25657336760E+02  0.25500000000E-02 0. -1.
          2   -1    0    0  501    0  0.00000000000E+00 -0.00000000000E+00 -0.14047336484E+04  0.14047336484E+04  0.25500000000E-02 0.  1.
    5000001    1    1    2    0    0 -0.60456320685E+02  0.58674067422E+02 -0.11802197740E+03  0.16418221599E+03  0.77000000000E+02 0.  0.
   -5000001    1    1    2    0    0  0.60456320685E+02 -0.58674067422E+02 -0.12610543344E+04  0.12662087692E+04  0.77000000000E+02 0.  0.
<mgrwt>
<rscale>  0 0.37969316E+03</rscale>
<asrwt>0</asrwt>
<pdfrwt beam="1">  1        2 0.21611281E+00 0.37969316E+03</pdfrwt>
<pdfrwt beam="2">  1       -2 0.39472837E-02 0.37969316E+03</pdfrwt>
<totfact> 0.43195875E+03</totfact>
</mgrwt>
</event>
<event>
 4    1  0.4751076E-004  0.3126155E+03  0.7818608E-02  0.1079099E+00
         -2   -1    0    0    0  501 -0.00000000000E+00  0.00000000000E+00  0.51103192536E+02  0.51103192599E+02  0.25500000000E-02 0. -1.
          2   -1    0    0  501    0  0.00000000000E+00 -0.00000000000E+00 -0.47809368197E+03  0.47809368197E+03  0.25500000000E-02 0.  1.
    5000001    1    1    2    0    0  0.35828705885E+02 -0.10266243863E+03 -0.75141849976E+02  0.15296591152E+03  0.77000000000E+02 0.  0.
   -5000001    1    1    2    0    0 -0.35828705885E+02  0.10266243863E+03 -0.35184863945E+03  0.37623096305E+03  0.77000000000E+02 0.  0.
<mgrwt>
<rscale>  0 0.31261551E+03</rscale>
<asrwt>0</asrwt>
<pdfrwt beam="1">  1        2 0.73552871E-01 0.31261551E+03</pdfrwt>
<pdfrwt beam="2">  1       -2 0.78620299E-02 0.31261551E+03</pdfrwt>
<totfact> 0.63630254E+03</totfact>
</mgrwt>
</event>
<event>
 4    1  0.4751076E-004  0.2558669E+03  0.7818608E-02  0.1109652E+00
          2   -1    0    0  501    0  0.00000000000E+00  0.00000000000E+00  0.23198845658E+03  0.23198845660E+03  0.25500000000E-02 0.  1.
         -2   -1    0    0    0  501 -0.00000000000E+00 -0.00000000000E+00 -0.70550767009E+02  0.70550767055E+02  0.25500000000E-02 0. -1.
    5000001    1    1    2    0    0  0.12731628154E+02  0.57680401002E+02 -0.17846400651E+02  0.98674297725E+02  0.77000000000E+02 0.  0.
   -5000001    1    1    2    0    0 -0.12731628154E+02 -0.57680401002E+02  0.17928409022E+03  0.20386492593E+03  0.77000000000E+02 0.  0.
<mgrwt>
<rscale>  0 0.25586687E+03</rscale>
<asrwt>0</asrwt>
<pdfrwt beam="1">  1        2 0.35690533E-01 0.25586687E+03</pdfrwt>
<pdfrwt beam="2">  1       -2 0.10853964E-01 0.25586687E+03</pdfrwt>
<totfact> 0.83156446E+03</totfact>
</mgrwt>
</event>
<event>
 4    1  0.4751076E-004  0.3433607E+03  0.7818608E-02  0.1065374E+00
         -2   -1    0    0    0  501 -0.00000000000E+00  0.00000000000E+00  0.40050944895E+03  0.40050944896E+03  0.25500000000E-02 0.  1.
          2   -1    0    0  501    0  0.00000000000E+00 -0.00000000000E+00 -0.73591637259E+02  0.73591637303E+02  0.25500000000E-02 0. -1.
    5000001    1    1    2    0    0 -0.10716371652E+03 -0.35147421958E+02  0.19794497392E+02  0.13798632373E+03  0.77000000000E+02 0.  0.
   -5000001    1    1    2    0    0  0.10716371652E+03  0.35147421958E+02  0.30712331430E+03  0.33611476254E+03  0.77000000000E+02 0.  0.
<mgrwt>
<rscale>  0 0.34336072E+03</rscale>
<asrwt>0</asrwt>
<pdfrwt beam="1">  1        2 0.11321790E-01 0.34336072E+03</pdfrwt>
<pdfrwt beam="2">  1       -2 0.61616838E-01 0.34336072E+03</pdfrwt>
<totfact> 0.13800427E+03</totfact>
</mgrwt>
</event>
<event>
 4    1  0.4751076E-004  0.2150722E+03  0.7818608E-02  0.1137611E+00
          2   -1    0    0  501    0  0.00000000000E+00  0.00000000000E+00  0.13382860770E+04  0.13382860770E+04  0.25500000000E-02 0.  1.
         -2   -1    0    0    0  501 -0.00000000000E+00 -0.00000000000E+00 -0.86409142938E+01  0.86409146700E+01  0.25500000000E-02 0. -1.
    5000001    1    1    2    0    0  0.39494581375E+02 -0.42723094388E+02  0.96188267038E+03  0.96671213726E+03  0.77000000000E+02 0.  0.
   -5000001    1    1    2    0    0 -0.39494581375E+02  0.42723094388E+02  0.36776249231E+03  0.38021485440E+03  0.77000000000E+02 0.  0.
<mgrwt>
<rscale>  0 0.21507223E+03</rscale>
<asrwt>0</asrwt>
<pdfrwt beam="1">  1        2 0.20589011E+00 0.21507223E+03</pdfrwt>
<pdfrwt beam="2">  1       -2 0.13293718E-02 0.21507223E+03</pdfrwt>
<totfact> 0.23218401E+04</totfact>
</mgrwt>
</event>
<event>
 4    1  0.4751076E-004  0.3008318E+03  0.7818608E-02  0.1084826E+00
         -2   -1    0    0    0  501 -0.00000000000E+00  0.00000000000E+00  0.23470486067E+03  0.23470486069E+03  0.25500000000E-02 0. -1.
          2   -1    0    0  501    0  0.00000000000E+00 -0.00000000000E+00 -0.96397448375E+02  0.96397448409E+02  0.25500000000E-02 0.  1.
    5000001    1    1    2    0    0 -0.16456687526E+01 -0.12901036256E+03  0.61404836862E+02  0.16231431195E+03  0.77000000000E+02 0.  0.
   -5000001    1    1    2    0    0  0.16456687526E+01  0.12901036256E+03  0.76902575436E+02  0.16878799715E+03  0.77000000000E+02 0.  0.
<mgrwt>
<rscale>  0 0.30083184E+03</rscale>
<asrwt>0</asrwt>
<pdfrwt beam="1">  1        2 0.14830377E-01 0.30083184E+03</pdfrwt>
<pdfrwt beam="2">  1       -2 0.36108440E-01 0.30083184E+03</pdfrwt>
<totfact> 0.28600698E+03</totfact>
</mgrwt>
</event>
<event>
 4    1  0.4751076E-004  0.1851963E+03  0.7818608E-02  0.1162867E+00
         -2   -1    0    0    0  501 -0.00000000000E+00  0.00000000000E+00  0.11140192785E+04  0.11140192785E+04  0.25500000000E-02 0. -1.
          2   -1    0    0  501    0  0.00000000000E+00 -0.00000000000E+00 -0.76968336628E+01  0.76968340852E+01  0.25500000000E-02 0.  1.
    5000001    1    1    2    0    0  0.74491928321E+01 -0.49106606233E+02  0.63407746095E+03  0.64066385549E+03  0.77000000000E+02 0.  0.
   -5000001    1    1    2    0    0 -0.74491928321E+01  0.49106606233E+02  0.47224498385E+03  0.48105225706E+03  0.77000000000E+02 0.  0.
<mgrwt>
<rscale>  0 0.18519634E+03</rscale>
<asrwt>0</asrwt>
<pdfrwt beam="1">  1        2 0.11841290E-02 0.18519634E+03</pdfrwt>
<pdfrwt beam="2">  1       -2 0.17138747E+00 0.18519634E+03</pdfrwt>
<totfact> 0.24755525E+03</totfact>
</mgrwt>
</event>
<event>
 4    1  0.4751076E-004  0.4320902E+03  0.7818608E-02  0.1033202E+00
         -2   -1    0    0    0  501 -0.00000000000E+00  0.00000000000E+00  0.15425726045E+02  0.15425726255E+02  0.25500000000E-02 0. -1.
          2   -1    0    0  501    0  0.00000000000E+00 -0.00000000000E+00 -0.30258211344E+04  0.30258211344E+04  0.25500000000E-02 0.  1.
    5000001    1    1    2    0    0  0.14313599566E+03  0.13427944250E+03 -0.18373952803E+04  0.18494510802E+04  0.77000000000E+02 0.  0.
   -5000001    1    1    2    0    0 -0.14313599566E+03 -0.13427944250E+03 -0.11730001281E+04  0.11917957805E+04  0.77000000000E+02 0.  0.
<mgrwt>
<rscale>  0 0.43209021E+03</rscale>
<asrwt>0</asrwt>
<pdfrwt beam="1">  1        2 0.46551047E+00 0.43209021E+03</pdfrwt>
<pdfrwt beam="2">  1       -2 0.23731910E-02 0.43209021E+03</pdfrwt>
<totfact> 0.11803469E+03</totfact>
</mgrwt>
</event>
<event>
 4    1  0.4751076E-004  0.1771960E+03  0.7818608E-02  0.1170545E+00
         -2   -1    0    0    0  501 -0.00000000000E+00  0.00000000000E+00  0.44812163340E+01  0.44812170595E+01  0.25500000000E-02 0. -1.
          2   -1    0    0  501    0  0.00000000000E+00 -0.00000000000E+00 -0.17516685114E+04  0.17516685114E+04  0.25500000000E-02 0.  1.
    5000001    1    1    2    0    0  0.22854881575E+02  0.14039586712E+02 -0.12170775100E+04  0.12198057719E+04  0.77000000000E+02 0.  0.
   -5000001    1    1    2    0    0 -0.22854881575E+02 -0.14039586712E+02 -0.53010978498E+03  0.53634395656E+03  0.77000000000E+02 0.  0.
<mgrwt>
<rscale>  0 0.17719601E+03</rscale>
<asrwt>0</asrwt>
<pdfrwt beam="1">  1        2 0.26948692E+00 0.17719601E+03</pdfrwt>
<pdfrwt beam="2">  1       -2 0.68941935E-03 0.17719601E+03</pdfrwt>
<totfact> 0.35801364E+04</totfact>
</mgrwt>
</event>
<event>
 4    1  0.4751076E-004  0.1773180E+03  0.7818608E-02  0.1170424E+00
         -2   -1    0    0    0  501 -0.00000000000E+00  0.00000000000E+00  0.22733265913E+02  0.22733266056E+02  0.25500000000E-02 0. -1.
          2   -1    0    0  501    0  0.00000000000E+00 -0.00000000000E+00 -0.34576709288E+03  0.34576709289E+03  0.25500000000E-02 0.  1.
    5000001    1    1    2    0    0 -0.40540376384E+02 -0.11131922383E+02 -0.13490525252E+03  0.16092193440E+03  0.77000000000E+02 0.  0.
   -5000001    1    1    2    0    0  0.40540376384E+02  0.11131922383E+02 -0.18812857445E+03  0.20757842455E+03  0.77000000000E+02 0.  0.
<mgrwt>
<rscale>  0 0.17731797E+03</rscale>
<asrwt>0</asrwt>
<pdfrwt beam="1">  1        2 0.53194934E-01 0.17731797E+03</pdfrwt>
<pdfrwt beam="2">  1       -2 0.34974258E-02 0.17731797E+03</pdfrwt>
<totfact> 0.30071836E+04</totfact>
</mgrwt>
</event>
<event>
 4    1  0.4751076E-004  0.2046718E+03  0.7818608E-02  0.1145856E+00
          2   -1    0    0  501    0  0.00000000000E+00  0.00000000000E+00  0.36504749454E+02  0.36504749544E+02  0.25500000000E-02 0.  1.
         -2   -1    0    0    0  501 -0.00000000000E+00 -0.00000000000E+00 -0.28688417652E+03  0.28688417653E+03  0.25500000000E-02 0. -1.
    5000001    1    1    2    0    0 -0.31546793075E+01  0.66462687795E+02 -0.10814331226E+03  0.14849652136E+03  0.77000000000E+02 0.  0.
   -5000001    1    1    2    0    0  0.31546793075E+01 -0.66462687795E+02 -0.14223611480E+03  0.17489240471E+03  0.77000000000E+02 0.  0.
<mgrwt>
<rscale>  0 0.20467179E+03</rscale>
<asrwt>0</asrwt>
<pdfrwt beam="1">  1        2 0.56161155E-02 0.20467179E+03</pdfrwt>
<pdfrwt beam="2">  1       -2 0.44136026E-01 0.20467179E+03</pdfrwt>
<totfact> 0.64659253E+03</totfact>
</mgrwt>
</event>
<event>
 4    1  0.4751076E-004  0.3781183E+03  0.7818608E-02  0.1051631E+00
          2   -1    0    0  501    0  0.00000000000E+00  0.00000000000E+00  0.21777968004E+03  0.21777968005E+03  0.25500000000E-02 0.  1.
         -2   -1    0    0    0  501 -0.00000000000E+00 -0.00000000000E+00 -0.16412628295E+03  0.16412628297E+03  0.25500000000E-02 0. -1.
    5000001    1    1    2    0    0 -0.16164781537E+03 -0.59598387835E+02  0.15205560501E+02  0.18932034522E+03  0.77000000000E+02 0.  0.
   -5000001    1    1    2    0    0  0.16164781537E+03  0.59598387835E+02  0.38447836587E+02  0.19258561780E+03  0.77000000000E+02 0.  0.
<mgrwt>
<rscale>  0 0.37811834E+03</rscale>
<asrwt>0</asrwt>
<pdfrwt beam="1">  1        2 0.33504566E-01 0.37811834E+03</pdfrwt>
<pdfrwt beam="2">  1       -2 0.25250197E-01 0.37811834E+03</pdfrwt>
<totfact> 0.21800103E+03</totfact>
</mgrwt>
</event>
<event>
 4    1  0.4751076E-004  0.3231255E+03  0.7818608E-02  0.1074220E+00
          2   -1    0    0  501    0  0.00000000000E+00  0.00000000000E+00  0.26902215813E+04  0.26902215813E+04  0.25500000000E-02 0.  1.
         -2   -1    0    0    0  501 -0.00000000000E+00 -0.00000000000E+00 -0.97027407200E+01  0.97027410551E+01  0.25500000000E-02 0. -1.
    5000001    1    1    2    0    0  0.90668537026E+02  0.57445848010E+02  0.21175018916E+04  0.21216182668E+04  0.77000000000E+02 0.  0.
   -5000001    1    1    2    0    0 -0.90668537026E+02 -0.57445848010E+02  0.56301694889E+03  0.57830605548E+03  0.77000000000E+02 0.  0.
<mgrwt>
<rscale>  0 0.32312550E+03</rscale>
<asrwt>0</asrwt>
<pdfrwt beam="1">  1        2 0.41388021E+00 0.32312550E+03</pdfrwt>
<pdfrwt beam="2">  1       -2 0.14927295E-02 0.32312550E+03</pdfrwt>
<totfact> 0.37257874E+03</totfact>
</mgrwt>
</event>
<event>
 4    1  0.4751076E-004  0.1768113E+03  0.7818608E-02  0.1170925E+00
          2   -1    0    0  501    0  0.00000000000E+00  0.00000000000E+00  0.10320813182E+03  0.10320813185E+03  0.25500000000E-02 0.  1.
         -2   -1    0    0    0  501 -0.00000000000E+00 -0.00000000000E+00 -0.75726150612E+02  0.75726150655E+02  0.25500000000E-02 0. -1.
    5000001    1    1    2    0    0 -0.28628913984E+02 -0.19038581151E+02  0.40601584298E+02  0.93592579490E+02  0.77000000000E+02 0.  0.
   -5000001    1    1    2    0    0  0.28628913984E+02  0.19038581151E+02 -0.13119603092E+02  0.85341703015E+02  0.77000000000E+02 0.  0.
<mgrwt>
<rscale>  0 0.17681125E+03</rscale>
<asrwt>0</asrwt>
<pdfrwt beam="1">  1        2 0.15878174E-01 0.17681125E+03</pdfrwt>
<pdfrwt beam="2">  1       -2 0.11650177E-01 0.17681125E+03</pdfrwt>
<totfact> 0.17980258E+04</totfact>
</mgrwt>
</event>
<event>
 4    1  0.4751076E-004  0.2393558E+03  0.7818608E-02  0.1120223E+00
          2   -1    0    0  501    0  0.00000000000E+00  0.00000000000E+00  0.17542591919E+03  0.17542591921E+03  0.25500000000E-02 0.  1.
         -2   -1    0    0    0  501 -0.00000000000E+00 -0.00000000000E+00 -0.81645866971E+02  0.81645867011E+02  0.25500000000E-02 0. -1.
    5000001    1    1    2    0    0 -0.81374169247E+02  0.41867335491E+02  0.42187351729E+02  0.12682035266E+03  0.77000000000E+02 0.  0.
   -5000001    1    1    2    0    0  0.81374169247E+02 -0.41867335491E+02  0.51592700491E+02  0.13025143356E+03  0.77000000000E+02 0.  0.
<mgrwt>
<rscale>  0 0.23935581E+03</rscale>
<asrwt>0</asrwt>
<pdfrwt beam="1">  1        2 0.26988603E-01 0.23935581E+03</pdfrwt>
<pdfrwt beam="2">  1       -2 0.12560903E-01 0.23935581E+03</pdfrwt>
<totfact> 0.88964811E+03</totfact>
</mgrwt>
</event>
<event>
 4    1  0.4751076E-004  0.2002460E+03  0.7818608E-02  0.1149532E+00
         -2   -1    0    0    0  501 -0.00000000000E+00  0.00000000000E+00  0.41926550966E+01  0.41926558721E+01  0.25500000000E-02 0. -1.
          2   -1    0    0  501    0  0.00000000000E+00 -0.00000000000E+00 -0.23909951798E+04  0.23909951798E+04  0.25500000000E-02 0.  1.
    5000001    1    1    2    0    0  0.48625463571E+02  0.39560680921E+02 -0.13475739180E+04  0.13512268306E+04  0.77000000000E+02 0.  0.
   -5000001    1    1    2    0    0 -0.48625463571E+02 -0.39560680921E+02 -0.10392286066E+04  0.10439610050E+04  0.77000000000E+02 0.  0.
<mgrwt>
<rscale>  0 0.20024604E+03</rscale>
<asrwt>0</asrwt>
<pdfrwt beam="1">  1        2 0.36784432E+00 0.20024604E+03</pdfrwt>
<pdfrwt beam="2">  1       -2 0.64502583E-03 0.20024604E+03</pdfrwt>
<totfact> 0.18353554E+04</totfact>
</mgrwt>
</event>
<event>
 4    1  0.4751076E-004  0.2272168E+03  0.7818608E-02  0.1128614E+00
         -2   -1    0    0    0  501 -0.00000000000E+00  0.00000000000E+00  0.20046235023E+02  0.20046235185E+02  0.25500000000E-02 0. -1.
          2   -1    0    0  501    0  0.00000000000E+00 -0.00000000000E+00 -0.64385508897E+03  0.64385508898E+03  0.25500000000E-02 0.  1.
    5000001    1    1    2    0    0  0.10609077860E+02  0.59426989837E+02 -0.48061007867E+03  0.49046831434E+03  0.77000000000E+02 0.  0.
   -5000001    1    1    2    0    0 -0.10609077860E+02 -0.59426989837E+02 -0.14319877528E+03  0.17343300982E+03  0.77000000000E+02 0.  0.
<mgrwt>
<rscale>  0 0.22721682E+03</rscale>
<asrwt>0</asrwt>
<pdfrwt beam="1">  1        2 0.99054613E-01 0.22721682E+03</pdfrwt>
<pdfrwt beam="2">  1       -2 0.30840367E-02 0.22721682E+03</pdfrwt>
<totfact> 0.18540263E+04</totfact>
</mgrwt>
</event>
<event>
 4    1  0.4751076E-004  0.5263203E+03  0.7818608E-02  0.1007128E+00
         -2   -1    0    0    0  501 -0.00000000000E+00  0.00000000000E+00  0.11301786415E+03  0.11301786417E+03  0.25500000000E-02 0. -1.
          2   -1    0    0  501    0  0.00000000000E+00 -0.00000000000E+00 -0.61276382728E+03  0.61276382729E+03  0.25500000000E-02 0.  1.
    5000001    1    1    2    0    0 -0.18526412448E+03  0.71501150507E+02 -0.46300825597E+03  0.50964777586E+03  0.77000000000E+02 0.  0.
   -5000001    1    1    2    0    0  0.18526412448E+03 -0.71501150507E+02 -0.36737707167E+02  0.21613391560E+03  0.77000000000E+02 0.  0.
<mgrwt>
<rscale>  0 0.52632028E+03</rscale>
<asrwt>0</asrwt>
<pdfrwt beam="1">  1        2 0.94271356E-01 0.52632028E+03</pdfrwt>
<pdfrwt beam="2">  1       -2 0.17387364E-01 0.52632028E+03</pdfrwt>
<totfact> 0.13180437E+03</totfact>
</mgrwt>
</event>
<event>
 4    1  0.4751076E-004  0.3014769E+03  0.7818608E-02  0.1084505E+00
          2   -1    0    0  501    0  0.00000000000E+00  0.00000000000E+00  0.83421788066E+03  0.83421788066E+03  0.25500000000E-02 0.  1.
         -2   -1    0    0    0  501 -0.00000000000E+00 -0.00000000000E+00 -0.27237592503E+02  0.27237592622E+02  0.25500000000E-02 0. -1.
    5000001    1    1    2    0    0 -0.25333593709E+01  0.10117742052E+03  0.17223430936E+03  0.21409564604E+03  0.77000000000E+02 0.  0.
   -5000001    1    1    2    0    0  0.25333593709E+01 -0.10117742052E+03  0.63474597879E+03  0.64735982724E+03  0.77000000000E+02 0.  0.
<mgrwt>
<rscale>  0 0.30147694E+03</rscale>
<asrwt>0</asrwt>
<pdfrwt beam="1">  1        2 0.12834123E+00 0.30147694E+03</pdfrwt>
<pdfrwt beam="2">  1       -2 0.41903984E-02 0.30147694E+03</pdfrwt>
<totfact> 0.86125488E+03</totfact>
</mgrwt>
</event>
<event>
 4    1  0.4751076E-004  0.2199812E+03  0.7818608E-02  0.1133897E+00
         -2   -1    0    0    0  501 -0.00000000000E+00  0.00000000000E+00  0.14284276788E+03  0.14284276790E+03  0.25500000000E-02 0. -1.
          2   -1    0    0  501    0  0.00000000000E+00 -0.00000000000E+00 -0.84694031636E+02  0.84694031674E+02  0.25500000000E-02 0.  1.
    5000001    1    1    2    0    0 -0.59286433554E+02  0.51184765953E+02  0.23028221289E+02  0.11222326160E+03  0.77000000000E+02 0.  0.
   -5000001    1    1    2    0    0  0.59286433554E+02 -0.51184765953E+02  0.35120514955E+02  0.11531353797E+03  0.77000000000E+02 0.  0.
<mgrwt>
<rscale>  0 0.21998118E+03</rscale>
<asrwt>0</asrwt>
<pdfrwt beam="1">  1        2 0.13029851E-01 0.21998118E+03</pdfrwt>
<pdfrwt beam="2">  1       -2 0.21975810E-01 0.21998118E+03</pdfrwt>
<totfact> 0.80548938E+03</totfact>
</mgrwt>
</event>
<event>
 4    1  0.4751076E-004  0.1746602E+03  0.7818608E-02  0.1173073E+00
         -2   -1    0    0    0  501 -0.00000000000E+00  0.00000000000E+00  0.60179392577E+02  0.60179392631E+02  0.25500000000E-02 0. -1.
          2   -1    0    0  501    0  0.00000000000E+00 -0.00000000000E+00 -0.12673014141E+03  0.12673014143E+03  0.25500000000E-02 0.  1.
    5000001    1    1    2    0    0 -0.35255363415E+02 -0.20951288013E+02 -0.29042486617E+02  0.91947610887E+02  0.77000000000E+02 0.  0.
   -5000001    1    1    2    0    0  0.35255363415E+02  0.20951288013E+02 -0.37508262212E+02  0.94961923175E+02  0.77000000000E+02 0.  0.
<mgrwt>
<rscale>  0 0.17466016E+03</rscale>
<asrwt>0</asrwt>
<pdfrwt beam="1">  1        2 0.19496945E-01 0.17466016E+03</pdfrwt>
<pdfrwt beam="2">  1       -2 0.92583681E-02 0.17466016E+03</pdfrwt>
<totfact> 0.20392136E+04</totfact>
</mgrwt>
</event>
<event>
 4    1  0.4751076E-004  0.2188943E+03  0.7818608E-02  0.1134710E+00
         -2   -1    0    0    0  501 -0.00000000000E+00  0.00000000000E+00  0.48806118522E+02  0.48806118589E+02  0.25500000000E-02 0. -1.
          2   -1    0    0  501    0  0.00000000000E+00 -0.00000000000E+00 -0.24543405279E+03  0.24543405280E+03  0.25500000000E-02 0.  1.
    5000001    1    1    2    0    0 -0.33072256901E+02  0.62686968401E+02 -0.14137601776E+03  0.17589658491E+03  0.77000000000E+02 0.  0.
   -5000001    1    1    2    0    0  0.33072256901E+02 -0.62686968401E+02 -0.55251916501E+02  0.11834358648E+03  0.77000000000E+02 0.  0.
<mgrwt>
<rscale>  0 0.21889434E+03</rscale>
<asrwt>0</asrwt>
<pdfrwt beam="1">  1        2 0.37759084E-01 0.21889434E+03</pdfrwt>
<pdfrwt beam="2">  1       -2 0.75086338E-02 0.21889434E+03</pdfrwt>
<totfact> 0.13856521E+04</totfact>
</mgrwt>
</event>
<event>
 4    1  0.4751076E-004  0.2917992E+03  0.7818608E-02  0.1089413E+00
          2   -1    0    0  501    0  0.00000000000E+00  0.00000000000E+00  0.12082822770E+04  0.12082822770E+04  0.25500000000E-02 0.  1.
         -2   -1    0    0    0  501 -0.00000000000E+00 -0.00000000000E+00 -0.17617318496E+02  0.17617318681E+02  0.25500000000E-02 0. -1.
    5000001    1    1    2    0    0 -0.41526803087E+02 -0.10596126844E+03  0.80137980569E+03  0.81307494042E+03  0.77000000000E+02 0.  0.
   -5000001    1    1    2    0    0  0.41526803087E+02  0.10596126844E+03  0.38928515278E+03  0.41282465522E+03  0.77000000000E+02 0.  0.
<mgrwt>
<rscale>  0 0.29179920E+03</rscale>
<asrwt>0</asrwt>
<pdfrwt beam="1">  1        2 0.18588957E+00 0.29179920E+03</pdfrwt>
<pdfrwt beam="2">  1       -2 0.27103568E-02 0.29179920E+03</pdfrwt>
<totfact> 0.97468123E+03</totfact>
</mgrwt>
</event>
<event>
 4    1  0.4751076E-004  0.2324845E+03  0.7818608E-02  0.1124903E+00
         -2   -1    0    0    0  501 -0.00000000000E+00  0.00000000000E+00  0.26007584432E+02  0.26007584557E+02  0.25500000000E-02 0. -1.
          2   -1    0    0  501    0  0.00000000000E+00 -0.00000000000E+00 -0.51955097078E+03  0.51955097079E+03  0.25500000000E-02 0.  1.
    5000001    1    1    2    0    0 -0.36503920724E+02 -0.77946164727E+02 -0.21571742501E+03  0.24468581544E+03  0.77000000000E+02 0.  0.
   -5000001    1    1    2    0    0  0.36503920724E+02  0.77946164727E+02 -0.27782596134E+03  0.30087273990E+03  0.77000000000E+02 0.  0.
<mgrwt>
<rscale>  0 0.23248454E+03</rscale>
<asrwt>0</asrwt>
<pdfrwt beam="1">  1        2 0.79930911E-01 0.23248454E+03</pdfrwt>
<pdfrwt beam="2">  1       -2 0.40011672E-02 0.23248454E+03</pdfrwt>
<totfact> 0.16100588E+04</totfact>
</mgrwt>
</event>
<event>
 4    1  0.4751076E-004  0.2318462E+03  0.7818608E-02  0.1125347E+00
         -2   -1    0    0    0  501 -0.00000000000E+00  0.00000000000E+00  0.20280579688E+02  0.20280579848E+02  0.25500000000E-02 0. -1.
          2   -1    0    0  501    0  0.00000000000E+00 -0.00000000000E+00 -0.66261219044E+03  0.66261219045E+03  0.25500000000E-02 0.  1.
    5000001    1    1    2    0    0 -0.80771888914E+02  0.10998106351E+02 -0.40774935431E+03  0.42288720993E+03  0.77000000000E+02 0.  0.
   -5000001    1    1    2    0    0  0.80771888914E+02 -0.10998106351E+02 -0.23458225644E+03  0.26000556036E+03  0.77000000000E+02 0.  0.
<mgrwt>
<rscale>  0 0.23184615E+03</rscale>
<asrwt>0</asrwt>
<pdfrwt beam="1">  1        2 0.10194032E+00 0.23184615E+03</pdfrwt>
<pdfrwt beam="2">  1       -2 0.31200897E-02 0.23184615E+03</pdfrwt>
<totfact> 0.17634900E+04</totfact>
</mgrwt>
</event>
<event>
 4    1  0.4751076E-004  0.2086868E+03  0.7818608E-02  0.1142610E+00
         -2   -1    0    0    0  501 -0.00000000000E+00  0.00000000000E+00  0.85203604866E+01  0.85203608682E+01  0.25500000000E-02 0. -1.
          2   -1    0    0  501    0  0.00000000000E+00 -0.00000000000E+00 -0.12778263207E+04  0.12778263207E+04  0.25500000000E-02 0.  1.
    5000001    1    1    2    0    0  0.20057238807E+02 -0.67345778282E+02 -0.66276143193E+03  0.67090942930E+03  0.77000000000E+02 0.  0.
   -5000001    1    1    2    0    0 -0.20057238807E+02  0.67345778282E+02 -0.60654452824E+03  0.61543725222E+03  0.77000000000E+02 0.  0.
<mgrwt>
<rscale>  0 0.20868676E+03</rscale>
<asrwt>0</asrwt>
<pdfrwt beam="1">  1        2 0.19658851E+00 0.20868676E+03</pdfrwt>
<pdfrwt beam="2">  1       -2 0.13108257E-02 0.20868676E+03</pdfrwt>
<totfact> 0.25533743E+04</totfact>
</mgrwt>
</event>
<event>
 4    1  0.4751076E-004  0.2485325E+03  0.7818608E-02  0.1114236E+00
         -2   -1    0    0    0  501 -0.00000000000E+00  0.00000000000E+00  0.56356304067E+02  0.56356304125E+02  0.25500000000E-02 0. -1.
          2   -1    0    0  501    0  0.00000000000E+00 -0.00000000000E+00 -0.27400850099E+03  0.27400850100E+03  0.25500000000E-02 0.  1.
    5000001    1    1    2    0    0  0.86295392591E+02 -0.39914422070E+02 -0.79915020906E+02  0.14613509653E+03  0.77000000000E+02 0.  0.
   -5000001    1    1    2    0    0 -0.86295392591E+02  0.39914422070E+02 -0.13773717601E+03  0.18422970859E+03  0.77000000000E+02 0.  0.
<mgrwt>
<rscale>  0 0.24853254E+03</rscale>
<asrwt>0</asrwt>
<pdfrwt beam="1">  1        2 0.42155153E-01 0.24853254E+03</pdfrwt>
<pdfrwt beam="2">  1       -2 0.86702008E-02 0.24853254E+03</pdfrwt>
<totfact> 0.99047384E+03</totfact>
</mgrwt>
</event>
<event>
 4    1  0.4751076E-004  0.1868930E+03  0.7818608E-02  0.1161294E+00
          2   -1    0    0  501    0  0.00000000000E+00  0.00000000000E+00  0.25278290572E+02  0.25278290700E+02  0.25500000000E-02 0.  1.
         -2   -1    0    0    0  501 -0.00000000000E+00 -0.00000000000E+00 -0.34544457224E+03  0.34544457225E+03  0.25500000000E-02 0. -1.
    5000001    1    1    2    0    0 -0.50158730827E+01  0.32544590332E+02 -0.24232379641E+03  0.25638668384E+03  0.77000000000E+02 0.  0.
   -5000001    1    1    2    0    0  0.50158730827E+01 -0.32544590332E+02 -0.77842485257E+02  0.11433617911E+03  0.77000000000E+02 0.  0.
<mgrwt>
<rscale>  0 0.18689300E+03</rscale>
<asrwt>0</asrwt>
<pdfrwt beam="1">  1        2 0.38889680E-02 0.18689300E+03</pdfrwt>
<pdfrwt beam="2">  1       -2 0.53145315E-01 0.18689300E+03</pdfrwt>
<totfact> 0.72353273E+03</totfact>
</mgrwt>
</event>
<event>
 4    1  0.4751076E-004  0.2613152E+03  0.7818608E-02  0.1106356E+00
          2   -1    0    0  501    0  0.00000000000E+00  0.00000000000E+00  0.28764083400E+03  0.28764083401E+03  0.25500000000E-02 0.  1.
         -2   -1    0    0    0  501 -0.00000000000E+00 -0.00000000000E+00 -0.59349726601E+02  0.59349726656E+02  0.25500000000E-02 0. -1.
    5000001    1    1    2    0    0 -0.99343591968E+02  0.30717981301E+02  0.13825498522E+03  0.18935729344E+03  0.77000000000E+02 0.  0.
   -5000001    1    1    2    0    0  0.99343591968E+02 -0.30717981301E+02  0.90036122183E+02  0.15763326723E+03  0.77000000000E+02 0.  0.
<mgrwt>
<rscale>  0 0.26131517E+03</rscale>
<asrwt>0</asrwt>
<pdfrwt beam="1">  1        2 0.44252437E-01 0.26131517E+03</pdfrwt>
<pdfrwt beam="2">  1       -2 0.91307269E-02 0.26131517E+03</pdfrwt>
<totfact> 0.86861256E+03</totfact>
</mgrwt>
</event>
<event>
 4    1  0.4751076E-004  0.2846615E+03  0.7818608E-02  0.1093170E+00
         -2   -1    0    0    0  501 -0.00000000000E+00  0.00000000000E+00  0.33731534923E+02  0.33731535020E+02  0.25500000000E-02 0. -1.
          2   -1    0    0  501    0  0.00000000000E+00 -0.00000000000E+00 -0.60056672899E+03  0.60056672899E+03  0.25500000000E-02 0.  1.
    5000001    1    1    2    0    0  0.10868966177E+02  0.10401263408E+03 -0.41319837584E+03  0.43312660998E+03  0.77000000000E+02 0.  0.
   -5000001    1    1    2    0    0 -0.10868966177E+02 -0.10401263408E+03 -0.15363681822E+03  0.20117165404E+03  0.77000000000E+02 0.  0.
<mgrwt>
<rscale>  0 0.28466147E+03</rscale>
<asrwt>0</asrwt>
<pdfrwt beam="1">  1        2 0.92394874E-01 0.28466147E+03</pdfrwt>
<pdfrwt beam="2">  1       -2 0.51894673E-02 0.28466147E+03</pdfrwt>
<totfact> 0.92948161E+03</totfact>
</mgrwt>
</event>
<event>
 4    1  0.4751076E-004  0.1893019E+03  0.7818608E-02  0.1159092E+00
          2   -1    0    0  501    0  0.00000000000E+00  0.00000000000E+00  0.10083702787E+04  0.10083702788E+04  0.25500000000E-02 0.  1.
         -2   -1    0    0    0  501 -0.00000000000E+00 -0.00000000000E+00 -0.88844401252E+01  0.88844404911E+01  0.25500000000E-02 0. -1.
    5000001    1    1    2    0    0  0.23393814704E+02  0.74676861705E+01  0.76446419703E+03  0.76872462263E+03  0.77000000000E+02 0.  0.
   -5000001    1    1    2    0    0 -0.23393814704E+02 -0.74676861705E+01  0.23502164159E+03  0.24853009661E+03  0.77000000000E+02 0.  0.
<mgrwt>
<rscale>  0 0.18930193E+03</rscale>
<asrwt>0</asrwt>
<pdfrwt beam="1">  1        2 0.15513380E+00 0.18930193E+03</pdfrwt>
<pdfrwt beam="2">  1       -2 0.13668377E-02 0.18930193E+03</pdfrwt>
<totfact> 0.34094043E+04</totfact>
</mgrwt>
</event>
<event>
 4    1  0.4751076E-004  0.1720740E+03  0.7818608E-02  0.1175702E+00
          2   -1    0    0  501    0  0.00000000000E+00  0.00000000000E+00  0.63920178238E+03  0.63920178239E+03  0.25500000000E-02 0.  1.
         -2   -1    0    0    0  501 -0.00000000000E+00 -0.00000000000E+00 -0.11580638030E+02  0.11580638311E+02  0.25500000000E-02 0. -1.
    5000001    1    1    2    0    0  0.28132816385E+02  0.26084806341E+02  0.30919083619E+03  0.32093589027E+03  0.77000000000E+02 0.  0.
   -5000001    1    1    2    0    0 -0.28132816385E+02 -0.26084806341E+02  0.31843030817E+03  0.32984653043E+03  0.77000000000E+02 0.  0.
<mgrwt>
<rscale>  0 0.17207399E+03</rscale>
<asrwt>0</asrwt>
<pdfrwt beam="1">  1        2 0.98338762E-01 0.17207399E+03</pdfrwt>
<pdfrwt beam="2">  1       -2 0.17816362E-02 0.17207399E+03</pdfrwt>
<totfact> 0.41013935E+04</totfact>
</mgrwt>
</event>
<event>
 4    1  0.4751076E-004  0.1950753E+03  0.7818608E-02  0.1153962E+00
         -2   -1    0    0    0  501 -0.00000000000E+00  0.00000000000E+00  0.15773276687E+02  0.15773276893E+02  0.25500000000E-02 0. -1.
          2   -1    0    0  501    0  0.00000000000E+00 -0.00000000000E+00 -0.60314624319E+03  0.60314624319E+03  0.25500000000E-02 0.  1.
    5000001    1    1    2    0    0  0.26106196900E+02 -0.35034361166E+02 -0.16381197710E+03  0.18620500482E+03  0.77000000000E+02 0.  0.
   -5000001    1    1    2    0    0 -0.26106196900E+02  0.35034361166E+02 -0.42356098940E+03  0.43271451526E+03  0.77000000000E+02 0.  0.
<mgrwt>
<rscale>  0 0.19507529E+03</rscale>
<asrwt>0</asrwt>
<pdfrwt beam="1">  1        2 0.92791712E-01 0.19507529E+03</pdfrwt>
<pdfrwt beam="2">  1       -2 0.24266584E-02 0.19507529E+03</pdfrwt>
<totfact> 0.28217810E+04</totfact>
</mgrwt>
</event>
<event>
 4    1  0.4751076E-004  0.1836085E+03  0.7818608E-02  0.1164356E+00
          2   -1    0    0  501    0  0.00000000000E+00  0.00000000000E+00  0.62412505424E+03  0.62412505424E+03  0.25500000000E-02 0.  1.
         -2   -1    0    0    0  501 -0.00000000000E+00 -0.00000000000E+00 -0.13503733827E+02  0.13503734068E+02  0.25500000000E-02 0. -1.
    5000001    1    1    2    0    0  0.19740510477E+02  0.40678345339E+02  0.37935492028E+03  0.38972242824E+03  0.77000000000E+02 0.  0.
   -5000001    1    1    2    0    0 -0.19740510477E+02 -0.40678345339E+02  0.23126640013E+03  0.24790636007E+03  0.77000000000E+02 0.  0.
<mgrwt>
<rscale>  0 0.18360848E+03</rscale>
<asrwt>0</asrwt>
<pdfrwt beam="1">  1        2 0.96019223E-01 0.18360848E+03</pdfrwt>
<pdfrwt beam="2">  1       -2 0.20774979E-02 0.18360848E+03</pdfrwt>
<totfact> 0.33895647E+04</totfact>
</mgrwt>
</event>
<event>
 4    1  0.4751076E-004  0.3064375E+03  0.7818608E-02  0.1082066E+00
          2   -1    0    0  501    0  0.00000000000E+00  0.00000000000E+00  0.18404076122E+03  0.18404076124E+03  0.25500000000E-02 0.  1.
         -2   -1    0    0    0  501 -0.00000000000E+00 -0.00000000000E+00 -0.12755860870E+03  0.12755860873E+03  0.25500000000E-02 0. -1.
    5000001    1    1    2    0    0  0.18534893205E+02 -0.12207052939E+03 -0.20548691768E+02  0.14695579316E+03  0.77000000000E+02 0.  0.
   -5000001    1    1    2    0    0 -0.18534893205E+02  0.12207052939E+03  0.77030844289E+02  0.16464357680E+03  0.77000000000E+02 0.  0.
<mgrwt>
<rscale>  0 0.30643749E+03</rscale>
<asrwt>0</asrwt>
<pdfrwt beam="1">  1        2 0.28313963E-01 0.30643749E+03</pdfrwt>
<pdfrwt beam="2">  1       -2 0.19624401E-01 0.30643749E+03</pdfrwt>
<totfact> 0.40569828E+03</totfact>
</mgrwt>
</event>
<event>
 4    1  0.4751076E-004  0.3408573E+03  0.7818608E-02  0.1066431E+00
         -2   -1    0    0    0  501 -0.00000000000E+00  0.00000000000E+00  0.25571366894E+02  0.25571367021E+02  0.25500000000E-02 0. -1.
          2   -1    0    0  501    0  0.00000000000E+00 -0.00000000000E+00 -0.11358767534E+04  0.11358767534E+04  0.25500000000E-02 0.  1.
    5000001    1    1    2    0    0 -0.83150036167E+01 -0.12840454668E+03 -0.83113482307E+03  0.84455370523E+03  0.77000000000E+02 0.  0.
   -5000001    1    1    2    0    0  0.83150036167E+01  0.12840454668E+03 -0.27917056343E+03  0.31689441519E+03  0.77000000000E+02 0.  0.
<mgrwt>
<rscale>  0 0.34085728E+03</rscale>
<asrwt>0</asrwt>
<pdfrwt beam="1">  1        2 0.17475023E+00 0.34085728E+03</pdfrwt>
<pdfrwt beam="2">  1       -2 0.39340574E-02 0.34085728E+03</pdfrwt>
<totfact> 0.61562050E+03</totfact>
</mgrwt>
</event>
<event>
 4    1  0.4751076E-004  0.4941456E+03  0.7818608E-02  0.1015318E+00
          2   -1    0    0  501    0  0.00000000000E+00  0.00000000000E+00  0.20937169173E+04  0.20937169173E+04  0.25500000000E-02 0.  1.
         -2   -1    0    0    0  501 -0.00000000000E+00 -0.00000000000E+00 -0.29156268214E+02  0.29156268325E+02  0.25500000000E-02 0. -1.
    5000001    1    1    2    0    0 -0.23472887417E+03 -0.32812868061E+01  0.10204674345E+04  0.10499481873E+04  0.77000000000E+02 0.  0.
   -5000001    1    1    2    0    0  0.23472887417E+03  0.32812868061E+01  0.10440932146E+04  0.10729249983E+04  0.77000000000E+02 0.  0.
<mgrwt>
<rscale>  0 0.49414561E+03</rscale>
<asrwt>0</asrwt>
<pdfrwt beam="1">  1        2 0.32211039E+00 0.49414561E+03</pdfrwt>
<pdfrwt beam="2">  1       -2 0.44855784E-02 0.49414561E+03</pdfrwt>
<totfact> 0.15060631E+03</totfact>
</mgrwt>
</event>
<event>
 4    1  0.4751076E-004  0.2213627E+03  0.7818608E-02  0.1132871E+00
         -2   -1    0    0    0  501 -0.00000000000E+00  0.00000000000E+00  0.43374376225E+01  0.43374383721E+01  0.25500000000E-02 0. -1.
          2   -1    0    0  501    0  0.00000000000E+00 -0.00000000000E+00 -0.28243304737E+04  0.28243304737E+04  0.25500000000E-02 0.  1.
    5000001    1    1    2    0    0  0.71820535229E+02 -0.34274739386E+01 -0.97639106840E+03  0.98205827490E+03  0.77000000000E+02 0.  0.
   -5000001    1    1    2    0    0 -0.71820535229E+02  0.34274739386E+01 -0.18436019677E+04  0.18466096372E+04  0.77000000000E+02 0.  0.
<mgrwt>
<rscale>  0 0.22136267E+03</rscale>
<asrwt>0</asrwt>
<pdfrwt beam="1">  1        2 0.43451091E+00 0.22136267E+03</pdfrwt>
<pdfrwt beam="2">  1       -2 0.66730041E-03 0.22136267E+03</pdfrwt>
<totfact> 0.10100895E+04</totfact>
</mgrwt>
</event>
<event>
 4    1  0.4751076E-004  0.2669957E+03  0.7818608E-02  0.1103011E+00
         -2   -1    0    0    0  501 -0.00000000000E+00  0.00000000000E+00  0.31123891949E+02  0.31123892053E+02  0.25500000000E-02 0. -1.
          2   -1    0    0  501    0  0.00000000000E+00 -0.00000000000E+00 -0.57260434697E+03  0.57260434698E+03  0.25500000000E-02 0.  1.
    5000001    1    1    2    0    0  0.48779388854E+02 -0.91939564528E+02 -0.34437189243E+03  0.36790394480E+03  0.77000000000E+02 0.  0.
   -5000001    1    1    2    0    0 -0.48779388854E+02  0.91939564528E+02 -0.19710856259E+03  0.23582429423E+03  0.77000000000E+02 0.  0.
<mgrwt>
<rscale>  0 0.26699570E+03</rscale>
<asrwt>0</asrwt>
<pdfrwt beam="1">  1        2 0.88092969E-01 0.26699570E+03</pdfrwt>
<pdfrwt beam="2">  1       -2 0.47882915E-02 0.26699570E+03</pdfrwt>
<totfact> 0.11071837E+04</totfact>
</mgrwt>
</event>
<event>
 4    1  0.4751076E-004  0.2278983E+03  0.7818608E-02  0.1128128E+00
          2   -1    0    0  501    0  0.00000000000E+00  0.00000000000E+00  0.10630559575E+03  0.10630559578E+03  0.25500000000E-02 0.  1.
         -2   -1    0    0    0  501 -0.00000000000E+00 -0.00000000000E+00 -0.12214225781E+03  0.12214225783E+03  0.25500000000E-02 0. -1.
    5000001    1    1    2    0    0 -0.82507521072E+02 -0.12715475314E+02  0.13901350655E+01  0.11357863717E+03  0.77000000000E+02 0.  0.
   -5000001    1    1    2    0    0  0.82507521072E+02  0.12715475314E+02 -0.17226797125E+02  0.11486921644E+03  0.77000000000E+02 0.  0.
<mgrwt>
<rscale>  0 0.22789827E+03</rscale>
<asrwt>0</asrwt>
<pdfrwt beam="1">  1        2 0.16354707E-01 0.22789827E+03</pdfrwt>
<pdfrwt beam="2">  1       -2 0.18791117E-01 0.22789827E+03</pdfrwt>
<totfact> 0.80560835E+03</totfact>
</mgrwt>
</event>
<event>
 4    1  0.4751076E-004  0.2390527E+03  0.7818608E-02  0.1120426E+00
         -2   -1    0    0    0  501 -0.00000000000E+00  0.00000000000E+00  0.47037649880E+02  0.47037649949E+02  0.25500000000E-02 0. -1.
          2   -1    0    0  501    0  0.00000000000E+00 -0.00000000000E+00 -0.30372575520E+03  0.30372575521E+03  0.25500000000E-02 0.  1.
    5000001    1    1    2    0    0 -0.43208703223E+01  0.43153055843E+02 -0.10258380636E+02  0.88966794492E+02  0.77000000000E+02 0.  0.
   -5000001    1    1    2    0    0  0.43208703223E+01 -0.43153055843E+02 -0.24642972469E+03  0.26179661067E+03  0.77000000000E+02 0.  0.
<mgrwt>
<rscale>  0 0.23905268E+03</rscale>
<asrwt>0</asrwt>
<pdfrwt beam="1">  1        2 0.46727038E-01 0.23905268E+03</pdfrwt>
<pdfrwt beam="2">  1       -2 0.72365617E-02 0.23905268E+03</pdfrwt>
<totfact> 0.11731643E+04</totfact>
</mgrwt>
</event>
<event>
 4    1  0.4751076E-004  0.2350124E+03  0.7818608E-02  0.1123161E+00
         -2   -1    0    0    0  501 -0.00000000000E+00  0.00000000000E+00  0.47248977557E+01  0.47248984439E+01  0.25500000000E-02 0. -1.
          2   -1    0    0  501    0  0.00000000000E+00 -0.00000000000E+00 -0.29223302303E+04  0.29223302303E+04  0.25500000000E-02 0.  1.
    5000001    1    1    2    0    0 -0.11001476740E+02 -0.87062959335E+02 -0.16248414822E+04  0.16290303354E+04  0.77000000000E+02 0.  0.
   -5000001    1    1    2    0    0  0.11001476740E+02  0.87062959335E+02 -0.12927638503E+04  0.12980247933E+04  0.77000000000E+02 0.  0.
<mgrwt>
<rscale>  0 0.23501245E+03</rscale>
<asrwt>0</asrwt>
<pdfrwt beam="1">  1        2 0.44958782E+00 0.23501245E+03</pdfrwt>
<pdfrwt beam="2">  1       -2 0.72690973E-03 0.23501245E+03</pdfrwt>
<totfact> 0.78423685E+03</totfact>
</mgrwt>
</event>
<event>
 4    1  0.4751076E-004  0.1801124E+03  0.7818608E-02  0.1167694E+00
          2   -1    0    0  501    0  0.00000000000E+00  0.00000000000E+00  0.95566811417E+03  0.95566811417E+03  0.25500000000E-02 0.  1.
         -2   -1    0    0    0  501 -0.00000000000E+00 -0.00000000000E+00 -0.84863364726E+01  0.84863368557E+01  0.25500000000E-02 0. -1.
    5000001    1    1    2    0    0 -0.64536023520E+01 -0.30833008650E+02  0.28902265232E+03  0.30075807048E+03  0.77000000000E+02 0.  0.
   -5000001    1    1    2    0    0  0.64536023520E+01  0.30833008650E+02  0.65815912538E+03  0.66339638055E+03  0.77000000000E+02 0.  0.
<mgrwt>
<rscale>  0 0.18011242E+03</rscale>
<asrwt>0</asrwt>
<pdfrwt beam="1">  1        2 0.14702575E+00 0.18011242E+03</pdfrwt>
<pdfrwt beam="2">  1       -2 0.13055913E-02 0.18011242E+03</pdfrwt>
<totfact> 0.39083455E+04</totfact>
</mgrwt>
</event>
<event>
 4    1  0.4751076E-004  0.1740633E+03  0.7818608E-02  0.1173675E+00
          2   -1    0    0  501    0  0.00000000000E+00  0.00000000000E+00  0.18389101000E+04  0.18389101000E+04  0.25500000000E-02 0.  1.
         -2   -1    0    0    0  501 -0.00000000000E+00 -0.00000000000E+00 -0.41190210143E+01  0.41190218036E+01  0.25500000000E-02 0. -1.
    5000001    1    1    2    0    0 -0.34701607594E+02 -0.81684005841E+01  0.11223231832E+04  0.11255262111E+04  0.77000000000E+02 0.  0.
   -5000001    1    1    2    0    0  0.34701607594E+02  0.81684005841E+01  0.71246789586E+03  0.71750291077E+03  0.77000000000E+02 0.  0.
<mgrwt>
<rscale>  0 0.17406332E+03</rscale>
<asrwt>0</asrwt>
<pdfrwt beam="1">  1        2 0.28290999E+00 0.17406332E+03</pdfrwt>
<pdfrwt beam="2">  1       -2 0.63369393E-03 0.17406332E+03</pdfrwt>
<totfact> 0.36367226E+04</totfact>
</mgrwt>
</event>
<event>
 4    1  0.4751076E-004  0.2056772E+03  0.7818608E-02  0.1145036E+00
         -2   -1    0    0    0  501 -0.00000000000E+00  0.00000000000E+00  0.14141008428E+02  0.14141008658E+02  0.25500000000E-02 0.  1.
          2   -1    0    0  501    0  0.00000000000E+00 -0.00000000000E+00 -0.74788000467E+03  0.74788000467E+03  0.25500000000E-02 0. -1.
    5000001    1    1    2    0    0  0.49615072642E+02  0.46745055464E+02 -0.36741771489E+03  0.38153837665E+03  0.77000000000E+02 0.  0.
   -5000001    1    1    2    0    0 -0.49615072642E+02 -0.46745055464E+02 -0.36632128135E+03  0.38048263668E+03  0.77000000000E+02 0.  0.
<mgrwt>
<rscale>  0 0.20567720E+03</rscale>
<asrwt>0</asrwt>
<pdfrwt beam="1">  1        2 0.11505843E+00 0.20567720E+03</pdfrwt>
<pdfrwt beam="2">  1       -2 0.21755404E-02 0.20567720E+03</pdfrwt>
<totfact> 0.25748966E+04</totfact>
</mgrwt>
</event>
<event>
 4    1  0.4751076E-004  0.3169991E+03  0.7818608E-02  0.1077039E+00
         -2   -1    0    0    0  501 -0.00000000000E+00  0.00000000000E+00  0.13710871044E+02  0.13710871281E+02  0.25500000000E-02 0. -1.
          2   -1    0    0  501    0  0.00000000000E+00 -0.00000000000E+00 -0.18322759966E+04  0.18322759966E+04  0.25500000000E-02 0.  1.
    5000001    1    1    2    0    0 -0.13233207417E+03  0.30497120517E+02 -0.74967176090E+03  0.76575361658E+03  0.77000000000E+02 0.  0.
   -5000001    1    1    2    0    0  0.13233207417E+03 -0.30497120517E+02 -0.10688933647E+04  0.10802332513E+04  0.77000000000E+02 0.  0.
<mgrwt>
<rscale>  0 0.31699905E+03</rscale>
<asrwt>0</asrwt>
<pdfrwt beam="1">  1        2 0.28188842E+00 0.31699905E+03</pdfrwt>
<pdfrwt beam="2">  1       -2 0.21093662E-02 0.31699905E+03</pdfrwt>
<totfact> 0.65115080E+03</totfact>
</mgrwt>
</event>
<event>
 4    1  0.4751076E-004  0.3026240E+03  0.7818608E-02  0.1083936E+00
         -2   -1    0    0    0  501 -0.00000000000E+00  0.00000000000E+00  0.15075120161E+02  0.15075120377E+02  0.25500000000E-02 0. -1.
          2   -1    0    0  501    0  0.00000000000E+00 -0.00000000000E+00 -0.15187485935E+04  0.15187485935E+04  0.25500000000E-02 0.  1.
    5000001    1    1    2    0    0  0.11207740791E+02  0.12677997515E+03 -0.89225488238E+03  0.90456981527E+03  0.77000000000E+02 0.  0.
   -5000001    1    1    2    0    0 -0.11207740791E+02 -0.12677997515E+03 -0.61141859094E+03  0.62925389860E+03  0.77000000000E+02 0.  0.
<mgrwt>
<rscale>  0 0.30262398E+03</rscale>
<asrwt>0</asrwt>
<pdfrwt beam="1">  1        2 0.23365351E+00 0.30262398E+03</pdfrwt>
<pdfrwt beam="2">  1       -2 0.23192505E-02 0.30262398E+03</pdfrwt>
<totfact> 0.82961582E+03</totfact>
</mgrwt>
</event>
<event>
 4    1  0.4751076E-004  0.2210314E+03  0.7818608E-02  0.1133116E+00
         -2   -1    0    0    0  501 -0.00000000000E+00  0.00000000000E+00  0.26630282036E+01  0.26630294245E+01  0.25500000000E-02 0.  1.
          2   -1    0    0  501    0  0.00000000000E+00 -0.00000000000E+00 -0.45864037866E+04  0.45864037866E+04  0.25500000000E-02 0. -1.
    5000001    1    1    2    0    0 -0.31826211346E+02 -0.69364534041E+02 -0.27373502879E+04  0.27394962941E+04  0.77000000000E+02 0.  0.
   -5000001    1    1    2    0    0  0.31826211346E+02  0.69364534041E+02 -0.18463904704E+04  0.18495705219E+04  0.77000000000E+02 0.  0.
<mgrwt>
<rscale>  0 0.22103145E+03</rscale>
<asrwt>0</asrwt>
<pdfrwt beam="1">  1        2 0.70559426E+00 0.22103145E+03</pdfrwt>
<pdfrwt beam="2">  1       -2 0.40970041E-03 0.22103145E+03</pdfrwt>
<totfact> 0.11051229E+03</totfact>
</mgrwt>
</event>
<event>
 4    1  0.4751076E-004  0.1976680E+03  0.7818608E-02  0.1151722E+00
         -2   -1    0    0    0  501 -0.00000000000E+00  0.00000000000E+00  0.50188387123E+02  0.50188387188E+02  0.25500000000E-02 0. -1.
          2   -1    0    0  501    0  0.00000000000E+00 -0.00000000000E+00 -0.19462983641E+03  0.19462983643E+03  0.25500000000E-02 0.  1.
    5000001    1    1    2    0    0 -0.11299091954E+02  0.60841173698E+02 -0.76105788123E+02  0.12470127859E+03  0.77000000000E+02 0.  0.
   -5000001    1    1    2    0    0  0.11299091954E+02 -0.60841173698E+02 -0.68335661167E+02  0.12011694503E+03  0.77000000000E+02 0.  0.
<mgrwt>
<rscale>  0 0.19766798E+03</rscale>
<asrwt>0</asrwt>
<pdfrwt beam="1">  1        2 0.29943051E-01 0.19766798E+03</pdfrwt>
<pdfrwt beam="2">  1       -2 0.77212904E-02 0.19766798E+03</pdfrwt>
<totfact> 0.16944366E+04</totfact>
</mgrwt>
</event>
<event>
 4    1  0.4751076E-004  0.2102700E+03  0.7818608E-02  0.1141352E+00
         -2   -1    0    0    0  501 -0.00000000000E+00  0.00000000000E+00  0.33380386915E+01  0.33380396655E+01  0.25500000000E-02 0. -1.
          2   -1    0    0  501    0  0.00000000000E+00 -0.00000000000E+00 -0.33113358246E+04  0.33113358246E+04  0.25500000000E-02 0.  1.
    5000001    1    1    2    0    0  0.59222951645E+02  0.29204766974E+02 -0.12182499000E+04  0.12224655804E+04  0.77000000000E+02 0.  0.
   -5000001    1    1    2    0    0 -0.59222951645E+02 -0.29204766974E+02 -0.20897478859E+04  0.20922082838E+04  0.77000000000E+02 0.  0.
<mgrwt>
<rscale>  0 0.21027000E+03</rscale>
<asrwt>0</asrwt>
<pdfrwt beam="1">  1        2 0.50943365E+00 0.21027000E+03</pdfrwt>
<pdfrwt beam="2">  1       -2 0.51354714E-03 0.21027000E+03</pdfrwt>
<totfact> 0.75302010E+03</totfact>
</mgrwt>
</event>
<event>
 4    1  0.4751076E-004  0.3505194E+03  0.7818608E-02  0.1062402E+00
         -2   -1    0    0    0  501 -0.00000000000E+00  0.00000000000E+00  0.13273954228E+03  0.13273954231E+03  0.25500000000E-02 0. -1.
          2   -1    0    0  501    0  0.00000000000E+00 -0.00000000000E+00 -0.23140019747E+03  0.23140019748E+03  0.25500000000E-02 0.  1.
    5000001    1    1    2    0    0  0.89525075081E+02 -0.12204679903E+03 -0.94335725448E+02  0.19426371076E+03  0.77000000000E+02 0.  0.
   -5000001    1    1    2    0    0 -0.89525075081E+02  0.12204679903E+03 -0.43249297377E+01  0.16987602903E+03  0.77000000000E+02 0.  0.
<mgrwt>
<rscale>  0 0.35051936E+03</rscale>
<asrwt>0</asrwt>
<pdfrwt beam="1">  1        2 0.35600030E-01 0.35051936E+03</pdfrwt>
<pdfrwt beam="2">  1       -2 0.20421468E-01 0.35051936E+03</pdfrwt>
<totfact> 0.29547423E+03</totfact>
</mgrwt>
</event>
<event>
 4    1  0.4751076E-004  0.2174031E+03  0.7818608E-02  0.1135834E+00
         -2   -1    0    0    0  501 -0.00000000000E+00  0.00000000000E+00  0.39868675418E+01  0.39868683573E+01  0.25500000000E-02 0. -1.
          2   -1    0    0  501    0  0.00000000000E+00 -0.00000000000E+00 -0.29637361505E+04  0.29637361505E+04  0.25500000000E-02 0.  1.
    5000001    1    1    2    0    0  0.65665309855E+02  0.39062820263E+02 -0.13841361685E+04  0.13883802684E+04  0.77000000000E+02 0.  0.
   -5000001    1    1    2    0    0 -0.65665309855E+02 -0.39062820263E+02 -0.15756131145E+04  0.15793427505E+04  0.77000000000E+02 0.  0.
<mgrwt>
<rscale>  0 0.21740308E+03</rscale>
<asrwt>0</asrwt>
<pdfrwt beam="1">  1        2 0.45595765E+00 0.21740308E+03</pdfrwt>
<pdfrwt beam="2">  1       -2 0.61336667E-03 0.21740308E+03</pdfrwt>
<totfact> 0.94720953E+03</totfact>
</mgrwt>
</event>
<event>
 4    1  0.4751076E-004  0.1752493E+03  0.7818608E-02  0.1172482E+00
          2   -1    0    0  501    0  0.00000000000E+00  0.00000000000E+00  0.11996642320E+03  0.11996642322E+03  0.25500000000E-02 0. -1.
         -2   -1    0    0    0  501 -0.00000000000E+00 -0.00000000000E+00 -0.64001910002E+02  0.64001910053E+02  0.25500000000E-02 0.  1.
    5000001    1    1    2    0    0  0.24712069393E+01 -0.21805090337E+02  0.65355663747E+02  0.10335343058E+03  0.77000000000E+02 0.  0.
   -5000001    1    1    2    0    0 -0.24712069393E+01  0.21805090337E+02 -0.93911505534E+01  0.80614902698E+02  0.77000000000E+02 0.  0.
<mgrwt>
<rscale>  0 0.17524931E+03</rscale>
<asrwt>0</asrwt>
<pdfrwt beam="1">  1        2 0.18456372E-01 0.17524931E+03</pdfrwt>
<pdfrwt beam="2">  1       -2 0.98464479E-02 0.17524931E+03</pdfrwt>
<totfact> 0.19713848E+04</totfact>
</mgrwt>
</event>
<event>
 4    1  0.4751076E-004  0.3519600E+03  0.7818608E-02  0.1061813E+00
          2   -1    0    0  501    0  0.00000000000E+00  0.00000000000E+00  0.71042255336E+03  0.71042255337E+03  0.25500000000E-02 0.  1.
         -2   -1    0    0    0  501 -0.00000000000E+00 -0.00000000000E+00 -0.43592309879E+02  0.43592309954E+02  0.25500000000E-02 0. -1.
    5000001    1    1    2    0    0 -0.12104054918E+03  0.89059306996E+02  0.22721111292E+03  0.28308349394E+03  0.77000000000E+02 0.  0.
   -5000001    1    1    2    0    0  0.12104054918E+03 -0.89059306996E+02  0.43961913056E+03  0.47093136938E+03  0.77000000000E+02 0.  0.
<mgrwt>
<rscale>  0 0.35196000E+03</rscale>
<asrwt>0</asrwt>
<pdfrwt beam="1">  1        2 0.10929577E+00 0.35196000E+03</pdfrwt>
<pdfrwt beam="2">  1       -2 0.67065098E-02 0.35196000E+03</pdfrwt>
<totfact> 0.51523928E+03</totfact>
</mgrwt>
</event>
<event>
 4    1  0.4751076E-004  0.2266461E+03  0.7818608E-02  0.1129023E+00
         -2   -1    0    0    0  501 -0.00000000000E+00  0.00000000000E+00  0.17104634137E+02  0.17104634327E+02  0.25500000000E-02 0. -1.
          2   -1    0    0  501    0  0.00000000000E+00 -0.00000000000E+00 -0.75079709928E+03  0.75079709929E+03  0.25500000000E-02 0.  1.
    5000001    1    1    2    0    0 -0.52083038968E+02  0.63246664648E+02 -0.41480040214E+03  0.42976872519E+03  0.77000000000E+02 0.  0.
   -5000001    1    1    2    0    0  0.52083038968E+02 -0.63246664648E+02 -0.31889206301E+03  0.33813300843E+03  0.77000000000E+02 0.  0.
<mgrwt>
<rscale>  0 0.22664607E+03</rscale>
<asrwt>0</asrwt>
<pdfrwt beam="1">  1        2 0.11550722E+00 0.22664607E+03</pdfrwt>
<pdfrwt beam="2">  1       -2 0.26314828E-02 0.22664607E+03</pdfrwt>
<totfact> 0.19484354E+04</totfact>
</mgrwt>
</event>
<event>
 4    1  0.4751076E-004  0.2154057E+03  0.7818608E-02  0.1137355E+00
          2   -1    0    0  501    0  0.00000000000E+00  0.00000000000E+00  0.21438578085E+02  0.21438578236E+02  0.25500000000E-02 0.  1.
         -2   -1    0    0    0  501 -0.00000000000E+00 -0.00000000000E+00 -0.54107625021E+03  0.54107625021E+03  0.25500000000E-02 0. -1.
    5000001    1    1    2    0    0  0.28847939006E+02  0.40470885141E+02 -0.11207592285E+03  0.14477606367E+03  0.77000000000E+02 0.  0.
   -5000001    1    1    2    0    0 -0.28847939006E+02 -0.40470885141E+02 -0.40756174928E+03  0.41773876479E+03  0.77000000000E+02 0.  0.
<mgrwt>
<rscale>  0 0.21540571E+03</rscale>
<asrwt>0</asrwt>
<pdfrwt beam="1">  1        2 0.32982432E-02 0.21540571E+03</pdfrwt>
<pdfrwt beam="2">  1       -2 0.83242489E-01 0.21540571E+03</pdfrwt>
<totfact> 0.35305548E+03</totfact>
</mgrwt>
</event>
<event>
 4    1  0.4751076E-004  0.2773127E+03  0.7818608E-02  0.1097166E+00
          2   -1    0    0  501    0  0.00000000000E+00  0.00000000000E+00  0.39187452747E+03  0.39187452748E+03  0.25500000000E-02 0.  1.
         -2   -1    0    0    0  501 -0.00000000000E+00 -0.00000000000E+00 -0.49060559736E+02  0.49060559802E+02  0.25500000000E-02 0. -1.
    5000001    1    1    2    0    0  0.36330797274E+02  0.57760576731E+02  0.31920586035E+03  0.33537679159E+03  0.77000000000E+02 0.  0.
   -5000001    1    1    2    0    0 -0.36330797274E+02 -0.57760576731E+02  0.23608107383E+02  0.10555829569E+03  0.77000000000E+02 0.  0.
<mgrwt>
<rscale>  0 0.27731270E+03</rscale>
<asrwt>0</asrwt>
<pdfrwt beam="1">  1        2 0.60288388E-01 0.27731270E+03</pdfrwt>
<pdfrwt beam="2">  1       -2 0.75477786E-02 0.27731270E+03</pdfrwt>
<totfact> 0.84059267E+03</totfact>
</mgrwt>
</event>
<event>
 4    1  0.4751076E-004  0.3217721E+03  0.7818608E-02  0.1074837E+00
          2   -1    0    0  501    0  0.00000000000E+00  0.00000000000E+00  0.85821305816E+02  0.85821305854E+02  0.25500000000E-02 0.  1.
         -2   -1    0    0    0  501 -0.00000000000E+00 -0.00000000000E+00 -0.30160723156E+03  0.30160723157E+03  0.25500000000E-02 0. -1.
    5000001    1    1    2    0    0 -0.12430833513E+03  0.56466725388E+02 -0.64242786378E+02  0.16940244644E+03  0.77000000000E+02 0.  0.
   -5000001    1    1    2    0    0  0.12430833513E+03 -0.56466725388E+02 -0.15154313937E+03  0.21802609098E+03  0.77000000000E+02 0.  0.
<mgrwt>
<rscale>  0 0.32177213E+03</rscale>
<asrwt>0</asrwt>
<pdfrwt beam="1">  1        2 0.13203278E-01 0.32177213E+03</pdfrwt>
<pdfrwt beam="2">  1       -2 0.46401112E-01 0.32177213E+03</pdfrwt>
<totfact> 0.20323880E+03</totfact>
</mgrwt>
</event>
<event>
 4    1  0.4751076E-004  0.3155826E+03  0.7818608E-02  0.1077700E+00
         -2   -1    0    0    0  501 -0.00000000000E+00  0.00000000000E+00  0.23150202329E+02  0.23150202469E+02  0.25500000000E-02 0. -1.
          2   -1    0    0  501    0  0.00000000000E+00 -0.00000000000E+00 -0.10755021249E+04  0.10755021250E+04  0.25500000000E-02 0.  1.
    5000001    1    1    2    0    0 -0.53494756908E+02  0.11009361692E+03 -0.30635991711E+03  0.33877380700E+03  0.77000000000E+02 0.  0.
   -5000001    1    1    2    0    0  0.53494756908E+02 -0.11009361692E+03 -0.74599200551E+03  0.75987852042E+03  0.77000000000E+02 0.  0.
<mgrwt>
<rscale>  0 0.31558258E+03</rscale>
<asrwt>0</asrwt>
<pdfrwt beam="1">  1        2 0.16546183E+00 0.31558258E+03</pdfrwt>
<pdfrwt beam="2">  1       -2 0.35615704E-02 0.31558258E+03</pdfrwt>
<totfact> 0.77543146E+03</totfact>
</mgrwt>
</event>
<event>
 4    1  0.4751076E-004  0.3293416E+03  0.7818608E-02  0.1071429E+00
         -2   -1    0    0    0  501 -0.00000000000E+00  0.00000000000E+00  0.10507451015E+03  0.10507451018E+03  0.25500000000E-02 0. -1.
          2   -1    0    0  501    0  0.00000000000E+00 -0.00000000000E+00 -0.25806891061E+03  0.25806891062E+03  0.25500000000E-02 0.  1.
    5000001    1    1    2    0    0  0.13575174338E+03  0.28072629712E+01 -0.13433086629E+03  0.20593736474E+03  0.77000000000E+02 0.  0.
   -5000001    1    1    2    0    0 -0.13575174338E+03 -0.28072629712E+01 -0.18663534167E+02  0.15720605607E+03  0.77000000000E+02 0.  0.
<mgrwt>
<rscale>  0 0.32934155E+03</rscale>
<asrwt>0</asrwt>
<pdfrwt beam="1">  1        2 0.39702909E-01 0.32934155E+03</pdfrwt>
<pdfrwt beam="2">  1       -2 0.16165309E-01 0.32934155E+03</pdfrwt>
<totfact> 0.38967754E+03</totfact>
</mgrwt>
</event>
<event>
 4    1  0.4751076E-004  0.2049395E+03  0.7818608E-02  0.1145637E+00
         -2   -1    0    0    0  501 -0.00000000000E+00  0.00000000000E+00  0.47729973487E+02  0.47729973555E+02  0.25500000000E-02 0. -1.
          2   -1    0    0  501    0  0.00000000000E+00 -0.00000000000E+00 -0.21998851521E+03  0.21998851523E+03  0.25500000000E-02 0.  1.
    5000001    1    1    2    0    0 -0.59836098787E+02 -0.78360231087E+01 -0.46306909792E+02  0.10823627798E+03  0.77000000000E+02 0.  0.
   -5000001    1    1    2    0    0  0.59836098787E+02  0.78360231087E+01 -0.12595163193E+03  0.15948221080E+03  0.77000000000E+02 0.  0.
<mgrwt>
<rscale>  0 0.20493946E+03</rscale>
<asrwt>0</asrwt>
<pdfrwt beam="1">  1        2 0.33844386E-01 0.20493946E+03</pdfrwt>
<pdfrwt beam="2">  1       -2 0.73430730E-02 0.20493946E+03</pdfrwt>
<totfact> 0.16072896E+04</totfact>
</mgrwt>
</event>
<event>
 4    1  0.4751076E-004  0.2040432E+03  0.7818608E-02  0.1146372E+00
         -2   -1    0    0    0  501 -0.00000000000E+00  0.00000000000E+00  0.31154200805E+02  0.31154200910E+02  0.25500000000E-02 0. -1.
          2   -1    0    0  501    0  0.00000000000E+00 -0.00000000000E+00 -0.33409323900E+03  0.33409323901E+03  0.25500000000E-02 0.  1.
    5000001    1    1    2    0    0  0.35692283454E+02 -0.56604418121E+02 -0.14934498795E+03  0.18086161747E+03  0.77000000000E+02 0.  0.
   -5000001    1    1    2    0    0 -0.35692283454E+02  0.56604418121E+02 -0.15359405025E+03  0.18438582245E+03  0.77000000000E+02 0.  0.
<mgrwt>
<rscale>  0 0.20404321E+03</rscale>
<asrwt>0</asrwt>
<pdfrwt beam="1">  1        2 0.51398957E-01 0.20404321E+03</pdfrwt>
<pdfrwt beam="2">  1       -2 0.47929542E-02 0.20404321E+03</pdfrwt>
<totfact> 0.19684618E+04</totfact>
</mgrwt>
</event>
<event>
 4    1  0.4751076E-004  0.2175381E+03  0.7818608E-02  0.1135732E+00
          2   -1    0    0  501    0  0.00000000000E+00  0.00000000000E+00  0.19016982446E+02  0.19016982617E+02  0.25500000000E-02 0.  1.
         -2   -1    0    0    0  501 -0.00000000000E+00 -0.00000000000E+00 -0.62211282007E+03  0.62211282007E+03  0.25500000000E-02 0. -1.
    5000001    1    1    2    0    0  0.42391762291E+02  0.20007988302E+02 -0.12217152863E+03  0.15182971881E+03  0.77000000000E+02 0.  0.
   -5000001    1    1    2    0    0 -0.42391762291E+02 -0.20007988302E+02 -0.48092430899E+03  0.48930008388E+03  0.77000000000E+02 0.  0.
<mgrwt>
<rscale>  0 0.21753812E+03</rscale>
<asrwt>0</asrwt>
<pdfrwt beam="1">  1        2 0.29256901E-02 0.21753812E+03</pdfrwt>
<pdfrwt beam="2">  1       -2 0.95709649E-01 0.21753812E+03</pdfrwt>
<totfact> 0.30337339E+03</totfact>
</mgrwt>
</event>
<event>
 4    1  0.4751076E-004  0.2896037E+03  0.7818608E-02  0.1090556E+00
          2   -1    0    0  501    0  0.00000000000E+00  0.00000000000E+00  0.46186275057E+04  0.46186275057E+04  0.25500000000E-02 0. -1.
         -2   -1    0    0    0  501 -0.00000000000E+00 -0.00000000000E+00 -0.45397844369E+01  0.45397851531E+01  0.25500000000E-02 0.  1.
    5000001    1    1    2    0    0 -0.10664519306E+03  0.52359195062E+02  0.18218154595E+04  0.18273081981E+04  0.77000000000E+02 0.  0.
   -5000001    1    1    2    0    0  0.10664519306E+03 -0.52359195062E+02  0.27922722618E+04  0.27958590927E+04  0.77000000000E+02 0.  0.
<mgrwt>
<rscale>  0 0.28960369E+03</rscale>
<asrwt>0</asrwt>
<pdfrwt beam="1">  1        2 0.71055661E+00 0.28960369E+03</pdfrwt>
<pdfrwt beam="2">  1       -2 0.69842988E-03 0.28960369E+03</pdfrwt>
<totfact> 0.46729869E+02</totfact>
</mgrwt>
</event>
<event>
 4    1  0.4751076E-004  0.5129661E+03  0.7818608E-02  0.1010449E+00
         -2   -1    0    0    0  501 -0.00000000000E+00  0.00000000000E+00  0.19347416259E+03  0.19347416260E+03  0.25500000000E-02 0. -1.
          2   -1    0    0  501    0  0.00000000000E+00 -0.00000000000E+00 -0.34001211731E+03  0.34001211732E+03  0.25500000000E-02 0.  1.
    5000001    1    1    2    0    0 -0.20464079321E+03 -0.95565883188E+01  0.65817088838E+02  0.22853899406E+03  0.77000000000E+02 0.  0.
   -5000001    1    1    2    0    0  0.20464079321E+03  0.95565883188E+01 -0.21235504356E+03  0.30494728586E+03  0.77000000000E+02 0.  0.
<mgrwt>
<rscale>  0 0.51296612E+03</rscale>
<asrwt>0</asrwt>
<pdfrwt beam="1">  1        2 0.52309556E-01 0.51296612E+03</pdfrwt>
<pdfrwt beam="2">  1       -2 0.29765256E-01 0.51296612E+03</pdfrwt>
<totfact> 0.99490307E+02</totfact>
</mgrwt>
</event>
<event>
 4    1  0.4751076E-004  0.2605301E+03  0.7818608E-02  0.1106825E+00
          2   -1    0    0  501    0  0.00000000000E+00  0.00000000000E+00  0.12226773579E+04  0.12226773579E+04  0.25500000000E-02 0.  1.
         -2   -1    0    0    0  501 -0.00000000000E+00 -0.00000000000E+00 -0.13878542446E+02  0.13878542680E+02  0.25500000000E-02 0. -1.
    5000001    1    1    2    0    0  0.25372140291E+02  0.94830075717E+02  0.78221126068E+03  0.79209844407E+03  0.77000000000E+02 0.  0.
   -5000001    1    1    2    0    0 -0.25372140291E+02 -0.94830075717E+02  0.42658755481E+03  0.44445745655E+03  0.77000000000E+02 0.  0.
<mgrwt>
<rscale>  0 0.26053007E+03</rscale>
<asrwt>0</asrwt>
<pdfrwt beam="1">  1        2 0.18810416E+00 0.26053007E+03</pdfrwt>
<pdfrwt beam="2">  1       -2 0.21351609E-02 0.26053007E+03</pdfrwt>
<totfact> 0.13569564E+04</totfact>
</mgrwt>
</event>
<event>
 4    1  0.4751076E-004  0.3279595E+03  0.7818608E-02  0.1072043E+00
         -2   -1    0    0    0  501 -0.00000000000E+00  0.00000000000E+00  0.61767986213E+03  0.61767986214E+03  0.25500000000E-02 0. -1.
          2   -1    0    0  501    0  0.00000000000E+00 -0.00000000000E+00 -0.43532830814E+02  0.43532830889E+02  0.25500000000E-02 0.  1.
    5000001    1    1    2    0    0  0.84322534298E+02 -0.66338076124E+02  0.91089183396E+02  0.16042839358E+03  0.77000000000E+02 0.  0.
   -5000001    1    1    2    0    0 -0.84322534298E+02  0.66338076124E+02  0.48305784792E+03  0.50078429945E+03  0.77000000000E+02 0.  0.
<mgrwt>
<rscale>  0 0.32795947E+03</rscale>
<asrwt>0</asrwt>
<pdfrwt beam="1">  1        2 0.66973584E-02 0.32795947E+03</pdfrwt>
<pdfrwt beam="2">  1       -2 0.95027673E-01 0.32795947E+03</pdfrwt>
<totfact> 0.10372483E+03</totfact>
</mgrwt>
</event>
<event>
 4    1  0.4751076E-004  0.4897952E+03  0.7818608E-02  0.1016477E+00
          2   -1    0    0  501    0  0.00000000000E+00  0.00000000000E+00  0.33205104109E+03  0.33205104110E+03  0.25500000000E-02 0.  1.
         -2   -1    0    0    0  501 -0.00000000000E+00 -0.00000000000E+00 -0.18061935751E+03  0.18061935753E+03  0.25500000000E-02 0. -1.
    5000001    1    1    2    0    0 -0.23128451798E+03  0.21407804822E+02  0.85919098925E+02  0.25934901952E+03  0.77000000000E+02 0.  0.
   -5000001    1    1    2    0    0  0.23128451798E+03 -0.21407804822E+02  0.65512584650E+02  0.25332137911E+03  0.77000000000E+02 0.  0.
<mgrwt>
<rscale>  0 0.48979525E+03</rscale>
<asrwt>0</asrwt>
<pdfrwt beam="1">  1        2 0.51084775E-01 0.48979525E+03</pdfrwt>
<pdfrwt beam="2">  1       -2 0.27787594E-01 0.48979525E+03</pdfrwt>
<totfact> 0.11580702E+03</totfact>
</mgrwt>
</event>
<event>
 4    1  0.4751076E-004  0.2649978E+03  0.7818608E-02  0.1104177E+00
         -2   -1    0    0    0  501 -0.00000000000E+00  0.00000000000E+00  0.15494776699E+02  0.15494776909E+02  0.25500000000E-02 0. -1.
          2   -1    0    0  501    0  0.00000000000E+00 -0.00000000000E+00 -0.11330241327E+04  0.11330241327E+04  0.25500000000E-02 0.  1.
    5000001    1    1    2    0    0 -0.10753351405E+03  0.51162299937E+01 -0.58524283009E+03  0.60002316841E+03  0.77000000000E+02 0.  0.
   -5000001    1    1    2    0    0  0.10753351405E+03 -0.51162299937E+01 -0.53228652594E+03  0.54849574124E+03  0.77000000000E+02 0.  0.
<mgrwt>
<rscale>  0 0.26499778E+03</rscale>
<asrwt>0</asrwt>
<pdfrwt beam="1">  1        2 0.17431134E+00 0.26499778E+03</pdfrwt>
<pdfrwt beam="2">  1       -2 0.23838127E-02 0.26499778E+03</pdfrwt>
<totfact> 0.12986280E+04</totfact>
</mgrwt>
</event>
<event>
 4    1  0.4751076E-004  0.4805542E+03  0.7818608E-02  0.1018983E+00
         -2   -1    0    0    0  501 -0.00000000000E+00  0.00000000000E+00  0.32558350309E+03  0.32558350310E+03  0.25500000000E-02 0. -1.
          2   -1    0    0  501    0  0.00000000000E+00 -0.00000000000E+00 -0.17732189484E+03  0.17732189485E+03  0.25500000000E-02 0.  1.
    5000001    1    1    2    0    0 -0.22263515251E+03 -0.26303319409E+02  0.32985365793E+02  0.23932260675E+03  0.77000000000E+02 0.  0.
   -5000001    1    1    2    0    0  0.22263515251E+03  0.26303319409E+02  0.11527624246E+03  0.26358279120E+03  0.77000000000E+02 0.  0.
<mgrwt>
<rscale>  0 0.48055420E+03</rscale>
<asrwt>0</asrwt>
<pdfrwt beam="1">  1        2 0.27280292E-01 0.48055420E+03</pdfrwt>
<pdfrwt beam="2">  1       -2 0.50089770E-01 0.48055420E+03</pdfrwt>
<totfact> 0.75103751E+02</totfact>
</mgrwt>
</event>
<event>
 4    1  0.4751076E-004  0.2253546E+03  0.7818608E-02  0.1129953E+00
         -2   -1    0    0    0  501 -0.00000000000E+00  0.00000000000E+00  0.18979166927E+02  0.18979167099E+02  0.25500000000E-02 0. -1.
          2   -1    0    0  501    0  0.00000000000E+00 -0.00000000000E+00 -0.66895319270E+03  0.66895319271E+03  0.25500000000E-02 0.  1.
    5000001    1    1    2    0    0  0.31393548000E+02  0.14253993670E+02 -0.96986506880E+02  0.12854615400E+03  0.77000000000E+02 0.  0.
   -5000001    1    1    2    0    0 -0.31393548000E+02 -0.14253993670E+02 -0.55298751890E+03  0.55938620581E+03  0.77000000000E+02 0.  0.
<mgrwt>
<rscale>  0 0.22535460E+03</rscale>
<asrwt>0</asrwt>
<pdfrwt beam="1">  1        2 0.10291586E+00 0.22535460E+03</pdfrwt>
<pdfrwt beam="2">  1       -2 0.29198724E-02 0.22535460E+03</pdfrwt>
<totfact> 0.19208264E+04</totfact>
</mgrwt>
</event>
<event>
 4    1  0.4751076E-004  0.2309060E+03  0.7818608E-02  0.1126004E+00
         -2   -1    0    0    0  501 -0.00000000000E+00  0.00000000000E+00  0.36774249024E+02  0.36774249112E+02  0.25500000000E-02 0. -1.
          2   -1    0    0  501    0  0.00000000000E+00 -0.00000000000E+00 -0.36246542487E+03  0.36246542488E+03  0.25500000000E-02 0.  1.
    5000001    1    1    2    0    0 -0.75199429344E+02 -0.41767842646E+02 -0.16121722462E+03  0.19829145309E+03  0.77000000000E+02 0.  0.
   -5000001    1    1    2    0    0  0.75199429344E+02  0.41767842646E+02 -0.16447395123E+03  0.20094822091E+03  0.77000000000E+02 0.  0.
<mgrwt>
<rscale>  0 0.23090599E+03</rscale>
<asrwt>0</asrwt>
<pdfrwt beam="1">  1        2 0.55763909E-01 0.23090599E+03</pdfrwt>
<pdfrwt beam="2">  1       -2 0.56575770E-02 0.23090599E+03</pdfrwt>
<totfact> 0.14135375E+04</totfact>
</mgrwt>
</event>
<event>
 4    1  0.4751076E-004  0.3152821E+03  0.7818608E-02  0.1077841E+00
         -2   -1    0    0    0  501 -0.00000000000E+00  0.00000000000E+00  0.32546645282E+02  0.32546645382E+02  0.25500000000E-02 0. -1.
          2   -1    0    0  501    0  0.00000000000E+00 -0.00000000000E+00 -0.76354107588E+03  0.76354107588E+03  0.25500000000E-02 0.  1.
    5000001    1    1    2    0    0 -0.10618479387E+03  0.84851485891E+02 -0.41886474705E+03  0.44704771717E+03  0.77000000000E+02 0.  0.
   -5000001    1    1    2    0    0  0.10618479387E+03 -0.84851485891E+02 -0.31212968354E+03  0.34904000409E+03  0.77000000000E+02 0.  0.
<mgrwt>
<rscale>  0 0.31528210E+03</rscale>
<asrwt>0</asrwt>
<pdfrwt beam="1">  1        2 0.11746785E+00 0.31528210E+03</pdfrwt>
<pdfrwt beam="2">  1       -2 0.50071767E-02 0.31528210E+03</pdfrwt>
<totfact> 0.73683141E+03</totfact>
</mgrwt>
</event>
<event>
 4    1  0.4751076E-004  0.6008387E+03  0.7818608E-02  0.9903667E-01
          2   -1    0    0  501    0  0.00000000000E+00  0.00000000000E+00  0.77738221414E+03  0.77738221414E+03  0.25500000000E-02 0.  1.
         -2   -1    0    0    0  501 -0.00000000000E+00 -0.00000000000E+00 -0.11609706902E+03  0.11609706905E+03  0.25500000000E-02 0. -1.
    5000001    1    1    2    0    0  0.25955850075E+03 -0.11403114270E+02  0.13777140148E+03  0.30399112716E+03  0.77000000000E+02 0.  0.
   -5000001    1    1    2    0    0 -0.25955850075E+03  0.11403114270E+02  0.52351374363E+03  0.58948815603E+03  0.77000000000E+02 0.  0.
<mgrwt>
<rscale>  0 0.60083874E+03</rscale>
<asrwt>0</asrwt>
<pdfrwt beam="1">  1        2 0.11959726E+00 0.60083874E+03</pdfrwt>
<pdfrwt beam="2">  1       -2 0.17861088E-01 0.60083874E+03</pdfrwt>
<totfact> 0.93479151E+02</totfact>
</mgrwt>
</event>
<event>
 4    1  0.4751076E-004  0.2565349E+03  0.7818608E-02  0.1109243E+00
          2   -1    0    0  501    0  0.00000000000E+00  0.00000000000E+00  0.32035205492E+03  0.32035205493E+03  0.25500000000E-02 0.  1.
         -2   -1    0    0    0  501 -0.00000000000E+00 -0.00000000000E+00 -0.51357689306E+02  0.51357689370E+02  0.25500000000E-02 0. -1.
    5000001    1    1    2    0    0  0.72978310907E+02 -0.70178649936E+02  0.15842327620E+03  0.20316941505E+03  0.77000000000E+02 0.  0.
   -5000001    1    1    2    0    0 -0.72978310907E+02  0.70178649936E+02  0.11057108942E+03  0.16854032925E+03  0.77000000000E+02 0.  0.
<mgrwt>
<rscale>  0 0.25653492E+03</rscale>
<asrwt>0</asrwt>
<pdfrwt beam="1">  1        2 0.49284932E-01 0.25653492E+03</pdfrwt>
<pdfrwt beam="2">  1       -2 0.79011829E-02 0.25653492E+03</pdfrwt>
<totfact> 0.96982468E+03</totfact>
</mgrwt>
</event>
<event>
 4    1  0.4751076E-004  0.2698778E+03  0.7818608E-02  0.1101350E+00
          2   -1    0    0  501    0  0.00000000000E+00  0.00000000000E+00  0.10370152199E+04  0.10370152199E+04  0.25500000000E-02 0.  1.
         -2   -1    0    0    0  501 -0.00000000000E+00 -0.00000000000E+00 -0.17558571988E+02  0.17558572173E+02  0.25500000000E-02 0. -1.
    5000001    1    1    2    0    0  0.10153084626E+03  0.41164858093E+02  0.57469889804E+03  0.59009396006E+03  0.77000000000E+02 0.  0.
   -5000001    1    1    2    0    0 -0.10153084626E+03 -0.41164858093E+02  0.44475774992E+03  0.46447983206E+03  0.77000000000E+02 0.  0.
<mgrwt>
<rscale>  0 0.26987780E+03</rscale>
<asrwt>0</asrwt>
<pdfrwt beam="1">  1        2 0.15954081E+00 0.26987780E+03</pdfrwt>
<pdfrwt beam="2">  1       -2 0.27013187E-02 0.26987780E+03</pdfrwt>
<totfact> 0.12304738E+04</totfact>
</mgrwt>
</event>
<event>
 4    1  0.4751076E-004  0.2004649E+03  0.7818608E-02  0.1149347E+00
         -2   -1    0    0    0  501 -0.00000000000E+00  0.00000000000E+00  0.82501170884E+03  0.82501170884E+03  0.25500000000E-02 0. -1.
          2   -1    0    0  501    0  0.00000000000E+00 -0.00000000000E+00 -0.12177451564E+02  0.12177451831E+02  0.25500000000E-02 0.  1.
    5000001    1    1    2    0    0 -0.62091239989E+01 -0.28194988244E+02  0.16709168526E+03  0.18623142019E+03  0.77000000000E+02 0.  0.
   -5000001    1    1    2    0    0  0.62091239989E+01  0.28194988244E+02  0.64574257202E+03  0.65095774048E+03  0.77000000000E+02 0.  0.
<mgrwt>
<rscale>  0 0.20046486E+03</rscale>
<asrwt>0</asrwt>
<pdfrwt beam="1">  1        2 0.18734539E-02 0.20046486E+03</pdfrwt>
<pdfrwt beam="2">  1       -2 0.12692489E+00 0.20046486E+03</pdfrwt>
<totfact> 0.28464217E+03</totfact>
</mgrwt>
</event>
<event>
 4    1  0.4751076E-004  0.1024645E+04  0.7818608E-02  0.9281920E-01
         -2   -1    0    0    0  501 -0.00000000000E+00  0.00000000000E+00  0.73750689230E+02  0.73750689274E+02  0.25500000000E-02 0. -1.
          2   -1    0    0  501    0  0.00000000000E+00 -0.00000000000E+00 -0.35589395526E+04  0.35589395526E+04  0.25500000000E-02 0.  1.
    5000001    1    1    2    0    0  0.27967711164E+03 -0.21908965165E+03 -0.46271214515E+03  0.58843104227E+03  0.77000000000E+02 0.  0.
   -5000001    1    1    2    0    0 -0.27967711164E+03  0.21908965165E+03 -0.30224767182E+04  0.30442591996E+04  0.77000000000E+02 0.  0.
<mgrwt>
<rscale>  0 0.10246448E+04</rscale>
<asrwt>0</asrwt>
<pdfrwt beam="1">  1        2 0.54752903E+00 0.10246448E+04</pdfrwt>
<pdfrwt beam="2">  1       -2 0.11346263E-01 0.10246448E+04</pdfrwt>
<totfact> 0.42858930E+01</totfact>
</mgrwt>
</event>
<event>
 4    1  0.4751076E-004  0.1890601E+03  0.7818608E-02  0.1159312E+00
         -2   -1    0    0    0  501 -0.00000000000E+00  0.00000000000E+00  0.54930137368E+03  0.54930137369E+03  0.25500000000E-02 0. -1.
          2   -1    0    0  501    0  0.00000000000E+00 -0.00000000000E+00 -0.16267806720E+02  0.16267806919E+02  0.25500000000E-02 0.  1.
    5000001    1    1    2    0    0  0.52399229736E+02 -0.11091585440E+02  0.23134609191E+03  0.24963717028E+03  0.77000000000E+02 0.  0.
   -5000001    1    1    2    0    0 -0.52399229736E+02  0.11091585440E+02  0.30168747506E+03  0.31593201033E+03  0.77000000000E+02 0.  0.
<mgrwt>
<rscale>  0 0.18906008E+03</rscale>
<asrwt>0</asrwt>
<pdfrwt beam="1">  1        2 0.25027394E-02 0.18906008E+03</pdfrwt>
<pdfrwt beam="2">  1       -2 0.84507906E-01 0.18906008E+03</pdfrwt>
<totfact> 0.49248566E+03</totfact>
</mgrwt>
</event>
<event>
 4    1  0.4751076E-004  0.2065108E+03  0.7818608E-02  0.1144359E+00
         -2   -1    0    0    0  501 -0.00000000000E+00  0.00000000000E+00  0.64430010662E+02  0.64430010713E+02  0.25500000000E-02 0. -1.
          2   -1    0    0  501    0  0.00000000000E+00 -0.00000000000E+00 -0.16547682369E+03  0.16547682371E+03  0.25500000000E-02 0.  1.
    5000001    1    1    2    0    0 -0.40596211588E+02  0.54088361041E+02 -0.64564592237E+02  0.12112468686E+03  0.77000000000E+02 0.  0.
   -5000001    1    1    2    0    0  0.40596211588E+02 -0.54088361041E+02 -0.36482220792E+02  0.10878214757E+03  0.77000000000E+02 0.  0.
<mgrwt>
<rscale>  0 0.20651076E+03</rscale>
<asrwt>0</asrwt>
<pdfrwt beam="1">  1        2 0.25457973E-01 0.20651076E+03</pdfrwt>
<pdfrwt beam="2">  1       -2 0.99123093E-02 0.20651076E+03</pdfrwt>
<totfact> 0.13742058E+04</totfact>
</mgrwt>
</event>
<event>
 4    1  0.4751076E-004  0.3264788E+03  0.7818608E-02  0.1072706E+00
         -2   -1    0    0    0  501 -0.00000000000E+00  0.00000000000E+00  0.13249559323E+04  0.13249559323E+04  0.25500000000E-02 0. -1.
          2   -1    0    0  501    0  0.00000000000E+00 -0.00000000000E+00 -0.20111691030E+02  0.20111691191E+02  0.25500000000E-02 0.  1.
    5000001    1    1    2    0    0 -0.82034061322E+02 -0.10861657721E+03  0.45957818874E+03  0.48545675361E+03  0.77000000000E+02 0.  0.
   -5000001    1    1    2    0    0  0.82034061322E+02  0.10861657721E+03  0.84526605253E+03  0.85961086988E+03  0.77000000000E+02 0.  0.
<mgrwt>
<rscale>  0 0.32647882E+03</rscale>
<asrwt>0</asrwt>
<pdfrwt beam="1">  1        2 0.30941065E-02 0.32647882E+03</pdfrwt>
<pdfrwt beam="2">  1       -2 0.20383936E+00 0.32647882E+03</pdfrwt>
<totfact> 0.41031928E+02</totfact>
</mgrwt>
</event>
<event>
 4    1  0.4751076E-004  0.2823816E+03  0.7818608E-02  0.1094395E+00
         -2   -1    0    0    0  501 -0.00000000000E+00  0.00000000000E+00  0.16972751232E+03  0.16972751233E+03  0.25500000000E-02 0. -1.
          2   -1    0    0  501    0  0.00000000000E+00 -0.00000000000E+00 -0.11745207770E+03  0.11745207773E+03  0.25500000000E-02 0.  1.
    5000001    1    1    2    0    0  0.11190166987E+03  0.17899035692E+02  0.60827244907E+02  0.14990434591E+03  0.77000000000E+02 0.  0.
   -5000001    1    1    2    0    0 -0.11190166987E+03 -0.17899035692E+02 -0.85518102908E+01  0.13727524416E+03  0.77000000000E+02 0.  0.
<mgrwt>
<rscale>  0 0.28238165E+03</rscale>
<asrwt>0</asrwt>
<pdfrwt beam="1">  1        2 0.18069551E-01 0.28238165E+03</pdfrwt>
<pdfrwt beam="2">  1       -2 0.26111925E-01 0.28238165E+03</pdfrwt>
<totfact> 0.40916757E+03</totfact>
</mgrwt>
</event>
<event>
 4    1  0.4751076E-004  0.2352569E+03  0.7818608E-02  0.1122994E+00
          2   -1    0    0  501    0  0.00000000000E+00  0.00000000000E+00  0.10093099797E+04  0.10093099797E+04  0.25500000000E-02 0.  1.
         -2   -1    0    0    0  501 -0.00000000000E+00 -0.00000000000E+00 -0.13708818201E+02  0.13708818438E+02  0.25500000000E-02 0. -1.
    5000001    1    1    2    0    0 -0.63310360692E+02 -0.62360773059E+02  0.48379095536E+03  0.49787524168E+03  0.77000000000E+02 0.  0.
   -5000001    1    1    2    0    0  0.63310360692E+02  0.62360773059E+02  0.51181020616E+03  0.52514355648E+03  0.77000000000E+02 0.  0.
<mgrwt>
<rscale>  0 0.23525686E+03</rscale>
<asrwt>0</asrwt>
<pdfrwt beam="1">  1        2 0.15527845E+00 0.23525686E+03</pdfrwt>
<pdfrwt beam="2">  1       -2 0.21090491E-02 0.23525686E+03</pdfrwt>
<totfact> 0.18325469E+04</totfact>
</mgrwt>
</event>
<event>
 4    1  0.4751076E-004  0.2718186E+03  0.7818608E-02  0.1100243E+00
         -2   -1    0    0    0  501 -0.00000000000E+00  0.00000000000E+00  0.87630557352E+02  0.87630557389E+02  0.25500000000E-02 0. -1.
          2   -1    0    0  501    0  0.00000000000E+00 -0.00000000000E+00 -0.21078647281E+03  0.21078647282E+03  0.25500000000E-02 0.  1.
    5000001    1    1    2    0    0  0.39293961584E+02  0.92929846563E+02 -0.11493821179E+03  0.17123015018E+03  0.77000000000E+02 0.  0.
   -5000001    1    1    2    0    0 -0.39293961584E+02 -0.92929846563E+02 -0.82177036607E+01  0.12718688003E+03  0.77000000000E+02 0.  0.
<mgrwt>
<rscale>  0 0.27181859E+03</rscale>
<asrwt>0</asrwt>
<pdfrwt beam="1">  1        2 0.32428688E-01 0.27181859E+03</pdfrwt>
<pdfrwt beam="2">  1       -2 0.13481624E-01 0.27181859E+03</pdfrwt>
<totfact> 0.65181307E+03</totfact>
</mgrwt>
</event>
<event>
 4    1  0.4751076E-004  0.1713532E+03  0.7818608E-02  0.1176444E+00
          2   -1    0    0  501    0  0.00000000000E+00  0.00000000000E+00  0.30045252774E+03  0.30045252775E+03  0.25500000000E-02 0.  1.
         -2   -1    0    0    0  501 -0.00000000000E+00 -0.00000000000E+00 -0.24431400094E+02  0.24431400227E+02  0.25500000000E-02 0. -1.
    5000001    1    1    2    0    0 -0.22175221206E+02  0.29340769492E+02  0.12346512347E+03  0.15008416940E+03  0.77000000000E+02 0.  0.
   -5000001    1    1    2    0    0  0.22175221206E+02 -0.29340769492E+02  0.15255600418E+03  0.17479975858E+03  0.77000000000E+02 0.  0.
<mgrwt>
<rscale>  0 0.17135316E+03</rscale>
<asrwt>0</asrwt>
<pdfrwt beam="1">  1        2 0.46223462E-01 0.17135316E+03</pdfrwt>
<pdfrwt beam="2">  1       -2 0.37586773E-02 0.17135316E+03</pdfrwt>
<totfact> 0.31288030E+04</totfact>
</mgrwt>
</event>
<event>
 4    1  0.4751076E-004  0.1854115E+03  0.7818608E-02  0.1162666E+00
          2   -1    0    0  501    0  0.00000000000E+00  0.00000000000E+00  0.16039059834E+04  0.16039059834E+04  0.25500000000E-02 0.  1.
         -2   -1    0    0    0  501 -0.00000000000E+00 -0.00000000000E+00 -0.53583910859E+01  0.53583916926E+01  0.25500000000E-02 0. -1.
    5000001    1    1    2    0    0  0.35903561319E+02 -0.31032135187E+02  0.97572385083E+03  0.97990718551E+03  0.77000000000E+02 0.  0.
   -5000001    1    1    2    0    0 -0.35903561319E+02  0.31032135187E+02  0.62282374150E+03  0.62935718961E+03  0.77000000000E+02 0.  0.
<mgrwt>
<rscale>  0 0.18541150E+03</rscale>
<asrwt>0</asrwt>
<pdfrwt beam="1">  1        2 0.24675451E+00 0.18541150E+03</pdfrwt>
<pdfrwt beam="2">  1       -2 0.82436878E-03 0.18541150E+03</pdfrwt>
<totfact> 0.33153937E+04</totfact>
</mgrwt>
</event>
<event>
 4    1  0.4751076E-004  0.2586832E+03  0.7818608E-02  0.1107937E+00
          2   -1    0    0  501    0  0.00000000000E+00  0.00000000000E+00  0.34341720363E+03  0.34341720364E+03  0.25500000000E-02 0.  1.
         -2   -1    0    0    0  501 -0.00000000000E+00 -0.00000000000E+00 -0.48714061053E+02  0.48714061119E+02  0.25500000000E-02 0. -1.
    5000001    1    1    2    0    0 -0.89666663032E+02  0.36142323114E+01  0.67900744209E+02  0.13635499330E+03  0.77000000000E+02 0.  0.
   -5000001    1    1    2    0    0  0.89666663032E+02 -0.36142323114E+01  0.22680239837E+03  0.25577627146E+03  0.77000000000E+02 0.  0.
<mgrwt>
<rscale>  0 0.25868318E+03</rscale>
<asrwt>0</asrwt>
<pdfrwt beam="1">  1        2 0.52833415E-01 0.25868318E+03</pdfrwt>
<pdfrwt beam="2">  1       -2 0.74944711E-02 0.25868318E+03</pdfrwt>
<totfact> 0.97745302E+03</totfact>
</mgrwt>
</event>
<event>
 4    1  0.4751076E-004  0.3710838E+03  0.7818608E-02  0.1054279E+00
          2   -1    0    0  501    0  0.00000000000E+00  0.00000000000E+00  0.11065449450E+04  0.11065449450E+04  0.25500000000E-02 0. -1.
         -2   -1    0    0    0  501 -0.00000000000E+00 -0.00000000000E+00 -0.31111061765E+02  0.31111061869E+02  0.25500000000E-02 0.  1.
    5000001    1    1    2    0    0 -0.90102366879E+02  0.12851860473E+03  0.34721170648E+03  0.38874212197E+03  0.77000000000E+02 0.  0.
   -5000001    1    1    2    0    0  0.90102366879E+02 -0.12851860473E+03  0.72822217671E+03  0.74891388485E+03  0.77000000000E+02 0.  0.
<mgrwt>
<rscale>  0 0.37108375E+03</rscale>
<asrwt>0</asrwt>
<pdfrwt beam="1">  1        2 0.17023768E+00 0.37108375E+03</pdfrwt>
<pdfrwt beam="2">  1       -2 0.47863173E-02 0.37108375E+03</pdfrwt>
<totfact> 0.47588365E+03</totfact>
</mgrwt>
</event>
<event>
 4    1  0.4751076E-004  0.2991683E+03  0.7818608E-02  0.1085657E+00
         -2   -1    0    0    0  501 -0.00000000000E+00  0.00000000000E+00  0.49347602702E+02  0.49347602768E+02  0.25500000000E-02 0. -1.
          2   -1    0    0  501    0  0.00000000000E+00 -0.00000000000E+00 -0.45342454718E+03  0.45342454718E+03  0.25500000000E-02 0.  1.
    5000001    1    1    2    0    0  0.10100081322E+03 -0.74710468685E+02 -0.24533046344E+03  0.28617975940E+03  0.77000000000E+02 0.  0.
   -5000001    1    1    2    0    0 -0.10100081322E+03  0.74710468685E+02 -0.15874648104E+03  0.21659239055E+03  0.77000000000E+02 0.  0.
<mgrwt>
<rscale>  0 0.29916828E+03</rscale>
<asrwt>0</asrwt>
<pdfrwt beam="1">  1        2 0.69757620E-01 0.29916828E+03</pdfrwt>
<pdfrwt beam="2">  1       -2 0.75919392E-02 0.29916828E+03</pdfrwt>
<totfact> 0.71183900E+03</totfact>
</mgrwt>
</event>
<event>
 4    1  0.4751076E-004  0.2289623E+03  0.7818608E-02  0.1127372E+00
         -2   -1    0    0    0  501 -0.00000000000E+00  0.00000000000E+00  0.26155588123E+03  0.26155588124E+03  0.25500000000E-02 0. -1.
          2   -1    0    0  501    0  0.00000000000E+00 -0.00000000000E+00 -0.50107579066E+02  0.50107579131E+02  0.25500000000E-02 0.  1.
    5000001    1    1    2    0    0  0.60409156355E+02  0.23135368834E+01  0.18651011922E+03  0.21064102923E+03  0.77000000000E+02 0.  0.
   -5000001    1    1    2    0    0 -0.60409156355E+02 -0.23135368834E+01  0.24938182940E+02  0.10102243114E+03  0.77000000000E+02 0.  0.
<mgrwt>
<rscale>  0 0.22896229E+03</rscale>
<asrwt>0</asrwt>
<pdfrwt beam="1">  1        2 0.77088584E-02 0.22896229E+03</pdfrwt>
<pdfrwt beam="2">  1       -2 0.40239366E-01 0.22896229E+03</pdfrwt>
<totfact> 0.51672892E+03</totfact>
</mgrwt>
</event>
<event>
 4    1  0.4751076E-004  0.6233416E+03  0.7818608E-02  0.9858129E-01
         -2   -1    0    0    0  501 -0.00000000000E+00  0.00000000000E+00  0.32445751440E+03  0.32445751441E+03  0.25500000000E-02 0. -1.
          2   -1    0    0  501    0  0.00000000000E+00 -0.00000000000E+00 -0.29938800556E+03  0.29938800557E+03  0.25500000000E-02 0.  1.
    5000001    1    1    2    0    0 -0.13531640194E+03  0.23701710717E+03 -0.11688355192E+03  0.30672202796E+03  0.77000000000E+02 0.  0.
   -5000001    1    1    2    0    0  0.13531640194E+03 -0.23701710717E+03  0.14195306076E+03  0.31712349202E+03  0.77000000000E+02 0.  0.
<mgrwt>
<rscale>  0 0.62334160E+03</rscale>
<asrwt>0</asrwt>
<pdfrwt beam="1">  1        2 0.46059693E-01 0.62334160E+03</pdfrwt>
<pdfrwt beam="2">  1       -2 0.49916541E-01 0.62334160E+03</pdfrwt>
<totfact> 0.42167975E+02</totfact>
</mgrwt>
</event>
<event>
 4    1  0.4751076E-004  0.2648356E+03  0.7818608E-02  0.1104272E+00
         -2   -1    0    0    0  501 -0.00000000000E+00  0.00000000000E+00  0.25800521913E+02  0.25800522039E+02  0.25500000000E-02 0. -1.
          2   -1    0    0  501    0  0.00000000000E+00 -0.00000000000E+00 -0.67961724061E+03  0.67961724062E+03  0.25500000000E-02 0.  1.
    5000001    1    1    2    0    0  0.25031864787E+02 -0.10015732762E+03 -0.24492315089E+03  0.27672086003E+03  0.77000000000E+02 0.  0.
   -5000001    1    1    2    0    0 -0.25031864787E+02  0.10015732762E+03 -0.40889356781E+03  0.42869690263E+03  0.77000000000E+02 0.  0.
<mgrwt>
<rscale>  0 0.26483564E+03</rscale>
<asrwt>0</asrwt>
<pdfrwt beam="1">  1        2 0.10455649E+00 0.26483564E+03</pdfrwt>
<pdfrwt beam="2">  1       -2 0.39693116E-02 0.26483564E+03</pdfrwt>
<totfact> 0.12015516E+04</totfact>
</mgrwt>
</event>
<event>
 4    1  0.4751076E-004  0.2709376E+03  0.7818608E-02  0.1100744E+00
          2   -1    0    0  501    0  0.00000000000E+00  0.00000000000E+00  0.40789014991E+03  0.40789014992E+03  0.25500000000E-02 0.  1.
         -2   -1    0    0    0  501 -0.00000000000E+00 -0.00000000000E+00 -0.44992002649E+02  0.44992002722E+02  0.25500000000E-02 0. -1.
    5000001    1    1    2    0    0 -0.73770070062E+02 -0.38279070808E+02  0.30558793640E+03  0.32591455532E+03  0.77000000000E+02 0.  0.
   -5000001    1    1    2    0    0  0.73770070062E+02  0.38279070808E+02  0.57310210858E+02  0.12696759731E+03  0.77000000000E+02 0.  0.
<mgrwt>
<rscale>  0 0.27093759E+03</rscale>
<asrwt>0</asrwt>
<pdfrwt beam="1">  1        2 0.62752331E-01 0.27093759E+03</pdfrwt>
<pdfrwt beam="2">  1       -2 0.69218465E-02 0.27093759E+03</pdfrwt>
<totfact> 0.91965150E+03</totfact>
</mgrwt>
</event>
<event>
 4    1  0.4751076E-004  0.2135791E+03  0.7818608E-02  0.1138763E+00
          2   -1    0    0  501    0  0.00000000000E+00  0.00000000000E+00  0.11195145878E+04  0.11195145878E+04  0.25500000000E-02 0.  1.
         -2   -1    0    0    0  501 -0.00000000000E+00 -0.00000000000E+00 -0.10186568023E+02  0.10186568342E+02  0.25500000000E-02 0. -1.
    5000001    1    1    2    0    0  0.30339494076E+01 -0.73713309648E+02  0.58465755203E+03  0.59430321387E+03  0.77000000000E+02 0.  0.
   -5000001    1    1    2    0    0 -0.30339494076E+01  0.73713309648E+02  0.52467046774E+03  0.53539794227E+03  0.77000000000E+02 0.  0.
<mgrwt>
<rscale>  0 0.21357913E+03</rscale>
<asrwt>0</asrwt>
<pdfrwt beam="1">  1        2 0.17223310E+00 0.21357913E+03</pdfrwt>
<pdfrwt beam="2">  1       -2 0.15671635E-02 0.21357913E+03</pdfrwt>
<totfact> 0.24222446E+04</totfact>
</mgrwt>
</event>
<event>
 4    1  0.4751076E-004  0.2793387E+03  0.7818608E-02  0.1096051E+00
         -2   -1    0    0    0  501 -0.00000000000E+00  0.00000000000E+00  0.73149949621E+02  0.73149949665E+02  0.25500000000E-02 0. -1.
          2   -1    0    0  501    0  0.00000000000E+00 -0.00000000000E+00 -0.26667858796E+03  0.26667858798E+03  0.25500000000E-02 0.  1.
    5000001    1    1    2    0    0 -0.11645009606E+03 -0.32949509382E+01 -0.93535605825E+02  0.16807555186E+03  0.77000000000E+02 0.  0.
   -5000001    1    1    2    0    0  0.11645009606E+03  0.32949509382E+01 -0.99993032517E+02  0.17175298579E+03  0.77000000000E+02 0.  0.
<mgrwt>
<rscale>  0 0.27933869E+03</rscale>
<asrwt>0</asrwt>
<pdfrwt beam="1">  1        2 0.41027475E-01 0.27933869E+03</pdfrwt>
<pdfrwt beam="2">  1       -2 0.11253839E-01 0.27933869E+03</pdfrwt>
<totfact> 0.67744624E+03</totfact>
</mgrwt>
</event>
<event>
 4    1  0.4751076E-004  0.2196816E+03  0.7818608E-02  0.1134121E+00
         -2   -1    0    0    0  501 -0.00000000000E+00  0.00000000000E+00  0.91700064248E+01  0.91700067794E+01  0.25500000000E-02 0. -1.
          2   -1    0    0  501    0  0.00000000000E+00 -0.00000000000E+00 -0.13157029968E+04  0.13157029968E+04  0.25500000000E-02 0.  1.
    5000001    1    1    2    0    0  0.48307268888E+02  0.27350652498E+02 -0.98657027404E+03  0.99112640770E+03  0.77000000000E+02 0.  0.
   -5000001    1    1    2    0    0 -0.48307268888E+02 -0.27350652498E+02 -0.31996271637E+03  0.33374659591E+03  0.77000000000E+02 0.  0.
<mgrwt>
<rscale>  0 0.21968163E+03</rscale>
<asrwt>0</asrwt>
<pdfrwt beam="1">  1        2 0.20241570E+00 0.21968163E+03</pdfrwt>
<pdfrwt beam="2">  1       -2 0.14107713E-02 0.21968163E+03</pdfrwt>
<totfact> 0.21934751E+04</totfact>
</mgrwt>
</event>
<event>
 4    1  0.4751076E-004  0.2722541E+03  0.7818608E-02  0.1099996E+00
          2   -1    0    0  501    0  0.00000000000E+00  0.00000000000E+00  0.18695594195E+04  0.18695594195E+04  0.25500000000E-02 0.  1.
         -2   -1    0    0    0  501 -0.00000000000E+00 -0.00000000000E+00 -0.99117342758E+01  0.99117346038E+01  0.25500000000E-02 0. -1.
    5000001    1    1    2    0    0 -0.92028312577E+02  0.32878691316E+02  0.54848787163E+03  0.56242169587E+03  0.77000000000E+02 0.  0.
   -5000001    1    1    2    0    0  0.92028312577E+02 -0.32878691316E+02  0.13111598136E+04  0.13170494583E+04  0.77000000000E+02 0.  0.
<mgrwt>
<rscale>  0 0.27225412E+03</rscale>
<asrwt>0</asrwt>
<pdfrwt beam="1">  1        2 0.28762461E+00 0.27225412E+03</pdfrwt>
<pdfrwt beam="2">  1       -2 0.15248818E-02 0.27225412E+03</pdfrwt>
<totfact> 0.10018314E+04</totfact>
</mgrwt>
</event>
<event>
 4    1  0.4751076E-004  0.2030262E+03  0.7818608E-02  0.1147211E+00
          2   -1    0    0  501    0  0.00000000000E+00  0.00000000000E+00  0.40453960170E+03  0.40453960171E+03  0.25500000000E-02 0.  1.
         -2   -1    0    0    0  501 -0.00000000000E+00 -0.00000000000E+00 -0.25473169783E+02  0.25473169911E+02  0.25500000000E-02 0. -1.
    5000001    1    1    2    0    0  0.64209734435E+02  0.15874967486E+02  0.18741371918E+03  0.21313799926E+03  0.77000000000E+02 0.  0.
   -5000001    1    1    2    0    0 -0.64209734435E+02 -0.15874967486E+02  0.19165271273E+03  0.21687477236E+03  0.77000000000E+02 0.  0.
<mgrwt>
<rscale>  0 0.20302617E+03</rscale>
<asrwt>0</asrwt>
<pdfrwt beam="1">  1        2 0.62236864E-01 0.20302617E+03</pdfrwt>
<pdfrwt beam="2">  1       -2 0.39189490E-02 0.20302617E+03</pdfrwt>
<totfact> 0.21676395E+04</totfact>
</mgrwt>
</event>
<event>
 4    1  0.4751076E-004  0.2609696E+03  0.7818608E-02  0.1106562E+00
         -2   -1    0    0    0  501 -0.00000000000E+00  0.00000000000E+00  0.18688981471E+02  0.18688981645E+02  0.25500000000E-02 0. -1.
          2   -1    0    0  501    0  0.00000000000E+00 -0.00000000000E+00 -0.91103334905E+03  0.91103334905E+03  0.25500000000E-02 0.  1.
    5000001    1    1    2    0    0 -0.36142129549E+02 -0.78582519627E+02 -0.23194889361E+03  0.25925037158E+03  0.77000000000E+02 0.  0.
   -5000001    1    1    2    0    0  0.36142129549E+02  0.78582519627E+02 -0.66039547397E+03  0.67047195912E+03  0.77000000000E+02 0.  0.
<mgrwt>
<rscale>  0 0.26096962E+03</rscale>
<asrwt>0</asrwt>
<pdfrwt beam="1">  1        2 0.14015894E+00 0.26096962E+03</pdfrwt>
<pdfrwt beam="2">  1       -2 0.28752286E-02 0.26096962E+03</pdfrwt>
<totfact> 0.13411927E+04</totfact>
</mgrwt>
</event>
<event>
 4    1  0.4751076E-004  0.2108351E+03  0.7818608E-02  0.1140906E+00
         -2   -1    0    0    0  501 -0.00000000000E+00  0.00000000000E+00  0.16855375147E+02  0.16855375340E+02  0.25500000000E-02 0. -1.
          2   -1    0    0  501    0  0.00000000000E+00 -0.00000000000E+00 -0.65930645225E+03  0.65930645225E+03  0.25500000000E-02 0.  1.
    5000001    1    1    2    0    0  0.67840716272E+02  0.12227749544E+02 -0.25456971535E+03  0.27474828592E+03  0.77000000000E+02 0.  0.
   -5000001    1    1    2    0    0 -0.67840716272E+02 -0.12227749544E+02 -0.38788136175E+03  0.40141354167E+03  0.77000000000E+02 0.  0.
<mgrwt>
<rscale>  0 0.21083508E+03</rscale>
<asrwt>0</asrwt>
<pdfrwt beam="1">  1        2 0.10143174E+00 0.21083508E+03</pdfrwt>
<pdfrwt beam="2">  1       -2 0.25931352E-02 0.21083508E+03</pdfrwt>
<totfact> 0.23192332E+04</totfact>
</mgrwt>
</event>
<event>
 4    1  0.4751076E-004  0.2383697E+03  0.7818608E-02  0.1120884E+00
          2   -1    0    0  501    0  0.00000000000E+00  0.00000000000E+00  0.51987362053E+03  0.51987362054E+03  0.25500000000E-02 0.  1.
         -2   -1    0    0    0  501 -0.00000000000E+00 -0.00000000000E+00 -0.27324006334E+02  0.27324006453E+02  0.25500000000E-02 0. -1.
    5000001    1    1    2    0    0 -0.69937024041E+02  0.54909404747E+02  0.20213030464E+03  0.23386297294E+03  0.77000000000E+02 0.  0.
   -5000001    1    1    2    0    0  0.69937024041E+02 -0.54909404747E+02  0.29041930956E+03  0.31333465405E+03  0.77000000000E+02 0.  0.
<mgrwt>
<rscale>  0 0.23836971E+03</rscale>
<asrwt>0</asrwt>
<pdfrwt beam="1">  1        2 0.79980561E-01 0.23836971E+03</pdfrwt>
<pdfrwt beam="2">  1       -2 0.42036931E-02 0.23836971E+03</pdfrwt>
<totfact> 0.14959422E+04</totfact>
</mgrwt>
</event>
<event>
 4    1  0.4751076E-004  0.1905806E+03  0.7818608E-02  0.1157939E+00
         -2   -1    0    0    0  501 -0.00000000000E+00  0.00000000000E+00  0.16424633379E+03  0.16424633381E+03  0.25500000000E-02 0. -1.
          2   -1    0    0  501    0  0.00000000000E+00 -0.00000000000E+00 -0.55284307193E+02  0.55284307252E+02  0.25500000000E-02 0.  1.
    5000001    1    1    2    0    0  0.53376964003E+02 -0.10822038084E+02  0.38812236886E+02  0.10198826661E+03  0.77000000000E+02 0.  0.
   -5000001    1    1    2    0    0 -0.53376964003E+02  0.10822038084E+02  0.70149789710E+02  0.11754237445E+03  0.77000000000E+02 0.  0.
<mgrwt>
<rscale>  0 0.19058064E+03</rscale>
<asrwt>0</asrwt>
<pdfrwt beam="1">  1        2 0.85052781E-02 0.19058064E+03</pdfrwt>
<pdfrwt beam="2">  1       -2 0.25268666E-01 0.19058064E+03</pdfrwt>
<totfact> 0.10573328E+04</totfact>
</mgrwt>
</event>
<event>
 4    1  0.4751076E-004  0.2329098E+03  0.7818608E-02  0.1124608E+00
         -2   -1    0    0    0  501 -0.00000000000E+00  0.00000000000E+00  0.69064124373E+01  0.69064129080E+01  0.25500000000E-02 0. -1.
          2   -1    0    0  501    0  0.00000000000E+00 -0.00000000000E+00 -0.19636458304E+04  0.19636458304E+04  0.25500000000E-02 0.  1.
    5000001    1    1    2    0    0  0.86565658363E+02  0.15450303334E+00 -0.10781584245E+04  0.10843653561E+04  0.77000000000E+02 0.  0.
   -5000001    1    1    2    0    0 -0.86565658363E+02 -0.15450303334E+00 -0.87858099348E+03  0.88618688728E+03  0.77000000000E+02 0.  0.
<mgrwt>
<rscale>  0 0.23290984E+03</rscale>
<asrwt>0</asrwt>
<pdfrwt beam="1">  1        2 0.30209891E+00 0.23290984E+03</pdfrwt>
<pdfrwt beam="2">  1       -2 0.10625266E-02 0.23290984E+03</pdfrwt>
<totfact> 0.15084651E+04</totfact>
</mgrwt>
</event>
<event>
 4    1  0.4751076E-004  0.2149662E+03  0.7818608E-02  0.1137693E+00
          2   -1    0    0  501    0  0.00000000000E+00  0.00000000000E+00  0.46913862432E+03  0.46913862433E+03  0.25500000000E-02 0.  1.
         -2   -1    0    0    0  501 -0.00000000000E+00 -0.00000000000E+00 -0.24625168742E+02  0.24625168874E+02  0.25500000000E-02 0. -1.
    5000001    1    1    2    0    0  0.70991195887E+02 -0.93493780882E+01  0.27343550276E+03  0.29295585834E+03  0.77000000000E+02 0.  0.
   -5000001    1    1    2    0    0 -0.70991195887E+02  0.93493780882E+01  0.17107795282E+03  0.20080793486E+03  0.77000000000E+02 0.  0.
<mgrwt>
<rscale>  0 0.21496621E+03</rscale>
<asrwt>0</asrwt>
<pdfrwt beam="1">  1        2 0.72175167E-01 0.21496621E+03</pdfrwt>
<pdfrwt beam="2">  1       -2 0.37884878E-02 0.21496621E+03</pdfrwt>
<totfact> 0.19477019E+04</totfact>
</mgrwt>
</event>
<event>
 4    1  0.4751076E-004  0.1848229E+03  0.7818608E-02  0.1163215E+00
         -2   -1    0    0    0  501 -0.00000000000E+00  0.00000000000E+00  0.61302858618E+01  0.61302863922E+01  0.25500000000E-02 0. -1.
          2   -1    0    0  501    0  0.00000000000E+00 -0.00000000000E+00 -0.13930638115E+04  0.13930638115E+04  0.25500000000E-02 0.  1.
    5000001    1    1    2    0    0  0.22214098980E+02 -0.36379606259E+02 -0.48015473959E+03  0.48815419274E+03  0.77000000000E+02 0.  0.
   -5000001    1    1    2    0    0 -0.22214098980E+02  0.36379606259E+02 -0.90677878600E+03  0.91103990510E+03  0.77000000000E+02 0.  0.
<mgrwt>
<rscale>  0 0.18482294E+03</rscale>
<asrwt>0</asrwt>
<pdfrwt beam="1">  1        2 0.21431726E+00 0.18482294E+03</pdfrwt>
<pdfrwt beam="2">  1       -2 0.94312205E-03 0.18482294E+03</pdfrwt>
<totfact> 0.35303318E+04</totfact>
</mgrwt>
</event>
<event>
 4    1  0.4751076E-004  0.2295734E+03  0.7818608E-02  0.1126940E+00
          2   -1    0    0  501    0  0.00000000000E+00  0.00000000000E+00  0.12057633102E+04  0.12057633102E+04  0.25500000000E-02 0.  1.
         -2   -1    0    0    0  501 -0.00000000000E+00 -0.00000000000E+00 -0.10927507391E+02  0.10927507689E+02  0.25500000000E-02 0. -1.
    5000001    1    1    2    0    0  0.73565146488E+02 -0.39976936735E+02  0.67900737236E+03  0.68846931519E+03  0.77000000000E+02 0.  0.
   -5000001    1    1    2    0    0 -0.73565146488E+02  0.39976936735E+02  0.51582843042E+03  0.52822150266E+03  0.77000000000E+02 0.  0.
<mgrwt>
<rscale>  0 0.22957341E+03</rscale>
<asrwt>0</asrwt>
<pdfrwt beam="1">  1        2 0.18550193E+00 0.22957341E+03</pdfrwt>
<pdfrwt beam="2">  1       -2 0.16811560E-02 0.22957341E+03</pdfrwt>
<totfact> 0.19595128E+04</totfact>
</mgrwt>
</event>
<event>
 4    1  0.4751076E-004  0.1922753E+03  0.7818608E-02  0.1156425E+00
          2   -1    0    0  501    0  0.00000000000E+00  0.00000000000E+00  0.17979614426E+04  0.17979614426E+04  0.25500000000E-02 0.  1.
         -2   -1    0    0    0  501 -0.00000000000E+00 -0.00000000000E+00 -0.51405151629E+01  0.51405157954E+01  0.25500000000E-02 0. -1.
    5000001    1    1    2    0    0 -0.22471533356E+02 -0.22432352802E+02  0.13466643936E+04  0.13492376252E+04  0.77000000000E+02 0.  0.
   -5000001    1    1    2    0    0  0.22471533356E+02  0.22432352802E+02  0.44615653384E+03  0.45386433320E+03  0.77000000000E+02 0.  0.
<mgrwt>
<rscale>  0 0.19227531E+03</rscale>
<asrwt>0</asrwt>
<pdfrwt beam="1">  1        2 0.27660950E+00 0.19227531E+03</pdfrwt>
<pdfrwt beam="2">  1       -2 0.79084840E-03 0.19227531E+03</pdfrwt>
<totfact> 0.27954216E+04</totfact>
</mgrwt>
</event>
<event>
 4    1  0.4751076E-004  0.2889228E+03  0.7818608E-02  0.1090913E+00
         -2   -1    0    0    0  501 -0.00000000000E+00  0.00000000000E+00  0.20730785723E+02  0.20730785880E+02  0.25500000000E-02 0. -1.
          2   -1    0    0  501    0  0.00000000000E+00 -0.00000000000E+00 -0.10066715965E+04  0.10066715965E+04  0.25500000000E-02 0.  1.
    5000001    1    1    2    0    0 -0.98480931588E+02  0.29946145278E+02 -0.72736363570E+03  0.73863531194E+03  0.77000000000E+02 0.  0.
   -5000001    1    1    2    0    0  0.98480931588E+02 -0.29946145278E+02 -0.25857717509E+03  0.28876707046E+03  0.77000000000E+02 0.  0.
<mgrwt>
<rscale>  0 0.28892278E+03</rscale>
<asrwt>0</asrwt>
<pdfrwt beam="1">  1        2 0.15487252E+00 0.28892278E+03</pdfrwt>
<pdfrwt beam="2">  1       -2 0.31893524E-02 0.28892278E+03</pdfrwt>
<totfact> 0.10047233E+04</totfact>
</mgrwt>
</event>
<event>
 4    1  0.4751076E-004  0.3873650E+03  0.7818608E-02  0.1048245E+00
         -2   -1    0    0    0  501 -0.00000000000E+00  0.00000000000E+00  0.92659788831E+02  0.92659788866E+02  0.25500000000E-02 0. -1.
          2   -1    0    0  501    0  0.00000000000E+00 -0.00000000000E+00 -0.40484566510E+03  0.40484566510E+03  0.25500000000E-02 0.  1.
    5000001    1    1    2    0    0 -0.14852939790E+03 -0.50361640757E+02 -0.48740592354E+02  0.18138887023E+03  0.77000000000E+02 0.  0.
   -5000001    1    1    2    0    0  0.14852939790E+03  0.50361640757E+02 -0.26344528391E+03  0.31611658374E+03  0.77000000000E+02 0.  0.
<mgrwt>
<rscale>  0 0.38736502E+03</rscale>
<asrwt>0</asrwt>
<pdfrwt beam="1">  1        2 0.62283947E-01 0.38736502E+03</pdfrwt>
<pdfrwt beam="2">  1       -2 0.14255352E-01 0.38736502E+03</pdfrwt>
<totfact> 0.29517035E+03</totfact>
</mgrwt>
</event>
<event>
 4    1  0.4751076E-004  0.2269218E+03  0.7818608E-02  0.1128825E+00
          2   -1    0    0  501    0  0.00000000000E+00  0.00000000000E+00  0.66827056365E+03  0.66827056365E+03  0.25500000000E-02 0.  1.
         -2   -1    0    0    0  501 -0.00000000000E+00 -0.00000000000E+00 -0.19263719859E+02  0.19263720028E+02  0.25500000000E-02 0. -1.
    5000001    1    1    2    0    0 -0.11998278571E+01 -0.76701337038E+02  0.42314016949E+03  0.43687657035E+03  0.77000000000E+02 0.  0.
   -5000001    1    1    2    0    0  0.11998278571E+01  0.76701337038E+02  0.22586667430E+03  0.25065771333E+03  0.77000000000E+02 0.  0.
<mgrwt>
<rscale>  0 0.22692181E+03</rscale>
<asrwt>0</asrwt>
<pdfrwt beam="1">  1        2 0.10281085E+00 0.22692181E+03</pdfrwt>
<pdfrwt beam="2">  1       -2 0.29636495E-02 0.22692181E+03</pdfrwt>
<totfact> 0.18819643E+04</totfact>
</mgrwt>
</event>
<event>
 4    1  0.4751076E-004  0.1999392E+03  0.7818608E-02  0.1149790E+00
          2   -1    0    0  501    0  0.00000000000E+00  0.00000000000E+00  0.16698856814E+04  0.16698856814E+04  0.25500000000E-02 0.  1.
         -2   -1    0    0    0  501 -0.00000000000E+00 -0.00000000000E+00 -0.59847952624E+01  0.59847958056E+01  0.25500000000E-02 0. -1.
    5000001    1    1    2    0    0  0.49679977184E+02 -0.39803311845E+02  0.86160934591E+03  0.86738230828E+03  0.77000000000E+02 0.  0.
   -5000001    1    1    2    0    0 -0.49679977184E+02  0.39803311845E+02  0.80229154025E+03  0.80848816895E+03  0.77000000000E+02 0.  0.
<mgrwt>
<rscale>  0 0.19993923E+03</rscale>
<asrwt>0</asrwt>
<pdfrwt beam="1">  1        2 0.25690546E+00 0.19993923E+03</pdfrwt>
<pdfrwt beam="2">  1       -2 0.92073787E-03 0.19993923E+03</pdfrwt>
<totfact> 0.26234046E+04</totfact>
</mgrwt>
</event>
<event>
 4    1  0.4751076E-004  0.3614331E+03  0.7818608E-02  0.1058018E+00
          2   -1    0    0  501    0  0.00000000000E+00  0.00000000000E+00  0.66295909188E+03  0.66295909189E+03  0.25500000000E-02 0.  1.
         -2   -1    0    0    0  501 -0.00000000000E+00 -0.00000000000E+00 -0.49261665835E+02  0.49261665901E+02  0.25500000000E-02 0. -1.
    5000001    1    1    2    0    0  0.83943845282E+02  0.14026857571E+03  0.31229069806E+03  0.36079956012E+03  0.77000000000E+02 0.  0.
   -5000001    1    1    2    0    0 -0.83943845282E+02 -0.14026857571E+03  0.30140672799E+03  0.35142119767E+03  0.77000000000E+02 0.  0.
<mgrwt>
<rscale>  0 0.36143309E+03</rscale>
<asrwt>0</asrwt>
<pdfrwt beam="1">  1        2 0.10199371E+00 0.36143309E+03</pdfrwt>
<pdfrwt beam="2">  1       -2 0.75787177E-02 0.36143309E+03</pdfrwt>
<totfact> 0.46336007E+03</totfact>
</mgrwt>
</event>
<event>
 4    1  0.4751076E-004  0.2383073E+03  0.7818608E-02  0.1120926E+00
         -2   -1    0    0    0  501 -0.00000000000E+00  0.00000000000E+00  0.95226516976E+01  0.95226520390E+01  0.25500000000E-02 0. -1.
          2   -1    0    0  501    0  0.00000000000E+00 -0.00000000000E+00 -0.14909285738E+04  0.14909285738E+04  0.25500000000E-02 0.  1.
    5000001    1    1    2    0    0  0.62902950751E+02 -0.65301039227E+02 -0.69726915138E+03  0.70734311081E+03  0.77000000000E+02 0.  0.
   -5000001    1    1    2    0    0 -0.62902950751E+02  0.65301039227E+02 -0.78413677073E+03  0.79310811505E+03  0.77000000000E+02 0.  0.
<mgrwt>
<rscale>  0 0.23830731E+03</rscale>
<asrwt>0</asrwt>
<pdfrwt beam="1">  1        2 0.22937344E+00 0.23830731E+03</pdfrwt>
<pdfrwt beam="2">  1       -2 0.14650245E-02 0.23830731E+03</pdfrwt>
<totfact> 0.16757763E+04</totfact>
</mgrwt>
</event>
<event>
 4    1  0.4751076E-004  0.2009372E+03  0.7818608E-02  0.1148951E+00
          2   -1    0    0  501    0  0.00000000000E+00  0.00000000000E+00  0.31024771942E+02  0.31024772047E+02  0.25500000000E-02 0.  1.
         -2   -1    0    0    0  501 -0.00000000000E+00 -0.00000000000E+00 -0.32535095202E+03  0.32535095203E+03  0.25500000000E-02 0. -1.
    5000001    1    1    2    0    0  0.20438932223E+02  0.49765756369E+02 -0.21038172810E+03  0.23039933155E+03  0.77000000000E+02 0.  0.
   -5000001    1    1    2    0    0 -0.20438932223E+02 -0.49765756369E+02 -0.83944451973E+02  0.12597639253E+03  0.77000000000E+02 0.  0.
<mgrwt>
<rscale>  0 0.20093720E+03</rscale>
<asrwt>0</asrwt>
<pdfrwt beam="1">  1        2 0.47730421E-02 0.20093720E+03</pdfrwt>
<pdfrwt beam="2">  1       -2 0.50053990E-01 0.20093720E+03</pdfrwt>
<totfact> 0.62451860E+03</totfact>
</mgrwt>
</event>
<event>
 4    1  0.4751076E-004  0.3473141E+03  0.7818608E-02  0.1063723E+00
         -2   -1    0    0    0  501 -0.00000000000E+00  0.00000000000E+00  0.10834787647E+02  0.10834787947E+02  0.25500000000E-02 0. -1.
          2   -1    0    0  501    0  0.00000000000E+00 -0.00000000000E+00 -0.27833289737E+04  0.27833289737E+04  0.25500000000E-02 0.  1.
    5000001    1    1    2    0    0 -0.88248702012E+02 -0.77006602122E+02 -0.56148390577E+03  0.57871497873E+03  0.77000000000E+02 0.  0.
   -5000001    1    1    2    0    0  0.88248702012E+02  0.77006602122E+02 -0.22110102803E+04  0.22154487829E+04  0.77000000000E+02 0.  0.
<mgrwt>
<rscale>  0 0.34731414E+03</rscale>
<asrwt>0</asrwt>
<pdfrwt beam="1">  1        2 0.42820389E+00 0.34731414E+03</pdfrwt>
<pdfrwt beam="2">  1       -2 0.16668927E-02 0.34731414E+03</pdfrwt>
<totfact> 0.27972720E+03</totfact>
</mgrwt>
</event>
<event>
 4    1  0.4751076E-004  0.2878551E+03  0.7818608E-02  0.1091474E+00
          2   -1    0    0  501    0  0.00000000000E+00  0.00000000000E+00  0.51705510279E+03  0.51705510279E+03  0.25500000000E-02 0.  1.
         -2   -1    0    0    0  501 -0.00000000000E+00 -0.00000000000E+00 -0.40063688066E+02  0.40063688148E+02  0.25500000000E-02 0. -1.
    5000001    1    1    2    0    0 -0.72130979828E+02  0.82878535486E+02  0.13766072757E+03  0.19222696432E+03  0.77000000000E+02 0.  0.
   -5000001    1    1    2    0    0  0.72130979828E+02 -0.82878535486E+02  0.33933068715E+03  0.36489182663E+03  0.77000000000E+02 0.  0.
<mgrwt>
<rscale>  0 0.28785506E+03</rscale>
<asrwt>0</asrwt>
<pdfrwt beam="1">  1        2 0.79546935E-01 0.28785506E+03</pdfrwt>
<pdfrwt beam="2">  1       -2 0.61636447E-02 0.28785506E+03</pdfrwt>
<totfact> 0.84805418E+03</totfact>
</mgrwt>
</event>
<event>
 4    1  0.4751076E-004  0.1591553E+03  0.7818608E-02  0.1189654E+00
          2   -1    0    0  501    0  0.00000000000E+00  0.00000000000E+00  0.31955921443E+02  0.31955921545E+02  0.25500000000E-02 0.  1.
         -2   -1    0    0    0  501 -0.00000000000E+00 -0.00000000000E+00 -0.19816684877E+03  0.19816684879E+03  0.25500000000E-02 0. -1.
    5000001    1    1    2    0    0  0.14475677230E+02 -0.13678571353E+02 -0.79292089038E+02  0.11230709652E+03  0.77000000000E+02 0.  0.
   -5000001    1    1    2    0    0 -0.14475677230E+02  0.13678571353E+02 -0.86918838291E+02  0.11781567381E+03  0.77000000000E+02 0.  0.
<mgrwt>
<rscale>  0 0.15915532E+03</rscale>
<asrwt>0</asrwt>
<pdfrwt beam="1">  1        2 0.49162957E-02 0.15915532E+03</pdfrwt>
<pdfrwt beam="2">  1       -2 0.30487207E-01 0.15915532E+03</pdfrwt>
<totfact> 0.15082281E+04</totfact>
</mgrwt>
</event>
<event>
 4    1  0.4751076E-004  0.2223011E+03  0.7818608E-02  0.1132179E+00
         -2   -1    0    0    0  501 -0.00000000000E+00  0.00000000000E+00  0.88874442863E+02  0.88874442900E+02  0.25500000000E-02 0. -1.
          2   -1    0    0  501    0  0.00000000000E+00 -0.00000000000E+00 -0.13901003429E+03  0.13901003431E+03  0.25500000000E-02 0.  1.
    5000001    1    1    2    0    0 -0.68769594075E+02  0.39066042588E+02 -0.38434725508E+02  0.11688302220E+03  0.77000000000E+02 0.  0.
   -5000001    1    1    2    0    0  0.68769594075E+02 -0.39066042588E+02 -0.11700865918E+02  0.11100145502E+03  0.77000000000E+02 0.  0.
<mgrwt>
<rscale>  0 0.22230105E+03</rscale>
<asrwt>0</asrwt>
<pdfrwt beam="1">  1        2 0.21386159E-01 0.22230105E+03</pdfrwt>
<pdfrwt beam="2">  1       -2 0.13672991E-01 0.22230105E+03</pdfrwt>
<totfact> 0.10016080E+04</totfact>
</mgrwt>
</event>
<event>
 4    1  0.4751076E-004  0.2233259E+03  0.7818608E-02  0.1131427E+00
          2   -1    0    0  501    0  0.00000000000E+00  0.00000000000E+00  0.51377727722E+03  0.51377727723E+03  0.25500000000E-02 0.  1.
         -2   -1    0    0    0  501 -0.00000000000E+00 -0.00000000000E+00 -0.24268524939E+02  0.24268525073E+02  0.25500000000E-02 0. -1.
    5000001    1    1    2    0    0  0.58378169185E+02 -0.51210054258E+02  0.29911659716E+03  0.31848111246E+03  0.77000000000E+02 0.  0.
   -5000001    1    1    2    0    0 -0.58378169185E+02  0.51210054258E+02  0.19039215512E+03  0.21956468985E+03  0.77000000000E+02 0.  0.
<mgrwt>
<rscale>  0 0.22332592E+03</rscale>
<asrwt>0</asrwt>
<pdfrwt beam="1">  1        2 0.79042656E-01 0.22332592E+03</pdfrwt>
<pdfrwt beam="2">  1       -2 0.37336193E-02 0.22332592E+03</pdfrwt>
<totfact> 0.18040510E+04</totfact>
</mgrwt>
</event>
<event>
 4    1  0.4751076E-004  0.3558146E+03  0.7818608E-02  0.1060253E+00
         -2   -1    0    0    0  501 -0.00000000000E+00  0.00000000000E+00  0.26891358722E+02  0.26891358843E+02  0.25500000000E-02 0. -1.
          2   -1    0    0  501    0  0.00000000000E+00 -0.00000000000E+00 -0.11769952786E+04  0.11769952786E+04  0.25500000000E-02 0.  1.
    5000001    1    1    2    0    0 -0.13694438600E+03 -0.62136651482E+02 -0.76365628191E+03  0.78212188642E+03  0.77000000000E+02 0.  0.
   -5000001    1    1    2    0    0  0.13694438600E+03  0.62136651482E+02 -0.38644763792E+03  0.42176475098E+03  0.77000000000E+02 0.  0.
<mgrwt>
<rscale>  0 0.35581457E+03</rscale>
<asrwt>0</asrwt>
<pdfrwt beam="1">  1        2 0.18107616E+00 0.35581457E+03</pdfrwt>
<pdfrwt beam="2">  1       -2 0.41371330E-02 0.35581457E+03</pdfrwt>
<totfact> 0.54011730E+03</totfact>
</mgrwt>
</event>
<event>
 4    1  0.4751076E-004  0.2580526E+03  0.7818608E-02  0.1108319E+00
         -2   -1    0    0    0  501 -0.00000000000E+00  0.00000000000E+00  0.11123507456E+02  0.11123507748E+02  0.25500000000E-02 0. -1.
          2   -1    0    0  501    0  0.00000000000E+00 -0.00000000000E+00 -0.14966313496E+04  0.14966313496E+04  0.25500000000E-02 0.  1.
    5000001    1    1    2    0    0 -0.87199441543E+02  0.38261060461E+02 -0.50533559372E+03  0.51996222328E+03  0.77000000000E+02 0.  0.
   -5000001    1    1    2    0    0  0.87199441543E+02 -0.38261060461E+02 -0.98017224846E+03  0.98779263411E+03  0.77000000000E+02 0.  0.
<mgrwt>
<rscale>  0 0.25805263E+03</rscale>
<asrwt>0</asrwt>
<pdfrwt beam="1">  1        2 0.23025082E+00 0.25805263E+03</pdfrwt>
<pdfrwt beam="2">  1       -2 0.17113101E-02 0.25805263E+03</pdfrwt>
<totfact> 0.13295159E+04</totfact>
</mgrwt>
</event>
<event>
 4    1  0.4751076E-004  0.2689544E+03  0.7818608E-02  0.1101879E+00
         -2   -1    0    0    0  501 -0.00000000000E+00  0.00000000000E+00  0.17203316459E+02  0.17203316648E+02  0.25500000000E-02 0. -1.
          2   -1    0    0  501    0  0.00000000000E+00 -0.00000000000E+00 -0.10511998185E+04  0.10511998185E+04  0.25500000000E-02 0.  1.
    5000001    1    1    2    0    0 -0.54648822345E+02  0.95421572839E+02 -0.48537986740E+03  0.50360141583E+03  0.77000000000E+02 0.  0.
   -5000001    1    1    2    0    0  0.54648822345E+02 -0.95421572839E+02 -0.54861663467E+03  0.56480171935E+03  0.77000000000E+02 0.  0.
<mgrwt>
<rscale>  0 0.26895444E+03</rscale>
<asrwt>0</asrwt>
<pdfrwt beam="1">  1        2 0.16172300E+00 0.26895444E+03</pdfrwt>
<pdfrwt beam="2">  1       -2 0.26466649E-02 0.26895444E+03</pdfrwt>
<totfact> 0.12435627E+04</totfact>
</mgrwt>
</event>
<event>
 4    1  0.4751076E-004  0.2176661E+03  0.7818608E-02  0.1135635E+00
          2   -1    0    0  501    0  0.00000000000E+00  0.00000000000E+00  0.18760661053E+04  0.18760661053E+04  0.25500000000E-02 0.  1.
         -2   -1    0    0    0  501 -0.00000000000E+00 -0.00000000000E+00 -0.63135457933E+01  0.63135463082E+01  0.25500000000E-02 0. -1.
    5000001    1    1    2    0    0  0.42845402725E+02  0.63870702991E+02  0.92917568358E+03  0.93552746950E+03  0.77000000000E+02 0.  0.
   -5000001    1    1    2    0    0 -0.42845402725E+02 -0.63870702991E+02  0.94057687589E+03  0.94685218207E+03  0.77000000000E+02 0.  0.
<mgrwt>
<rscale>  0 0.21766607E+03</rscale>
<asrwt>0</asrwt>
<pdfrwt beam="1">  1        2 0.28862551E+00 0.21766607E+03</pdfrwt>
<pdfrwt beam="2">  1       -2 0.97131493E-03 0.21766607E+03</pdfrwt>
<totfact> 0.19040178E+04</totfact>
</mgrwt>
</event>
<event>
 4    1  0.4751076E-004  0.8515254E+03  0.7818608E-02  0.9488292E-01
          2   -1    0    0  501    0  0.00000000000E+00  0.00000000000E+00  0.11078680726E+04  0.11078680726E+04  0.25500000000E-02 0.  1.
         -2   -1    0    0    0  501 -0.00000000000E+00 -0.00000000000E+00 -0.16362408153E+03  0.16362408155E+03  0.25500000000E-02 0. -1.
    5000001    1    1    2    0    0 -0.10313758833E+03  0.33809327962E+03  0.13689935758E+03  0.38680080398E+03  0.77000000000E+02 0.  0.
   -5000001    1    1    2    0    0  0.10313758833E+03 -0.33809327962E+03  0.80734463344E+03  0.88469135013E+03  0.77000000000E+02 0.  0.
<mgrwt>
<rscale>  0 0.85152544E+03</rscale>
<asrwt>0</asrwt>
<pdfrwt beam="1">  1        2 0.17044124E+00 0.85152544E+03</pdfrwt>
<pdfrwt beam="2">  1       -2 0.25172937E-01 0.85152544E+03</pdfrwt>
<totfact> 0.30600821E+02</totfact>
</mgrwt>
</event>
<event>
 4    1  0.4751076E-004  0.1587607E+03  0.7818608E-02  0.1190103E+00
         -2   -1    0    0    0  501 -0.00000000000E+00  0.00000000000E+00  0.11312010304E+02  0.11312010591E+02  0.25500000000E-02 0. -1.
          2   -1    0    0  501    0  0.00000000000E+00 -0.00000000000E+00 -0.55703946796E+03  0.55703946797E+03  0.25500000000E-02 0.  1.
    5000001    1    1    2    0    0 -0.15032500974E+02  0.51897238763E+01 -0.31196973042E+03  0.32172507210E+03  0.77000000000E+02 0.  0.
   -5000001    1    1    2    0    0  0.15032500974E+02 -0.51897238763E+01 -0.23375772724E+03  0.24662640646E+03  0.77000000000E+02 0.  0.
<mgrwt>
<rscale>  0 0.15876065E+03</rscale>
<asrwt>0</asrwt>
<pdfrwt beam="1">  1        2 0.85698358E-01 0.15876065E+03</pdfrwt>
<pdfrwt beam="2">  1       -2 0.17403097E-02 0.15876065E+03</pdfrwt>
<totfact> 0.49294736E+04</totfact>
</mgrwt>
</event>
<event>
 4    1  0.4751076E-004  0.3041229E+03  0.7818608E-02  0.1083198E+00
          2   -1    0    0  501    0  0.00000000000E+00  0.00000000000E+00  0.16466002376E+03  0.16466002378E+03  0.25500000000E-02 0.  1.
         -2   -1    0    0    0  501 -0.00000000000E+00 -0.00000000000E+00 -0.14042678357E+03  0.14042678359E+03  0.25500000000E-02 0. -1.
    5000001    1    1    2    0    0 -0.89318838502E+02  0.36571061789E+02 -0.76924955240E+02  0.14547077442E+03  0.77000000000E+02 0.  0.
   -5000001    1    1    2    0    0  0.89318838502E+02 -0.36571061789E+02  0.10115819543E+03  0.15961603295E+03  0.77000000000E+02 0.  0.
<mgrwt>
<rscale>  0 0.30412285E+03</rscale>
<asrwt>0</asrwt>
<pdfrwt beam="1">  1        2 0.25332311E-01 0.30412285E+03</pdfrwt>
<pdfrwt beam="2">  1       -2 0.21604121E-01 0.30412285E+03</pdfrwt>
<totfact> 0.38909701E+03</totfact>
</mgrwt>
</event>
<event>
 4    1  0.4751076E-004  0.1802369E+03  0.7818608E-02  0.1167574E+00
          2   -1    0    0  501    0  0.00000000000E+00  0.00000000000E+00  0.24880481332E+04  0.24880481332E+04  0.25500000000E-02 0.  1.
         -2   -1    0    0    0  501 -0.00000000000E+00 -0.00000000000E+00 -0.32641380534E+01  0.32641390494E+01  0.25500000000E-02 0. -1.
    5000001    1    1    2    0    0  0.42418855741E+02 -0.17326321730E+02  0.11092560018E+04  0.11128690122E+04  0.77000000000E+02 0.  0.
   -5000001    1    1    2    0    0 -0.42418855741E+02  0.17326321730E+02  0.13755279934E+04  0.13784432601E+04  0.77000000000E+02 0.  0.
<mgrwt>
<rscale>  0 0.18023689E+03</rscale>
<asrwt>0</asrwt>
<pdfrwt beam="1">  1        2 0.38277705E+00 0.18023689E+03</pdfrwt>
<pdfrwt beam="2">  1       -2 0.50217462E-03 0.18023689E+03</pdfrwt>
<totfact> 0.23202993E+04</totfact>
</mgrwt>
</event>
<event>
 4    1  0.4751076E-004  0.8179409E+03  0.7818608E-02  0.9534405E-01
          2   -1    0    0  501    0  0.00000000000E+00  0.00000000000E+00  0.10124520386E+04  0.10124520386E+04  0.25500000000E-02 0.  1.
         -2   -1    0    0    0  501 -0.00000000000E+00 -0.00000000000E+00 -0.16519974912E+03  0.16519974914E+03  0.25500000000E-02 0. -1.
    5000001    1    1    2    0    0 -0.17140782939E+03  0.19141184077E+03 -0.20863062065E+02  0.26904164013E+03  0.77000000000E+02 0.  0.
   -5000001    1    1    2    0    0  0.17140782939E+03 -0.19141184077E+03  0.86811535157E+03  0.90861014764E+03  0.77000000000E+02 0.  0.
<mgrwt>
<rscale>  0 0.81794088E+03</rscale>
<asrwt>0</asrwt>
<pdfrwt beam="1">  1        2 0.15576185E+00 0.81794088E+03</pdfrwt>
<pdfrwt beam="2">  1       -2 0.25415346E-01 0.81794088E+03</pdfrwt>
<totfact> 0.34546604E+02</totfact>
</mgrwt>
</event>
<event>
 4    1  0.4751076E-004  0.3973115E+03  0.7818608E-02  0.1044715E+00
          2   -1    0    0  501    0  0.00000000000E+00  0.00000000000E+00  0.72780677093E+03  0.72780677093E+03  0.25500000000E-02 0.  1.
         -2   -1    0    0    0  501 -0.00000000000E+00 -0.00000000000E+00 -0.54223338260E+02  0.54223338320E+02  0.25500000000E-02 0. -1.
    5000001    1    1    2    0    0 -0.17233307776E+03 -0.35069963344E+02  0.43728172855E+03  0.47756978772E+03  0.77000000000E+02 0.  0.
   -5000001    1    1    2    0    0  0.17233307776E+03  0.35069963344E+02  0.23630170412E+03  0.30446032153E+03  0.77000000000E+02 0.  0.
<mgrwt>
<rscale>  0 0.39731153E+03</rscale>
<asrwt>0</asrwt>
<pdfrwt beam="1">  1        2 0.11197027E+00 0.39731153E+03</pdfrwt>
<pdfrwt beam="2">  1       -2 0.83420524E-02 0.39731153E+03</pdfrwt>
<totfact> 0.35573513E+03</totfact>
</mgrwt>
</event>
<event>
 4    1  0.4751076E-004  0.2066727E+03  0.7818608E-02  0.1144228E+00
         -2   -1    0    0    0  501 -0.00000000000E+00  0.00000000000E+00  0.75635669715E+01  0.75635674013E+01  0.25500000000E-02 0. -1.
          2   -1    0    0  501    0  0.00000000000E+00 -0.00000000000E+00 -0.14118206025E+04  0.14118206025E+04  0.25500000000E-02 0.  1.
    5000001    1    1    2    0    0 -0.66566322609E+02  0.27032662776E+01 -0.58101044402E+03  0.58986483114E+03  0.77000000000E+02 0.  0.
   -5000001    1    1    2    0    0  0.66566322609E+02 -0.27032662776E+01 -0.82324659149E+03  0.82951933875E+03  0.77000000000E+02 0.  0.
<mgrwt>
<rscale>  0 0.20667269E+03</rscale>
<asrwt>0</asrwt>
<pdfrwt beam="1">  1        2 0.21720296E+00 0.20667269E+03</pdfrwt>
<pdfrwt beam="2">  1       -2 0.11636268E-02 0.20667269E+03</pdfrwt>
<totfact> 0.25644927E+04</totfact>
</mgrwt>
</event>
<event>
 4    1  0.4751076E-004  0.3135773E+03  0.7818608E-02  0.1078644E+00
          2   -1    0    0  501    0  0.00000000000E+00  0.00000000000E+00  0.16652167723E+03  0.16652167725E+03  0.25500000000E-02 0.  1.
         -2   -1    0    0    0  501 -0.00000000000E+00 -0.00000000000E+00 -0.14762450398E+03  0.14762450401E+03  0.25500000000E-02 0. -1.
    5000001    1    1    2    0    0  0.64252843390E+02 -0.91477720428E+02  0.88057995552E+02  0.16180176698E+03  0.77000000000E+02 0.  0.
   -5000001    1    1    2    0    0 -0.64252843390E+02  0.91477720428E+02 -0.69160822306E+02  0.15234441427E+03  0.77000000000E+02 0.  0.
<mgrwt>
<rscale>  0 0.31357730E+03</rscale>
<asrwt>0</asrwt>
<pdfrwt beam="1">  1        2 0.25618720E-01 0.31357730E+03</pdfrwt>
<pdfrwt beam="2">  1       -2 0.22711462E-01 0.31357730E+03</pdfrwt>
<totfact> 0.35252348E+03</totfact>
</mgrwt>
</event>
<event>
 4    1  0.4751076E-004  0.2282771E+03  0.7818608E-02  0.1127858E+00
         -2   -1    0    0    0  501 -0.00000000000E+00  0.00000000000E+00  0.16178537809E+02  0.16178538010E+02  0.25500000000E-02 0. -1.
          2   -1    0    0  501    0  0.00000000000E+00 -0.00000000000E+00 -0.80524046191E+03  0.80524046192E+03  0.25500000000E-02 0.  1.
    5000001    1    1    2    0    0 -0.16808491368E+02 -0.42919777581E+02 -0.14075273197E+03  0.16692802116E+03  0.77000000000E+02 0.  0.
   -5000001    1    1    2    0    0  0.16808491368E+02  0.42919777581E+02 -0.64830919213E+03  0.65449097877E+03  0.77000000000E+02 0.  0.
<mgrwt>
<rscale>  0 0.22827714E+03</rscale>
<asrwt>0</asrwt>
<pdfrwt beam="1">  1        2 0.12388312E+00 0.22827714E+03</pdfrwt>
<pdfrwt beam="2">  1       -2 0.24890065E-02 0.22827714E+03</pdfrwt>
<totfact> 0.19385229E+04</totfact>
</mgrwt>
</event>
<event>
 4    1  0.4751076E-004  0.2316384E+03  0.7818608E-02  0.1125492E+00
         -2   -1    0    0    0  501 -0.00000000000E+00  0.00000000000E+00  0.21511873361E+04  0.21511873361E+04  0.25500000000E-02 0. -1.
          2   -1    0    0  501    0  0.00000000000E+00 -0.00000000000E+00 -0.62356645762E+01  0.62356650976E+01  0.25500000000E-02 0.  1.
    5000001    1    1    2    0    0  0.54557710490E+00 -0.29345366797E+02  0.18304824716E+04  0.18323363575E+04  0.77000000000E+02 0.  0.
   -5000001    1    1    2    0    0 -0.54557710490E+00  0.29345366797E+02  0.31446919995E+03  0.32508664372E+03  0.77000000000E+02 0.  0.
<mgrwt>
<rscale>  0 0.23163837E+03</rscale>
<asrwt>0</asrwt>
<pdfrwt beam="1">  1        2 0.95933193E-03 0.23163837E+03</pdfrwt>
<pdfrwt beam="2">  1       -2 0.33095229E+00 0.23163837E+03</pdfrwt>
<totfact> 0.36757428E+02</totfact>
</mgrwt>
</event>
<event>
 4    1  0.4751076E-004  0.1297422E+04  0.7818608E-02  0.9031612E-01
          2   -1    0    0  501    0  0.00000000000E+00  0.00000000000E+00  0.44069221307E+03  0.44069221308E+03  0.25500000000E-02 0.  1.
         -2   -1    0    0    0  501 -0.00000000000E+00 -0.00000000000E+00 -0.95491972653E+03  0.95491972653E+03  0.25500000000E-02 0. -1.
    5000001    1    1    2    0    0  0.43663023950E+03 -0.29547178881E+03 -0.65518430669E+03  0.84447914110E+03  0.77000000000E+02 0.  0.
   -5000001    1    1    2    0    0 -0.43663023950E+03  0.29547178881E+03  0.14095679323E+03  0.55113279850E+03  0.77000000000E+02 0.  0.
<mgrwt>
<rscale>  0 0.12974216E+04</rscale>
<asrwt>0</asrwt>
<pdfrwt beam="1">  1        2 0.67798802E-01 0.12974216E+04</pdfrwt>
<pdfrwt beam="2">  1       -2 0.14691073E+00 0.12974216E+04</pdfrwt>
<totfact> 0.22086318E+01</totfact>
</mgrwt>
</event>
<event>
 4    1  0.4751076E-004  0.2342310E+03  0.7818608E-02  0.1123697E+00
         -2   -1    0    0    0  501 -0.00000000000E+00  0.00000000000E+00  0.10422469138E+02  0.10422469450E+02  0.25500000000E-02 0. -1.
          2   -1    0    0  501    0  0.00000000000E+00 -0.00000000000E+00 -0.13160067362E+04  0.13160067362E+04  0.25500000000E-02 0.  1.
    5000001    1    1    2    0    0  0.23112272580E+02 -0.72333275634E+02 -0.90735618168E+03  0.91377815707E+03  0.77000000000E+02 0.  0.
   -5000001    1    1    2    0    0 -0.23112272580E+02  0.72333275634E+02 -0.39822808539E+03  0.41265104859E+03  0.77000000000E+02 0.  0.
<mgrwt>
<rscale>  0 0.23423100E+03</rscale>
<asrwt>0</asrwt>
<pdfrwt beam="1">  1        2 0.20246244E+00 0.23423100E+03</pdfrwt>
<pdfrwt beam="2">  1       -2 0.16034579E-02 0.23423100E+03</pdfrwt>
<totfact> 0.18249307E+04</totfact>
</mgrwt>
</event>
<event>
 4    1  0.4751076E-004  0.2019128E+03  0.7818608E-02  0.1148135E+00
         -2   -1    0    0    0  501 -0.00000000000E+00  0.00000000000E+00  0.38614757830E+02  0.38614757914E+02  0.25500000000E-02 0. -1.
          2   -1    0    0  501    0  0.00000000000E+00 -0.00000000000E+00 -0.26394555348E+03  0.26394555349E+03  0.25500000000E-02 0.  1.
    5000001    1    1    2    0    0  0.39976367352E+02  0.41384141285E+02 -0.15891054388E+03  0.18572107595E+03  0.77000000000E+02 0.  0.
   -5000001    1    1    2    0    0 -0.39976367352E+02 -0.41384141285E+02 -0.66420251772E+02  0.11683923546E+03  0.77000000000E+02 0.  0.
<mgrwt>
<rscale>  0 0.20191279E+03</rscale>
<asrwt>0</asrwt>
<pdfrwt beam="1">  1        2 0.40607007E-01 0.20191279E+03</pdfrwt>
<pdfrwt beam="2">  1       -2 0.59407322E-02 0.20191279E+03</pdfrwt>
<totfact> 0.18273397E+04</totfact>
</mgrwt>
</event>
<event>
 4    1  0.4751076E-004  0.2012873E+03  0.7818608E-02  0.1148657E+00
          2   -1    0    0  501    0  0.00000000000E+00  0.00000000000E+00  0.24606856684E+03  0.24606856685E+03  0.25500000000E-02 0.  1.
         -2   -1    0    0    0  501 -0.00000000000E+00 -0.00000000000E+00 -0.41163894896E+02  0.41163894975E+02  0.25500000000E-02 0. -1.
    5000001    1    1    2    0    0 -0.48724990811E+02 -0.40910064487E+02  0.84837248089E+02  0.13105005444E+03  0.77000000000E+02 0.  0.
   -5000001    1    1    2    0    0  0.48724990811E+02  0.40910064487E+02  0.12006742386E+03  0.15618240739E+03  0.77000000000E+02 0.  0.
<mgrwt>
<rscale>  0 0.20128726E+03</rscale>
<asrwt>0</asrwt>
<pdfrwt beam="1">  1        2 0.37856703E-01 0.20128726E+03</pdfrwt>
<pdfrwt beam="2">  1       -2 0.63329068E-02 0.20128726E+03</pdfrwt>
<totfact> 0.17863696E+04</totfact>
</mgrwt>
</event>
<event>
 4    1  0.4751076E-004  0.2062274E+03  0.7818608E-02  0.1144589E+00
         -2   -1    0    0    0  501 -0.00000000000E+00  0.00000000000E+00  0.57439859098E+01  0.57439864758E+01  0.25500000000E-02 0. -1.
          2   -1    0    0  501    0  0.00000000000E+00 -0.00000000000E+00 -0.18510544510E+04  0.18510544510E+04  0.25500000000E-02 0.  1.
    5000001    1    1    2    0    0 -0.48409872345E+02 -0.41341239943E+02 -0.69296208604E+03  0.70012717884E+03  0.77000000000E+02 0.  0.
   -5000001    1    1    2    0    0  0.48409872345E+02  0.41341239943E+02 -0.11523483791E+04  0.11566712587E+04  0.77000000000E+02 0.  0.
<mgrwt>
<rscale>  0 0.20622736E+03</rscale>
<asrwt>0</asrwt>
<pdfrwt beam="1">  1        2 0.28477713E+00 0.20622736E+03</pdfrwt>
<pdfrwt beam="2">  1       -2 0.88369166E-03 0.20622736E+03</pdfrwt>
<totfact> 0.22438168E+04</totfact>
</mgrwt>
</event>
<event>
 4    1  0.4751076E-004  0.2812312E+03  0.7818608E-02  0.1095018E+00
         -2   -1    0    0    0  501 -0.00000000000E+00  0.00000000000E+00  0.25731829786E+03  0.25731829787E+03  0.25500000000E-02 0. -1.
          2   -1    0    0  501    0  0.00000000000E+00 -0.00000000000E+00 -0.76841599380E+02  0.76841599423E+02  0.25500000000E-02 0.  1.
    5000001    1    1    2    0    0  0.11262397510E+03 -0.24688155930E+02  0.62370361877E+02  0.15202870404E+03  0.77000000000E+02 0.  0.
   -5000001    1    1    2    0    0 -0.11262397510E+03  0.24688155930E+02  0.11810633660E+03  0.18213119326E+03  0.77000000000E+02 0.  0.
<mgrwt>
<rscale>  0 0.28123122E+03</rscale>
<asrwt>0</asrwt>
<pdfrwt beam="1">  1        2 0.11821785E-01 0.28123122E+03</pdfrwt>
<pdfrwt beam="2">  1       -2 0.39587430E-01 0.28123122E+03</pdfrwt>
<totfact> 0.31528863E+03</totfact>
</mgrwt>
</event>
<event>
 4    1  0.4751076E-004  0.1914687E+03  0.7818608E-02  0.1157143E+00
          2   -1    0    0  501    0  0.00000000000E+00  0.00000000000E+00  0.55039858005E+03  0.55039858005E+03  0.25500000000E-02 0.  1.
         -2   -1    0    0    0  501 -0.00000000000E+00 -0.00000000000E+00 -0.16651690660E+02  0.16651690855E+02  0.25500000000E-02 0. -1.
    5000001    1    1    2    0    0 -0.47454003023E+02  0.19506011778E+02  0.19410646442E+03  0.21503182654E+03  0.77000000000E+02 0.  0.
   -5000001    1    1    2    0    0  0.47454003023E+02 -0.19506011778E+02  0.33964042497E+03  0.35201844436E+03  0.77000000000E+02 0.  0.
<mgrwt>
<rscale>  0 0.19146871E+03</rscale>
<asrwt>0</asrwt>
<pdfrwt beam="1">  1        2 0.84676693E-01 0.19146871E+03</pdfrwt>
<pdfrwt beam="2">  1       -2 0.25617989E-02 0.19146871E+03</pdfrwt>
<totfact> 0.28879612E+04</totfact>
</mgrwt>
</event>
<event>
 4    1  0.4751076E-004  0.2213208E+03  0.7818608E-02  0.1132902E+00
         -2   -1    0    0    0  501 -0.00000000000E+00  0.00000000000E+00  0.26762271779E+02  0.26762271900E+02  0.25500000000E-02 0. -1.
          2   -1    0    0  501    0  0.00000000000E+00 -0.00000000000E+00 -0.45757423998E+03  0.45757423999E+03  0.25500000000E-02 0.  1.
    5000001    1    1    2    0    0 -0.47850326963E+02 -0.37588254434E+02 -0.32729668032E+03  0.34169379218E+03  0.77000000000E+02 0.  0.
   -5000001    1    1    2    0    0  0.47850326963E+02  0.37588254434E+02 -0.10351528788E+03  0.14264271971E+03  0.77000000000E+02 0.  0.
<mgrwt>
<rscale>  0 0.22132082E+03</rscale>
<asrwt>0</asrwt>
<pdfrwt beam="1">  1        2 0.70396031E-01 0.22132082E+03</pdfrwt>
<pdfrwt beam="2">  1       -2 0.41172729E-02 0.22132082E+03</pdfrwt>
<totfact> 0.17706010E+04</totfact>
</mgrwt>
</event>
<event>
 4    1  0.4751076E-004  0.6878432E+03  0.7818608E-02  0.9738251E-01
         -2   -1    0    0    0  501 -0.00000000000E+00  0.00000000000E+00  0.32185636422E+03  0.32185636423E+03  0.25500000000E-02 0. -1.
          2   -1    0    0  501    0  0.00000000000E+00 -0.00000000000E+00 -0.36749956424E+03  0.36749956425E+03  0.25500000000E-02 0.  1.
    5000001    1    1    2    0    0  0.20285657928E+03  0.12515670214E+03 -0.25900506634E+03  0.36031599497E+03  0.77000000000E+02 0.  0.
   -5000001    1    1    2    0    0 -0.20285657928E+03 -0.12515670214E+03  0.21336186631E+03  0.32903993351E+03  0.77000000000E+02 0.  0.
<mgrwt>
<rscale>  0 0.68784322E+03</rscale>
<asrwt>0</asrwt>
<pdfrwt beam="1">  1        2 0.56538395E-01 0.68784322E+03</pdfrwt>
<pdfrwt beam="2">  1       -2 0.49516364E-01 0.68784322E+03</pdfrwt>
<totfact> 0.34081890E+02</totfact>
</mgrwt>
</event>
<event>
 4    1  0.4751076E-004  0.5391145E+03  0.7818608E-02  0.1004045E+00
          2   -1    0    0  501    0  0.00000000000E+00  0.00000000000E+00  0.41277469826E+03  0.41277469827E+03  0.25500000000E-02 0.  1.
         -2   -1    0    0    0  501 -0.00000000000E+00 -0.00000000000E+00 -0.17603094209E+03  0.17603094211E+03  0.25500000000E-02 0. -1.
    5000001    1    1    2    0    0  0.16960731568E+02  0.25650315706E+03  0.14622938750E+03  0.30560361543E+03  0.77000000000E+02 0.  0.
   -5000001    1    1    2    0    0 -0.16960731568E+02 -0.25650315706E+03  0.90514368680E+02  0.28320202495E+03  0.77000000000E+02 0.  0.
<mgrwt>
<rscale>  0 0.53911453E+03</rscale>
<asrwt>0</asrwt>
<pdfrwt beam="1">  1        2 0.63503799E-01 0.53911453E+03</pdfrwt>
<pdfrwt beam="2">  1       -2 0.27081684E-01 0.53911453E+03</pdfrwt>
<totfact> 0.95340622E+02</totfact>
</mgrwt>
</event>
<event>
 4    1  0.4751076E-004  0.2228203E+03  0.7818608E-02  0.1131798E+00
          2   -1    0    0  501    0  0.00000000000E+00  0.00000000000E+00  0.13010820303E+04  0.13010820303E+04  0.25500000000E-02 0.  1.
         -2   -1    0    0    0  501 -0.00000000000E+00 -0.00000000000E+00 -0.95399250315E+01  0.95399253723E+01  0.25500000000E-02 0. -1.
    5000001    1    1    2    0    0  0.26060379363E+02 -0.32228197084E+02  0.10518153799E+04  0.10554441688E+04  0.77000000000E+02 0.  0.
   -5000001    1    1    2    0    0 -0.26060379363E+02  0.32228197084E+02  0.23972672542E+03  0.25517778693E+03  0.77000000000E+02 0.  0.
<mgrwt>
<rscale>  0 0.22282033E+03</rscale>
<asrwt>0</asrwt>
<pdfrwt beam="1">  1        2 0.20016645E+00 0.22282033E+03</pdfrwt>
<pdfrwt beam="2">  1       -2 0.14676809E-02 0.22282033E+03</pdfrwt>
<totfact> 0.21109064E+04</totfact>
</mgrwt>
</event>
<event>
 4    1  0.4751076E-004  0.4251493E+03  0.7818608E-02  0.1035403E+00
         -2   -1    0    0    0  501 -0.00000000000E+00  0.00000000000E+00  0.89601509641E+02  0.89601509677E+02  0.25500000000E-02 0. -1.
          2   -1    0    0  501    0  0.00000000000E+00 -0.00000000000E+00 -0.50432169162E+03  0.50432169162E+03  0.25500000000E-02 0.  1.
    5000001    1    1    2    0    0 -0.18211072731E+03  0.37682380991E+02 -0.11184632629E+03  0.23026697450E+03  0.77000000000E+02 0.  0.
   -5000001    1    1    2    0    0  0.18211072731E+03 -0.37682380991E+02 -0.30287385568E+03  0.36365622681E+03  0.77000000000E+02 0.  0.
<mgrwt>
<rscale>  0 0.42514931E+03</rscale>
<asrwt>0</asrwt>
<pdfrwt beam="1">  1        2 0.77587951E-01 0.42514931E+03</pdfrwt>
<pdfrwt beam="2">  1       -2 0.13784848E-01 0.42514931E+03</pdfrwt>
<totfact> 0.24429003E+03</totfact>
</mgrwt>
</event>
<event>
 4    1  0.4751076E-004  0.1973993E+03  0.7818608E-02  0.1151952E+00
         -2   -1    0    0    0  501 -0.00000000000E+00  0.00000000000E+00  0.63270767669E+01  0.63270772808E+01  0.25500000000E-02 0. -1.
          2   -1    0    0  501    0  0.00000000000E+00 -0.00000000000E+00 -0.15396722238E+04  0.15396722238E+04  0.25500000000E-02 0.  1.
    5000001    1    1    2    0    0  0.30719368466E+02  0.11750991722E+01 -0.11860646117E+04  0.11889589243E+04  0.77000000000E+02 0.  0.
   -5000001    1    1    2    0    0 -0.30719368466E+02 -0.11750991722E+01 -0.34728053525E+03  0.35704037673E+03  0.77000000000E+02 0.  0.
<mgrwt>
<rscale>  0 0.19739934E+03</rscale>
<asrwt>0</asrwt>
<pdfrwt beam="1">  1        2 0.23687235E+00 0.19739934E+03</pdfrwt>
<pdfrwt beam="2">  1       -2 0.97339769E-03 0.19739934E+03</pdfrwt>
<totfact> 0.28311352E+04</totfact>
</mgrwt>
</event>
<event>
 4    1  0.4751076E-004  0.2756818E+03  0.7818608E-02  0.1098071E+00
          2   -1    0    0  501    0  0.00000000000E+00  0.00000000000E+00  0.15163008559E+04  0.15163008559E+04  0.25500000000E-02 0.  1.
         -2   -1    0    0    0  501 -0.00000000000E+00 -0.00000000000E+00 -0.12530566700E+02  0.12530566959E+02  0.25500000000E-02 0. -1.
    5000001    1    1    2    0    0  0.27305203314E+02 -0.67558477786E+02  0.26332140623E+03  0.28386067890E+03  0.77000000000E+02 0.  0.
   -5000001    1    1    2    0    0 -0.27305203314E+02  0.67558477786E+02  0.12404488829E+04  0.12449707439E+04  0.77000000000E+02 0.  0.
<mgrwt>
<rscale>  0 0.27568177E+03</rscale>
<asrwt>0</asrwt>
<pdfrwt beam="1">  1        2 0.23327704E+00 0.27568177E+03</pdfrwt>
<pdfrwt beam="2">  1       -2 0.19277797E-02 0.27568177E+03</pdfrwt>
<totfact> 0.10913880E+04</totfact>
</mgrwt>
</event>
<event>
 4    1  0.4751076E-004  0.2808263E+03  0.7818608E-02  0.1095238E+00
         -2   -1    0    0    0  501 -0.00000000000E+00  0.00000000000E+00  0.96876319023E+01  0.96876322379E+01  0.25500000000E-02 0. -1.
          2   -1    0    0  501    0  0.00000000000E+00 -0.00000000000E+00 -0.20351575378E+04  0.20351575378E+04  0.25500000000E-02 0.  1.
    5000001    1    1    2    0    0 -0.12267003157E+02 -0.11361686104E+03 -0.12091456114E+04  0.12169722183E+04  0.77000000000E+02 0.  0.
   -5000001    1    1    2    0    0  0.12267003157E+02  0.11361686104E+03 -0.81632429444E+03  0.82787295171E+03  0.77000000000E+02 0.  0.
<mgrwt>
<rscale>  0 0.28082633E+03</rscale>
<asrwt>0</asrwt>
<pdfrwt beam="1">  1        2 0.31310082E+00 0.28082633E+03</pdfrwt>
<pdfrwt beam="2">  1       -2 0.14904066E-02 0.28082633E+03</pdfrwt>
<totfact> 0.84803280E+03</totfact>
</mgrwt>
</event>
<event>
 4    1  0.4751076E-004  0.2129671E+03  0.7818608E-02  0.1139238E+00
          2   -1    0    0  501    0  0.00000000000E+00  0.00000000000E+00  0.12043481304E+04  0.12043481304E+04  0.25500000000E-02 0.  1.
         -2   -1    0    0    0  501 -0.00000000000E+00 -0.00000000000E+00 -0.94148405214E+01  0.94148408667E+01  0.25500000000E-02 0. -1.
    5000001    1    1    2    0    0  0.37922151452E+02  0.44060527500E+02  0.85427212187E+03  0.85970301724E+03  0.77000000000E+02 0.  0.
   -5000001    1    1    2    0    0 -0.37922151452E+02 -0.44060527500E+02  0.34066116797E+03  0.35405995399E+03  0.77000000000E+02 0.  0.
<mgrwt>
<rscale>  0 0.21296709E+03</rscale>
<asrwt>0</asrwt>
<pdfrwt beam="1">  1        2 0.18528421E+00 0.21296709E+03</pdfrwt>
<pdfrwt beam="2">  1       -2 0.14484379E-02 0.21296709E+03</pdfrwt>
<totfact> 0.24297593E+04</totfact>
</mgrwt>
</event>
<event>
 4    1  0.4751076E-004  0.2756722E+03  0.7818608E-02  0.1098076E+00
          2   -1    0    0  501    0  0.00000000000E+00  0.00000000000E+00  0.74711965467E+03  0.74711965468E+03  0.25500000000E-02 0.  1.
         -2   -1    0    0    0  501 -0.00000000000E+00 -0.00000000000E+00 -0.25429372113E+02  0.25429372241E+02  0.25500000000E-02 0. -1.
    5000001    1    1    2    0    0  0.52847894344E+01 -0.11093599706E+03  0.28486600565E+03  0.31529726547E+03  0.77000000000E+02 0.  0.
   -5000001    1    1    2    0    0 -0.52847894344E+01  0.11093599706E+03  0.43682427691E+03  0.45725176144E+03  0.77000000000E+02 0.  0.
<mgrwt>
<rscale>  0 0.27567215E+03</rscale>
<asrwt>0</asrwt>
<pdfrwt beam="1">  1        2 0.11494148E+00 0.27567215E+03</pdfrwt>
<pdfrwt beam="2">  1       -2 0.39122114E-02 0.27567215E+03</pdfrwt>
<totfact> 0.10956680E+04</totfact>
</mgrwt>
</event>
<event>
 4    1  0.4751076E-004  0.4592693E+03  0.7818608E-02  0.1024993E+00
         -2   -1    0    0    0  501 -0.00000000000E+00  0.00000000000E+00  0.37426037755E+03  0.37426037756E+03  0.25500000000E-02 0. -1.
          2   -1    0    0  501    0  0.00000000000E+00 -0.00000000000E+00 -0.14089674560E+03  0.14089674562E+03  0.25500000000E-02 0.  1.
    5000001    1    1    2    0    0 -0.19328859426E+03 -0.80599407297E+02  0.17756713204E+03  0.28515930900E+03  0.77000000000E+02 0.  0.
   -5000001    1    1    2    0    0  0.19328859426E+03  0.80599407297E+02  0.55796499911E+02  0.22999781418E+03  0.77000000000E+02 0.  0.
<mgrwt>
<rscale>  0 0.45926929E+03</rscale>
<asrwt>0</asrwt>
<pdfrwt beam="1">  1        2 0.21676423E-01 0.45926929E+03</pdfrwt>
<pdfrwt beam="2">  1       -2 0.57578519E-01 0.45926929E+03</pdfrwt>
<totfact> 0.73386616E+02</totfact>
</mgrwt>
</event>
<event>
 4    1  0.4751076E-004  0.2161097E+03  0.7818608E-02  0.1136817E+00
         -2   -1    0    0    0  501 -0.00000000000E+00  0.00000000000E+00  0.99034229483E+01  0.99034232766E+01  0.25500000000E-02 0. -1.
          2   -1    0    0  501    0  0.00000000000E+00 -0.00000000000E+00 -0.11789709137E+04  0.11789709137E+04  0.25500000000E-02 0.  1.
    5000001    1    1    2    0    0  0.15115462115E+02 -0.72389180613E+02 -0.49278028365E+03  0.50421233485E+03  0.77000000000E+02 0.  0.
   -5000001    1    1    2    0    0 -0.15115462115E+02  0.72389180613E+02 -0.67628720710E+03  0.68466200212E+03  0.77000000000E+02 0.  0.
<mgrwt>
<rscale>  0 0.21610967E+03</rscale>
<asrwt>0</asrwt>
<pdfrwt beam="1">  1        2 0.18138003E+00 0.21610967E+03</pdfrwt>
<pdfrwt beam="2">  1       -2 0.15236045E-02 0.21610967E+03</pdfrwt>
<totfact> 0.23349705E+04</totfact>
</mgrwt>
</event>
<event>
 4    1  0.4751076E-004  0.4478523E+03  0.7818608E-02  0.1028364E+00
         -2   -1    0    0    0  501 -0.00000000000E+00  0.00000000000E+00  0.70249319441E+02  0.70249319487E+02  0.25500000000E-02 0. -1.
          2   -1    0    0  501    0  0.00000000000E+00 -0.00000000000E+00 -0.71378504224E+03  0.71378504224E+03  0.25500000000E-02 0.  1.
    5000001    1    1    2    0    0  0.12264737412E+02  0.19660413415E+03 -0.45053681242E+03  0.49771078820E+03  0.77000000000E+02 0.  0.
   -5000001    1    1    2    0    0 -0.12264737412E+02 -0.19660413415E+03 -0.19299891038E+03  0.28632357353E+03  0.77000000000E+02 0.  0.
<mgrwt>
<rscale>  0 0.44785227E+03</rscale>
<asrwt>0</asrwt>
<pdfrwt beam="1">  1        2 0.10981308E+00 0.44785227E+03</pdfrwt>
<pdfrwt beam="2">  1       -2 0.10807588E-01 0.44785227E+03</pdfrwt>
<totfact> 0.24100135E+03</totfact>
</mgrwt>
</event>
<event>
 4    1  0.4751076E-004  0.1836815E+03  0.7818608E-02  0.1164287E+00
          2   -1    0    0  501    0  0.00000000000E+00  0.00000000000E+00  0.74333217359E+03  0.74333217359E+03  0.25500000000E-02 0.  1.
         -2   -1    0    0    0  501 -0.00000000000E+00 -0.00000000000E+00 -0.11347176269E+02  0.11347176555E+02  0.25500000000E-02 0. -1.
    5000001    1    1    2    0    0  0.89807692490E+01  0.24756594661E+02  0.19108938424E+03  0.20769616262E+03  0.77000000000E+02 0.  0.
   -5000001    1    1    2    0    0 -0.89807692490E+01 -0.24756594661E+02  0.54089561307E+03  0.54698318753E+03  0.77000000000E+02 0.  0.
<mgrwt>
<rscale>  0 0.18368148E+03</rscale>
<asrwt>0</asrwt>
<pdfrwt beam="1">  1        2 0.11435884E+00 0.18368148E+03</pdfrwt>
<pdfrwt beam="2">  1       -2 0.17457188E-02 0.18368148E+03</pdfrwt>
<totfact> 0.35482763E+04</totfact>
</mgrwt>
</event>
<event>
 4    1  0.4751076E-004  0.2502070E+03  0.7818608E-02  0.1113174E+00
         -2   -1    0    0    0  501 -0.00000000000E+00  0.00000000000E+00  0.33906540526E+02  0.33906540622E+02  0.25500000000E-02 0. -1.
          2   -1    0    0  501    0  0.00000000000E+00 -0.00000000000E+00 -0.46158888786E+03  0.46158888787E+03  0.25500000000E-02 0.  1.
    5000001    1    1    2    0    0 -0.42049872837E+02 -0.83335860543E+02 -0.15094153663E+03  0.19345646781E+03  0.77000000000E+02 0.  0.
   -5000001    1    1    2    0    0  0.42049872837E+02  0.83335860543E+02 -0.27674081071E+03  0.30203896068E+03  0.77000000000E+02 0.  0.
<mgrwt>
<rscale>  0 0.25020697E+03</rscale>
<asrwt>0</asrwt>
<pdfrwt beam="1">  1        2 0.71013671E-01 0.25020697E+03</pdfrwt>
<pdfrwt beam="2">  1       -2 0.52163912E-02 0.25020697E+03</pdfrwt>
<totfact> 0.12349741E+04</totfact>
</mgrwt>
</event>
<event>
 4    1  0.4751076E-004  0.2503793E+03  0.7818608E-02  0.1113065E+00
         -2   -1    0    0    0  501 -0.00000000000E+00  0.00000000000E+00  0.16426074213E+02  0.16426074411E+02  0.25500000000E-02 0. -1.
          2   -1    0    0  501    0  0.00000000000E+00 -0.00000000000E+00 -0.95411999485E+03  0.95411999485E+03  0.25500000000E-02 0.  1.
    5000001    1    1    2    0    0 -0.37261655635E+01 -0.88387391605E+02 -0.63857552917E+03  0.64925643759E+03  0.77000000000E+02 0.  0.
   -5000001    1    1    2    0    0  0.37261655635E+01  0.88387391605E+02 -0.29911839147E+03  0.32128963167E+03  0.77000000000E+02 0.  0.
<mgrwt>
<rscale>  0 0.25037928E+03</rscale>
<asrwt>0</asrwt>
<pdfrwt beam="1">  1        2 0.14678765E+00 0.25037928E+03</pdfrwt>
<pdfrwt beam="2">  1       -2 0.25270891E-02 0.25037928E+03</pdfrwt>
<totfact> 0.15224159E+04</totfact>
</mgrwt>
</event>
<event>
 4    1  0.4751076E-004  0.2596928E+03  0.7818608E-02  0.1107328E+00
         -2   -1    0    0    0  501 -0.00000000000E+00  0.00000000000E+00  0.29326012920E+02  0.29326013030E+02  0.25500000000E-02 0. -1.
          2   -1    0    0  501    0  0.00000000000E+00 -0.00000000000E+00 -0.57491934523E+03  0.57491934523E+03  0.25500000000E-02 0.  1.
    5000001    1    1    2    0    0  0.17358084851E+02 -0.86803258879E+02 -0.14335249137E+03  0.18524320674E+03  0.77000000000E+02 0.  0.
   -5000001    1    1    2    0    0 -0.17358084851E+02  0.86803258879E+02 -0.40224084094E+03  0.41900215152E+03  0.77000000000E+02 0.  0.
<mgrwt>
<rscale>  0 0.25969284E+03</rscale>
<asrwt>0</asrwt>
<pdfrwt beam="1">  1        2 0.88449122E-01 0.25969284E+03</pdfrwt>
<pdfrwt beam="2">  1       -2 0.45116947E-02 0.25969284E+03</pdfrwt>
<totfact> 0.12044980E+04</totfact>
</mgrwt>
</event>
<event>
 4    1  0.4751076E-004  0.2749912E+03  0.7818608E-02  0.1098457E+00
         -2   -1    0    0    0  501 -0.00000000000E+00  0.00000000000E+00  0.12368870628E+02  0.12368870891E+02  0.25500000000E-02 0.  1.
          2   -1    0    0  501    0  0.00000000000E+00 -0.00000000000E+00 -0.15284367800E+04  0.15284367800E+04  0.25500000000E-02 0. -1.
    5000001    1    1    2    0    0 -0.23933215405E+02  0.11124937761E+03 -0.72901970319E+03  0.74185439977E+03  0.77000000000E+02 0.  0.
   -5000001    1    1    2    0    0  0.23933215405E+02 -0.11124937761E+03 -0.78704820614E+03  0.79895125108E+03  0.77000000000E+02 0.  0.
<mgrwt>
<rscale>  0 0.27499118E+03</rscale>
<asrwt>0</asrwt>
<pdfrwt beam="1">  1        2 0.23514397E+00 0.27499118E+03</pdfrwt>
<pdfrwt beam="2">  1       -2 0.19029044E-02 0.27499118E+03</pdfrwt>
<totfact> 0.10958930E+04</totfact>
</mgrwt>
</event>
<event>
 4    1  0.4751076E-004  0.1831923E+03  0.7818608E-02  0.1164749E+00
         -2   -1    0    0    0  501 -0.00000000000E+00  0.00000000000E+00  0.82509211690E+01  0.82509215630E+01  0.25500000000E-02 0. -1.
          2   -1    0    0  501    0  0.00000000000E+00 -0.00000000000E+00 -0.10168383275E+04  0.10168383275E+04  0.25500000000E-02 0.  1.
    5000001    1    1    2    0    0  0.48952072323E+02 -0.60091914109E+01 -0.53413370410E+03  0.54190426241E+03  0.77000000000E+02 0.  0.
   -5000001    1    1    2    0    0 -0.48952072323E+02  0.60091914109E+01 -0.47445370223E+03  0.48318498665E+03  0.77000000000E+02 0.  0.
<mgrwt>
<rscale>  0 0.18319228E+03</rscale>
<asrwt>0</asrwt>
<pdfrwt beam="1">  1        2 0.15643657E+00 0.18319228E+03</pdfrwt>
<pdfrwt beam="2">  1       -2 0.12693733E-02 0.18319228E+03</pdfrwt>
<totfact> 0.37412578E+04</totfact>
</mgrwt>
</event>
<event>
 4    1  0.4751076E-004  0.4442267E+03  0.7818608E-02  0.1029458E+00
         -2   -1    0    0    0  501 -0.00000000000E+00  0.00000000000E+00  0.36942446899E+02  0.36942446987E+02  0.25500000000E-02 0.  1.
          2   -1    0    0  501    0  0.00000000000E+00 -0.00000000000E+00 -0.13354377231E+04  0.13354377231E+04  0.25500000000E-02 0. -1.
    5000001    1    1    2    0    0 -0.15449480211E+03  0.12819969355E+03 -0.82129892183E+03  0.84897863595E+03  0.77000000000E+02 0.  0.
   -5000001    1    1    2    0    0  0.15449480211E+03 -0.12819969355E+03 -0.47719635432E+03  0.52340153409E+03  0.77000000000E+02 0.  0.
<mgrwt>
<rscale>  0 0.44422669E+03</rscale>
<asrwt>0</asrwt>
<pdfrwt beam="1">  1        2 0.20545192E+00 0.44422669E+03</pdfrwt>
<pdfrwt beam="2">  1       -2 0.56834544E-02 0.44422669E+03</pdfrwt>
<totfact> 0.26978400E+03</totfact>
</mgrwt>
</event>
<event>
 4    1  0.4751076E-004  0.2552332E+03  0.7818608E-02  0.1110042E+00
          2   -1    0    0  501    0  0.00000000000E+00  0.00000000000E+00  0.32398918499E+02  0.32398918599E+02  0.25500000000E-02 0.  1.
         -2   -1    0    0    0  501 -0.00000000000E+00 -0.00000000000E+00 -0.50267085109E+03  0.50267085110E+03  0.25500000000E-02 0. -1.
    5000001    1    1    2    0    0  0.85109357603E+02  0.50817927414E+02 -0.28344083521E+03  0.30998995397E+03  0.77000000000E+02 0.  0.
   -5000001    1    1    2    0    0 -0.85109357603E+02 -0.50817927414E+02 -0.18683109738E+03  0.22507981573E+03  0.77000000000E+02 0.  0.
<mgrwt>
<rscale>  0 0.25523316E+03</rscale>
<asrwt>0</asrwt>
<pdfrwt beam="1">  1        2 0.49844494E-02 0.25523316E+03</pdfrwt>
<pdfrwt beam="2">  1       -2 0.77333971E-01 0.25523316E+03</pdfrwt>
<totfact> 0.24097610E+03</totfact>
</mgrwt>
</event>
<event>
 4    1  0.4751076E-004  0.2845630E+03  0.7818608E-02  0.1093222E+00
         -2   -1    0    0    0  501 -0.00000000000E+00  0.00000000000E+00  0.71364806710E+02  0.71364806755E+02  0.25500000000E-02 0. -1.
          2   -1    0    0  501    0  0.00000000000E+00 -0.00000000000E+00 -0.28366965141E+03  0.28366965142E+03  0.25500000000E-02 0.  1.
    5000001    1    1    2    0    0  0.19351316023E+02 -0.11050014645E+03 -0.54254559536E+02  0.14648314929E+03  0.77000000000E+02 0.  0.
   -5000001    1    1    2    0    0 -0.19351316023E+02  0.11050014645E+03 -0.15805028516E+03  0.20855130888E+03  0.77000000000E+02 0.  0.
<mgrwt>
<rscale>  0 0.28456303E+03</rscale>
<asrwt>0</asrwt>
<pdfrwt beam="1">  1        2 0.43641484E-01 0.28456303E+03</pdfrwt>
<pdfrwt beam="2">  1       -2 0.10979201E-01 0.28456303E+03</pdfrwt>
<totfact> 0.65990419E+03</totfact>
</mgrwt>
</event>
<event>
 4    1  0.4751076E-004  0.1756355E+03  0.7818608E-02  0.1172095E+00
          2   -1    0    0  501    0  0.00000000000E+00  0.00000000000E+00  0.46101087797E+03  0.46101087798E+03  0.25500000000E-02 0.  1.
         -2   -1    0    0    0  501 -0.00000000000E+00 -0.00000000000E+00 -0.16728364257E+02  0.16728364452E+02  0.25500000000E-02 0. -1.
    5000001    1    1    2    0    0 -0.29234996639E+02 -0.25761783293E+02  0.26638749303E+03  0.28001723331E+03  0.77000000000E+02 0.  0.
   -5000001    1    1    2    0    0  0.29234996639E+02  0.25761783293E+02  0.17789502068E+03  0.19772200912E+03  0.77000000000E+02 0.  0.
<mgrwt>
<rscale>  0 0.17563551E+03</rscale>
<asrwt>0</asrwt>
<pdfrwt beam="1">  1        2 0.70924759E-01 0.17563551E+03</pdfrwt>
<pdfrwt beam="2">  1       -2 0.25735942E-02 0.17563551E+03</pdfrwt>
<totfact> 0.34665269E+04</totfact>
</mgrwt>
</event>
<event>
 4    1  0.4751076E-004  0.2128150E+03  0.7818608E-02  0.1139356E+00
          2   -1    0    0  501    0  0.00000000000E+00  0.00000000000E+00  0.16100559463E+04  0.16100559463E+04  0.25500000000E-02 0.  1.
         -2   -1    0    0    0  501 -0.00000000000E+00 -0.00000000000E+00 -0.70323986425E+01  0.70323991048E+01  0.25500000000E-02 0. -1.
    5000001    1    1    2    0    0  0.31506295172E+02  0.37967887842E+02  0.38815070203E+03  0.39877835276E+03  0.77000000000E+02 0.  0.
   -5000001    1    1    2    0    0 -0.31506295172E+02 -0.37967887842E+02  0.12148728456E+04  0.12183099926E+04  0.77000000000E+02 0.  0.
<mgrwt>
<rscale>  0 0.21281500E+03</rscale>
<asrwt>0</asrwt>
<pdfrwt beam="1">  1        2 0.24770132E+00 0.21281500E+03</pdfrwt>
<pdfrwt beam="2">  1       -2 0.10819058E-02 0.21281500E+03</pdfrwt>
<totfact> 0.22404666E+04</totfact>
</mgrwt>
</event>
<event>
 4    1  0.4751076E-004  0.2041536E+03  0.7818608E-02  0.1146281E+00
          2   -1    0    0  501    0  0.00000000000E+00  0.00000000000E+00  0.18318497261E+04  0.18318497261E+04  0.25500000000E-02 0.  1.
         -2   -1    0    0    0  501 -0.00000000000E+00 -0.00000000000E+00 -0.56880616501E+01  0.56880622216E+01  0.25500000000E-02 0. -1.
    5000001    1    1    2    0    0  0.28058697281E+02  0.58203444614E+02  0.10730168347E+04  0.10777147391E+04  0.77000000000E+02 0.  0.
   -5000001    1    1    2    0    0 -0.28058697281E+02 -0.58203444614E+02  0.75314482981E+03  0.75982304922E+03  0.77000000000E+02 0.  0.
<mgrwt>
<rscale>  0 0.20415362E+03</rscale>
<asrwt>0</asrwt>
<pdfrwt beam="1">  1        2 0.28182339E+00 0.20415362E+03</pdfrwt>
<pdfrwt beam="2">  1       -2 0.87508535E-03 0.20415362E+03</pdfrwt>
<totfact> 0.23275005E+04</totfact>
</mgrwt>
</event>
<event>
 4    1  0.4751076E-004  0.2152169E+03  0.7818608E-02  0.1137500E+00
         -2   -1    0    0    0  501 -0.00000000000E+00  0.00000000000E+00  0.10362486606E+04  0.10362486606E+04  0.25500000000E-02 0. -1.
          2   -1    0    0  501    0  0.00000000000E+00 -0.00000000000E+00 -0.11174521373E+02  0.11174521664E+02  0.25500000000E-02 0.  1.
    5000001    1    1    2    0    0  0.59191469882E+02 -0.46335049244E+02  0.51192022294E+03  0.52310790622E+03  0.77000000000E+02 0.  0.
   -5000001    1    1    2    0    0 -0.59191469882E+02  0.46335049244E+02  0.51315391626E+03  0.52431527602E+03  0.77000000000E+02 0.  0.
<mgrwt>
<rscale>  0 0.21521694E+03</rscale>
<asrwt>0</asrwt>
<pdfrwt beam="1">  1        2 0.17191568E-02 0.21521694E+03</pdfrwt>
<pdfrwt beam="2">  1       -2 0.15942291E+00 0.21521694E+03</pdfrwt>
<totfact> 0.18053503E+03</totfact>
</mgrwt>
</event>
<event>
 4    1  0.4751076E-004  0.2046821E+03  0.7818608E-02  0.1145848E+00
         -2   -1    0    0    0  501 -0.00000000000E+00  0.00000000000E+00  0.12973188031E+03  0.12973188034E+03  0.25500000000E-02 0. -1.
          2   -1    0    0  501    0  0.00000000000E+00 -0.00000000000E+00 -0.80733328770E+02  0.80733328810E+02  0.25500000000E-02 0.  1.
    5000001    1    1    2    0    0 -0.34775689593E+02  0.50404292123E+02  0.53487026478E+02  0.11198126295E+03  0.77000000000E+02 0.  0.
   -5000001    1    1    2    0    0  0.34775689593E+02 -0.50404292123E+02 -0.44884749336E+01  0.98483946196E+02  0.77000000000E+02 0.  0.
<mgrwt>
<rscale>  0 0.20468206E+03</rscale>
<asrwt>0</asrwt>
<pdfrwt beam="1">  1        2 0.12420512E-01 0.20468206E+03</pdfrwt>
<pdfrwt beam="2">  1       -2 0.19958751E-01 0.20468206E+03</pdfrwt>
<totfact> 0.10021205E+04</totfact>
</mgrwt>
</event>
<event>
 4    1  0.4751076E-004  0.2551773E+03  0.7818608E-02  0.1110076E+00
          2   -1    0    0  501    0  0.00000000000E+00  0.00000000000E+00  0.25559253037E+02  0.25559253164E+02  0.25500000000E-02 0.  1.
         -2   -1    0    0    0  501 -0.00000000000E+00 -0.00000000000E+00 -0.63690710805E+03  0.63690710806E+03  0.25500000000E-02 0. -1.
    5000001    1    1    2    0    0  0.92185946730E+01 -0.10029643229E+03 -0.26845691333E+03  0.29688797741E+03  0.77000000000E+02 0.  0.
   -5000001    1    1    2    0    0 -0.92185946730E+01  0.10029643229E+03 -0.34289094169E+03  0.36557838381E+03  0.77000000000E+02 0.  0.
<mgrwt>
<rscale>  0 0.25517735E+03</rscale>
<asrwt>0</asrwt>
<pdfrwt beam="1">  1        2 0.39321933E-02 0.25517735E+03</pdfrwt>
<pdfrwt beam="2">  1       -2 0.97985697E-01 0.25517735E+03</pdfrwt>
<totfact> 0.19418960E+03</totfact>
</mgrwt>
</event>
<event>
 4    1  0.4751076E-004  0.2446867E+03  0.7818608E-02  0.1116709E+00
          2   -1    0    0  501    0  0.00000000000E+00  0.00000000000E+00  0.39405774650E+04  0.39405774650E+04  0.25500000000E-02 0.  1.
         -2   -1    0    0    0  501 -0.00000000000E+00 -0.00000000000E+00 -0.37984005933E+01  0.37984014493E+01  0.25500000000E-02 0. -1.
    5000001    1    1    2    0    0  0.61875292224E+02 -0.40530600234E+02  0.29312354008E+04  0.29331793768E+04  0.77000000000E+02 0.  0.
   -5000001    1    1    2    0    0 -0.61875292224E+02  0.40530600234E+02  0.10055436636E+04  0.10111964897E+04  0.77000000000E+02 0.  0.
<mgrwt>
<rscale>  0 0.24468669E+03</rscale>
<asrwt>0</asrwt>
<pdfrwt beam="1">  1        2 0.60624271E+00 0.24468669E+03</pdfrwt>
<pdfrwt beam="2">  1       -2 0.58436936E-03 0.24468669E+03</pdfrwt>
<totfact> 0.23151306E+03</totfact>
</mgrwt>
</event>
<event>
 4    1  0.4751076E-004  0.2504875E+03  0.7818608E-02  0.1112997E+00
         -2   -1    0    0    0  501 -0.00000000000E+00  0.00000000000E+00  0.63164119012E+02  0.63164119064E+02  0.25500000000E-02 0. -1.
          2   -1    0    0  501    0  0.00000000000E+00 -0.00000000000E+00 -0.24833704961E+03  0.24833704962E+03  0.25500000000E-02 0.  1.
    5000001    1    1    2    0    0 -0.75927221466E+02  0.94027912021E-01 -0.14013869494E+02  0.10904283717E+03  0.77000000000E+02 0.  0.
   -5000001    1    1    2    0    0  0.75927221466E+02 -0.94027912021E-01 -0.17115906110E+03  0.20245833151E+03  0.77000000000E+02 0.  0.
<mgrwt>
<rscale>  0 0.25048745E+03</rscale>
<asrwt>0</asrwt>
<pdfrwt beam="1">  1        2 0.38205699E-01 0.25048745E+03</pdfrwt>
<pdfrwt beam="2">  1       -2 0.97175569E-02 0.25048745E+03</pdfrwt>
<totfact> 0.92026892E+03</totfact>
</mgrwt>
</event>
<event>
 4    1  0.4751076E-004  0.1823557E+03  0.7818608E-02  0.1165542E+00
          2   -1    0    0  501    0  0.00000000000E+00  0.00000000000E+00  0.17405357274E+04  0.17405357274E+04  0.25500000000E-02 0.  1.
         -2   -1    0    0    0  501 -0.00000000000E+00 -0.00000000000E+00 -0.47763458632E+01  0.47763465439E+01  0.25500000000E-02 0. -1.
    5000001    1    1    2    0    0 -0.22982422497E+01  0.44832975968E+02  0.10517618577E+04  0.10555317537E+04  0.77000000000E+02 0.  0.
   -5000001    1    1    2    0    0  0.22982422497E+01 -0.44832975968E+02  0.68399752379E+03  0.68978032024E+03  0.77000000000E+02 0.  0.
<mgrwt>
<rscale>  0 0.18235571E+03</rscale>
<asrwt>0</asrwt>
<pdfrwt beam="1">  1        2 0.26777421E+00 0.18235571E+03</pdfrwt>
<pdfrwt beam="2">  1       -2 0.73482392E-03 0.18235571E+03</pdfrwt>
<totfact> 0.33168939E+04</totfact>
</mgrwt>
</event>
<event>
 4    1  0.4751076E-004  0.3941591E+03  0.7818608E-02  0.1045821E+00
          2   -1    0    0  501    0  0.00000000000E+00  0.00000000000E+00  0.22752457024E+04  0.22752457024E+04  0.25500000000E-02 0.  1.
         -2   -1    0    0    0  501 -0.00000000000E+00 -0.00000000000E+00 -0.17070833494E+02  0.17070833684E+02  0.25500000000E-02 0. -1.
    5000001    1    1    2    0    0 -0.90320851053E+02 -0.12765983564E+03  0.16638945096E+04  0.16729999489E+04  0.77000000000E+02 0.  0.
   -5000001    1    1    2    0    0  0.90320851053E+02  0.12765983564E+03  0.59428035929E+03  0.61931658723E+03  0.77000000000E+02 0.  0.
<mgrwt>
<rscale>  0 0.39415906E+03</rscale>
<asrwt>0</asrwt>
<pdfrwt beam="1">  1        2 0.35003779E+00 0.39415906E+03</pdfrwt>
<pdfrwt beam="2">  1       -2 0.26262822E-02 0.39415906E+03</pdfrwt>
<totfact> 0.27215232E+03</totfact>
</mgrwt>
</event>
<event>
 4    1  0.4751076E-004  0.3712755E+03  0.7818608E-02  0.1054206E+00
         -2   -1    0    0    0  501 -0.00000000000E+00  0.00000000000E+00  0.25113577976E+02  0.25113578106E+02  0.25500000000E-02 0. -1.
          2   -1    0    0  501    0  0.00000000000E+00 -0.00000000000E+00 -0.13722207291E+04  0.13722207291E+04  0.25500000000E-02 0.  1.
    5000001    1    1    2    0    0 -0.52439719181E+02 -0.50739551481E+02 -0.10020017066E+03  0.14592292635E+03  0.77000000000E+02 0.  0.
   -5000001    1    1    2    0    0  0.52439719181E+02  0.50739551481E+02 -0.12469069804E+04  0.12514113808E+04  0.77000000000E+02 0.  0.
<mgrwt>
<rscale>  0 0.37127549E+03</rscale>
<asrwt>0</asrwt>
<pdfrwt beam="1">  1        2 0.21111082E+00 0.37127549E+03</pdfrwt>
<pdfrwt beam="2">  1       -2 0.38636285E-02 0.37127549E+03</pdfrwt>
<totfact> 0.46499963E+03</totfact>
</mgrwt>
</event>
<event>
 4    1  0.4751076E-004  0.2220898E+03  0.7818608E-02  0.1132335E+00
         -2   -1    0    0    0  501 -0.00000000000E+00  0.00000000000E+00  0.21790704223E+03  0.21790704225E+03  0.25500000000E-02 0. -1.
          2   -1    0    0  501    0  0.00000000000E+00 -0.00000000000E+00 -0.56588213573E+02  0.56588213631E+02  0.25500000000E-02 0.  1.
    5000001    1    1    2    0    0 -0.22836103887E+02  0.74270818007E+02  0.57068073756E+02  0.12338317183E+03  0.77000000000E+02 0.  0.
   -5000001    1    1    2    0    0  0.22836103887E+02 -0.74270818007E+02  0.10425075491E+03  0.15111208405E+03  0.77000000000E+02 0.  0.
<mgrwt>
<rscale>  0 0.22208980E+03</rscale>
<asrwt>0</asrwt>
<pdfrwt beam="1">  1        2 0.87058791E-02 0.22208980E+03</pdfrwt>
<pdfrwt beam="2">  1       -2 0.33524160E-01 0.22208980E+03</pdfrwt>
<totfact> 0.62306222E+03</totfact>
</mgrwt>
</event>
<event>
 4    1  0.4751076E-004  0.2189282E+03  0.7818608E-02  0.1134685E+00
          2   -1    0    0  501    0  0.00000000000E+00  0.00000000000E+00  0.37726042316E+03  0.37726042317E+03  0.25500000000E-02 0.  1.
         -2   -1    0    0    0  501 -0.00000000000E+00 -0.00000000000E+00 -0.31761577310E+02  0.31761577413E+02  0.25500000000E-02 0. -1.
    5000001    1    1    2    0    0  0.27627966982E+02  0.60624951775E+02  0.24782358743E+03  0.26792577298E+03  0.77000000000E+02 0.  0.
   -5000001    1    1    2    0    0 -0.27627966982E+02 -0.60624951775E+02  0.97675258416E+02  0.14109622760E+03  0.77000000000E+02 0.  0.
<mgrwt>
<rscale>  0 0.21892817E+03</rscale>
<asrwt>0</asrwt>
<pdfrwt beam="1">  1        2 0.58040065E-01 0.21892817E+03</pdfrwt>
<pdfrwt beam="2">  1       -2 0.48863965E-02 0.21892817E+03</pdfrwt>
<totfact> 0.16858483E+04</totfact>
</mgrwt>
</event>
<event>
 4    1  0.4751076E-004  0.1826702E+03  0.7818608E-02  0.1165244E+00
          2   -1    0    0  501    0  0.00000000000E+00  0.00000000000E+00  0.47497907105E+03  0.47497907106E+03  0.25500000000E-02 0.  1.
         -2   -1    0    0    0  501 -0.00000000000E+00 -0.00000000000E+00 -0.17563090366E+02  0.17563090551E+02  0.25500000000E-02 0. -1.
    5000001    1    1    2    0    0  0.20065632577E+02 -0.28106521554E+02  0.13450957964E+03  0.15879053240E+03  0.77000000000E+02 0.  0.
   -5000001    1    1    2    0    0 -0.20065632577E+02  0.28106521554E+02  0.32290640105E+03  0.33375162921E+03  0.77000000000E+02 0.  0.
<mgrwt>
<rscale>  0 0.18267020E+03</rscale>
<asrwt>0</asrwt>
<pdfrwt beam="1">  1        2 0.73073693E-01 0.18267020E+03</pdfrwt>
<pdfrwt beam="2">  1       -2 0.27020143E-02 0.18267020E+03</pdfrwt>
<totfact> 0.31337550E+04</totfact>
</mgrwt>
</event>
<event>
 4    1  0.4751076E-004  0.1776853E+03  0.7818608E-02  0.1170062E+00
         -2   -1    0    0    0  501 -0.00000000000E+00  0.00000000000E+00  0.32729751114E+01  0.32729761048E+01  0.25500000000E-02 0. -1.
          2   -1    0    0  501    0  0.00000000000E+00 -0.00000000000E+00 -0.24115708987E+04  0.24115708987E+04  0.25500000000E-02 0.  1.
    5000001    1    1    2    0    0 -0.40846307673E+02  0.10957812298E+02 -0.10240966189E+04  0.10278576649E+04  0.77000000000E+02 0.  0.
   -5000001    1    1    2    0    0  0.40846307673E+02 -0.10957812298E+02 -0.13842013047E+04  0.13869862099E+04  0.77000000000E+02 0.  0.
<mgrwt>
<rscale>  0 0.17768526E+03</rscale>
<asrwt>0</asrwt>
<pdfrwt beam="1">  1        2 0.37100949E+00 0.17768526E+03</pdfrwt>
<pdfrwt beam="2">  1       -2 0.50353664E-03 0.17768526E+03</pdfrwt>
<totfact> 0.25390587E+04</totfact>
</mgrwt>
</event>
<event>
 4    1  0.4751076E-004  0.1904816E+03  0.7818608E-02  0.1158028E+00
         -2   -1    0    0    0  501 -0.00000000000E+00  0.00000000000E+00  0.57879172431E+02  0.57879172487E+02  0.25500000000E-02 0. -1.
          2   -1    0    0  501    0  0.00000000000E+00 -0.00000000000E+00 -0.15671971607E+03  0.15671971610E+03  0.25500000000E-02 0.  1.
    5000001    1    1    2    0    0  0.40228167148E+02 -0.38962456368E+02 -0.46795231255E+02  0.10609039592E+03  0.77000000000E+02 0.  0.
   -5000001    1    1    2    0    0 -0.40228167148E+02  0.38962456368E+02 -0.52045312389E+02  0.10850849266E+03  0.77000000000E+02 0.  0.
<mgrwt>
<rscale>  0 0.19048157E+03</rscale>
<asrwt>0</asrwt>
<pdfrwt beam="1">  1        2 0.24110725E-01 0.19048157E+03</pdfrwt>
<pdfrwt beam="2">  1       -2 0.89044881E-02 0.19048157E+03</pdfrwt>
<totfact> 0.17183629E+04</totfact>
</mgrwt>
</event>
<event>
 4    1  0.4751076E-004  0.1985031E+03  0.7818608E-02  0.1151008E+00
         -2   -1    0    0    0  501 -0.00000000000E+00  0.00000000000E+00  0.36561862816E+01  0.36561871708E+01  0.25500000000E-02 0. -1.
          2   -1    0    0  501    0  0.00000000000E+00 -0.00000000000E+00 -0.26943027905E+04  0.26943027905E+04  0.25500000000E-02 0.  1.
    5000001    1    1    2    0    0  0.50668792878E+02  0.36318229153E+01 -0.18431064795E+04  0.18454135069E+04  0.77000000000E+02 0.  0.
   -5000001    1    1    2    0    0 -0.50668792878E+02 -0.36318229153E+01 -0.84754012468E+03  0.85254547073E+03  0.77000000000E+02 0.  0.
<mgrwt>
<rscale>  0 0.19850314E+03</rscale>
<asrwt>0</asrwt>
<pdfrwt beam="1">  1        2 0.41450653E+00 0.19850314E+03</pdfrwt>
<pdfrwt beam="2">  1       -2 0.56249242E-03 0.19850314E+03</pdfrwt>
<totfact> 0.15255033E+04</totfact>
</mgrwt>
</event>
<event>
 4    1  0.4751076E-004  0.1891600E+03  0.7818608E-02  0.1159221E+00
         -2   -1    0    0    0  501 -0.00000000000E+00  0.00000000000E+00  0.23822325471E+02  0.23822325607E+02  0.25500000000E-02 0. -1.
          2   -1    0    0  501    0  0.00000000000E+00 -0.00000000000E+00 -0.37550375187E+03  0.37550375188E+03  0.25500000000E-02 0.  1.
    5000001    1    1    2    0    0  0.20181101045E+02  0.59293406663E+01 -0.28294270769E+03  0.29398641084E+03  0.77000000000E+02 0.  0.
   -5000001    1    1    2    0    0 -0.20181101045E+02 -0.59293406663E+01 -0.68738718705E+02  0.10533966665E+03  0.77000000000E+02 0.  0.
<mgrwt>
<rscale>  0 0.18915996E+03</rscale>
<asrwt>0</asrwt>
<pdfrwt beam="1">  1        2 0.57769804E-01 0.18915996E+03</pdfrwt>
<pdfrwt beam="2">  1       -2 0.36649734E-02 0.18915996E+03</pdfrwt>
<totfact> 0.25817746E+04</totfact>
</mgrwt>
</event>
<event>
 4    1  0.4751076E-004  0.2366954E+03  0.7818608E-02  0.1122014E+00
          2   -1    0    0  501    0  0.00000000000E+00  0.00000000000E+00  0.25626754757E+03  0.25626754758E+03  0.25500000000E-02 0.  1.
         -2   -1    0    0    0  501 -0.00000000000E+00 -0.00000000000E+00 -0.54654521851E+02  0.54654521911E+02  0.25500000000E-02 0. -1.
    5000001    1    1    2    0    0  0.88838779378E+02 -0.13547209195E+02  0.99294626916E+02  0.15448067365E+03  0.77000000000E+02 0.  0.
   -5000001    1    1    2    0    0 -0.88838779378E+02  0.13547209195E+02  0.10231839880E+03  0.15644139584E+03  0.77000000000E+02 0.  0.
<mgrwt>
<rscale>  0 0.23669542E+03</rscale>
<asrwt>0</asrwt>
<pdfrwt beam="1">  1        2 0.39425777E-01 0.23669542E+03</pdfrwt>
<pdfrwt beam="2">  1       -2 0.84083878E-02 0.23669542E+03</pdfrwt>
<totfact> 0.11140103E+04</totfact>
</mgrwt>
</event>
<event>
 4    1  0.4751076E-004  0.1745213E+03  0.7818608E-02  0.1173213E+00
         -2   -1    0    0    0  501 -0.00000000000E+00  0.00000000000E+00  0.46134900446E+01  0.46134907493E+01  0.25500000000E-02 0. -1.
          2   -1    0    0  501    0  0.00000000000E+00 -0.00000000000E+00 -0.16504681098E+04  0.16504681098E+04  0.25500000000E-02 0.  1.
    5000001    1    1    2    0    0  0.14408464941E+02 -0.33754365272E+02 -0.64845630526E+03  0.65404246106E+03  0.77000000000E+02 0.  0.
   -5000001    1    1    2    0    0 -0.14408464941E+02  0.33754365272E+02 -0.99739831449E+03  0.10010391395E+04  0.77000000000E+02 0.  0.
<mgrwt>
<rscale>  0 0.17452127E+03</rscale>
<asrwt>0</asrwt>
<pdfrwt beam="1">  1        2 0.25391770E+00 0.17452127E+03</pdfrwt>
<pdfrwt beam="2">  1       -2 0.70976907E-03 0.17452127E+03</pdfrwt>
<totfact> 0.38710479E+04</totfact>
</mgrwt>
</event>
<event>
 4    1  0.4751076E-004  0.1987898E+03  0.7818608E-02  0.1150764E+00
          2   -1    0    0  501    0  0.00000000000E+00  0.00000000000E+00  0.23693362092E+04  0.23693362092E+04  0.25500000000E-02 0.  1.
         -2   -1    0    0    0  501 -0.00000000000E+00 -0.00000000000E+00 -0.41696689402E+01  0.41696697199E+01  0.25500000000E-02 0. -1.
    5000001    1    1    2    0    0 -0.23613854749E+02 -0.58246997813E+02  0.11808269867E+04  0.11850028267E+04  0.77000000000E+02 0.  0.
   -5000001    1    1    2    0    0  0.23613854749E+02  0.58246997813E+02  0.11843395536E+04  0.11885030522E+04  0.77000000000E+02 0.  0.
<mgrwt>
<rscale>  0 0.19878982E+03</rscale>
<asrwt>0</asrwt>
<pdfrwt beam="1">  1        2 0.36451341E+00 0.19878982E+03</pdfrwt>
<pdfrwt beam="2">  1       -2 0.64148734E-03 0.19878982E+03</pdfrwt>
<totfact> 0.18994173E+04</totfact>
</mgrwt>
</event>
<event>
 4    1  0.4751076E-004  0.4351809E+03  0.7818608E-02  0.1032236E+00
          2   -1    0    0  501    0  0.00000000000E+00  0.00000000000E+00  0.21027682723E+04  0.21027682723E+04  0.25500000000E-02 0.  1.
         -2   -1    0    0    0  501 -0.00000000000E+00 -0.00000000000E+00 -0.22515842342E+02  0.22515842487E+02  0.25500000000E-02 0. -1.
    5000001    1    1    2    0    0 -0.18487163629E+03  0.84256577005E+02  0.10978913719E+04  0.11191832545E+04  0.77000000000E+02 0.  0.
   -5000001    1    1    2    0    0  0.18487163629E+03 -0.84256577005E+02  0.98236105809E+03  0.10061008603E+04  0.77000000000E+02 0.  0.
<mgrwt>
<rscale>  0 0.43518088E+03</rscale>
<asrwt>0</asrwt>
<pdfrwt beam="1">  1        2 0.32350291E+00 0.43518088E+03</pdfrwt>
<pdfrwt beam="2">  1       -2 0.34639746E-02 0.43518088E+03</pdfrwt>
<totfact> 0.22170690E+03</totfact>
</mgrwt>
</event>
<event>
 4    1  0.4751076E-004  0.2100415E+03  0.7818608E-02  0.1141533E+00
          2   -1    0    0  501    0  0.00000000000E+00  0.00000000000E+00  0.18247535822E+03  0.18247535823E+03  0.25500000000E-02 0.  1.
         -2   -1    0    0    0  501 -0.00000000000E+00 -0.00000000000E+00 -0.60442983241E+02  0.60442983295E+02  0.25500000000E-02 0. -1.
    5000001    1    1    2    0    0  0.40751732452E+02  0.52456102763E+02  0.91351759661E+02  0.13669853843E+03  0.77000000000E+02 0.  0.
   -5000001    1    1    2    0    0 -0.40751732452E+02 -0.52456102763E+02  0.30680615314E+02  0.10621980310E+03  0.77000000000E+02 0.  0.
<mgrwt>
<rscale>  0 0.21004147E+03</rscale>
<asrwt>0</asrwt>
<pdfrwt beam="1">  1        2 0.28073132E-01 0.21004147E+03</pdfrwt>
<pdfrwt beam="2">  1       -2 0.92989205E-02 0.21004147E+03</pdfrwt>
<totfact> 0.13658192E+04</totfact>
</mgrwt>
</event>
<event>
 4    1  0.4751076E-004  0.4527515E+03  0.7818608E-02  0.1026905E+00
          2   -1    0    0  501    0  0.00000000000E+00  0.00000000000E+00  0.23149073694E+04  0.23149073694E+04  0.25500000000E-02 0.  1.
         -2   -1    0    0    0  501 -0.00000000000E+00 -0.00000000000E+00 -0.22137374396E+02  0.22137374543E+02  0.25500000000E-02 0. -1.
    5000001    1    1    2    0    0  0.13829874785E+03  0.10480539738E+03  0.50985581307E+03  0.54405207940E+03  0.77000000000E+02 0.  0.
   -5000001    1    1    2    0    0 -0.13829874785E+03 -0.10480539738E+03  0.17829141819E+04  0.17929926645E+04  0.77000000000E+02 0.  0.
<mgrwt>
<rscale>  0 0.45275146E+03</rscale>
<asrwt>0</asrwt>
<pdfrwt beam="1">  1        2 0.35613966E+00 0.45275146E+03</pdfrwt>
<pdfrwt beam="2">  1       -2 0.34057493E-02 0.45275146E+03</pdfrwt>
<totfact> 0.17437243E+03</totfact>
</mgrwt>
</event>
<event>
 4    1  0.4751076E-004  0.1766911E+03  0.7818608E-02  0.1171044E+00
         -2   -1    0    0    0  501 -0.00000000000E+00  0.00000000000E+00  0.31593749778E+01  0.31593760069E+01  0.25500000000E-02 0. -1.
          2   -1    0    0  501    0  0.00000000000E+00 -0.00000000000E+00 -0.24704034981E+04  0.24704034981E+04  0.25500000000E-02 0.  1.
    5000001    1    1    2    0    0  0.36904355052E+02 -0.24444467711E+01 -0.91808443283E+03  0.92204985361E+03  0.77000000000E+02 0.  0.
   -5000001    1    1    2    0    0 -0.36904355052E+02  0.24444467711E+01 -0.15491596903E+04  0.15515130205E+04  0.77000000000E+02 0.  0.
<mgrwt>
<rscale>  0 0.17669106E+03</rscale>
<asrwt>0</asrwt>
<pdfrwt beam="1">  1        2 0.38006053E+00 0.17669106E+03</pdfrwt>
<pdfrwt beam="2">  1       -2 0.48605974E-03 0.17669106E+03</pdfrwt>
<totfact> 0.24826625E+04</totfact>
</mgrwt>
</event>
<event>
 4    1  0.4751076E-004  0.1872132E+03  0.7818608E-02  0.1160999E+00
          2   -1    0    0  501    0  0.00000000000E+00  0.00000000000E+00  0.64078909546E+02  0.64078909597E+02  0.25500000000E-02 0.  1.
         -2   -1    0    0    0  501 -0.00000000000E+00 -0.00000000000E+00 -0.13674068449E+03  0.13674068451E+03  0.25500000000E-02 0. -1.
    5000001    1    1    2    0    0  0.51790676842E+02 -0.73590588508E+01 -0.46882688068E+02  0.10422771414E+03  0.77000000000E+02 0.  0.
   -5000001    1    1    2    0    0 -0.51790676842E+02  0.73590588508E+01 -0.25779086871E+02  0.96591879963E+02  0.77000000000E+02 0.  0.
<mgrwt>
<rscale>  0 0.18721318E+03</rscale>
<asrwt>0</asrwt>
<pdfrwt beam="1">  1        2 0.98582939E-02 0.18721318E+03</pdfrwt>
<pdfrwt beam="2">  1       -2 0.21037028E-01 0.18721318E+03</pdfrwt>
<totfact> 0.12073259E+04</totfact>
</mgrwt>
</event>
<event>
 4    1  0.4751076E-004  0.2141447E+03  0.7818608E-02  0.1138325E+00
         -2   -1    0    0    0  501 -0.00000000000E+00  0.00000000000E+00  0.29832139639E+02  0.29832139748E+02  0.25500000000E-02 0. -1.
          2   -1    0    0  501    0  0.00000000000E+00 -0.00000000000E+00 -0.38429997151E+03  0.38429997151E+03  0.25500000000E-02 0.  1.
    5000001    1    1    2    0    0  0.64824391936E+02 -0.36513745580E+02 -0.17759587581E+03  0.20737586772E+03  0.77000000000E+02 0.  0.
   -5000001    1    1    2    0    0 -0.64824391936E+02  0.36513745580E+02 -0.17687195606E+03  0.20675624355E+03  0.77000000000E+02 0.  0.
<mgrwt>
<rscale>  0 0.21414472E+03</rscale>
<asrwt>0</asrwt>
<pdfrwt beam="1">  1        2 0.59123069E-01 0.21414472E+03</pdfrwt>
<pdfrwt beam="2">  1       -2 0.45895602E-02 0.21414472E+03</pdfrwt>
<totfact> 0.18140183E+04</totfact>
</mgrwt>
</event>
<event>
 4    1  0.4751076E-004  0.1932750E+03  0.7818608E-02  0.1155540E+00
         -2   -1    0    0    0  501 -0.00000000000E+00  0.00000000000E+00  0.61061301288E+01  0.61061306612E+01  0.25500000000E-02 0. -1.
          2   -1    0    0  501    0  0.00000000000E+00 -0.00000000000E+00 -0.15294141305E+04  0.15294141305E+04  0.25500000000E-02 0.  1.
    5000001    1    1    2    0    0  0.35538534937E+02 -0.21133222811E+02 -0.43406435031E+03  0.44277585840E+03  0.77000000000E+02 0.  0.
   -5000001    1    1    2    0    0 -0.35538534937E+02  0.21133222811E+02 -0.10892436501E+04  0.10927444028E+04  0.77000000000E+02 0.  0.
<mgrwt>
<rscale>  0 0.19327496E+03</rscale>
<asrwt>0</asrwt>
<pdfrwt beam="1">  1        2 0.23529418E+00 0.19327496E+03</pdfrwt>
<pdfrwt beam="2">  1       -2 0.93940589E-03 0.19327496E+03</pdfrwt>
<totfact> 0.30135981E+04</totfact>
</mgrwt>
</event>
<event>
 4    1  0.4751076E-004  0.2119921E+03  0.7818608E-02  0.1139998E+00
         -2   -1    0    0    0  501 -0.00000000000E+00  0.00000000000E+00  0.20313658175E+02  0.20313658335E+02  0.25500000000E-02 0. -1.
          2   -1    0    0  501    0  0.00000000000E+00 -0.00000000000E+00 -0.55308428892E+03  0.55308428893E+03  0.25500000000E-02 0.  1.
    5000001    1    1    2    0    0 -0.43560745895E+02  0.51212651068E+02 -0.34221121473E+03  0.35715233402E+03  0.77000000000E+02 0.  0.
   -5000001    1    1    2    0    0  0.43560745895E+02 -0.51212651068E+02 -0.19055941602E+03  0.21624561324E+03  0.77000000000E+02 0.  0.
<mgrwt>
<rscale>  0 0.21199212E+03</rscale>
<asrwt>0</asrwt>
<pdfrwt beam="1">  1        2 0.85089879E-01 0.21199212E+03</pdfrwt>
<pdfrwt beam="2">  1       -2 0.31251786E-02 0.21199212E+03</pdfrwt>
<totfact> 0.21568878E+04</totfact>
</mgrwt>
</event>
<event>
 4    1  0.4751076E-004  0.2410329E+03  0.7818608E-02  0.1119107E+00
         -2   -1    0    0    0  501 -0.00000000000E+00  0.00000000000E+00  0.40478094216E+02  0.40478094297E+02  0.25500000000E-02 0. -1.
          2   -1    0    0  501    0  0.00000000000E+00 -0.00000000000E+00 -0.35881675254E+03  0.35881675255E+03  0.25500000000E-02 0.  1.
    5000001    1    1    2    0    0  0.39492032474E+02  0.44649235068E+02 -0.27680001252E+03  0.29342873368E+03  0.77000000000E+02 0.  0.
   -5000001    1    1    2    0    0 -0.39492032474E+02 -0.44649235068E+02 -0.41538645809E+02  0.10586611317E+03  0.77000000000E+02 0.  0.
<mgrwt>
<rscale>  0 0.24103293E+03</rscale>
<asrwt>0</asrwt>
<pdfrwt beam="1">  1        2 0.55202575E-01 0.24103293E+03</pdfrwt>
<pdfrwt beam="2">  1       -2 0.62273994E-02 0.24103293E+03</pdfrwt>
<totfact> 0.12368018E+04</totfact>
</mgrwt>
</event>
<event>
 4    1  0.4751076E-004  0.2248456E+03  0.7818608E-02  0.1130321E+00
          2   -1    0    0  501    0  0.00000000000E+00  0.00000000000E+00  0.59920315299E+03  0.59920315300E+03  0.25500000000E-02 0.  1.
         -2   -1    0    0    0  501 -0.00000000000E+00 -0.00000000000E+00 -0.21092823559E+02  0.21092823714E+02  0.25500000000E-02 0. -1.
    5000001    1    1    2    0    0 -0.61610011940E+02  0.24655476745E+02  0.42153905660E+03  0.43362179644E+03  0.77000000000E+02 0.  0.
   -5000001    1    1    2    0    0  0.61610011940E+02 -0.24655476745E+02  0.15657127283E+03  0.18667418027E+03  0.77000000000E+02 0.  0.
<mgrwt>
<rscale>  0 0.22484560E+03</rscale>
<asrwt>0</asrwt>
<pdfrwt beam="1">  1        2 0.92185106E-01 0.22484560E+03</pdfrwt>
<pdfrwt beam="2">  1       -2 0.32450496E-02 0.22484560E+03</pdfrwt>
<totfact> 0.18680704E+04</totfact>
</mgrwt>
</event>
<event>
 4    1  0.4751076E-004  0.1713757E+03  0.7818608E-02  0.1176421E+00
         -2   -1    0    0    0  501 -0.00000000000E+00  0.00000000000E+00  0.30490480172E+01  0.30490490836E+01  0.25500000000E-02 0. -1.
          2   -1    0    0  501    0  0.00000000000E+00 -0.00000000000E+00 -0.24080992062E+04  0.24080992062E+04  0.25500000000E-02 0.  1.
    5000001    1    1    2    0    0 -0.27844882815E+01 -0.34828689169E+02 -0.13977906786E+04  0.14003458759E+04  0.77000000000E+02 0.  0.
   -5000001    1    1    2    0    0  0.27844882815E+01  0.34828689169E+02 -0.10072594796E+04  0.10108023794E+04  0.77000000000E+02 0.  0.
<mgrwt>
<rscale>  0 0.17137574E+03</rscale>
<asrwt>0</asrwt>
<pdfrwt beam="1">  1        2 0.37047528E+00 0.17137574E+03</pdfrwt>
<pdfrwt beam="2">  1       -2 0.46908632E-03 0.17137574E+03</pdfrwt>
<totfact> 0.28164395E+04</totfact>
</mgrwt>
</event>
<event>
 4    1  0.4751076E-004  0.2081296E+03  0.7818608E-02  0.1143056E+00
          2   -1    0    0  501    0  0.00000000000E+00  0.00000000000E+00  0.17712833245E+04  0.17712833245E+04  0.25500000000E-02 0.  1.
         -2   -1    0    0    0  501 -0.00000000000E+00 -0.00000000000E+00 -0.61139161805E+01  0.61139167123E+01  0.25500000000E-02 0. -1.
    5000001    1    1    2    0    0  0.27546881011E+02 -0.63068693011E+02  0.77322528562E+03  0.78009155425E+03  0.77000000000E+02 0.  0.
   -5000001    1    1    2    0    0 -0.27546881011E+02  0.63068693011E+02  0.99194412274E+03  0.99730568700E+03  0.77000000000E+02 0.  0.
<mgrwt>
<rscale>  0 0.20812956E+03</rscale>
<asrwt>0</asrwt>
<pdfrwt beam="1">  1        2 0.27250512E+00 0.20812956E+03</pdfrwt>
<pdfrwt beam="2">  1       -2 0.94060254E-03 0.20812956E+03</pdfrwt>
<totfact> 0.22570321E+04</totfact>
</mgrwt>
</event>
<event>
 4    1  0.4751076E-004  0.2068458E+03  0.7818608E-02  0.1144088E+00
          2   -1    0    0  501    0  0.00000000000E+00  0.00000000000E+00  0.14503546443E+02  0.14503546667E+02  0.25500000000E-02 0.  1.
         -2   -1    0    0    0  501 -0.00000000000E+00 -0.00000000000E+00 -0.73749491344E+03  0.73749491344E+03  0.25500000000E-02 0. -1.
    5000001    1    1    2    0    0  0.45718268991E+02 -0.16196964902E+02 -0.18284280394E+03  0.20423758896E+03  0.77000000000E+02 0.  0.
   -5000001    1    1    2    0    0 -0.45718268991E+02  0.16196964902E+02 -0.54014856305E+03  0.54776087115E+03  0.77000000000E+02 0.  0.
<mgrwt>
<rscale>  0 0.20684576E+03</rscale>
<asrwt>0</asrwt>
<pdfrwt beam="1">  1        2 0.22313154E-02 0.20684576E+03</pdfrwt>
<pdfrwt beam="2">  1       -2 0.11346073E+00 0.20684576E+03</pdfrwt>
<totfact> 0.29410123E+03</totfact>
</mgrwt>
</event>
<event>
 4    1  0.4751076E-004  0.1794255E+03  0.7818608E-02  0.1168360E+00
          2   -1    0    0  501    0  0.00000000000E+00  0.00000000000E+00  0.18571910682E+03  0.18571910684E+03  0.25500000000E-02 0.  1.
         -2   -1    0    0    0  501 -0.00000000000E+00 -0.00000000000E+00 -0.43336299671E+02  0.43336299746E+02  0.25500000000E-02 0. -1.
    5000001    1    1    2    0    0  0.73694633298E+01 -0.30615398213E+02  0.28320159093E+02  0.87878569677E+02  0.77000000000E+02 0.  0.
   -5000001    1    1    2    0    0 -0.73694633298E+01  0.30615398213E+02  0.11406264806E+03  0.14117683691E+03  0.77000000000E+02 0.  0.
<mgrwt>
<rscale>  0 0.17942552E+03</rscale>
<asrwt>0</asrwt>
<pdfrwt beam="1">  1        2 0.28572170E-01 0.17942552E+03</pdfrwt>
<pdfrwt beam="2">  1       -2 0.66671230E-02 0.17942552E+03</pdfrwt>
<totfact> 0.22194414E+04</totfact>
</mgrwt>
</event>
<event>
 4    1  0.4751076E-004  0.2109714E+03  0.7818608E-02  0.1140799E+00
         -2   -1    0    0    0  501 -0.00000000000E+00  0.00000000000E+00  0.43293166839E+02  0.43293166915E+02  0.25500000000E-02 0. -1.
          2   -1    0    0  501    0  0.00000000000E+00 -0.00000000000E+00 -0.25702056118E+03  0.25702056119E+03  0.25500000000E-02 0.  1.
    5000001    1    1    2    0    0  0.48183840571E+02  0.51133758602E+02 -0.12989992023E+03  0.16655129251E+03  0.77000000000E+02 0.  0.
   -5000001    1    1    2    0    0 -0.48183840571E+02 -0.51133758602E+02 -0.83827474111E+02  0.13376243560E+03  0.77000000000E+02 0.  0.
<mgrwt>
<rscale>  0 0.21097141E+03</rscale>
<asrwt>0</asrwt>
<pdfrwt beam="1">  1        2 0.39541624E-01 0.21097141E+03</pdfrwt>
<pdfrwt beam="2">  1       -2 0.66604874E-02 0.21097141E+03</pdfrwt>
<totfact> 0.15828160E+04</totfact>
</mgrwt>
</event>
<event>
 4    1  0.4751076E-004  0.3611558E+03  0.7818608E-02  0.1058127E+00
          2   -1    0    0  501    0  0.00000000000E+00  0.00000000000E+00  0.85099912205E+02  0.85099912243E+02  0.25500000000E-02 0.  1.
         -2   -1    0    0    0  501 -0.00000000000E+00 -0.00000000000E+00 -0.38317754719E+03  0.38317754720E+03  0.25500000000E-02 0. -1.
    5000001    1    1    2    0    0  0.99405716829E+02 -0.12960619532E+03 -0.14947512733E+03  0.23441645866E+03  0.77000000000E+02 0.  0.
   -5000001    1    1    2    0    0 -0.99405716829E+02  0.12960619532E+03 -0.14860250766E+03  0.23386100078E+03  0.77000000000E+02 0.  0.
<mgrwt>
<rscale>  0 0.36115579E+03</rscale>
<asrwt>0</asrwt>
<pdfrwt beam="1">  1        2 0.13092294E-01 0.36115579E+03</pdfrwt>
<pdfrwt beam="2">  1       -2 0.58950391E-01 0.36115579E+03</pdfrwt>
<totfact> 0.12674394E+03</totfact>
</mgrwt>
</event>
<event>
 4    1  0.4751076E-004  0.1757460E+03  0.7818608E-02  0.1171985E+00
         -2   -1    0    0    0  501 -0.00000000000E+00  0.00000000000E+00  0.28880820476E+03  0.28880820477E+03  0.25500000000E-02 0. -1.
          2   -1    0    0  501    0  0.00000000000E+00 -0.00000000000E+00 -0.26736313074E+02  0.26736313195E+02  0.25500000000E-02 0.  1.
    5000001    1    1    2    0    0 -0.37487991160E+02  0.18783692359E+02  0.12049154627E+03  0.14901472847E+03  0.77000000000E+02 0.  0.
   -5000001    1    1    2    0    0  0.37487991160E+02 -0.18783692359E+02  0.14158034542E+03  0.16652978949E+03  0.77000000000E+02 0.  0.
<mgrwt>
<rscale>  0 0.17574603E+03</rscale>
<asrwt>0</asrwt>
<pdfrwt beam="1">  1        2 0.41132789E-02 0.17574603E+03</pdfrwt>
<pdfrwt beam="2">  1       -2 0.44432032E-01 0.17574603E+03</pdfrwt>
<totfact> 0.95166413E+03</totfact>
</mgrwt>
</event>
<event>
 4    1  0.4751076E-004  0.2780176E+03  0.7818608E-02  0.1096777E+00
          2   -1    0    0  501    0  0.00000000000E+00  0.00000000000E+00  0.10534274712E+04  0.10534274712E+04  0.25500000000E-02 0.  1.
         -2   -1    0    0    0  501 -0.00000000000E+00 -0.00000000000E+00 -0.18343401727E+02  0.18343401904E+02  0.25500000000E-02 0. -1.
    5000001    1    1    2    0    0 -0.34157668765E+02  0.11006687506E+03  0.55851813401E+03  0.57545892064E+03  0.77000000000E+02 0.  0.
   -5000001    1    1    2    0    0  0.34157668765E+02 -0.11006687506E+03  0.47656593547E+03  0.49631195248E+03  0.77000000000E+02 0.  0.
<mgrwt>
<rscale>  0 0.27801758E+03</rscale>
<asrwt>0</asrwt>
<pdfrwt beam="1">  1        2 0.16206581E+00 0.27801758E+03</pdfrwt>
<pdfrwt beam="2">  1       -2 0.28220611E-02 0.27801758E+03</pdfrwt>
<totfact> 0.11283373E+04</totfact>
</mgrwt>
</event>
<event>
 4    1  0.4751076E-004  0.3331958E+03  0.7818608E-02  0.1069732E+00
         -2   -1    0    0    0  501 -0.00000000000E+00  0.00000000000E+00  0.21307967907E+02  0.21307968060E+02  0.25500000000E-02 0. -1.
          2   -1    0    0  501    0  0.00000000000E+00 -0.00000000000E+00 -0.13025578984E+04  0.13025578984E+04  0.25500000000E-02 0.  1.
    5000001    1    1    2    0    0  0.34803703615E+02  0.11469573076E+03 -0.29746393720E+03  0.32981843850E+03  0.77000000000E+02 0.  0.
   -5000001    1    1    2    0    0 -0.34803703615E+02 -0.11469573076E+03 -0.98378599333E+03  0.99404742800E+03  0.77000000000E+02 0.  0.
<mgrwt>
<rscale>  0 0.33319581E+03</rscale>
<asrwt>0</asrwt>
<pdfrwt beam="1">  1        2 0.20039346E+00 0.33319581E+03</pdfrwt>
<pdfrwt beam="2">  1       -2 0.32781499E-02 0.33319581E+03</pdfrwt>
<totfact> 0.65075061E+03</totfact>
</mgrwt>
</event>
<event>
 4    1  0.4751076E-004  0.3751334E+03  0.7818608E-02  0.1052747E+00
          2   -1    0    0  501    0  0.00000000000E+00  0.00000000000E+00  0.11051222174E+04  0.11051222174E+04  0.25500000000E-02 0.  1.
         -2   -1    0    0    0  501 -0.00000000000E+00 -0.00000000000E+00 -0.31834728043E+02  0.31834728145E+02  0.25500000000E-02 0. -1.
    5000001    1    1    2    0    0  0.23334184968E+02 -0.15726623935E+03  0.34555595790E+03  0.38809157974E+03  0.77000000000E+02 0.  0.
   -5000001    1    1    2    0    0 -0.23334184968E+02  0.15726623935E+03  0.72773153145E+03  0.74886536580E+03  0.77000000000E+02 0.  0.
<mgrwt>
<rscale>  0 0.37513339E+03</rscale>
<asrwt>0</asrwt>
<pdfrwt beam="1">  1        2 0.17001881E+00 0.37513339E+03</pdfrwt>
<pdfrwt beam="2">  1       -2 0.48976503E-02 0.37513339E+03</pdfrwt>
<totfact> 0.46036629E+03</totfact>
</mgrwt>
</event>
<event>
 4    1  0.4751076E-004  0.2658704E+03  0.7818608E-02  0.1103667E+00
         -2   -1    0    0    0  501 -0.00000000000E+00  0.00000000000E+00  0.11411439605E+02  0.11411439890E+02  0.25500000000E-02 0. -1.
          2   -1    0    0  501    0  0.00000000000E+00 -0.00000000000E+00 -0.15486013040E+04  0.15486013040E+04  0.25500000000E-02 0.  1.
    5000001    1    1    2    0    0 -0.38971705027E+02 -0.33246226245E+01 -0.17562433349E+03  0.19571089245E+03  0.77000000000E+02 0.  0.
   -5000001    1    1    2    0    0  0.38971705027E+02  0.33246226245E+01 -0.13615655309E+04  0.13643018514E+04  0.77000000000E+02 0.  0.
<mgrwt>
<rscale>  0 0.26587042E+03</rscale>
<asrwt>0</asrwt>
<pdfrwt beam="1">  1        2 0.23824619E+00 0.26587042E+03</pdfrwt>
<pdfrwt beam="2">  1       -2 0.17556073E-02 0.26587042E+03</pdfrwt>
<totfact> 0.12024397E+04</totfact>
</mgrwt>
</event>
<event>
 4    1  0.4751076E-004  0.1910313E+03  0.7818608E-02  0.1157534E+00
          2   -1    0    0  501    0  0.00000000000E+00  0.00000000000E+00  0.48416545830E+03  0.48416545831E+03  0.25500000000E-02 0.  1.
         -2   -1    0    0    0  501 -0.00000000000E+00 -0.00000000000E+00 -0.18843231301E+02  0.18843231474E+02  0.25500000000E-02 0. -1.
    5000001    1    1    2    0    0 -0.52770471018E+02 -0.12517927618E+02  0.27452862652E+03  0.29023505630E+03  0.77000000000E+02 0.  0.
   -5000001    1    1    2    0    0  0.52770471018E+02  0.12517927618E+02  0.19079360048E+03  0.21277363349E+03  0.77000000000E+02 0.  0.
<mgrwt>
<rscale>  0 0.19103132E+03</rscale>
<asrwt>0</asrwt>
<pdfrwt beam="1">  1        2 0.74486979E-01 0.19103132E+03</pdfrwt>
<pdfrwt beam="2">  1       -2 0.28989592E-02 0.19103132E+03</pdfrwt>
<totfact> 0.27761849E+04</totfact>
</mgrwt>
</event>
<event>
 4    1  0.4751076E-004  0.1843144E+03  0.7818608E-02  0.1163692E+00
         -2   -1    0    0    0  501 -0.00000000000E+00  0.00000000000E+00  0.14381221745E+02  0.14381221971E+02  0.25500000000E-02 0. -1.
          2   -1    0    0  501    0  0.00000000000E+00 -0.00000000000E+00 -0.59055829753E+03  0.59055829754E+03  0.25500000000E-02 0.  1.
    5000001    1    1    2    0    0  0.23428821999E+02 -0.13662596082E+02 -0.14774734642E+03  0.16880122809E+03  0.77000000000E+02 0.  0.
   -5000001    1    1    2    0    0 -0.23428821999E+02  0.13662596082E+02 -0.42842972937E+03  0.43613829141E+03  0.77000000000E+02 0.  0.
<mgrwt>
<rscale>  0 0.18431440E+03</rscale>
<asrwt>0</asrwt>
<pdfrwt beam="1">  1        2 0.90855104E-01 0.18431440E+03</pdfrwt>
<pdfrwt beam="2">  1       -2 0.22124961E-02 0.18431440E+03</pdfrwt>
<totfact> 0.32956859E+04</totfact>
</mgrwt>
</event>
<event>
 4    1  0.4751076E-004  0.2676566E+03  0.7818608E-02  0.1102628E+00
         -2   -1    0    0    0  501 -0.00000000000E+00  0.00000000000E+00  0.52192184585E+02  0.52192184647E+02  0.25500000000E-02 0. -1.
          2   -1    0    0  501    0  0.00000000000E+00 -0.00000000000E+00 -0.34315496461E+03  0.34315496462E+03  0.25500000000E-02 0.  1.
    5000001    1    1    2    0    0 -0.51232849466E+02  0.16419636479E+02 -0.28628098025E+03  0.30129754227E+03  0.77000000000E+02 0.  0.
   -5000001    1    1    2    0    0  0.51232849466E+02 -0.16419636479E+02 -0.46817997744E+01  0.94049606993E+02  0.77000000000E+02 0.  0.
<mgrwt>
<rscale>  0 0.26765655E+03</rscale>
<asrwt>0</asrwt>
<pdfrwt beam="1">  1        2 0.52793070E-01 0.26765655E+03</pdfrwt>
<pdfrwt beam="2">  1       -2 0.80295671E-02 0.26765655E+03</pdfrwt>
<totfact> 0.87987901E+03</totfact>
</mgrwt>
</event>
<event>
 4    1  0.4751076E-004  0.1873389E+03  0.7818608E-02  0.1160884E+00
          2   -1    0    0  501    0  0.00000000000E+00  0.00000000000E+00  0.52889133223E+03  0.52889133223E+03  0.25500000000E-02 0.  1.
         -2   -1    0    0    0  501 -0.00000000000E+00 -0.00000000000E+00 -0.16589347217E+02  0.16589347413E+02  0.25500000000E-02 0. -1.
    5000001    1    1    2    0    0 -0.35011189508E+02 -0.30398552281E+02  0.33291846096E+03  0.34483845061E+03  0.77000000000E+02 0.  0.
   -5000001    1    1    2    0    0  0.35011189508E+02  0.30398552281E+02  0.17938352405E+03  0.20064222904E+03  0.77000000000E+02 0.  0.
<mgrwt>
<rscale>  0 0.18733886E+03</rscale>
<asrwt>0</asrwt>
<pdfrwt beam="1">  1        2 0.81367881E-01 0.18733886E+03</pdfrwt>
<pdfrwt beam="2">  1       -2 0.25522078E-02 0.18733886E+03</pdfrwt>
<totfact> 0.30316113E+04</totfact>
</mgrwt>
</event>
<event>
 4    1  0.4751076E-004  0.2615561E+03  0.7818608E-02  0.1106212E+00
          2   -1    0    0  501    0  0.00000000000E+00  0.00000000000E+00  0.18395031511E+04  0.18395031511E+04  0.25500000000E-02 0.  1.
         -2   -1    0    0    0  501 -0.00000000000E+00 -0.00000000000E+00 -0.92975614416E+01  0.92975617913E+01  0.25500000000E-02 0. -1.
    5000001    1    1    2    0    0  0.97895192095E+02  0.39591946742E+02  0.88127516230E+03  0.89091296015E+03  0.77000000000E+02 0.  0.
   -5000001    1    1    2    0    0 -0.97895192095E+02 -0.39591946742E+02  0.94893042735E+03  0.95788775273E+03  0.77000000000E+02 0.  0.
<mgrwt>
<rscale>  0 0.26155607E+03</rscale>
<asrwt>0</asrwt>
<pdfrwt beam="1">  1        2 0.28300011E+00 0.26155607E+03</pdfrwt>
<pdfrwt beam="2">  1       -2 0.14303960E-02 0.26155607E+03</pdfrwt>
<totfact> 0.11399125E+04</totfact>
</mgrwt>
</event>
<event>
 4    1  0.4751076E-004  0.2623524E+03  0.7818608E-02  0.1105738E+00
          2   -1    0    0  501    0  0.00000000000E+00  0.00000000000E+00  0.11440778281E+03  0.11440778284E+03  0.25500000000E-02 0.  1.
         -2   -1    0    0    0  501 -0.00000000000E+00 -0.00000000000E+00 -0.15040228407E+03  0.15040228410E+03  0.25500000000E-02 0. -1.
    5000001    1    1    2    0    0 -0.18046697237E+02  0.74019035231E+02  0.56680225795E+02  0.12225444308E+03  0.77000000000E+02 0.  0.
   -5000001    1    1    2    0    0  0.18046697237E+02 -0.74019035231E+02 -0.92674727055E+02  0.14255562385E+03  0.77000000000E+02 0.  0.
<mgrwt>
<rscale>  0 0.26235237E+03</rscale>
<asrwt>0</asrwt>
<pdfrwt beam="1">  1        2 0.17601197E-01 0.26235237E+03</pdfrwt>
<pdfrwt beam="2">  1       -2 0.23138813E-01 0.26235237E+03</pdfrwt>
<totfact> 0.52051784E+03</totfact>
</mgrwt>
</event>
<event>
 4    1  0.4751076E-004  0.2338121E+03  0.7818608E-02  0.1123985E+00
          2   -1    0    0  501    0  0.00000000000E+00  0.00000000000E+00  0.48668262036E+03  0.48668262037E+03  0.25500000000E-02 0.  1.
         -2   -1    0    0    0  501 -0.00000000000E+00 -0.00000000000E+00 -0.28081997561E+02  0.28081997677E+02  0.25500000000E-02 0. -1.
    5000001    1    1    2    0    0  0.66690324374E+02  0.34209159407E+02  0.12792656358E+03  0.16706906243E+03  0.77000000000E+02 0.  0.
   -5000001    1    1    2    0    0 -0.66690324374E+02 -0.34209159407E+02  0.33067405922E+03  0.34769555561E+03  0.77000000000E+02 0.  0.
<mgrwt>
<rscale>  0 0.23381206E+03</rscale>
<asrwt>0</asrwt>
<pdfrwt beam="1">  1        2 0.74874244E-01 0.23381206E+03</pdfrwt>
<pdfrwt beam="2">  1       -2 0.43203076E-02 0.23381206E+03</pdfrwt>
<totfact> 0.15436950E+04</totfact>
</mgrwt>
</event>
<event>
 4    1  0.4751076E-004  0.2085647E+03  0.7818608E-02  0.1142708E+00
         -2   -1    0    0    0  501 -0.00000000000E+00  0.00000000000E+00  0.49405938048E+02  0.49405938113E+02  0.25500000000E-02 0. -1.
          2   -1    0    0  501    0  0.00000000000E+00 -0.00000000000E+00 -0.22011133758E+03  0.22011133760E+03  0.25500000000E-02 0.  1.
    5000001    1    1    2    0    0 -0.62673411296E+02 -0.52120315803E+01 -0.44678997604E+02  0.10899694759E+03  0.77000000000E+02 0.  0.
   -5000001    1    1    2    0    0  0.62673411296E+02  0.52120315803E+01 -0.12602640193E+03  0.16052032812E+03  0.77000000000E+02 0.  0.
<mgrwt>
<rscale>  0 0.20856469E+03</rscale>
<asrwt>0</asrwt>
<pdfrwt beam="1">  1        2 0.33863282E-01 0.20856469E+03</pdfrwt>
<pdfrwt beam="2">  1       -2 0.76009137E-02 0.20856469E+03</pdfrwt>
<totfact> 0.15245492E+04</totfact>
</mgrwt>
</event>
<event>
 4    1  0.4751076E-004  0.2504691E+03  0.7818608E-02  0.1113009E+00
         -2   -1    0    0    0  501 -0.00000000000E+00  0.00000000000E+00  0.82874602995E+02  0.82874603034E+02  0.25500000000E-02 0. -1.
          2   -1    0    0  501    0  0.00000000000E+00 -0.00000000000E+00 -0.18924601043E+03  0.18924601045E+03  0.25500000000E-02 0.  1.
    5000001    1    1    2    0    0  0.54942853361E+02  0.74547918053E+02 -0.90483799123E+02  0.15064005817E+03  0.77000000000E+02 0.  0.
   -5000001    1    1    2    0    0 -0.54942853361E+02 -0.74547918053E+02 -0.15887608315E+02  0.12148055531E+03  0.77000000000E+02 0.  0.
<mgrwt>
<rscale>  0 0.25046906E+03</rscale>
<asrwt>0</asrwt>
<pdfrwt beam="1">  1        2 0.29114771E-01 0.25046906E+03</pdfrwt>
<pdfrwt beam="2">  1       -2 0.12749939E-01 0.25046906E+03</pdfrwt>
<totfact> 0.80046518E+03</totfact>
</mgrwt>
</event>
<event>
 4    1  0.4751076E-004  0.2573360E+03  0.7818608E-02  0.1108754E+00
         -2   -1    0    0    0  501 -0.00000000000E+00  0.00000000000E+00  0.28629923789E+03  0.28629923791E+03  0.25500000000E-02 0. -1.
          2   -1    0    0  501    0  0.00000000000E+00 -0.00000000000E+00 -0.57825722183E+02  0.57825722239E+02  0.25500000000E-02 0.  1.
    5000001    1    1    2    0    0 -0.98053097015E+02 -0.11970856154E+02  0.74821651617E+02  0.14589376540E+03  0.77000000000E+02 0.  0.
   -5000001    1    1    2    0    0  0.98053097015E+02  0.11970856154E+02  0.15365186409E+03  0.19823119475E+03  0.77000000000E+02 0.  0.
<mgrwt>
<rscale>  0 0.25733605E+03</rscale>
<asrwt>0</asrwt>
<pdfrwt beam="1">  1        2 0.88962651E-02 0.25733605E+03</pdfrwt>
<pdfrwt beam="2">  1       -2 0.44046036E-01 0.25733605E+03</pdfrwt>
<totfact> 0.36402711E+03</totfact>
</mgrwt>
</event>
<event>
 4    1  0.4751076E-004  0.3140486E+03  0.7818608E-02  0.1078421E+00
          2   -1    0    0  501    0  0.00000000000E+00  0.00000000000E+00  0.88978685984E+03  0.88978685985E+03  0.25500000000E-02 0.  1.
         -2   -1    0    0    0  501 -0.00000000000E+00 -0.00000000000E+00 -0.27710711431E+02  0.27710711548E+02  0.25500000000E-02 0. -1.
    5000001    1    1    2    0    0 -0.95017078641E+02 -0.87533799827E+02  0.56290217994E+03  0.58264764269E+03  0.77000000000E+02 0.  0.
   -5000001    1    1    2    0    0  0.95017078641E+02  0.87533799827E+02  0.29917396847E+03  0.33484992871E+03  0.77000000000E+02 0.  0.
<mgrwt>
<rscale>  0 0.31404858E+03</rscale>
<asrwt>0</asrwt>
<pdfrwt beam="1">  1        2 0.13689028E+00 0.31404858E+03</pdfrwt>
<pdfrwt beam="2">  1       -2 0.42631867E-02 0.31404858E+03</pdfrwt>
<totfact> 0.77147558E+03</totfact>
</mgrwt>
</event>
<event>
 4    1  0.4751076E-004  0.3043892E+03  0.7818608E-02  0.1083067E+00
          2   -1    0    0  501    0  0.00000000000E+00  0.00000000000E+00  0.15743974702E+03  0.15743974704E+03  0.25500000000E-02 0.  1.
         -2   -1    0    0    0  501 -0.00000000000E+00 -0.00000000000E+00 -0.14712422443E+03  0.14712422445E+03  0.25500000000E-02 0. -1.
    5000001    1    1    2    0    0  0.30837035519E+02 -0.11885012909E+03  0.51637897620E+02  0.15385625894E+03  0.77000000000E+02 0.  0.
   -5000001    1    1    2    0    0 -0.30837035519E+02  0.11885012909E+03 -0.41322375032E+02  0.15070771255E+03  0.77000000000E+02 0.  0.
<mgrwt>
<rscale>  0 0.30438923E+03</rscale>
<asrwt>0</asrwt>
<pdfrwt beam="1">  1        2 0.24221500E-01 0.30438923E+03</pdfrwt>
<pdfrwt beam="2">  1       -2 0.22634496E-01 0.30438923E+03</pdfrwt>
<totfact> 0.37735844E+03</totfact>
</mgrwt>
</event>
<event>
 4    1  0.4751076E-004  0.2502533E+03  0.7818608E-02  0.1113145E+00
          2   -1    0    0  501    0  0.00000000000E+00  0.00000000000E+00  0.31337801171E+03  0.31337801172E+03  0.25500000000E-02 0.  1.
         -2   -1    0    0    0  501 -0.00000000000E+00 -0.00000000000E+00 -0.49960986768E+02  0.49960986833E+02  0.25500000000E-02 0. -1.
    5000001    1    1    2    0    0 -0.37748909811E+02 -0.71484167156E+02  0.21374591096E+03  0.24114576670E+03  0.77000000000E+02 0.  0.
   -5000001    1    1    2    0    0  0.37748909811E+02  0.71484167156E+02  0.49671113982E+02  0.12219323185E+03  0.77000000000E+02 0.  0.
<mgrwt>
<rscale>  0 0.25025327E+03</rscale>
<asrwt>0</asrwt>
<pdfrwt beam="1">  1        2 0.48212001E-01 0.25025327E+03</pdfrwt>
<pdfrwt beam="2">  1       -2 0.76863058E-02 0.25025327E+03</pdfrwt>
<totfact> 0.10354202E+04</totfact>
</mgrwt>
</event>
<event>
 4    1  0.4751076E-004  0.1701982E+03  0.7818608E-02  0.1177641E+00
          2   -1    0    0  501    0  0.00000000000E+00  0.00000000000E+00  0.77165476618E+02  0.77165476660E+02  0.25500000000E-02 0.  1.
         -2   -1    0    0    0  501 -0.00000000000E+00 -0.00000000000E+00 -0.93848434044E+02  0.93848434079E+02  0.25500000000E-02 0. -1.
    5000001    1    1    2    0    0 -0.53214991291E+00 -0.35518944439E+02 -0.11671929379E+01  0.84807080701E+02  0.77000000000E+02 0.  0.
   -5000001    1    1    2    0    0  0.53214991291E+00  0.35518944439E+02 -0.15515764489E+02  0.86206830038E+02  0.77000000000E+02 0.  0.
<mgrwt>
<rscale>  0 0.17019823E+03</rscale>
<asrwt>0</asrwt>
<pdfrwt beam="1">  1        2 0.11871612E-01 0.17019823E+03</pdfrwt>
<pdfrwt beam="2">  1       -2 0.14438221E-01 0.17019823E+03</pdfrwt>
<totfact> 0.17904428E+04</totfact>
</mgrwt>
</event>
<event>
 4    1  0.4751076E-004  0.1988189E+03  0.7818608E-02  0.1150739E+00
         -2   -1    0    0    0  501 -0.00000000000E+00  0.00000000000E+00  0.41018292442E+01  0.41018300368E+01  0.25500000000E-02 0. -1.
          2   -1    0    0  501    0  0.00000000000E+00 -0.00000000000E+00 -0.24092266236E+04  0.24092266236E+04  0.25500000000E-02 0.  1.
    5000001    1    1    2    0    0  0.29546244725E+02  0.55465944715E+02 -0.11789453877E+04  0.11831274989E+04  0.77000000000E+02 0.  0.
   -5000001    1    1    2    0    0 -0.29546244725E+02 -0.55465944715E+02 -0.12261794066E+04  0.12302009547E+04  0.77000000000E+02 0.  0.
<mgrwt>
<rscale>  0 0.19881888E+03</rscale>
<asrwt>0</asrwt>
<pdfrwt beam="1">  1        2 0.37064912E+00 0.19881888E+03</pdfrwt>
<pdfrwt beam="2">  1       -2 0.63105264E-03 0.19881888E+03</pdfrwt>
<totfact> 0.18513681E+04</totfact>
</mgrwt>
</event>
<event>
 4    1  0.4751076E-004  0.2189831E+03  0.7818608E-02  0.1134643E+00
          2   -1    0    0  501    0  0.00000000000E+00  0.00000000000E+00  0.31874615778E+03  0.31874615779E+03  0.25500000000E-02 0.  1.
         -2   -1    0    0    0  501 -0.00000000000E+00 -0.00000000000E+00 -0.37611107225E+02  0.37611107312E+02  0.25500000000E-02 0. -1.
    5000001    1    1    2    0    0  0.24117120782E+02  0.52682741076E+02  0.55973245644E+02  0.11144106492E+03  0.77000000000E+02 0.  0.
   -5000001    1    1    2    0    0 -0.24117120782E+02 -0.52682741076E+02  0.22516180491E+03  0.24491620019E+03  0.77000000000E+02 0.  0.
<mgrwt>
<rscale>  0 0.21898307E+03</rscale>
<asrwt>0</asrwt>
<pdfrwt beam="1">  1        2 0.49037872E-01 0.21898307E+03</pdfrwt>
<pdfrwt beam="2">  1       -2 0.57863240E-02 0.21898307E+03</pdfrwt>
<totfact> 0.15629640E+04</totfact>
</mgrwt>
</event>
<event>
 4    1  0.4751076E-004  0.3208669E+03  0.7818608E-02  0.1075251E+00
          2   -1    0    0  501    0  0.00000000000E+00  0.00000000000E+00  0.49390286018E+02  0.49390286084E+02  0.25500000000E-02 0.  1.
         -2   -1    0    0    0  501 -0.00000000000E+00 -0.00000000000E+00 -0.52113281062E+03  0.52113281063E+03  0.25500000000E-02 0. -1.
    5000001    1    1    2    0    0 -0.53989969053E+02  0.12219711017E+03 -0.15709568371E+03  0.22012520149E+03  0.77000000000E+02 0.  0.
   -5000001    1    1    2    0    0  0.53989969053E+02 -0.12219711017E+03 -0.31464684089E+03  0.35039789522E+03  0.77000000000E+02 0.  0.
<mgrwt>
<rscale>  0 0.32086694E+03</rscale>
<asrwt>0</asrwt>
<pdfrwt beam="1">  1        2 0.75985059E-02 0.32086694E+03</pdfrwt>
<pdfrwt beam="2">  1       -2 0.80174275E-01 0.32086694E+03</pdfrwt>
<totfact> 0.12925312E+03</totfact>
</mgrwt>
</event>
<event>
 4    1  0.4751076E-004  0.3717200E+03  0.7818608E-02  0.1054037E+00
          2   -1    0    0  501    0  0.00000000000E+00  0.00000000000E+00  0.13201028525E+04  0.13201028525E+04  0.25500000000E-02 0.  1.
         -2   -1    0    0    0  501 -0.00000000000E+00 -0.00000000000E+00 -0.26167612441E+02  0.26167612565E+02  0.25500000000E-02 0. -1.
    5000001    1    1    2    0    0  0.15889338537E+03 -0.35129398169E+02  0.47967033008E+03  0.51234149558E+03  0.77000000000E+02 0.  0.
   -5000001    1    1    2    0    0 -0.15889338537E+03  0.35129398169E+02  0.81426490998E+03  0.83392896949E+03  0.77000000000E+02 0.  0.
<mgrwt>
<rscale>  0 0.37172000E+03</rscale>
<asrwt>0</asrwt>
<pdfrwt beam="1">  1        2 0.20309270E+00 0.37172000E+03</pdfrwt>
<pdfrwt beam="2">  1       -2 0.40257875E-02 0.37172000E+03</pdfrwt>
<totfact> 0.46702042E+03</totfact>
</mgrwt>
</event>
<event>
 4    1  0.4751076E-004  0.2118522E+03  0.7818608E-02  0.1140108E+00
          2   -1    0    0  501    0  0.00000000000E+00  0.00000000000E+00  0.22447889887E+03  0.22447889889E+03  0.25500000000E-02 0.  1.
         -2   -1    0    0    0  501 -0.00000000000E+00 -0.00000000000E+00 -0.49983945375E+02  0.49983945440E+02  0.25500000000E-02 0. -1.
    5000001    1    1    2    0    0 -0.59646866016E+02 -0.21885517665E+01  0.14111453326E+03  0.17147842396E+03  0.77000000000E+02 0.  0.
   -5000001    1    1    2    0    0  0.59646866016E+02  0.21885517665E+01  0.33380420235E+02  0.10298442037E+03  0.77000000000E+02 0.  0.
<mgrwt>
<rscale>  0 0.21185222E+03</rscale>
<asrwt>0</asrwt>
<pdfrwt beam="1">  1        2 0.34535215E-01 0.21185222E+03</pdfrwt>
<pdfrwt beam="2">  1       -2 0.76898378E-02 0.21185222E+03</pdfrwt>
<totfact> 0.14673051E+04</totfact>
</mgrwt>
</event>
<event>
 4    1  0.4751076E-004  0.2123018E+03  0.7818608E-02  0.1139756E+00
         -2   -1    0    0    0  501 -0.00000000000E+00  0.00000000000E+00  0.45258358995E+03  0.45258358996E+03  0.25500000000E-02 0. -1.
          2   -1    0    0  501    0  0.00000000000E+00 -0.00000000000E+00 -0.24897098070E+02  0.24897098201E+02  0.25500000000E-02 0.  1.
    5000001    1    1    2    0    0  0.64381310203E+02 -0.26664190289E+02  0.16441055716E+03  0.19446275596E+03  0.77000000000E+02 0.  0.
   -5000001    1    1    2    0    0 -0.64381310203E+02  0.26664190289E+02  0.26327593472E+03  0.28301793220E+03  0.77000000000E+02 0.  0.
<mgrwt>
<rscale>  0 0.21230184E+03</rscale>
<asrwt>0</asrwt>
<pdfrwt beam="1">  1        2 0.38303229E-02 0.21230184E+03</pdfrwt>
<pdfrwt beam="2">  1       -2 0.69628242E-01 0.21230184E+03</pdfrwt>
<totfact> 0.42553308E+03</totfact>
</mgrwt>
</event>
<event>
 4    1  0.4751076E-004  0.2947512E+03  0.7818608E-02  0.1087894E+00
         -2   -1    0    0    0  501 -0.00000000000E+00  0.00000000000E+00  0.16060696733E+02  0.16060696935E+02  0.25500000000E-02 0. -1.
          2   -1    0    0  501    0  0.00000000000E+00 -0.00000000000E+00 -0.13523425564E+04  0.13523425564E+04  0.25500000000E-02 0.  1.
    5000001    1    1    2    0    0  0.42025358909E+02  0.10756303707E+03 -0.89815331680E+03  0.90881478763E+03  0.77000000000E+02 0.  0.
   -5000001    1    1    2    0    0 -0.42025358909E+02 -0.10756303707E+03 -0.43812854284E+03  0.45958846568E+03  0.77000000000E+02 0.  0.
<mgrwt>
<rscale>  0 0.29475118E+03</rscale>
<asrwt>0</asrwt>
<pdfrwt beam="1">  1        2 0.20805261E+00 0.29475118E+03</pdfrwt>
<pdfrwt beam="2">  1       -2 0.24708775E-02 0.29475118E+03</pdfrwt>
<totfact> 0.92931459E+03</totfact>
</mgrwt>
</event>
<event>
 4    1  0.4751076E-004  0.1968853E+03  0.7818608E-02  0.1152394E+00
         -2   -1    0    0    0  501 -0.00000000000E+00  0.00000000000E+00  0.80205273120E+01  0.80205277174E+01  0.25500000000E-02 0. -1.
          2   -1    0    0  501    0  0.00000000000E+00 -0.00000000000E+00 -0.12082692582E+04  0.12082692582E+04  0.25500000000E-02 0.  1.
    5000001    1    1    2    0    0  0.55521925242E+02  0.12076741486E+02 -0.45744525149E+03  0.46734750451E+03  0.77000000000E+02 0.  0.
   -5000001    1    1    2    0    0 -0.55521925242E+02 -0.12076741486E+02 -0.74280347940E+03  0.74894228141E+03  0.77000000000E+02 0.  0.
<mgrwt>
<rscale>  0 0.19688532E+03</rscale>
<asrwt>0</asrwt>
<pdfrwt beam="1">  1        2 0.18588743E+00 0.19688532E+03</pdfrwt>
<pdfrwt beam="2">  1       -2 0.12339283E-02 0.19688532E+03</pdfrwt>
<totfact> 0.30360001E+04</totfact>
</mgrwt>
</event>
<event>
 4    1  0.4751076E-004  0.2730984E+03  0.7818608E-02  0.1099519E+00
         -2   -1    0    0    0  501 -0.00000000000E+00  0.00000000000E+00  0.15079991034E+02  0.15079991250E+02  0.25500000000E-02 0. -1.
          2   -1    0    0  501    0  0.00000000000E+00 -0.00000000000E+00 -0.12364523452E+04  0.12364523452E+04  0.25500000000E-02 0.  1.
    5000001    1    1    2    0    0 -0.11059172833E+03  0.52744051038E+00 -0.50967063875E+03  0.52718494721E+03  0.77000000000E+02 0.  0.
   -5000001    1    1    2    0    0  0.11059172833E+03 -0.52744051038E+00 -0.71170171541E+03  0.72434738923E+03  0.77000000000E+02 0.  0.
<mgrwt>
<rscale>  0 0.27309845E+03</rscale>
<asrwt>0</asrwt>
<pdfrwt beam="1">  1        2 0.19022336E+00 0.27309845E+03</pdfrwt>
<pdfrwt beam="2">  1       -2 0.23199996E-02 0.27309845E+03</pdfrwt>
<totfact> 0.11810314E+04</totfact>
</mgrwt>
</event>
<event>
 4    1  0.4751076E-004  0.4146866E+03  0.7818608E-02  0.1038810E+00
         -2   -1    0    0    0  501 -0.00000000000E+00  0.00000000000E+00  0.30210672091E+02  0.30210672199E+02  0.25500000000E-02 0. -1.
          2   -1    0    0  501    0  0.00000000000E+00 -0.00000000000E+00 -0.14230481534E+04  0.14230481534E+04  0.25500000000E-02 0.  1.
    5000001    1    1    2    0    0  0.10070784922E+03 -0.14723990572E+03 -0.44272329030E+03  0.48348171890E+03  0.77000000000E+02 0.  0.
   -5000001    1    1    2    0    0 -0.10070784922E+03  0.14723990572E+03 -0.95011419097E+03  0.96977710666E+03  0.77000000000E+02 0.  0.
<mgrwt>
<rscale>  0 0.41468659E+03</rscale>
<asrwt>0</asrwt>
<pdfrwt beam="1">  1        2 0.21893043E+00 0.41468659E+03</pdfrwt>
<pdfrwt beam="2">  1       -2 0.46477968E-02 0.41468659E+03</pdfrwt>
<totfact> 0.32895253E+03</totfact>
</mgrwt>
</event>
<event>
 4    1  0.4751076E-004  0.2284035E+03  0.7818608E-02  0.1127769E+00
         -2   -1    0    0    0  501 -0.00000000000E+00  0.00000000000E+00  0.39774520294E+01  0.39774528468E+01  0.25500000000E-02 0. -1.
          2   -1    0    0  501    0  0.00000000000E+00 -0.00000000000E+00 -0.32789918484E+04  0.32789918484E+04  0.25500000000E-02 0.  1.
    5000001    1    1    2    0    0  0.58183354072E+02 -0.12166168876E+02 -0.77752703761E+03  0.78358829278E+03  0.77000000000E+02 0.  0.
   -5000001    1    1    2    0    0 -0.58183354072E+02  0.12166168876E+02 -0.24974873587E+04  0.24993810085E+04  0.77000000000E+02 0.  0.
<mgrwt>
<rscale>  0 0.22840345E+03</rscale>
<asrwt>0</asrwt>
<pdfrwt beam="1">  1        2 0.50445812E+00 0.22840345E+03</pdfrwt>
<pdfrwt beam="2">  1       -2 0.61191838E-03 0.22840345E+03</pdfrwt>
<totfact> 0.61306285E+03</totfact>
</mgrwt>
</event>
<event>
 4    1  0.4751076E-004  0.1753369E+03  0.7818608E-02  0.1172394E+00
         -2   -1    0    0    0  501 -0.00000000000E+00  0.00000000000E+00  0.14887360485E+02  0.14887360703E+02  0.25500000000E-02 0. -1.
          2   -1    0    0  501    0  0.00000000000E+00 -0.00000000000E+00 -0.51626042819E+03  0.51626042820E+03  0.25500000000E-02 0.  1.
    5000001    1    1    2    0    0  0.41239218879E+01  0.41046277831E+02 -0.22823055987E+03  0.24437674217E+03  0.77000000000E+02 0.  0.
   -5000001    1    1    2    0    0 -0.41239218879E+01 -0.41046277831E+02 -0.27314250784E+03  0.28677104673E+03  0.77000000000E+02 0.  0.
<mgrwt>
<rscale>  0 0.17533688E+03</rscale>
<asrwt>0</asrwt>
<pdfrwt beam="1">  1        2 0.79424667E-01 0.17533688E+03</pdfrwt>
<pdfrwt beam="2">  1       -2 0.22903636E-02 0.17533688E+03</pdfrwt>
<totfact> 0.36301234E+04</totfact>
</mgrwt>
</event>
<event>
 4    1  0.4751076E-004  0.4477580E+03  0.7818608E-02  0.1028393E+00
         -2   -1    0    0    0  501 -0.00000000000E+00  0.00000000000E+00  0.31509317973E+02  0.31509318077E+02  0.25500000000E-02 0. -1.
          2   -1    0    0  501    0  0.00000000000E+00 -0.00000000000E+00 -0.15906978659E+04  0.15906978659E+04  0.25500000000E-02 0.  1.
    5000001    1    1    2    0    0  0.20448322115E+03  0.46520774133E+02 -0.72644232389E+03  0.76001646041E+03  0.77000000000E+02 0.  0.
   -5000001    1    1    2    0    0 -0.20448322115E+03 -0.46520774133E+02 -0.83274622399E+03  0.86219072353E+03  0.77000000000E+02 0.  0.
<mgrwt>
<rscale>  0 0.44775799E+03</rscale>
<asrwt>0</asrwt>
<pdfrwt beam="1">  1        2 0.24472269E+00 0.44775799E+03</pdfrwt>
<pdfrwt beam="2">  1       -2 0.48475886E-02 0.44775799E+03</pdfrwt>
<totfact> 0.24967145E+03</totfact>
</mgrwt>
</event>
<event>
 4    1  0.4751076E-004  0.3508305E+03  0.7818608E-02  0.1062275E+00
         -2   -1    0    0    0  501 -0.00000000000E+00  0.00000000000E+00  0.35799172128E+02  0.35799172218E+02  0.25500000000E-02 0. -1.
          2   -1    0    0  501    0  0.00000000000E+00 -0.00000000000E+00 -0.85953148767E+03  0.85953148767E+03  0.25500000000E-02 0.  1.
    5000001    1    1    2    0    0 -0.30262610004E+02  0.13317179715E+03 -0.61266683060E+03  0.63240825298E+03  0.77000000000E+02 0.  0.
   -5000001    1    1    2    0    0  0.30262610004E+02 -0.13317179715E+03 -0.21106548494E+03  0.26292240691E+03  0.77000000000E+02 0.  0.
<mgrwt>
<rscale>  0 0.35083053E+03</rscale>
<asrwt>0</asrwt>
<pdfrwt beam="1">  1        2 0.13223560E+00 0.35083053E+03</pdfrwt>
<pdfrwt beam="2">  1       -2 0.55075656E-02 0.35083053E+03</pdfrwt>
<totfact> 0.54782395E+03</totfact>
</mgrwt>
</event>
<event>
 4    1  0.4751076E-004  0.2350513E+03  0.7818608E-02  0.1123134E+00
         -2   -1    0    0    0  501 -0.00000000000E+00  0.00000000000E+00  0.30020584240E+03  0.30020584241E+03  0.25500000000E-02 0. -1.
          2   -1    0    0  501    0  0.00000000000E+00 -0.00000000000E+00 -0.46009365631E+02  0.46009365702E+02  0.25500000000E-02 0.  1.
    5000001    1    1    2    0    0 -0.59159545112E+02  0.40145866122E+02  0.20464426385E+03  0.23004307656E+03  0.77000000000E+02 0.  0.
   -5000001    1    1    2    0    0  0.59159545112E+02 -0.40145866122E+02  0.49552212914E+02  0.11617213155E+03  0.77000000000E+02 0.  0.
<mgrwt>
<rscale>  0 0.23505132E+03</rscale>
<asrwt>0</asrwt>
<pdfrwt beam="1">  1        2 0.70783639E-02 0.23505132E+03</pdfrwt>
<pdfrwt beam="2">  1       -2 0.46185514E-01 0.23505132E+03</pdfrwt>
<totfact> 0.44198985E+03</totfact>
</mgrwt>
</event>
<event>
 4    1  0.4751076E-004  0.2173960E+03  0.7818608E-02  0.1135839E+00
          2   -1    0    0  501    0  0.00000000000E+00  0.00000000000E+00  0.21396873019E+04  0.21396873019E+04  0.25500000000E-02 0.  1.
         -2   -1    0    0    0  501 -0.00000000000E+00 -0.00000000000E+00 -0.55219517131E+01  0.55219523019E+01  0.25500000000E-02 0. -1.
    5000001    1    1    2    0    0  0.68069120109E+02 -0.30074933798E+02  0.12512541072E+04  0.12558279132E+04  0.77000000000E+02 0.  0.
   -5000001    1    1    2    0    0 -0.68069120109E+02  0.30074933798E+02  0.88291124301E+03  0.88938134104E+03  0.77000000000E+02 0.  0.
<mgrwt>
<rscale>  0 0.21739596E+03</rscale>
<asrwt>0</asrwt>
<pdfrwt beam="1">  1        2 0.32918241E+00 0.21739596E+03</pdfrwt>
<pdfrwt beam="2">  1       -2 0.84953173E-03 0.21739596E+03</pdfrwt>
<totfact> 0.16824802E+04</totfact>
</mgrwt>
</event>
<event>
 4    1  0.4751076E-004  0.2967036E+03  0.7818608E-02  0.1086900E+00
          2   -1    0    0  501    0  0.00000000000E+00  0.00000000000E+00  0.38960941545E+03  0.38960941546E+03  0.25500000000E-02 0.  1.
         -2   -1    0    0    0  501 -0.00000000000E+00 -0.00000000000E+00 -0.56487997003E+02  0.56487997061E+02  0.25500000000E-02 0. -1.
    5000001    1    1    2    0    0 -0.50302538633E+02  0.11585346655E+03  0.18349671595E+03  0.23569560002E+03  0.77000000000E+02 0.  0.
   -5000001    1    1    2    0    0  0.50302538633E+02 -0.11585346655E+03  0.14962470250E+03  0.21040181250E+03  0.77000000000E+02 0.  0.
<mgrwt>
<rscale>  0 0.29670359E+03</rscale>
<asrwt>0</asrwt>
<pdfrwt beam="1">  1        2 0.59939912E-01 0.29670359E+03</pdfrwt>
<pdfrwt beam="2">  1       -2 0.86904607E-02 0.29670359E+03</pdfrwt>
<totfact> 0.67995430E+03</totfact>
</mgrwt>
</event>
<event>
 4    1  0.4751076E-004  0.2661582E+03  0.7818608E-02  0.1103499E+00
          2   -1    0    0  501    0  0.00000000000E+00  0.00000000000E+00  0.22623508372E+04  0.22623508372E+04  0.25500000000E-02 0.  1.
         -2   -1    0    0    0  501 -0.00000000000E+00 -0.00000000000E+00 -0.78281613303E+01  0.78281617456E+01  0.25500000000E-02 0. -1.
    5000001    1    1    2    0    0  0.61957584034E+02  0.62520285077E+02  0.16689656869E+04  0.16730579764E+04  0.77000000000E+02 0.  0.
   -5000001    1    1    2    0    0 -0.61957584034E+02 -0.62520285077E+02  0.58555698898E+03  0.59712102258E+03  0.77000000000E+02 0.  0.
<mgrwt>
<rscale>  0 0.26615821E+03</rscale>
<asrwt>0</asrwt>
<pdfrwt beam="1">  1        2 0.34805422E+00 0.26615821E+03</pdfrwt>
<pdfrwt beam="2">  1       -2 0.12043317E-02 0.26615821E+03</pdfrwt>
<totfact> 0.87685011E+03</totfact>
</mgrwt>
</event>
<event>
 4    1  0.4751076E-004  0.3892629E+03  0.7818608E-02  0.1047562E+00
          2   -1    0    0  501    0  0.00000000000E+00  0.00000000000E+00  0.10985697497E+04  0.10985697497E+04  0.25500000000E-02 0. -1.
         -2   -1    0    0    0  501 -0.00000000000E+00 -0.00000000000E+00 -0.34482475729E+02  0.34482475823E+02  0.25500000000E-02 0.  1.
    5000001    1    1    2    0    0  0.12193031082E+03 -0.56707792981E+02  0.87484247183E+03  0.88845997378E+03  0.77000000000E+02 0.  0.
   -5000001    1    1    2    0    0 -0.12193031082E+03  0.56707792981E+02  0.18924480217E+03  0.24459225178E+03  0.77000000000E+02 0.  0.
<mgrwt>
<rscale>  0 0.38926292E+03</rscale>
<asrwt>0</asrwt>
<pdfrwt beam="1">  1        2 0.16901069E+00 0.38926292E+03</pdfrwt>
<pdfrwt beam="2">  1       -2 0.53049974E-02 0.38926292E+03</pdfrwt>
<totfact> 0.41101408E+03</totfact>
</mgrwt>
</event>
<event>
 4    1  0.4751076E-004  0.3728658E+03  0.7818608E-02  0.1053603E+00
          2   -1    0    0  501    0  0.00000000000E+00  0.00000000000E+00  0.26737848710E+04  0.26737848710E+04  0.25500000000E-02 0.  1.
         -2   -1    0    0    0  501 -0.00000000000E+00 -0.00000000000E+00 -0.12999259229E+02  0.12999259479E+02  0.25500000000E-02 0. -1.
    5000001    1    1    2    0    0  0.10763287380E+03 -0.12014819599E+03  0.94856881669E+03  0.96526277485E+03  0.77000000000E+02 0.  0.
   -5000001    1    1    2    0    0 -0.10763287380E+03  0.12014819599E+03  0.17122167951E+04  0.17215213557E+04  0.77000000000E+02 0.  0.
<mgrwt>
<rscale>  0 0.37286578E+03</rscale>
<asrwt>0</asrwt>
<pdfrwt beam="1">  1        2 0.41135159E+00 0.37286578E+03</pdfrwt>
<pdfrwt beam="2">  1       -2 0.19998857E-02 0.37286578E+03</pdfrwt>
<totfact> 0.24622062E+03</totfact>
</mgrwt>
</event>
<event>
 4    1  0.4751076E-004  0.2049538E+03  0.7818608E-02  0.1145626E+00
          2   -1    0    0  501    0  0.00000000000E+00  0.00000000000E+00  0.20364636224E+04  0.20364636224E+04  0.25500000000E-02 0.  1.
         -2   -1    0    0    0  501 -0.00000000000E+00 -0.00000000000E+00 -0.51567407737E+01  0.51567414042E+01  0.25500000000E-02 0. -1.
    5000001    1    1    2    0    0  0.58349233412E+01 -0.65786536048E+02  0.11602137942E+04  0.11646402719E+04  0.77000000000E+02 0.  0.
   -5000001    1    1    2    0    0 -0.58349233412E+01  0.65786536048E+02  0.87109308746E+03  0.87698009195E+03  0.77000000000E+02 0.  0.
<mgrwt>
<rscale>  0 0.20495381E+03</rscale>
<asrwt>0</asrwt>
<pdfrwt beam="1">  1        2 0.31330245E+00 0.20495381E+03</pdfrwt>
<pdfrwt beam="2">  1       -2 0.79334389E-03 0.20495381E+03</pdfrwt>
<totfact> 0.20984437E+04</totfact>
</mgrwt>
</event>
<event>
 4    1  0.4751076E-004  0.2014166E+03  0.7818608E-02  0.1148549E+00
          2   -1    0    0  501    0  0.00000000000E+00  0.00000000000E+00  0.22299830372E+03  0.22299830373E+03  0.25500000000E-02 0.  1.
         -2   -1    0    0    0  501 -0.00000000000E+00 -0.00000000000E+00 -0.45480909275E+02  0.45480909347E+02  0.25500000000E-02 0. -1.
    5000001    1    1    2    0    0 -0.47465772205E+02  0.84970536656E+01  0.14667654648E+03  0.17253465953E+03  0.77000000000E+02 0.  0.
   -5000001    1    1    2    0    0  0.47465772205E+02 -0.84970536656E+01  0.30840847957E+02  0.95944553544E+02  0.77000000000E+02 0.  0.
<mgrwt>
<rscale>  0 0.20141664E+03</rscale>
<asrwt>0</asrwt>
<pdfrwt beam="1">  1        2 0.34307430E-01 0.20141664E+03</pdfrwt>
<pdfrwt beam="2">  1       -2 0.69970633E-02 0.20141664E+03</pdfrwt>
<totfact> 0.17042994E+04</totfact>
</mgrwt>
</event>
<event>
 4    1  0.4751076E-004  0.1885298E+03  0.7818608E-02  0.1159794E+00
         -2   -1    0    0    0  501 -0.00000000000E+00  0.00000000000E+00  0.18639325683E+03  0.18639325685E+03  0.25500000000E-02 0. -1.
          2   -1    0    0  501    0  0.00000000000E+00 -0.00000000000E+00 -0.47672723005E+02  0.47672723073E+02  0.25500000000E-02 0.  1.
    5000001    1    1    2    0    0  0.44345795671E+02  0.13200353291E+02  0.10482717345E+03  0.13805265377E+03  0.77000000000E+02 0.  0.
   -5000001    1    1    2    0    0 -0.44345795671E+02 -0.13200353291E+02  0.33893360380E+02  0.96013326151E+02  0.77000000000E+02 0.  0.
<mgrwt>
<rscale>  0 0.18852983E+03</rscale>
<asrwt>0</asrwt>
<pdfrwt beam="1">  1        2 0.73342650E-02 0.18852983E+03</pdfrwt>
<pdfrwt beam="2">  1       -2 0.28675886E-01 0.18852983E+03</pdfrwt>
<totfact> 0.10179008E+04</totfact>
</mgrwt>
</event>
<event>
 4    1  0.4751076E-004  0.1973088E+03  0.7818608E-02  0.1152030E+00
          2   -1    0    0  501    0  0.00000000000E+00  0.00000000000E+00  0.11648294724E+03  0.11648294727E+03  0.25500000000E-02 0.  1.
         -2   -1    0    0    0  501 -0.00000000000E+00 -0.00000000000E+00 -0.83554629585E+02  0.83554629624E+02  0.25500000000E-02 0. -1.
    5000001    1    1    2    0    0 -0.45786034708E+02 -0.39882739516E+02  0.55121835981E+01  0.98215976570E+02  0.77000000000E+02 0.  0.
   -5000001    1    1    2    0    0  0.45786034708E+02  0.39882739516E+02  0.27416134057E+02  0.10182160032E+03  0.77000000000E+02 0.  0.
<mgrwt>
<rscale>  0 0.19730879E+03</rscale>
<asrwt>0</asrwt>
<pdfrwt beam="1">  1        2 0.17920453E-01 0.19730879E+03</pdfrwt>
<pdfrwt beam="2">  1       -2 0.12854558E-01 0.19730879E+03</pdfrwt>
<totfact> 0.13449792E+04</totfact>
</mgrwt>
</event>
<event>
 4    1  0.4751076E-004  0.2380908E+03  0.7818608E-02  0.1121071E+00
          2   -1    0    0  501    0  0.00000000000E+00  0.00000000000E+00  0.10213479533E+03  0.10213479537E+03  0.25500000000E-02 0.  1.
         -2   -1    0    0    0  501 -0.00000000000E+00 -0.00000000000E+00 -0.13875590040E+03  0.13875590043E+03  0.25500000000E-02 0. -1.
    5000001    1    1    2    0    0 -0.44891407985E+02  0.67593693085E+02 -0.59516136884E+02  0.12670957503E+03  0.77000000000E+02 0.  0.
   -5000001    1    1    2    0    0  0.44891407985E+02 -0.67593693085E+02  0.22895031816E+02  0.11418112076E+03  0.77000000000E+02 0.  0.
<mgrwt>
<rscale>  0 0.23809079E+03</rscale>
<asrwt>0</asrwt>
<pdfrwt beam="1">  1        2 0.15713045E-01 0.23809079E+03</pdfrwt>
<pdfrwt beam="2">  1       -2 0.21347062E-01 0.23809079E+03</pdfrwt>
<totfact> 0.68066042E+03</totfact>
</mgrwt>
</event>
<event>
 4    1  0.4751076E-004  0.1909614E+03  0.7818608E-02  0.1157597E+00
          2   -1    0    0  501    0  0.00000000000E+00  0.00000000000E+00  0.29550615902E+04  0.29550615902E+04  0.25500000000E-02 0.  1.
         -2   -1    0    0    0  501 -0.00000000000E+00 -0.00000000000E+00 -0.30850653967E+01  0.30850664506E+01  0.25500000000E-02 0. -1.
    5000001    1    1    2    0    0 -0.41086770001E+02  0.37684244559E+02  0.13380114068E+04  0.13413842663E+04  0.77000000000E+02 0.  0.
   -5000001    1    1    2    0    0  0.41086770001E+02 -0.37684244559E+02  0.16139651180E+04  0.16167623904E+04  0.77000000000E+02 0.  0.
<mgrwt>
<rscale>  0 0.19096136E+03</rscale>
<asrwt>0</asrwt>
<pdfrwt beam="1">  1        2 0.45462501E+00 0.19096136E+03</pdfrwt>
<pdfrwt beam="2">  1       -2 0.47462537E-03 0.19096136E+03</pdfrwt>
<totfact> 0.13814712E+04</totfact>
</mgrwt>
</event>
<event>
 4    1  0.4751076E-004  0.1640328E+03  0.7818608E-02  0.1184218E+00
         -2   -1    0    0    0  501 -0.00000000000E+00  0.00000000000E+00  0.16919546522E+03  0.16919546524E+03  0.25500000000E-02 0. -1.
          2   -1    0    0  501    0  0.00000000000E+00 -0.00000000000E+00 -0.39756899124E+02  0.39756899206E+02  0.25500000000E-02 0.  1.
    5000001    1    1    2    0    0  0.77893147841E+01 -0.21659113628E+02  0.43869567125E+02  0.91560523959E+02  0.77000000000E+02 0.  0.
   -5000001    1    1    2    0    0 -0.77893147841E+01  0.21659113628E+02  0.85568998971E+02  0.11739184049E+03  0.77000000000E+02 0.  0.
<mgrwt>
<rscale>  0 0.16403277E+03</rscale>
<asrwt>0</asrwt>
<pdfrwt beam="1">  1        2 0.61164460E-02 0.16403277E+03</pdfrwt>
<pdfrwt beam="2">  1       -2 0.26030072E-01 0.16403277E+03</pdfrwt>
<totfact> 0.15090566E+04</totfact>
</mgrwt>
</event>
<event>
 4    1  0.4751076E-004  0.2873590E+03  0.7818608E-02  0.1091736E+00
          2   -1    0    0  501    0  0.00000000000E+00  0.00000000000E+00  0.27959851654E+04  0.27959851654E+04  0.25500000000E-02 0.  1.
         -2   -1    0    0    0  501 -0.00000000000E+00 -0.00000000000E+00 -0.73833696593E+01  0.73833700997E+01  0.25500000000E-02 0. -1.
    5000001    1    1    2    0    0  0.11107893528E+03 -0.35373904026E+02  0.17215074626E+04  0.17271672723E+04  0.77000000000E+02 0.  0.
   -5000001    1    1    2    0    0 -0.11107893528E+03  0.35373904026E+02  0.10670943331E+04  0.10762012631E+04  0.77000000000E+02 0.  0.
<mgrwt>
<rscale>  0 0.28735896E+03</rscale>
<asrwt>0</asrwt>
<pdfrwt beam="1">  1        2 0.43015147E+00 0.28735896E+03</pdfrwt>
<pdfrwt beam="2">  1       -2 0.11359033E-02 0.28735896E+03</pdfrwt>
<totfact> 0.48481998E+03</totfact>
</mgrwt>
</event>
<event>
 4    1  0.4751076E-004  0.3456852E+03  0.7818608E-02  0.1064400E+00
          2   -1    0    0  501    0  0.00000000000E+00  0.00000000000E+00  0.24997423129E+04  0.24997423129E+04  0.25500000000E-02 0.  1.
         -2   -1    0    0    0  501 -0.00000000000E+00 -0.00000000000E+00 -0.11951059781E+02  0.11951060053E+02  0.25500000000E-02 0. -1.
    5000001    1    1    2    0    0  0.15419391305E+03  0.13026612844E+02  0.12414349160E+04  0.12534093929E+04  0.77000000000E+02 0.  0.
   -5000001    1    1    2    0    0 -0.15419391305E+03 -0.13026612844E+02  0.12463563371E+04  0.12582839801E+04  0.77000000000E+02 0.  0.
<mgrwt>
<rscale>  0 0.34568523E+03</rscale>
<asrwt>0</asrwt>
<pdfrwt beam="1">  1        2 0.38457568E+00 0.34568523E+03</pdfrwt>
<pdfrwt beam="2">  1       -2 0.18386249E-02 0.34568523E+03</pdfrwt>
<totfact> 0.34964575E+03</totfact>
</mgrwt>
</event>
<event>
 4    1  0.4751076E-004  0.1758651E+03  0.7818608E-02  0.1171866E+00
         -2   -1    0    0    0  501 -0.00000000000E+00  0.00000000000E+00  0.17856642312E+02  0.17856642494E+02  0.25500000000E-02 0. -1.
          2   -1    0    0  501    0  0.00000000000E+00 -0.00000000000E+00 -0.43301150247E+03  0.43301150247E+03  0.25500000000E-02 0.  1.
    5000001    1    1    2    0    0 -0.34644098684E+02 -0.22050196744E+02 -0.23527349300E+03  0.25093632909E+03  0.77000000000E+02 0.  0.
   -5000001    1    1    2    0    0  0.34644098684E+02  0.22050196744E+02 -0.17988136716E+03  0.19993181588E+03  0.77000000000E+02 0.  0.
<mgrwt>
<rscale>  0 0.17586508E+03</rscale>
<asrwt>0</asrwt>
<pdfrwt beam="1">  1        2 0.66617146E-01 0.17586508E+03</pdfrwt>
<pdfrwt beam="2">  1       -2 0.27471761E-02 0.17586508E+03</pdfrwt>
<totfact> 0.33718955E+04</totfact>
</mgrwt>
</event>
<event>
 4    1  0.4751076E-004  0.2520428E+03  0.7818608E-02  0.1112021E+00
         -2   -1    0    0    0  501 -0.00000000000E+00  0.00000000000E+00  0.51349142550E+01  0.51349148882E+01  0.25500000000E-02 0. -1.
          2   -1    0    0  501    0  0.00000000000E+00 -0.00000000000E+00 -0.30928243165E+04  0.30928243165E+04  0.25500000000E-02 0.  1.
    5000001    1    1    2    0    0 -0.17008851690E+01 -0.90477738986E+02 -0.10277119529E+04  0.10345578633E+04  0.77000000000E+02 0.  0.
   -5000001    1    1    2    0    0  0.17008851690E+01  0.90477738986E+02 -0.20599774494E+04  0.20634013682E+04  0.77000000000E+02 0.  0.
<mgrwt>
<rscale>  0 0.25204276E+03</rscale>
<asrwt>0</asrwt>
<pdfrwt beam="1">  1        2 0.47581764E+00 0.25204276E+03</pdfrwt>
<pdfrwt beam="2">  1       -2 0.78998933E-03 0.25204276E+03</pdfrwt>
<totfact> 0.55107842E+03</totfact>
</mgrwt>
</event>
<event>
 4    1  0.4751076E-004  0.2613619E+03  0.7818608E-02  0.1106328E+00
          2   -1    0    0  501    0  0.00000000000E+00  0.00000000000E+00  0.74111072279E+03  0.74111072280E+03  0.25500000000E-02 0.  1.
         -2   -1    0    0    0  501 -0.00000000000E+00 -0.00000000000E+00 -0.23043123105E+02  0.23043123246E+02  0.25500000000E-02 0. -1.
    5000001    1    1    2    0    0  0.10467030941E+03 -0.16433658584E+01  0.39932747838E+03  0.41994048306E+03  0.77000000000E+02 0.  0.
   -5000001    1    1    2    0    0 -0.10467030941E+03  0.16433658584E+01  0.31874012131E+03  0.34421336298E+03  0.77000000000E+02 0.  0.
<mgrwt>
<rscale>  0 0.26136186E+03</rscale>
<asrwt>0</asrwt>
<pdfrwt beam="1">  1        2 0.11401702E+00 0.26136186E+03</pdfrwt>
<pdfrwt beam="2">  1       -2 0.35450963E-02 0.26136186E+03</pdfrwt>
<totfact> 0.12802529E+04</totfact>
</mgrwt>
</event>
<event>
 4    1  0.4751076E-004  0.2575919E+03  0.7818608E-02  0.1108599E+00
          2   -1    0    0  501    0  0.00000000000E+00  0.00000000000E+00  0.42630051215E+03  0.42630051216E+03  0.25500000000E-02 0.  1.
         -2   -1    0    0    0  501 -0.00000000000E+00 -0.00000000000E+00 -0.38912438408E+02  0.38912438491E+02  0.25500000000E-02 0. -1.
    5000001    1    1    2    0    0 -0.84714737310E+02 -0.58519245186E+02  0.17990393128E+03  0.22112329878E+03  0.77000000000E+02 0.  0.
   -5000001    1    1    2    0    0  0.84714737310E+02  0.58519245186E+02  0.20748414247E+03  0.24408965187E+03  0.77000000000E+02 0.  0.
<mgrwt>
<rscale>  0 0.25759187E+03</rscale>
<asrwt>0</asrwt>
<pdfrwt beam="1">  1        2 0.65584695E-01 0.25759187E+03</pdfrwt>
<pdfrwt beam="2">  1       -2 0.59865289E-02 0.25759187E+03</pdfrwt>
<totfact> 0.10936063E+04</totfact>
</mgrwt>
</event>
<event>
 4    1  0.4751076E-004  0.2371313E+03  0.7818608E-02  0.1121719E+00
          2   -1    0    0  501    0  0.00000000000E+00  0.00000000000E+00  0.21182059057E+03  0.21182059058E+03  0.25500000000E-02 0.  1.
         -2   -1    0    0    0  501 -0.00000000000E+00 -0.00000000000E+00 -0.66366588935E+02  0.66366588984E+02  0.25500000000E-02 0. -1.
    5000001    1    1    2    0    0  0.49899541996E+02 -0.70114781092E+02  0.10426588409E+03  0.15558412966E+03  0.77000000000E+02 0.  0.
   -5000001    1    1    2    0    0 -0.49899541996E+02  0.70114781092E+02  0.41188117549E+02  0.12260304991E+03  0.77000000000E+02 0.  0.
<mgrwt>
<rscale>  0 0.23713127E+03</rscale>
<asrwt>0</asrwt>
<pdfrwt beam="1">  1        2 0.32587783E-01 0.23713127E+03</pdfrwt>
<pdfrwt beam="2">  1       -2 0.10210245E-01 0.23713127E+03</pdfrwt>
<totfact> 0.10081404E+04</totfact>
</mgrwt>
</event>
<event>
 4    1  0.4751076E-004  0.2067760E+03  0.7818608E-02  0.1144145E+00
          2   -1    0    0  501    0  0.00000000000E+00  0.00000000000E+00  0.14507189301E+03  0.14507189303E+03  0.25500000000E-02 0.  1.
         -2   -1    0    0    0  501 -0.00000000000E+00 -0.00000000000E+00 -0.73681246887E+02  0.73681246931E+02  0.25500000000E-02 0. -1.
    5000001    1    1    2    0    0 -0.19227729228E+01  0.64177229548E+02  0.89806312030E+01  0.10065816204E+03  0.77000000000E+02 0.  0.
   -5000001    1    1    2    0    0  0.19227729228E+01 -0.64177229548E+02  0.62410014915E+02  0.11809497792E+03  0.77000000000E+02 0.  0.
<mgrwt>
<rscale>  0 0.20677599E+03</rscale>
<asrwt>0</asrwt>
<pdfrwt beam="1">  1        2 0.22318753E-01 0.20677599E+03</pdfrwt>
<pdfrwt beam="2">  1       -2 0.11335577E-01 0.20677599E+03</pdfrwt>
<totfact> 0.12861864E+04</totfact>
</mgrwt>
</event>
<event>
 4    1  0.4751076E-004  0.2877088E+03  0.7818608E-02  0.1091551E+00
          2   -1    0    0  501    0  0.00000000000E+00  0.00000000000E+00  0.11225114219E+03  0.11225114221E+03  0.25500000000E-02 0.  1.
         -2   -1    0    0    0  501 -0.00000000000E+00 -0.00000000000E+00 -0.18435532234E+03  0.18435532236E+03  0.25500000000E-02 0. -1.
    5000001    1    1    2    0    0 -0.73711160257E+02 -0.86378900446E+02  0.85340596341E+01  0.13746446727E+03  0.77000000000E+02 0.  0.
   -5000001    1    1    2    0    0  0.73711160257E+02  0.86378900446E+02 -0.80638239794E+02  0.15914199730E+03  0.77000000000E+02 0.  0.
<mgrwt>
<rscale>  0 0.28770885E+03</rscale>
<asrwt>0</asrwt>
<pdfrwt beam="1">  1        2 0.17269407E-01 0.28770885E+03</pdfrwt>
<pdfrwt beam="2">  1       -2 0.28362357E-01 0.28770885E+03</pdfrwt>
<totfact> 0.37220620E+03</totfact>
</mgrwt>
</event>
<event>
 4    1  0.4751076E-004  0.2361472E+03  0.7818608E-02  0.1122386E+00
         -2   -1    0    0    0  501 -0.00000000000E+00  0.00000000000E+00  0.26488060678E+02  0.26488060801E+02  0.25500000000E-02 0. -1.
          2   -1    0    0  501    0  0.00000000000E+00 -0.00000000000E+00 -0.52632671723E+03  0.52632671724E+03  0.25500000000E-02 0.  1.
    5000001    1    1    2    0    0 -0.12342097186E+02  0.79206761243E+02 -0.34315764049E+03  0.36071069379E+03  0.77000000000E+02 0.  0.
   -5000001    1    1    2    0    0  0.12342097186E+02 -0.79206761243E+02 -0.15668101606E+03  0.19210408425E+03  0.77000000000E+02 0.  0.
<mgrwt>
<rscale>  0 0.23614719E+03</rscale>
<asrwt>0</asrwt>
<pdfrwt beam="1">  1        2 0.80973333E-01 0.23614719E+03</pdfrwt>
<pdfrwt beam="2">  1       -2 0.40750867E-02 0.23614719E+03</pdfrwt>
<totfact> 0.15451009E+04</totfact>
</mgrwt>
</event>
<event>
 4    1  0.4751076E-004  0.1696902E+03  0.7818608E-02  0.1178171E+00
         -2   -1    0    0    0  501 -0.00000000000E+00  0.00000000000E+00  0.81778754734E+01  0.81778758710E+01  0.25500000000E-02 0. -1.
          2   -1    0    0  501    0  0.00000000000E+00 -0.00000000000E+00 -0.88026378091E+03  0.88026378091E+03  0.25500000000E-02 0.  1.
    5000001    1    1    2    0    0  0.91068190175E+01  0.33830830547E+02 -0.40201975339E+03  0.41082397856E+03  0.77000000000E+02 0.  0.
   -5000001    1    1    2    0    0 -0.91068190175E+01 -0.33830830547E+02 -0.47006615205E+03  0.47761767822E+03  0.77000000000E+02 0.  0.
<mgrwt>
<rscale>  0 0.16969016E+03</rscale>
<asrwt>0</asrwt>
<pdfrwt beam="1">  1        2 0.13542512E+00 0.16969016E+03</pdfrwt>
<pdfrwt beam="2">  1       -2 0.12581354E-02 0.16969016E+03</pdfrwt>
<totfact> 0.45770211E+04</totfact>
</mgrwt>
</event>
<event>
 4    1  0.4751076E-004  0.2214019E+03  0.7818608E-02  0.1132842E+00
         -2   -1    0    0    0  501 -0.00000000000E+00  0.00000000000E+00  0.17791159841E+03  0.17791159843E+03  0.25500000000E-02 0. -1.
          2   -1    0    0  501    0  0.00000000000E+00 -0.00000000000E+00 -0.68880870698E+02  0.68880870745E+02  0.25500000000E-02 0.  1.
    5000001    1    1    2    0    0  0.44984605726E+02  0.39713919014E+02  0.11270228852E+03  0.14910270270E+03  0.77000000000E+02 0.  0.
   -5000001    1    1    2    0    0 -0.44984605726E+02 -0.39713919014E+02 -0.36715607988E+01  0.97689766478E+02  0.77000000000E+02 0.  0.
<mgrwt>
<rscale>  0 0.22140195E+03</rscale>
<asrwt>0</asrwt>
<pdfrwt beam="1">  1        2 0.10597057E-01 0.22140195E+03</pdfrwt>
<pdfrwt beam="2">  1       -2 0.27371015E-01 0.22140195E+03</pdfrwt>
<totfact> 0.70481453E+03</totfact>
</mgrwt>
</event>
<event>
 4    1  0.4751076E-004  0.1995002E+03  0.7818608E-02  0.1150161E+00
         -2   -1    0    0    0  501 -0.00000000000E+00  0.00000000000E+00  0.98736153664E+01  0.98736156957E+01  0.25500000000E-02 0. -1.
          2   -1    0    0  501    0  0.00000000000E+00 -0.00000000000E+00 -0.10077441386E+04  0.10077441386E+04  0.25500000000E-02 0.  1.
    5000001    1    1    2    0    0 -0.27848751619E+02  0.42726247281E+02 -0.69114904898E+03  0.69729268825E+03  0.77000000000E+02 0.  0.
   -5000001    1    1    2    0    0  0.27848751619E+02 -0.42726247281E+02 -0.30672147422E+03  0.32032506602E+03  0.77000000000E+02 0.  0.
<mgrwt>
<rscale>  0 0.19950016E+03</rscale>
<asrwt>0</asrwt>
<pdfrwt beam="1">  1        2 0.15503748E+00 0.19950016E+03</pdfrwt>
<pdfrwt beam="2">  1       -2 0.15190186E-02 0.19950016E+03</pdfrwt>
<totfact> 0.29384063E+04</totfact>
</mgrwt>
</event>
<event>
 4    1  0.4751076E-004  0.3987512E+03  0.7818608E-02  0.1044213E+00
         -2   -1    0    0    0  501 -0.00000000000E+00  0.00000000000E+00  0.28280059279E+02  0.28280059393E+02  0.25500000000E-02 0. -1.
          2   -1    0    0  501    0  0.00000000000E+00 -0.00000000000E+00 -0.14056065668E+04  0.14056065668E+04  0.25500000000E-02 0.  1.
    5000001    1    1    2    0    0 -0.14887950913E+03  0.12954569099E+02 -0.10740957854E+04  0.10871723346E+04  0.77000000000E+02 0.  0.
   -5000001    1    1    2    0    0  0.14887950913E+03 -0.12954569099E+02 -0.30323072217E+03  0.34671429155E+03  0.77000000000E+02 0.  0.
<mgrwt>
<rscale>  0 0.39875124E+03</rscale>
<asrwt>0</asrwt>
<pdfrwt beam="1">  1        2 0.21624711E+00 0.39875124E+03</pdfrwt>
<pdfrwt beam="2">  1       -2 0.43507794E-02 0.39875124E+03</pdfrwt>
<totfact> 0.37208733E+03</totfact>
</mgrwt>
</event>
<event>
 4    1  0.4751076E-004  0.3280381E+03  0.7818608E-02  0.1072008E+00
         -2   -1    0    0    0  501 -0.00000000000E+00  0.00000000000E+00  0.43783767536E+02  0.43783767610E+02  0.25500000000E-02 0. -1.
          2   -1    0    0  501    0  0.00000000000E+00 -0.00000000000E+00 -0.61443422641E+03  0.61443422642E+03  0.25500000000E-02 0.  1.
    5000001    1    1    2    0    0 -0.69468804239E+02 -0.40144073149E+02 -0.52724130050E+03  0.53884121068E+03  0.77000000000E+02 0.  0.
   -5000001    1    1    2    0    0  0.69468804239E+02  0.40144073149E+02 -0.43409158372E+02  0.11937678335E+03  0.77000000000E+02 0.  0.
<mgrwt>
<rscale>  0 0.32803808E+03</rscale>
<asrwt>0</asrwt>
<pdfrwt beam="1">  1        2 0.94528337E-01 0.32803808E+03</pdfrwt>
<pdfrwt beam="2">  1       -2 0.67359647E-02 0.32803808E+03</pdfrwt>
<totfact> 0.60849254E+03</totfact>
</mgrwt>
</event>
<event>
 4    1  0.4751076E-004  0.2022643E+03  0.7818608E-02  0.1147843E+00
          2   -1    0    0  501    0  0.00000000000E+00  0.00000000000E+00  0.23117964914E+03  0.23117964916E+03  0.25500000000E-02 0.  1.
         -2   -1    0    0    0  501 -0.00000000000E+00 -0.00000000000E+00 -0.44241405559E+02  0.44241405632E+02  0.25500000000E-02 0. -1.
    5000001    1    1    2    0    0  0.56821367992E+02 -0.58864245429E+01  0.13728493404E+03  0.16744990585E+03  0.77000000000E+02 0.  0.
   -5000001    1    1    2    0    0 -0.56821367992E+02  0.58864245429E+01  0.49653309539E+02  0.10797114894E+03  0.77000000000E+02 0.  0.
<mgrwt>
<rscale>  0 0.20226431E+03</rscale>
<asrwt>0</asrwt>
<pdfrwt beam="1">  1        2 0.35566099E-01 0.20226431E+03</pdfrwt>
<pdfrwt beam="2">  1       -2 0.68063703E-02 0.20226431E+03</pdfrwt>
<totfact> 0.17110036E+04</totfact>
</mgrwt>
</event>
<event>
 4    1  0.4751076E-004  0.3504407E+03  0.7818608E-02  0.1062434E+00
         -2   -1    0    0    0  501 -0.00000000000E+00  0.00000000000E+00  0.34299688432E+03  0.34299688433E+03  0.25500000000E-02 0. -1.
          2   -1    0    0  501    0  0.00000000000E+00 -0.00000000000E+00 -0.89511533938E+02  0.89511533974E+02  0.25500000000E-02 0.  1.
    5000001    1    1    2    0    0 -0.11335674789E+03  0.88536401871E+02  0.20562172795E+03  0.26248379332E+03  0.77000000000E+02 0.  0.
   -5000001    1    1    2    0    0  0.11335674789E+03 -0.88536401871E+02  0.47863622427E+02  0.17002462498E+03  0.77000000000E+02 0.  0.
<mgrwt>
<rscale>  0 0.35044074E+03</rscale>
<asrwt>0</asrwt>
<pdfrwt beam="1">  1        2 0.13771005E-01 0.35044074E+03</pdfrwt>
<pdfrwt beam="2">  1       -2 0.52768751E-01 0.35044074E+03</pdfrwt>
<totfact> 0.14958194E+03</totfact>
</mgrwt>
</event>
<event>
 4    1  0.4751076E-004  0.1717343E+03  0.7818608E-02  0.1176051E+00
          2   -1    0    0  501    0  0.00000000000E+00  0.00000000000E+00  0.88395628716E+03  0.88395628717E+03  0.25500000000E-02 0.  1.
         -2   -1    0    0    0  501 -0.00000000000E+00 -0.00000000000E+00 -0.83410973035E+01  0.83410976933E+01  0.25500000000E-02 0. -1.
    5000001    1    1    2    0    0  0.31406312337E+02  0.15411755707E+02  0.51492403567E+03  0.52182338121E+03  0.77000000000E+02 0.  0.
   -5000001    1    1    2    0    0 -0.31406312337E+02 -0.15411755707E+02  0.36069115419E+03  0.37047400365E+03  0.77000000000E+02 0.  0.
<mgrwt>
<rscale>  0 0.17173428E+03</rscale>
<asrwt>0</asrwt>
<pdfrwt beam="1">  1        2 0.13599331E+00 0.17173428E+03</pdfrwt>
<pdfrwt beam="2">  1       -2 0.12832454E-02 0.17173428E+03</pdfrwt>
<totfact> 0.44286126E+04</totfact>
</mgrwt>
</event>
<event>
 4    1  0.4751076E-004  0.1709937E+03  0.7818608E-02  0.1176815E+00
         -2   -1    0    0    0  501 -0.00000000000E+00  0.00000000000E+00  0.26241823004E+03  0.26241823005E+03  0.25500000000E-02 0. -1.
          2   -1    0    0  501    0  0.00000000000E+00 -0.00000000000E+00 -0.27855210113E+02  0.27855210230E+02  0.25500000000E-02 0.  1.
    5000001    1    1    2    0    0  0.37130867412E+02  0.13944821368E+01  0.11683540556E+03  0.14477623385E+03  0.77000000000E+02 0.  0.
   -5000001    1    1    2    0    0 -0.37130867412E+02 -0.13944821368E+01  0.11772761437E+03  0.14549720644E+03  0.77000000000E+02 0.  0.
<mgrwt>
<rscale>  0 0.17099374E+03</rscale>
<asrwt>0</asrwt>
<pdfrwt beam="1">  1        2 0.42854169E-02 0.17099374E+03</pdfrwt>
<pdfrwt beam="2">  1       -2 0.40372036E-01 0.17099374E+03</pdfrwt>
<totfact> 0.10808934E+04</totfact>
</mgrwt>
</event>
<event>
 4    1  0.4751076E-004  0.2241170E+03  0.7818608E-02  0.1130850E+00
         -2   -1    0    0    0  501 -0.00000000000E+00  0.00000000000E+00  0.15470626045E+02  0.15470626255E+02  0.25500000000E-02 0. -1.
          2   -1    0    0  501    0  0.00000000000E+00 -0.00000000000E+00 -0.81167444733E+03  0.81167444734E+03  0.25500000000E-02 0.  1.
    5000001    1    1    2    0    0  0.36503077414E+02 -0.12424378991E+02 -0.13347006677E+03  0.15883985198E+03  0.77000000000E+02 0.  0.
   -5000001    1    1    2    0    0 -0.36503077414E+02  0.12424378991E+02 -0.66273375452E+03  0.66830522161E+03  0.77000000000E+02 0.  0.
<mgrwt>
<rscale>  0 0.22411704E+03</rscale>
<asrwt>0</asrwt>
<pdfrwt beam="1">  1        2 0.12487296E+00 0.22411704E+03</pdfrwt>
<pdfrwt beam="2">  1       -2 0.23800970E-02 0.22411704E+03</pdfrwt>
<totfact> 0.20476744E+04</totfact>
</mgrwt>
</event>
<event>
 4    1  0.4751076E-004  0.5284794E+03  0.7818608E-02  0.1006602E+00
         -2   -1    0    0    0  501 -0.00000000000E+00  0.00000000000E+00  0.12494299451E+03  0.12494299453E+03  0.25500000000E-02 0. -1.
          2   -1    0    0  501    0  0.00000000000E+00 -0.00000000000E+00 -0.55883581762E+03  0.55883581763E+03  0.25500000000E-02 0.  1.
    5000001    1    1    2    0    0  0.20944608839E+03  0.11773855070E+03 -0.31852553272E+03  0.40634658268E+03  0.77000000000E+02 0.  0.
   -5000001    1    1    2    0    0 -0.20944608839E+03 -0.11773855070E+03 -0.11536729039E+03  0.27743222948E+03  0.77000000000E+02 0.  0.
<mgrwt>
<rscale>  0 0.52847941E+03</rscale>
<asrwt>0</asrwt>
<pdfrwt beam="1">  1        2 0.85974740E-01 0.52847941E+03</pdfrwt>
<pdfrwt beam="2">  1       -2 0.19221999E-01 0.52847941E+03</pdfrwt>
<totfact> 0.12374336E+03</totfact>
</mgrwt>
</event>
<event>
 4    1  0.4751076E-004  0.1588886E+03  0.7818608E-02  0.1189957E+00
          2   -1    0    0  501    0  0.00000000000E+00  0.00000000000E+00  0.35310351043E+04  0.35310351043E+04  0.25500000000E-02 0.  1.
         -2   -1    0    0    0  501 -0.00000000000E+00 -0.00000000000E+00 -0.17874068115E+01  0.17874086305E+01  0.25500000000E-02 0. -1.
    5000001    1    1    2    0    0  0.14962781580E+02  0.12431548314E+02  0.18089325574E+04  0.18106751298E+04  0.77000000000E+02 0.  0.
   -5000001    1    1    2    0    0 -0.14962781580E+02 -0.12431548314E+02  0.17203151400E+04  0.17221473831E+04  0.77000000000E+02 0.  0.
<mgrwt>
<rscale>  0 0.15888863E+03</rscale>
<asrwt>0</asrwt>
<pdfrwt beam="1">  1        2 0.54323391E+00 0.15888863E+03</pdfrwt>
<pdfrwt beam="2">  1       -2 0.27498695E-03 0.15888863E+03</pdfrwt>
<totfact> 0.13220898E+04</totfact>
</mgrwt>
</event>
<event>
 4    1  0.4751076E-004  0.2319192E+03  0.7818608E-02  0.1125296E+00
          2   -1    0    0  501    0  0.00000000000E+00  0.00000000000E+00  0.10405185368E+04  0.10405185368E+04  0.25500000000E-02 0.  1.
         -2   -1    0    0    0  501 -0.00000000000E+00 -0.00000000000E+00 -0.12923012235E+02  0.12923012487E+02  0.25500000000E-02 0. -1.
    5000001    1    1    2    0    0  0.41833746382E+02  0.72029977638E+02  0.40447561813E+03  0.42008083231E+03  0.77000000000E+02 0.  0.
   -5000001    1    1    2    0    0 -0.41833746382E+02 -0.72029977638E+02  0.62311990642E+03  0.63336071696E+03  0.77000000000E+02 0.  0.
<mgrwt>
<rscale>  0 0.23191924E+03</rscale>
<asrwt>0</asrwt>
<pdfrwt beam="1">  1        2 0.16007977E+00 0.23191924E+03</pdfrwt>
<pdfrwt beam="2">  1       -2 0.19881558E-02 0.23191924E+03</pdfrwt>
<totfact> 0.19123992E+04</totfact>
</mgrwt>
</event>
<event>
 4    1  0.4751076E-004  0.1624493E+03  0.7818608E-02  0.1185959E+00
          2   -1    0    0  501    0  0.00000000000E+00  0.00000000000E+00  0.16986875584E+03  0.16986875586E+03  0.25500000000E-02 0.  1.
         -2   -1    0    0    0  501 -0.00000000000E+00 -0.00000000000E+00 -0.38838476885E+02  0.38838476968E+02  0.25500000000E-02 0. -1.
    5000001    1    1    2    0    0  0.14079823629E+02  0.11325713361E+02  0.41758303298E+02  0.89438633212E+02  0.77000000000E+02 0.  0.
   -5000001    1    1    2    0    0 -0.14079823629E+02 -0.11325713361E+02  0.89271975659E+02  0.11926859962E+03  0.77000000000E+02 0.  0.
<mgrwt>
<rscale>  0 0.16244930E+03</rscale>
<asrwt>0</asrwt>
<pdfrwt beam="1">  1        2 0.26133654E-01 0.16244930E+03</pdfrwt>
<pdfrwt beam="2">  1       -2 0.59751504E-02 0.16244930E+03</pdfrwt>
<totfact> 0.28681510E+04</totfact>
</mgrwt>
</event>
<event>
 4    1  0.4751076E-004  0.1806279E+03  0.7818608E-02  0.1167197E+00
          2   -1    0    0  501    0  0.00000000000E+00  0.00000000000E+00  0.10911078271E+04  0.10911078271E+04  0.25500000000E-02 0.  1.
         -2   -1    0    0    0  501 -0.00000000000E+00 -0.00000000000E+00 -0.74755275949E+01  0.74755280298E+01  0.25500000000E-02 0. -1.
    5000001    1    1    2    0    0 -0.42153659663E+02 -0.10371424535E+02  0.42915748832E+03  0.43816623244E+03  0.77000000000E+02 0.  0.
   -5000001    1    1    2    0    0  0.42153659663E+02  0.10371424535E+02  0.65447481122E+03  0.66041712273E+03  0.77000000000E+02 0.  0.
<mgrwt>
<rscale>  0 0.18062787E+03</rscale>
<asrwt>0</asrwt>
<pdfrwt beam="1">  1        2 0.16786270E+00 0.18062787E+03</pdfrwt>
<pdfrwt beam="2">  1       -2 0.11500815E-02 0.18062787E+03</pdfrwt>
<totfact> 0.38961321E+04</totfact>
</mgrwt>
</event>
<event>
 4    1  0.4751076E-004  0.2446719E+03  0.7818608E-02  0.1116719E+00
         -2   -1    0    0    0  501 -0.00000000000E+00  0.00000000000E+00  0.12784004398E+03  0.12784004401E+03  0.25500000000E-02 0. -1.
          2   -1    0    0  501    0  0.00000000000E+00 -0.00000000000E+00 -0.11706886832E+03  0.11706886835E+03  0.25500000000E-02 0.  1.
    5000001    1    1    2    0    0  0.76334910805E+02 -0.31289058646E+02  0.52665491900E+02  0.12453384213E+03  0.77000000000E+02 0.  0.
   -5000001    1    1    2    0    0 -0.76334910805E+02  0.31289058646E+02 -0.41894316242E+02  0.12037507023E+03  0.77000000000E+02 0.  0.
<mgrwt>
<rscale>  0 0.24467194E+03</rscale>
<asrwt>0</asrwt>
<pdfrwt beam="1">  1        2 0.18010595E-01 0.24467194E+03</pdfrwt>
<pdfrwt beam="2">  1       -2 0.19667699E-01 0.24467194E+03</pdfrwt>
<totfact> 0.66874133E+03</totfact>
</mgrwt>
</event>
<event>
 4    1  0.4751076E-004  0.2621070E+03  0.7818608E-02  0.1105884E+00
         -2   -1    0    0    0  501 -0.00000000000E+00  0.00000000000E+00  0.21227831459E+03  0.21227831461E+03  0.25500000000E-02 0. -1.
          2   -1    0    0  501    0  0.00000000000E+00 -0.00000000000E+00 -0.80908000927E+02  0.80908000967E+02  0.25500000000E-02 0.  1.
    5000001    1    1    2    0    0  0.51614627131E+02 -0.92595974367E+02  0.62535244744E+02  0.14518175174E+03  0.77000000000E+02 0.  0.
   -5000001    1    1    2    0    0 -0.51614627131E+02  0.92595974367E+02  0.68835068921E+02  0.14800456384E+03  0.77000000000E+02 0.  0.
<mgrwt>
<rscale>  0 0.26210696E+03</rscale>
<asrwt>0</asrwt>
<pdfrwt beam="1">  1        2 0.12447385E-01 0.26210696E+03</pdfrwt>
<pdfrwt beam="2">  1       -2 0.32658202E-01 0.26210696E+03</pdfrwt>
<totfact> 0.42366555E+03</totfact>
</mgrwt>
</event>
<event>
 4    1  0.4751076E-004  0.2178504E+03  0.7818608E-02  0.1135496E+00
         -2   -1    0    0    0  501 -0.00000000000E+00  0.00000000000E+00  0.41937193073E+02  0.41937193150E+02  0.25500000000E-02 0. -1.
          2   -1    0    0  501    0  0.00000000000E+00 -0.00000000000E+00 -0.28291597623E+03  0.28291597625E+03  0.25500000000E-02 0.  1.
    5000001    1    1    2    0    0  0.76497013413E+02 -0.21588084270E+01 -0.13376406966E+03  0.17227385131E+03  0.77000000000E+02 0.  0.
   -5000001    1    1    2    0    0 -0.76497013413E+02  0.21588084270E+01 -0.10721471350E+03  0.15257931808E+03  0.77000000000E+02 0.  0.
<mgrwt>
<rscale>  0 0.21785043E+03</rscale>
<asrwt>0</asrwt>
<pdfrwt beam="1">  1        2 0.43525534E-01 0.21785043E+03</pdfrwt>
<pdfrwt beam="2">  1       -2 0.64518760E-02 0.21785043E+03</pdfrwt>
<totfact> 0.15027809E+04</totfact>
</mgrwt>
</event>
<event>
 4    1  0.4751076E-004  0.6379644E+03  0.7818608E-02  0.9829629E-01
          2   -1    0    0  501    0  0.00000000000E+00  0.00000000000E+00  0.61198671263E+03  0.61198671263E+03  0.25500000000E-02 0.  1.
         -2   -1    0    0    0  501 -0.00000000000E+00 -0.00000000000E+00 -0.16626120811E+03  0.16626120813E+03  0.25500000000E-02 0. -1.
    5000001    1    1    2    0    0 -0.20152359694E+03  0.11308307755E+03  0.47411647948E+03  0.53302436967E+03  0.77000000000E+02 0.  0.
   -5000001    1    1    2    0    0  0.20152359694E+03 -0.11308307755E+03 -0.28390974964E+02  0.24522355109E+03  0.77000000000E+02 0.  0.
<mgrwt>
<rscale>  0 0.63796442E+03</rscale>
<asrwt>0</asrwt>
<pdfrwt beam="1">  1        2 0.94151803E-01 0.63796442E+03</pdfrwt>
<pdfrwt beam="2">  1       -2 0.25578647E-01 0.63796442E+03</pdfrwt>
<totfact> 0.66950387E+02</totfact>
</mgrwt>
</event>
<event>
 4    1  0.4751076E-004  0.2752175E+03  0.7818608E-02  0.1098330E+00
         -2   -1    0    0    0  501 -0.00000000000E+00  0.00000000000E+00  0.31668260991E+02  0.31668261094E+02  0.25500000000E-02 0. -1.
          2   -1    0    0  501    0  0.00000000000E+00 -0.00000000000E+00 -0.59795436298E+03  0.59795436298E+03  0.25500000000E-02 0.  1.
    5000001    1    1    2    0    0  0.84675613243E+02  0.75413384856E+02 -0.31116530413E+03  0.34001468290E+03  0.77000000000E+02 0.  0.
   -5000001    1    1    2    0    0 -0.84675613243E+02 -0.75413384856E+02 -0.25512079786E+03  0.28960794118E+03  0.77000000000E+02 0.  0.
<mgrwt>
<rscale>  0 0.27521755E+03</rscale>
<asrwt>0</asrwt>
<pdfrwt beam="1">  1        2 0.91992970E-01 0.27521755E+03</pdfrwt>
<pdfrwt beam="2">  1       -2 0.48720406E-02 0.27521755E+03</pdfrwt>
<totfact> 0.10270782E+04</totfact>
</mgrwt>
</event>
<event>
 4    1  0.4751076E-004  0.1611778E+03  0.7818608E-02  0.1187373E+00
         -2   -1    0    0    0  501 -0.00000000000E+00  0.00000000000E+00  0.93039394740E+02  0.93039394775E+02  0.25500000000E-02 0. -1.
          2   -1    0    0  501    0  0.00000000000E+00 -0.00000000000E+00 -0.69804564366E+02  0.69804564413E+02  0.25500000000E-02 0.  1.
    5000001    1    1    2    0    0  0.45918360895E+01  0.14270696669E+02  0.30270019323E+02  0.84083362278E+02  0.77000000000E+02 0.  0.
   -5000001    1    1    2    0    0 -0.45918360895E+01 -0.14270696669E+02 -0.70351889494E+01  0.78760596910E+02  0.77000000000E+02 0.  0.
<mgrwt>
<rscale>  0 0.16117784E+03</rscale>
<asrwt>0</asrwt>
<pdfrwt beam="1">  1        2 0.10739164E-01 0.16117784E+03</pdfrwt>
<pdfrwt beam="2">  1       -2 0.14313753E-01 0.16117784E+03</pdfrwt>
<totfact> 0.20414051E+04</totfact>
</mgrwt>
</event>
<event>
 4    1  0.4751076E-004  0.2277710E+03  0.7818608E-02  0.1128219E+00
          2   -1    0    0  501    0  0.00000000000E+00  0.00000000000E+00  0.87687806374E+03  0.87687806375E+03  0.25500000000E-02 0.  1.
         -2   -1    0    0    0  501 -0.00000000000E+00 -0.00000000000E+00 -0.14791000440E+02  0.14791000660E+02  0.25500000000E-02 0. -1.
    5000001    1    1    2    0    0 -0.31428548155E+02  0.42517003490E+02  0.68611825832E+03  0.69244690311E+03  0.77000000000E+02 0.  0.
   -5000001    1    1    2    0    0  0.31428548155E+02 -0.42517003490E+02  0.17596880498E+03  0.19922216129E+03  0.77000000000E+02 0.  0.
<mgrwt>
<rscale>  0 0.22777097E+03</rscale>
<asrwt>0</asrwt>
<pdfrwt beam="1">  1        2 0.13490431E+00 0.22777097E+03</pdfrwt>
<pdfrwt beam="2">  1       -2 0.22755386E-02 0.22777097E+03</pdfrwt>
<totfact> 0.19813621E+04</totfact>
</mgrwt>
</event>
<event>
 4    1  0.4751076E-004  0.1805851E+03  0.7818608E-02  0.1167238E+00
         -2   -1    0    0    0  501 -0.00000000000E+00  0.00000000000E+00  0.35814751357E+03  0.35814751358E+03  0.25500000000E-02 0. -1.
          2   -1    0    0  501    0  0.00000000000E+00 -0.00000000000E+00 -0.22763639465E+02  0.22763639608E+02  0.25500000000E-02 0.  1.
    5000001    1    1    2    0    0 -0.16898249908E+02  0.38147205324E+02  0.21404802701E+03  0.23127109200E+03  0.77000000000E+02 0.  0.
   -5000001    1    1    2    0    0  0.16898249908E+02 -0.38147205324E+02  0.12133584709E+03  0.14964006119E+03  0.77000000000E+02 0.  0.
<mgrwt>
<rscale>  0 0.18058506E+03</rscale>
<asrwt>0</asrwt>
<pdfrwt beam="1">  1        2 0.35020984E-02 0.18058506E+03</pdfrwt>
<pdfrwt beam="2">  1       -2 0.55099617E-01 0.18058506E+03</pdfrwt>
<totfact> 0.77193410E+03</totfact>
</mgrwt>
</event>
<event>
 4    1  0.4751076E-004  0.2366643E+03  0.7818608E-02  0.1122035E+00
          2   -1    0    0  501    0  0.00000000000E+00  0.00000000000E+00  0.24760979901E+04  0.24760979901E+04  0.25500000000E-02 0.  1.
         -2   -1    0    0    0  501 -0.00000000000E+00 -0.00000000000E+00 -0.56550658365E+01  0.56550664115E+01  0.25500000000E-02 0. -1.
    5000001    1    1    2    0    0 -0.74890051598E+02  0.46970967534E+02  0.10665547922E+04  0.10729785256E+04  0.77000000000E+02 0.  0.
   -5000001    1    1    2    0    0  0.74890051598E+02 -0.46970967534E+02  0.14038881320E+04  0.14087745309E+04  0.77000000000E+02 0.  0.
<mgrwt>
<rscale>  0 0.23666430E+03</rscale>
<asrwt>0</asrwt>
<pdfrwt beam="1">  1        2 0.38093778E+00 0.23666430E+03</pdfrwt>
<pdfrwt beam="2">  1       -2 0.87001103E-03 0.23666430E+03</pdfrwt>
<totfact> 0.10770009E+04</totfact>
</mgrwt>
</event>
<event>
 4    1  0.4751076E-004  0.2155853E+03  0.7818608E-02  0.1137218E+00
         -2   -1    0    0    0  501 -0.00000000000E+00  0.00000000000E+00  0.11891400050E+03  0.11891400053E+03  0.25500000000E-02 0. -1.
          2   -1    0    0  501    0  0.00000000000E+00 -0.00000000000E+00 -0.97711382946E+02  0.97711382979E+02  0.25500000000E-02 0.  1.
    5000001    1    1    2    0    0  0.62688973111E+02  0.37587140124E+02 -0.81313551453E+01  0.10647919698E+03  0.77000000000E+02 0.  0.
   -5000001    1    1    2    0    0 -0.62688973111E+02 -0.37587140124E+02  0.29333972698E+02  0.11014618653E+03  0.77000000000E+02 0.  0.
<mgrwt>
<rscale>  0 0.21558526E+03</rscale>
<asrwt>0</asrwt>
<pdfrwt beam="1">  1        2 0.15032520E-01 0.21558526E+03</pdfrwt>
<pdfrwt beam="2">  1       -2 0.18294462E-01 0.21558526E+03</pdfrwt>
<totfact> 0.92771377E+03</totfact>
</mgrwt>
</event>
<event>
 4    1  0.4751076E-004  0.1719406E+03  0.7818608E-02  0.1175839E+00
          2   -1    0    0  501    0  0.00000000000E+00  0.00000000000E+00  0.26998019797E+03  0.26998019799E+03  0.25500000000E-02 0.  1.
         -2   -1    0    0    0  501 -0.00000000000E+00 -0.00000000000E+00 -0.27375694272E+02  0.27375694391E+02  0.25500000000E-02 0. -1.
    5000001    1    1    2    0    0  0.12330951857E+02 -0.33776909662E+02  0.98822354766E+02  0.13033721572E+03  0.77000000000E+02 0.  0.
   -5000001    1    1    2    0    0 -0.12330951857E+02  0.33776909662E+02  0.14378214894E+03  0.16701867666E+03  0.77000000000E+02 0.  0.
<mgrwt>
<rscale>  0 0.17194063E+03</rscale>
<asrwt>0</asrwt>
<pdfrwt beam="1">  1        2 0.41535414E-01 0.17194063E+03</pdfrwt>
<pdfrwt beam="2">  1       -2 0.42116454E-02 0.17194063E+03</pdfrwt>
<totfact> 0.29598740E+04</totfact>
</mgrwt>
</event>
<event>
 4    1  0.4751076E-004  0.2207658E+03  0.7818608E-02  0.1133313E+00
          2   -1    0    0  501    0  0.00000000000E+00  0.00000000000E+00  0.15830695935E+03  0.15830695937E+03  0.25500000000E-02 0.  1.
         -2   -1    0    0    0  501 -0.00000000000E+00 -0.00000000000E+00 -0.76966795387E+02  0.76966795429E+02  0.25500000000E-02 0. -1.
    5000001    1    1    2    0    0  0.59242858122E+02  0.39057889473E+02  0.77896169597E+02  0.13050688950E+03  0.77000000000E+02 0.  0.
   -5000001    1    1    2    0    0 -0.59242858122E+02 -0.39057889473E+02  0.34439943688E+01  0.10476686530E+03  0.77000000000E+02 0.  0.
<mgrwt>
<rscale>  0 0.22076575E+03</rscale>
<asrwt>0</asrwt>
<pdfrwt beam="1">  1        2 0.24354917E-01 0.22076575E+03</pdfrwt>
<pdfrwt beam="2">  1       -2 0.11841046E-01 0.22076575E+03</pdfrwt>
<totfact> 0.10919357E+04</totfact>
</mgrwt>
</event>
<event>
 4    1  0.4751076E-004  0.4695492E+03  0.7818608E-02  0.1022048E+00
          2   -1    0    0  501    0  0.00000000000E+00  0.00000000000E+00  0.22178767096E+03  0.22178767098E+03  0.25500000000E-02 0.  1.
         -2   -1    0    0    0  501 -0.00000000000E+00 -0.00000000000E+00 -0.24852200471E+03  0.24852200472E+03  0.25500000000E-02 0. -1.
    5000001    1    1    2    0    0 -0.22051153104E+03 -0.13153272099E+02 -0.33192472526E+02  0.23628178965E+03  0.77000000000E+02 0.  0.
   -5000001    1    1    2    0    0  0.22051153104E+03  0.13153272099E+02  0.64581387834E+01  0.23402788604E+03  0.77000000000E+02 0.  0.
<mgrwt>
<rscale>  0 0.46954922E+03</rscale>
<asrwt>0</asrwt>
<pdfrwt beam="1">  1        2 0.34121180E-01 0.46954922E+03</pdfrwt>
<pdfrwt beam="2">  1       -2 0.38234155E-01 0.46954922E+03</pdfrwt>
<totfact> 0.99510644E+02</totfact>
</mgrwt>
</event>
<event>
 4    1  0.4751076E-004  0.1723337E+03  0.7818608E-02  0.1175436E+00
          2   -1    0    0  501    0  0.00000000000E+00  0.00000000000E+00  0.41780061458E+03  0.41780061458E+03  0.25500000000E-02 0.  1.
         -2   -1    0    0    0  501 -0.00000000000E+00 -0.00000000000E+00 -0.17770987299E+02  0.17770987481E+02  0.25500000000E-02 0. -1.
    5000001    1    1    2    0    0  0.58256932358E+01  0.31839924889E+02  0.25351226208E+03  0.26691793972E+03  0.77000000000E+02 0.  0.
   -5000001    1    1    2    0    0 -0.58256932358E+01 -0.31839924889E+02  0.14651736520E+03  0.16865366235E+03  0.77000000000E+02 0.  0.
<mgrwt>
<rscale>  0 0.17233374E+03</rscale>
<asrwt>0</asrwt>
<pdfrwt beam="1">  1        2 0.64277024E-01 0.17233374E+03</pdfrwt>
<pdfrwt beam="2">  1       -2 0.27339978E-02 0.17233374E+03</pdfrwt>
<totfact> 0.35233929E+04</totfact>
</mgrwt>
</event>
<event>
 4    1  0.4751076E-004  0.3031443E+03  0.7818608E-02  0.1083679E+00
         -2   -1    0    0    0  501 -0.00000000000E+00  0.00000000000E+00  0.34142272402E+02  0.34142272497E+02  0.25500000000E-02 0. -1.
          2   -1    0    0  501    0  0.00000000000E+00 -0.00000000000E+00 -0.67289375270E+03  0.67289375271E+03  0.25500000000E-02 0.  1.
    5000001    1    1    2    0    0  0.38829129278E+02 -0.10733864922E+03 -0.46717763919E+03  0.48704541211E+03  0.77000000000E+02 0.  0.
   -5000001    1    1    2    0    0 -0.38829129278E+02  0.10733864922E+03 -0.17157384111E+03  0.21999061310E+03  0.77000000000E+02 0.  0.
<mgrwt>
<rscale>  0 0.30314433E+03</rscale>
<asrwt>0</asrwt>
<pdfrwt beam="1">  1        2 0.10352211E+00 0.30314433E+03</pdfrwt>
<pdfrwt beam="2">  1       -2 0.52526578E-02 0.30314433E+03</pdfrwt>
<totfact> 0.79920383E+03</totfact>
</mgrwt>
</event>
<event>
 4    1  0.4751076E-004  0.1863784E+03  0.7818608E-02  0.1161769E+00
          2   -1    0    0  501    0  0.00000000000E+00  0.00000000000E+00  0.14540373452E+04  0.14540373452E+04  0.25500000000E-02 0.  1.
         -2   -1    0    0    0  501 -0.00000000000E+00 -0.00000000000E+00 -0.59724928831E+01  0.59724934274E+01  0.25500000000E-02 0. -1.
    5000001    1    1    2    0    0 -0.31584715029E+02  0.39508994498E+02  0.83389070637E+03  0.83896440034E+03  0.77000000000E+02 0.  0.
   -5000001    1    1    2    0    0  0.31584715029E+02 -0.39508994498E+02  0.61417414599E+03  0.62104543833E+03  0.77000000000E+02 0.  0.
<mgrwt>
<rscale>  0 0.18637841E+03</rscale>
<asrwt>0</asrwt>
<pdfrwt beam="1">  1        2 0.22369821E+00 0.18637841E+03</pdfrwt>
<pdfrwt beam="2">  1       -2 0.91884447E-03 0.18637841E+03</pdfrwt>
<totfact> 0.34026471E+04</totfact>
</mgrwt>
</event>
<event>
 4    1  0.4751076E-004  0.2308693E+03  0.7818608E-02  0.1126029E+00
         -2   -1    0    0    0  501 -0.00000000000E+00  0.00000000000E+00  0.18975359055E+02  0.18975359226E+02  0.25500000000E-02 0. -1.
          2   -1    0    0  501    0  0.00000000000E+00 -0.00000000000E+00 -0.70223465446E+03  0.70223465446E+03  0.25500000000E-02 0.  1.
    5000001    1    1    2    0    0  0.50600487982E+02  0.51511568923E+02 -0.48756254720E+03  0.49885878618E+03  0.77000000000E+02 0.  0.
   -5000001    1    1    2    0    0 -0.50600487982E+02 -0.51511568923E+02 -0.19569674820E+03  0.22235122750E+03  0.77000000000E+02 0.  0.
<mgrwt>
<rscale>  0 0.23086927E+03</rscale>
<asrwt>0</asrwt>
<pdfrwt beam="1">  1        2 0.10803608E+00 0.23086927E+03</pdfrwt>
<pdfrwt beam="2">  1       -2 0.29192866E-02 0.23086927E+03</pdfrwt>
<totfact> 0.18152314E+04</totfact>
</mgrwt>
</event>
<event>
 4    1  0.4751076E-004  0.2893920E+03  0.7818608E-02  0.1090667E+00
          2   -1    0    0  501    0  0.00000000000E+00  0.00000000000E+00  0.13672869835E+04  0.13672869835E+04  0.25500000000E-02 0.  1.
         -2   -1    0    0    0  501 -0.00000000000E+00 -0.00000000000E+00 -0.15312753853E+02  0.15312754066E+02  0.25500000000E-02 0. -1.
    5000001    1    1    2    0    0 -0.10616990641E+03 -0.61042790891E+02  0.69083448919E+03  0.70581836389E+03  0.77000000000E+02 0.  0.
   -5000001    1    1    2    0    0  0.10616990641E+03  0.61042790891E+02  0.66113974042E+03  0.67678137365E+03  0.77000000000E+02 0.  0.
<mgrwt>
<rscale>  0 0.28939198E+03</rscale>
<asrwt>0</asrwt>
<pdfrwt beam="1">  1        2 0.21035188E+00 0.28939198E+03</pdfrwt>
<pdfrwt beam="2">  1       -2 0.23558079E-02 0.28939198E+03</pdfrwt>
<totfact> 0.97833502E+03</totfact>
</mgrwt>
</event>
<event>
 4    1  0.4751076E-004  0.2119379E+03  0.7818608E-02  0.1140040E+00
          2   -1    0    0  501    0  0.00000000000E+00  0.00000000000E+00  0.11433785622E+04  0.11433785622E+04  0.25500000000E-02 0.  1.
         -2   -1    0    0    0  501 -0.00000000000E+00 -0.00000000000E+00 -0.98212610654E+01  0.98212613965E+01  0.25500000000E-02 0. -1.
    5000001    1    1    2    0    0  0.65217203203E+02 -0.10628332527E+02  0.73308541804E+03  0.74007396603E+03  0.77000000000E+02 0.  0.
   -5000001    1    1    2    0    0 -0.65217203203E+02  0.10628332527E+02  0.40047188307E+03  0.41312585754E+03  0.77000000000E+02 0.  0.
<mgrwt>
<rscale>  0 0.21193791E+03</rscale>
<asrwt>0</asrwt>
<pdfrwt beam="1">  1        2 0.17590433E+00 0.21193791E+03</pdfrwt>
<pdfrwt beam="2">  1       -2 0.15109638E-02 0.21193791E+03</pdfrwt>
<totfact> 0.24738464E+04</totfact>
</mgrwt>
</event>
<event>
 4    1  0.4751076E-004  0.3763194E+03  0.7818608E-02  0.1052303E+00
         -2   -1    0    0    0  501 -0.00000000000E+00  0.00000000000E+00  0.27589318252E+02  0.27589318370E+02  0.25500000000E-02 0. -1.
          2   -1    0    0  501    0  0.00000000000E+00 -0.00000000000E+00 -0.12832525705E+04  0.12832525705E+04  0.25500000000E-02 0.  1.
    5000001    1    1    2    0    0  0.96782508296E+02  0.74566504750E+02 -0.20768963106E+03  0.25296442515E+03  0.77000000000E+02 0.  0.
   -5000001    1    1    2    0    0 -0.96782508296E+02 -0.74566504750E+02 -0.10479736212E+04  0.10578774637E+04  0.77000000000E+02 0.  0.
<mgrwt>
<rscale>  0 0.37631935E+03</rscale>
<asrwt>0</asrwt>
<pdfrwt beam="1">  1        2 0.19742343E+00 0.37631935E+03</pdfrwt>
<pdfrwt beam="2">  1       -2 0.42445115E-02 0.37631935E+03</pdfrwt>
<totfact> 0.45197797E+03</totfact>
</mgrwt>
</event>
<event>
 4    1  0.4751076E-004  0.2822219E+03  0.7818608E-02  0.1094482E+00
         -2   -1    0    0    0  501 -0.00000000000E+00  0.00000000000E+00  0.54961723869E+01  0.54961729785E+01  0.25500000000E-02 0. -1.
          2   -1    0    0  501    0  0.00000000000E+00 -0.00000000000E+00 -0.36229380560E+04  0.36229380560E+04  0.25500000000E-02 0.  1.
    5000001    1    1    2    0    0  0.60411763083E+02 -0.99780162541E+02 -0.15588805986E+04  0.15651336629E+04  0.77000000000E+02 0.  0.
   -5000001    1    1    2    0    0 -0.60411763083E+02  0.99780162541E+02 -0.20585612850E+04  0.20633005661E+04  0.77000000000E+02 0.  0.
<mgrwt>
<rscale>  0 0.28222185E+03</rscale>
<asrwt>0</asrwt>
<pdfrwt beam="1">  1        2 0.55737318E+00 0.28222185E+03</pdfrwt>
<pdfrwt beam="2">  1       -2 0.84556792E-03 0.28222185E+03</pdfrwt>
<totfact> 0.22771668E+03</totfact>
</mgrwt>
</event>
<event>
 4    1  0.4751076E-004  0.2818348E+03  0.7818608E-02  0.1094691E+00
          2   -1    0    0  501    0  0.00000000000E+00  0.00000000000E+00  0.11825888950E+03  0.11825888953E+03  0.25500000000E-02 0.  1.
         -2   -1    0    0    0  501 -0.00000000000E+00 -0.00000000000E+00 -0.16791732056E+03  0.16791732058E+03  0.25500000000E-02 0. -1.
    5000001    1    1    2    0    0 -0.87767766920E+02 -0.78662458002E+02 -0.31068181757E+02  0.14417071522E+03  0.77000000000E+02 0.  0.
   -5000001    1    1    2    0    0  0.87767766920E+02  0.78662458002E+02 -0.18590249308E+02  0.14200549489E+03  0.77000000000E+02 0.  0.
<mgrwt>
<rscale>  0 0.28183482E+03</rscale>
<asrwt>0</asrwt>
<pdfrwt beam="1">  1        2 0.18193675E-01 0.28183482E+03</pdfrwt>
<pdfrwt beam="2">  1       -2 0.25833434E-01 0.28183482E+03</pdfrwt>
<totfact> 0.41371048E+03</totfact>
</mgrwt>
</event>
<event>
 4    1  0.4751076E-004  0.1890422E+03  0.7818608E-02  0.1159328E+00
          2   -1    0    0  501    0  0.00000000000E+00  0.00000000000E+00  0.55751100798E+03  0.55751100798E+03  0.25500000000E-02 0.  1.
         -2   -1    0    0    0  501 -0.00000000000E+00 -0.00000000000E+00 -0.16025216001E+02  0.16025216204E+02  0.25500000000E-02 0. -1.
    5000001    1    1    2    0    0  0.30763061906E+02 -0.52862228437E+00  0.40839631623E+03  0.41672916448E+03  0.77000000000E+02 0.  0.
   -5000001    1    1    2    0    0 -0.30763061906E+02  0.52862228437E+00  0.13308947575E+03  0.15680705971E+03  0.77000000000E+02 0.  0.
<mgrwt>
<rscale>  0 0.18904216E+03</rscale>
<asrwt>0</asrwt>
<pdfrwt beam="1">  1        2 0.85770926E-01 0.18904216E+03</pdfrwt>
<pdfrwt beam="2">  1       -2 0.24654178E-02 0.18904216E+03</pdfrwt>
<totfact> 0.30084278E+04</totfact>
</mgrwt>
</event>
<event>
 4    1  0.4751076E-004  0.2990013E+03  0.7818608E-02  0.1085741E+00
          2   -1    0    0  501    0  0.00000000000E+00  0.00000000000E+00  0.62647822620E+03  0.62647822620E+03  0.25500000000E-02 0.  1.
         -2   -1    0    0    0  501 -0.00000000000E+00 -0.00000000000E+00 -0.35676336863E+02  0.35676336954E+02  0.25500000000E-02 0. -1.
    5000001    1    1    2    0    0 -0.10991750599E+03  0.65021350910E+02  0.31881811894E+03  0.35197106012E+03  0.77000000000E+02 0.  0.
   -5000001    1    1    2    0    0  0.10991750599E+03 -0.65021350910E+02  0.27198377039E+03  0.31018350303E+03  0.77000000000E+02 0.  0.
<mgrwt>
<rscale>  0 0.29900133E+03</rscale>
<asrwt>0</asrwt>
<pdfrwt beam="1">  1        2 0.96381265E-01 0.29900133E+03</pdfrwt>
<pdfrwt beam="2">  1       -2 0.54886672E-02 0.29900133E+03</pdfrwt>
<totfact> 0.81332381E+03</totfact>
</mgrwt>
</event>
<event>
 4    1  0.4751076E-004  0.1902048E+03  0.7818608E-02  0.1158277E+00
         -2   -1    0    0    0  501 -0.00000000000E+00  0.00000000000E+00  0.17138701094E+02  0.17138701284E+02  0.25500000000E-02 0. -1.
          2   -1    0    0  501    0  0.00000000000E+00 -0.00000000000E+00 -0.52772193060E+03  0.52772193061E+03  0.25500000000E-02 0.  1.
    5000001    1    1    2    0    0  0.16085827350E+02 -0.52703708182E+02 -0.28075817563E+03  0.29629476519E+03  0.77000000000E+02 0.  0.
   -5000001    1    1    2    0    0 -0.16085827350E+02  0.52703708182E+02 -0.22982505387E+03  0.24856586669E+03  0.77000000000E+02 0.  0.
<mgrwt>
<rscale>  0 0.19020482E+03</rscale>
<asrwt>0</asrwt>
<pdfrwt beam="1">  1        2 0.81187977E-01 0.19020482E+03</pdfrwt>
<pdfrwt beam="2">  1       -2 0.26367237E-02 0.19020482E+03</pdfrwt>
<totfact> 0.29004357E+04</totfact>
</mgrwt>
</event>
<event>
 4    1  0.4751076E-004  0.2493974E+03  0.7818608E-02  0.1113686E+00
         -2   -1    0    0    0  501 -0.00000000000E+00  0.00000000000E+00  0.31460937068E+03  0.31460937069E+03  0.25500000000E-02 0. -1.
          2   -1    0    0  501    0  0.00000000000E+00 -0.00000000000E+00 -0.49425620388E+02  0.49425620454E+02  0.25500000000E-02 0.  1.
    5000001    1    1    2    0    0 -0.61960568216E+01 -0.95579838336E+02  0.10173583079E+03  0.15954020146E+03  0.77000000000E+02 0.  0.
   -5000001    1    1    2    0    0  0.61960568216E+01  0.95579838336E+02  0.16344791950E+03  0.20449478968E+03  0.77000000000E+02 0.  0.
<mgrwt>
<rscale>  0 0.24939738E+03</rscale>
<asrwt>0</asrwt>
<pdfrwt beam="1">  1        2 0.76039417E-02 0.24939738E+03</pdfrwt>
<pdfrwt beam="2">  1       -2 0.48401441E-01 0.24939738E+03</pdfrwt>
<totfact> 0.36864003E+03</totfact>
</mgrwt>
</event>
<event>
 4    1  0.4751076E-004  0.2295893E+03  0.7818608E-02  0.1126929E+00
         -2   -1    0    0    0  501 -0.00000000000E+00  0.00000000000E+00  0.14317334247E+02  0.14317334475E+02  0.25500000000E-02 0. -1.
          2   -1    0    0  501    0  0.00000000000E+00 -0.00000000000E+00 -0.92040994126E+03  0.92040994126E+03  0.25500000000E-02 0.  1.
    5000001    1    1    2    0    0 -0.66900776844E+02 -0.52192224088E+02 -0.48156711913E+03  0.49501073971E+03  0.77000000000E+02 0.  0.
   -5000001    1    1    2    0    0  0.66900776844E+02  0.52192224088E+02 -0.42452548788E+03  0.43971653602E+03  0.77000000000E+02 0.  0.
<mgrwt>
<rscale>  0 0.22958935E+03</rscale>
<asrwt>0</asrwt>
<pdfrwt beam="1">  1        2 0.14160148E+00 0.22958935E+03</pdfrwt>
<pdfrwt beam="2">  1       -2 0.22026675E-02 0.22958935E+03</pdfrwt>
<totfact> 0.19496036E+04</totfact>
</mgrwt>
</event>
<event>
 4    1  0.4751076E-004  0.2002940E+03  0.7818608E-02  0.1149491E+00
          2   -1    0    0  501    0  0.00000000000E+00  0.00000000000E+00  0.42495365594E+02  0.42495365671E+02  0.25500000000E-02 0.  1.
         -2   -1    0    0    0  501 -0.00000000000E+00 -0.00000000000E+00 -0.23601203807E+03  0.23601203808E+03  0.25500000000E-02 0. -1.
    5000001    1    1    2    0    0 -0.61370447968E+02  0.15031276696E+02 -0.11121857640E+03  0.14930118185E+03  0.77000000000E+02 0.  0.
   -5000001    1    1    2    0    0  0.61370447968E+02 -0.15031276696E+02 -0.82298096069E+02  0.12920622191E+03  0.77000000000E+02 0.  0.
<mgrwt>
<rscale>  0 0.20029396E+03</rscale>
<asrwt>0</asrwt>
<pdfrwt beam="1">  1        2 0.65377487E-02 0.20029396E+03</pdfrwt>
<pdfrwt beam="2">  1       -2 0.36309544E-01 0.20029396E+03</pdfrwt>
<totfact> 0.76884330E+03</totfact>
</mgrwt>
</event>
<event>
 4    1  0.4751076E-004  0.3839096E+03  0.7818608E-02  0.1049498E+00
          2   -1    0    0  501    0  0.00000000000E+00  0.00000000000E+00  0.71161692740E+03  0.71161692740E+03  0.25500000000E-02 0.  1.
         -2   -1    0    0    0  501 -0.00000000000E+00 -0.00000000000E+00 -0.51778776848E+02  0.51778776911E+02  0.25500000000E-02 0. -1.
    5000001    1    1    2    0    0 -0.16604411000E+03  0.15833554437E+02  0.21927131215E+03  0.28605988227E+03  0.77000000000E+02 0.  0.
   -5000001    1    1    2    0    0  0.16604411000E+03 -0.15833554437E+02  0.44056683839E+03  0.47733582204E+03  0.77000000000E+02 0.  0.
<mgrwt>
<rscale>  0 0.38390965E+03</rscale>
<asrwt>0</asrwt>
<pdfrwt beam="1">  1        2 0.10947953E+00 0.38390965E+03</pdfrwt>
<pdfrwt beam="2">  1       -2 0.79659653E-02 0.38390965E+03</pdfrwt>
<totfact> 0.39329465E+03</totfact>
</mgrwt>
</event>
<event>
 4    1  0.4751076E-004  0.3990751E+03  0.7818608E-02  0.1044100E+00
          2   -1    0    0  501    0  0.00000000000E+00  0.00000000000E+00  0.92447391670E+03  0.92447391670E+03  0.25500000000E-02 0.  1.
         -2   -1    0    0    0  501 -0.00000000000E+00 -0.00000000000E+00 -0.43067982816E+02  0.43067982892E+02  0.25500000000E-02 0. -1.
    5000001    1    1    2    0    0 -0.11804592713E+03  0.14108689966E+03  0.42428225433E+03  0.46881210043E+03  0.77000000000E+02 0.  0.
   -5000001    1    1    2    0    0  0.11804592713E+03 -0.14108689966E+03  0.45712367955E+03  0.49872979916E+03  0.77000000000E+02 0.  0.
<mgrwt>
<rscale>  0 0.39907506E+03</rscale>
<asrwt>0</asrwt>
<pdfrwt beam="1">  1        2 0.14222676E+00 0.39907506E+03</pdfrwt>
<pdfrwt beam="2">  1       -2 0.66258434E-02 0.39907506E+03</pdfrwt>
<totfact> 0.37352060E+03</totfact>
</mgrwt>
</event>
<event>
 4    1  0.4751076E-004  0.2831983E+03  0.7818608E-02  0.1093955E+00
          2   -1    0    0  501    0  0.00000000000E+00  0.00000000000E+00  0.10619510005E+04  0.10619510005E+04  0.25500000000E-02 0.  1.
         -2   -1    0    0    0  501 -0.00000000000E+00 -0.00000000000E+00 -0.18880650193E+02  0.18880650365E+02  0.25500000000E-02 0. -1.
    5000001    1    1    2    0    0  0.11157481636E+03 -0.17965698643E+02  0.38132710406E+03  0.40510624072E+03  0.77000000000E+02 0.  0.
   -5000001    1    1    2    0    0 -0.11157481636E+03  0.17965698643E+02  0.66174324620E+03  0.67572541011E+03  0.77000000000E+02 0.  0.
<mgrwt>
<rscale>  0 0.28319834E+03</rscale>
<asrwt>0</asrwt>
<pdfrwt beam="1">  1        2 0.16337707E+00 0.28319834E+03</pdfrwt>
<pdfrwt beam="2">  1       -2 0.29047155E-02 0.28319834E+03</pdfrwt>
<totfact> 0.10688938E+04</totfact>
</mgrwt>
</event>
<event>
 4    1  0.4751076E-004  0.2506295E+03  0.7818608E-02  0.1112908E+00
         -2   -1    0    0    0  501 -0.00000000000E+00  0.00000000000E+00  0.15123312924E+02  0.15123313139E+02  0.25500000000E-02 0. -1.
          2   -1    0    0  501    0  0.00000000000E+00 -0.00000000000E+00 -0.10383826327E+04  0.10383826327E+04  0.25500000000E-02 0.  1.
    5000001    1    1    2    0    0  0.90340364792E+02 -0.26805062306E+02 -0.38588478125E+03  0.40461828589E+03  0.77000000000E+02 0.  0.
   -5000001    1    1    2    0    0 -0.90340364792E+02  0.26805062306E+02 -0.63737453849E+03  0.64888765992E+03  0.77000000000E+02 0.  0.
<mgrwt>
<rscale>  0 0.25062949E+03</rscale>
<asrwt>0</asrwt>
<pdfrwt beam="1">  1        2 0.15975112E+00 0.25062949E+03</pdfrwt>
<pdfrwt beam="2">  1       -2 0.23266644E-02 0.25062949E+03</pdfrwt>
<totfact> 0.15273854E+04</totfact>
</mgrwt>
</event>
<event>
 4    1  0.4751076E-004  0.2308117E+03  0.7818608E-02  0.1126070E+00
          2   -1    0    0  501    0  0.00000000000E+00  0.00000000000E+00  0.75136015784E+03  0.75136015784E+03  0.25500000000E-02 0.  1.
         -2   -1    0    0    0  501 -0.00000000000E+00 -0.00000000000E+00 -0.17725872836E+02  0.17725873020E+02  0.25500000000E-02 0. -1.
    5000001    1    1    2    0    0  0.18468314417E+02  0.64731248753E+02  0.18867320477E+03  0.21461079050E+03  0.77000000000E+02 0.  0.
   -5000001    1    1    2    0    0 -0.18468314417E+02 -0.64731248753E+02  0.54496108023E+03  0.55447524036E+03  0.77000000000E+02 0.  0.
<mgrwt>
<rscale>  0 0.23081174E+03</rscale>
<asrwt>0</asrwt>
<pdfrwt beam="1">  1        2 0.11559388E+00 0.23081174E+03</pdfrwt>
<pdfrwt beam="2">  1       -2 0.27270571E-02 0.23081174E+03</pdfrwt>
<totfact> 0.18485382E+04</totfact>
</mgrwt>
</event>
<event>
 4    1  0.4751076E-004  0.2486606E+03  0.7818608E-02  0.1114154E+00
          2   -1    0    0  501    0  0.00000000000E+00  0.00000000000E+00  0.79465701134E+03  0.79465701134E+03  0.25500000000E-02 0.  1.
         -2   -1    0    0    0  501 -0.00000000000E+00 -0.00000000000E+00 -0.19452448980E+02  0.19452449147E+02  0.25500000000E-02 0. -1.
    5000001    1    1    2    0    0  0.51457435250E+02  0.21074453311E+02  0.65027707154E+03  0.65717674183E+03  0.77000000000E+02 0.  0.
   -5000001    1    1    2    0    0 -0.51457435250E+02 -0.21074453311E+02  0.12492749081E+03  0.15693271866E+03  0.77000000000E+02 0.  0.
<mgrwt>
<rscale>  0 0.24866061E+03</rscale>
<asrwt>0</asrwt>
<pdfrwt beam="1">  1        2 0.12225492E+00 0.24866061E+03</pdfrwt>
<pdfrwt beam="2">  1       -2 0.29926845E-02 0.24866061E+03</pdfrwt>
<totfact> 0.15071351E+04</totfact>
</mgrwt>
</event>
<event>
 4    1  0.4751076E-004  0.2459594E+03  0.7818608E-02  0.1115885E+00
         -2   -1    0    0    0  501 -0.00000000000E+00  0.00000000000E+00  0.32328780825E+02  0.32328780925E+02  0.25500000000E-02 0. -1.
          2   -1    0    0  501    0  0.00000000000E+00 -0.00000000000E+00 -0.46781882308E+03  0.46781882308E+03  0.25500000000E-02 0.  1.
    5000001    1    1    2    0    0  0.34290707810E+02  0.64892905174E+02 -0.92261362182E+02  0.14081228901E+03  0.77000000000E+02 0.  0.
   -5000001    1    1    2    0    0 -0.34290707810E+02 -0.64892905174E+02 -0.34322868007E+03  0.35933531500E+03  0.77000000000E+02 0.  0.
<mgrwt>
<rscale>  0 0.24595945E+03</rscale>
<asrwt>0</asrwt>
<pdfrwt beam="1">  1        2 0.71972122E-01 0.24595945E+03</pdfrwt>
<pdfrwt beam="2">  1       -2 0.49736589E-02 0.24595945E+03</pdfrwt>
<totfact> 0.13070624E+04</totfact>
</mgrwt>
</event>
<event>
 4    1  0.4751076E-004  0.2429416E+03  0.7818608E-02  0.1117849E+00
          2   -1    0    0  501    0  0.00000000000E+00  0.00000000000E+00  0.20344667387E+04  0.20344667387E+04  0.25500000000E-02 0.  1.
         -2   -1    0    0    0  501 -0.00000000000E+00 -0.00000000000E+00 -0.72525918475E+01  0.72525922958E+01  0.25500000000E-02 0. -1.
    5000001    1    1    2    0    0  0.17122798895E+02 -0.86267947463E+02  0.12911744032E+04  0.12964550469E+04  0.77000000000E+02 0.  0.
   -5000001    1    1    2    0    0 -0.17122798895E+02  0.86267947463E+02  0.73603974359E+03  0.74526428409E+03  0.77000000000E+02 0.  0.
<mgrwt>
<rscale>  0 0.24294162E+03</rscale>
<asrwt>0</asrwt>
<pdfrwt beam="1">  1        2 0.31299526E+00 0.24294162E+03</pdfrwt>
<pdfrwt beam="2">  1       -2 0.11157821E-02 0.24294162E+03</pdfrwt>
<totfact> 0.12915540E+04</totfact>
</mgrwt>
</event>
<event>
 4    1  0.4751076E-004  0.2195113E+03  0.7818608E-02  0.1134248E+00
         -2   -1    0    0    0  501 -0.00000000000E+00  0.00000000000E+00  0.25360946408E+02  0.25360946536E+02  0.25500000000E-02 0. -1.
          2   -1    0    0  501    0  0.00000000000E+00 -0.00000000000E+00 -0.47499408907E+03  0.47499408908E+03  0.25500000000E-02 0.  1.
    5000001    1    1    2    0    0  0.47590324033E+02  0.38287708400E+02 -0.11346322582E+03  0.15011226189E+03  0.77000000000E+02 0.  0.
   -5000001    1    1    2    0    0 -0.47590324033E+02 -0.38287708400E+02 -0.33616991684E+03  0.35024277372E+03  0.77000000000E+02 0.  0.
<mgrwt>
<rscale>  0 0.21951127E+03</rscale>
<asrwt>0</asrwt>
<pdfrwt beam="1">  1        2 0.73076007E-01 0.21951127E+03</pdfrwt>
<pdfrwt beam="2">  1       -2 0.39016844E-02 0.21951127E+03</pdfrwt>
<totfact> 0.18409489E+04</totfact>
</mgrwt>
</event>
<event>
 4    1  0.4751076E-004  0.1986679E+03  0.7818608E-02  0.1150868E+00
          2   -1    0    0  501    0  0.00000000000E+00  0.00000000000E+00  0.10446818639E+03  0.10446818642E+03  0.25500000000E-02 0.  1.
         -2   -1    0    0    0  501 -0.00000000000E+00 -0.00000000000E+00 -0.94452058744E+02  0.94452058778E+02  0.25500000000E-02 0. -1.
    5000001    1    1    2    0    0  0.39126685237E+02 -0.43182193077E+02 -0.18316071074E+02  0.98285694565E+02  0.77000000000E+02 0.  0.
   -5000001    1    1    2    0    0 -0.39126685237E+02  0.43182193077E+02  0.28332198717E+02  0.10063455063E+03  0.77000000000E+02 0.  0.
<mgrwt>
<rscale>  0 0.19866792E+03</rscale>
<asrwt>0</asrwt>
<pdfrwt beam="1">  1        2 0.16072029E-01 0.19866792E+03</pdfrwt>
<pdfrwt beam="2">  1       -2 0.14531086E-01 0.19866792E+03</pdfrwt>
<totfact> 0.12507393E+04</totfact>
</mgrwt>
</event>
<event>
 4    1  0.4751076E-004  0.2917756E+03  0.7818608E-02  0.1089426E+00
         -2   -1    0    0    0  501 -0.00000000000E+00  0.00000000000E+00  0.18722954656E+03  0.18722954657E+03  0.25500000000E-02 0. -1.
          2   -1    0    0  501    0  0.00000000000E+00 -0.00000000000E+00 -0.11367462782E+03  0.11367462785E+03  0.25500000000E-02 0.  1.
    5000001    1    1    2    0    0  0.38914654630E+02  0.11759150894E+03  0.33184834704E+02  0.14957388333E+03  0.77000000000E+02 0.  0.
   -5000001    1    1    2    0    0 -0.38914654630E+02 -0.11759150894E+03  0.40370084029E+02  0.15133029110E+03  0.77000000000E+02 0.  0.
<mgrwt>
<rscale>  0 0.29177559E+03</rscale>
<asrwt>0</asrwt>
<pdfrwt beam="1">  1        2 0.17488404E-01 0.29177559E+03</pdfrwt>
<pdfrwt beam="2">  1       -2 0.28804546E-01 0.29177559E+03</pdfrwt>
<totfact> 0.35681479E+03</totfact>
</mgrwt>
</event>
<event>
 4    1  0.4751076E-004  0.4837805E+03  0.7818608E-02  0.1018101E+00
          2   -1    0    0  501    0  0.00000000000E+00  0.00000000000E+00  0.26222670833E+04  0.26222670833E+04  0.25500000000E-02 0.  1.
         -2   -1    0    0    0  501 -0.00000000000E+00 -0.00000000000E+00 -0.22313093333E+02  0.22313093479E+02  0.25500000000E-02 0. -1.
    5000001    1    1    2    0    0 -0.12955156099E+03  0.47012177096E+02  0.23018238923E+04  0.23072312374E+04  0.77000000000E+02 0.  0.
   -5000001    1    1    2    0    0  0.12955156099E+03 -0.47012177096E+02  0.29813009762E+03  0.33734893932E+03  0.77000000000E+02 0.  0.
<mgrwt>
<rscale>  0 0.48378049E+03</rscale>
<asrwt>0</asrwt>
<pdfrwt beam="1">  1        2 0.40342548E+00 0.48378049E+03</pdfrwt>
<pdfrwt beam="2">  1       -2 0.34327855E-02 0.48378049E+03</pdfrwt>
<totfact> 0.11588553E+03</totfact>
</mgrwt>
</event>
<event>
 4    1  0.4751076E-004  0.1948875E+03  0.7818608E-02  0.1154126E+00
          2   -1    0    0  501    0  0.00000000000E+00  0.00000000000E+00  0.31459025584E+03  0.31459025585E+03  0.25500000000E-02 0.  1.
         -2   -1    0    0    0  501 -0.00000000000E+00 -0.00000000000E+00 -0.30183028015E+02  0.30183028123E+02  0.25500000000E-02 0. -1.
    5000001    1    1    2    0    0  0.49423623589E+02  0.33418902934E+02  0.13760096239E+03  0.16858986474E+03  0.77000000000E+02 0.  0.
   -5000001    1    1    2    0    0 -0.49423623589E+02 -0.33418902934E+02  0.14680626544E+03  0.17618341923E+03  0.77000000000E+02 0.  0.
<mgrwt>
<rscale>  0 0.19488752E+03</rscale>
<asrwt>0</asrwt>
<pdfrwt beam="1">  1        2 0.48398505E-01 0.19488752E+03</pdfrwt>
<pdfrwt beam="2">  1       -2 0.46435424E-02 0.19488752E+03</pdfrwt>
<totfact> 0.21945896E+04</totfact>
</mgrwt>
</event>
<event>
 4    1  0.4751076E-004  0.1682147E+03  0.7818608E-02  0.1179722E+00
          2   -1    0    0  501    0  0.00000000000E+00  0.00000000000E+00  0.13656605675E+04  0.13656605675E+04  0.25500000000E-02 0.  1.
         -2   -1    0    0    0  501 -0.00000000000E+00 -0.00000000000E+00 -0.51799467301E+01  0.51799473577E+01  0.25500000000E-02 0. -1.
    5000001    1    1    2    0    0  0.71052652431E+01  0.32804246729E+02  0.71524081351E+03  0.72015625020E+03  0.77000000000E+02 0.  0.
   -5000001    1    1    2    0    0 -0.71052652431E+01 -0.32804246729E+02  0.64523980722E+03  0.65068426461E+03  0.77000000000E+02 0.  0.
<mgrwt>
<rscale>  0 0.16821474E+03</rscale>
<asrwt>0</asrwt>
<pdfrwt beam="1">  1        2 0.21010188E+00 0.16821474E+03</pdfrwt>
<pdfrwt beam="2">  1       -2 0.79691395E-03 0.16821474E+03</pdfrwt>
<totfact> 0.46194685E+04</totfact>
</mgrwt>
</event>
<event>
 4    1  0.4751076E-004  0.3125169E+03  0.7818608E-02  0.1079146E+00
         -2   -1    0    0    0  501 -0.00000000000E+00  0.00000000000E+00  0.26873257534E+03  0.26873257536E+03  0.25500000000E-02 0. -1.
          2   -1    0    0  501    0  0.00000000000E+00 -0.00000000000E+00 -0.90858757033E+02  0.90858757069E+02  0.25500000000E-02 0.  1.
    5000001    1    1    2    0    0  0.81055131857E+02 -0.96932096574E+02  0.14672032567E+03  0.20837854907E+03  0.77000000000E+02 0.  0.
   -5000001    1    1    2    0    0 -0.81055131857E+02  0.96932096574E+02  0.31153492637E+02  0.15121278336E+03  0.77000000000E+02 0.  0.
<mgrwt>
<rscale>  0 0.31251693E+03</rscale>
<asrwt>0</asrwt>
<pdfrwt beam="1">  1        2 0.13978270E-01 0.31251693E+03</pdfrwt>
<pdfrwt beam="2">  1       -2 0.41343473E-01 0.31251693E+03</pdfrwt>
<totfact> 0.23747091E+03</totfact>
</mgrwt>
</event>
<event>
 4    1  0.4751076E-004  0.3547741E+03  0.7818608E-02  0.1060672E+00
          2   -1    0    0  501    0  0.00000000000E+00  0.00000000000E+00  0.59741364838E+03  0.59741364838E+03  0.25500000000E-02 0.  1.
         -2   -1    0    0    0  501 -0.00000000000E+00 -0.00000000000E+00 -0.52670639570E+02  0.52670639632E+02  0.25500000000E-02 0. -1.
    5000001    1    1    2    0    0  0.12689050001E+03  0.62374525935E+02  0.40882460377E+03  0.43938404287E+03  0.77000000000E+02 0.  0.
   -5000001    1    1    2    0    0 -0.12689050001E+03 -0.62374525935E+02  0.13591840504E+03  0.21070024515E+03  0.77000000000E+02 0.  0.
<mgrwt>
<rscale>  0 0.35477406E+03</rscale>
<asrwt>0</asrwt>
<pdfrwt beam="1">  1        2 0.91909794E-01 0.35477406E+03</pdfrwt>
<pdfrwt beam="2">  1       -2 0.81031752E-02 0.35477406E+03</pdfrwt>
<totfact> 0.47193149E+03</totfact>
</mgrwt>
</event>
<event>
 4    1  0.4751076E-004  0.1758732E+03  0.7818608E-02  0.1171858E+00
          2   -1    0    0  501    0  0.00000000000E+00  0.00000000000E+00  0.51903706984E+03  0.51903706985E+03  0.25500000000E-02 0.  1.
         -2   -1    0    0    0  501 -0.00000000000E+00 -0.00000000000E+00 -0.14898449364E+02  0.14898449582E+02  0.25500000000E-02 0. -1.
    5000001    1    1    2    0    0 -0.19553632402E+02  0.35238798237E+02  0.29276978982E+03  0.30539690121E+03  0.77000000000E+02 0.  0.
   -5000001    1    1    2    0    0  0.19553632402E+02 -0.35238798237E+02  0.21136883066E+03  0.22853861822E+03  0.77000000000E+02 0.  0.
<mgrwt>
<rscale>  0 0.17587322E+03</rscale>
<asrwt>0</asrwt>
<pdfrwt beam="1">  1        2 0.79851859E-01 0.17587322E+03</pdfrwt>
<pdfrwt beam="2">  1       -2 0.22920691E-02 0.17587322E+03</pdfrwt>
<totfact> 0.36055610E+04</totfact>
</mgrwt>
</event>
<event>
 4    1  0.4751076E-004  0.2850559E+03  0.7818608E-02  0.1092959E+00
          2   -1    0    0  501    0  0.00000000000E+00  0.00000000000E+00  0.30068933452E+02  0.30068933560E+02  0.25500000000E-02 0.  1.
         -2   -1    0    0    0  501 -0.00000000000E+00 -0.00000000000E+00 -0.67558828867E+03  0.67558828867E+03  0.25500000000E-02 0. -1.
    5000001    1    1    2    0    0 -0.56571981727E+02  0.90144049756E+02 -0.45967277091E+03  0.47807362941E+03  0.77000000000E+02 0.  0.
   -5000001    1    1    2    0    0  0.56571981727E+02 -0.90144049756E+02 -0.18584658431E+03  0.22758359282E+03  0.77000000000E+02 0.  0.
<mgrwt>
<rscale>  0 0.28505592E+03</rscale>
<asrwt>0</asrwt>
<pdfrwt beam="1">  1        2 0.46259903E-02 0.28505592E+03</pdfrwt>
<pdfrwt beam="2">  1       -2 0.10393665E+00 0.28505592E+03</pdfrwt>
<totfact> 0.13667133E+03</totfact>
</mgrwt>
</event>
<event>
 4    1  0.4751076E-004  0.2131390E+03  0.7818608E-02  0.1139104E+00
         -2   -1    0    0    0  501 -0.00000000000E+00  0.00000000000E+00  0.16134333491E+02  0.16134333692E+02  0.25500000000E-02 0. -1.
          2   -1    0    0  501    0  0.00000000000E+00 -0.00000000000E+00 -0.70390612053E+03  0.70390612053E+03  0.25500000000E-02 0.  1.
    5000001    1    1    2    0    0  0.29636939073E+02 -0.63813796437E+02 -0.41770759755E+03  0.43053360592E+03  0.77000000000E+02 0.  0.
   -5000001    1    1    2    0    0 -0.29636939073E+02  0.63813796437E+02 -0.27006418948E+03  0.28950684830E+03  0.77000000000E+02 0.  0.
<mgrwt>
<rscale>  0 0.21313898E+03</rscale>
<asrwt>0</asrwt>
<pdfrwt beam="1">  1        2 0.10829323E+00 0.21313898E+03</pdfrwt>
<pdfrwt beam="2">  1       -2 0.24822057E-02 0.21313898E+03</pdfrwt>
<totfact> 0.22891436E+04</totfact>
</mgrwt>
</event>
<event>
 4    1  0.4751076E-004  0.4637137E+03  0.7818608E-02  0.1023710E+00
         -2   -1    0    0    0  501 -0.00000000000E+00  0.00000000000E+00  0.16954229937E+02  0.16954230129E+02  0.25500000000E-02 0. -1.
          2   -1    0    0  501    0  0.00000000000E+00 -0.00000000000E+00 -0.31707486704E+04  0.31707486704E+04  0.25500000000E-02 0.  1.
    5000001    1    1    2    0    0 -0.17766152700E+03  0.12653049132E+03 -0.14671195261E+04  0.14852414912E+04  0.77000000000E+02 0.  0.
   -5000001    1    1    2    0    0  0.17766152700E+03 -0.12653049132E+03 -0.16866749144E+04  0.17024614094E+04  0.77000000000E+02 0.  0.
<mgrwt>
<rscale>  0 0.46371371E+03</rscale>
<asrwt>0</asrwt>
<pdfrwt beam="1">  1        2 0.48780702E+00 0.46371371E+03</pdfrwt>
<pdfrwt beam="2">  1       -2 0.26083456E-02 0.46371371E+03</pdfrwt>
<totfact> 0.83132470E+02</totfact>
</mgrwt>
</event>
<event>
 4    1  0.4751076E-004  0.3083247E+03  0.7818608E-02  0.1081152E+00
         -2   -1    0    0    0  501 -0.00000000000E+00  0.00000000000E+00  0.88160437970E+01  0.88160441658E+01  0.25500000000E-02 0. -1.
          2   -1    0    0  501    0  0.00000000000E+00 -0.00000000000E+00 -0.26957699441E+04  0.26957699441E+04  0.25500000000E-02 0.  1.
    5000001    1    1    2    0    0  0.52606247751E+02  0.80127596159E+02 -0.52768406454E+03  0.54181853137E+03  0.77000000000E+02 0.  0.
   -5000001    1    1    2    0    0 -0.52606247751E+02 -0.80127596159E+02 -0.21592698357E+04  0.21627674569E+04  0.77000000000E+02 0.  0.
<mgrwt>
<rscale>  0 0.30832468E+03</rscale>
<asrwt>0</asrwt>
<pdfrwt beam="1">  1        2 0.41473318E+00 0.30832468E+03</pdfrwt>
<pdfrwt beam="2">  1       -2 0.13563166E-02 0.30832468E+03</pdfrwt>
<totfact> 0.42614474E+03</totfact>
</mgrwt>
</event>
<event>
 4    1  0.4751076E-004  0.1760343E+03  0.7818608E-02  0.1171697E+00
         -2   -1    0    0    0  501 -0.00000000000E+00  0.00000000000E+00  0.44813500077E+01  0.44813507332E+01  0.25500000000E-02 0. -1.
          2   -1    0    0  501    0  0.00000000000E+00 -0.00000000000E+00 -0.17287243160E+04  0.17287243160E+04  0.25500000000E-02 0.  1.
    5000001    1    1    2    0    0 -0.29055822631E+02 -0.13373446886E+02 -0.11397199584E+04  0.11427657999E+04  0.77000000000E+02 0.  0.
   -5000001    1    1    2    0    0  0.29055822631E+02  0.13373446886E+02 -0.58452300762E+03  0.59043986683E+03  0.77000000000E+02 0.  0.
<mgrwt>
<rscale>  0 0.17603431E+03</rscale>
<asrwt>0</asrwt>
<pdfrwt beam="1">  1        2 0.26595705E+00 0.17603431E+03</pdfrwt>
<pdfrwt beam="2">  1       -2 0.68943990E-03 0.17603431E+03</pdfrwt>
<totfact> 0.36776702E+04</totfact>
</mgrwt>
</event>
<event>
 4    1  0.4751076E-004  0.2786042E+03  0.7818608E-02  0.1096454E+00
         -2   -1    0    0    0  501 -0.00000000000E+00  0.00000000000E+00  0.28313631826E+03  0.28313631827E+03  0.25500000000E-02 0. -1.
          2   -1    0    0  501    0  0.00000000000E+00 -0.00000000000E+00 -0.68536148785E+02  0.68536148833E+02  0.25500000000E-02 0.  1.
    5000001    1    1    2    0    0 -0.39548894503E+02  0.91414596759E+02  0.18256466588E+03  0.22176474198E+03  0.77000000000E+02 0.  0.
   -5000001    1    1    2    0    0  0.39548894503E+02 -0.91414596759E+02  0.32035503596E+02  0.12990772513E+03  0.77000000000E+02 0.  0.
<mgrwt>
<rscale>  0 0.27860418E+03</rscale>
<asrwt>0</asrwt>
<pdfrwt beam="1">  1        2 0.10544023E-01 0.27860418E+03</pdfrwt>
<pdfrwt beam="2">  1       -2 0.43559434E-01 0.27860418E+03</pdfrwt>
<totfact> 0.30177155E+03</totfact>
</mgrwt>
</event>
<event>
 4    1  0.4751076E-004  0.1816597E+03  0.7818608E-02  0.1166206E+00
         -2   -1    0    0    0  501 -0.00000000000E+00  0.00000000000E+00  0.10192349309E+02  0.10192349628E+02  0.25500000000E-02 0. -1.
          2   -1    0    0  501    0  0.00000000000E+00 -0.00000000000E+00 -0.80943663113E+03  0.80943663114E+03  0.25500000000E-02 0.  1.
    5000001    1    1    2    0    0 -0.24443767093E+02 -0.15571021893E+02 -0.22598129981E+03  0.24049220848E+03  0.77000000000E+02 0.  0.
   -5000001    1    1    2    0    0  0.24443767093E+02  0.15571021893E+02 -0.57326298201E+03  0.57913677229E+03  0.77000000000E+02 0.  0.
<mgrwt>
<rscale>  0 0.18165969E+03</rscale>
<asrwt>0</asrwt>
<pdfrwt beam="1">  1        2 0.12452866E+00 0.18165969E+03</pdfrwt>
<pdfrwt beam="2">  1       -2 0.15680544E-02 0.18165969E+03</pdfrwt>
<totfact> 0.37273855E+04</totfact>
</mgrwt>
</event>
<event>
 4    1  0.4751076E-004  0.2484729E+03  0.7818608E-02  0.1114274E+00
          2   -1    0    0  501    0  0.00000000000E+00  0.00000000000E+00  0.78289178446E+03  0.78289178446E+03  0.25500000000E-02 0.  1.
         -2   -1    0    0    0  501 -0.00000000000E+00 -0.00000000000E+00 -0.19714971528E+02  0.19714971693E+02  0.25500000000E-02 0. -1.
    5000001    1    1    2    0    0 -0.41344314979E+02  0.55177316972E+02  0.15892288479E+03  0.18957682348E+03  0.77000000000E+02 0.  0.
   -5000001    1    1    2    0    0  0.41344314979E+02 -0.55177316972E+02  0.60425392813E+03  0.61302993268E+03  0.77000000000E+02 0.  0.
<mgrwt>
<rscale>  0 0.24847285E+03</rscale>
<asrwt>0</asrwt>
<pdfrwt beam="1">  1        2 0.12044488E+00 0.24847285E+03</pdfrwt>
<pdfrwt beam="2">  1       -2 0.30330729E-02 0.24847285E+03</pdfrwt>
<totfact> 0.15054373E+04</totfact>
</mgrwt>
</event>
<event>
 4    1  0.4751076E-004  0.2589155E+03  0.7818608E-02  0.1107797E+00
          2   -1    0    0  501    0  0.00000000000E+00  0.00000000000E+00  0.58472290049E+02  0.58472290105E+02  0.25500000000E-02 0.  1.
         -2   -1    0    0    0  501 -0.00000000000E+00 -0.00000000000E+00 -0.28661959213E+03  0.28661959214E+03  0.25500000000E-02 0. -1.
    5000001    1    1    2    0    0  0.48235372858E+02  0.83797876639E+02 -0.62771255659E+02  0.13862887816E+03  0.77000000000E+02 0.  0.
   -5000001    1    1    2    0    0 -0.48235372858E+02 -0.83797876639E+02 -0.16537604642E+03  0.20646300408E+03  0.77000000000E+02 0.  0.
<mgrwt>
<rscale>  0 0.25891546E+03</rscale>
<asrwt>0</asrwt>
<pdfrwt beam="1">  1        2 0.89957371E-02 0.25891546E+03</pdfrwt>
<pdfrwt beam="2">  1       -2 0.44095321E-01 0.25891546E+03</pdfrwt>
<totfact> 0.35827846E+03</totfact>
</mgrwt>
</event>
<event>
 4    1  0.4751076E-004  0.2089305E+03  0.7818608E-02  0.1142416E+00
          2   -1    0    0  501    0  0.00000000000E+00  0.00000000000E+00  0.99053408687E+03  0.99053408688E+03  0.25500000000E-02 0.  1.
         -2   -1    0    0    0  501 -0.00000000000E+00 -0.00000000000E+00 -0.11017279843E+02  0.11017280138E+02  0.25500000000E-02 0. -1.
    5000001    1    1    2    0    0 -0.20993147319E+02 -0.59650535357E+02  0.64021453584E+03  0.64792171634E+03  0.77000000000E+02 0.  0.
   -5000001    1    1    2    0    0  0.20993147319E+02  0.59650535357E+02  0.33930227119E+03  0.35362965068E+03  0.77000000000E+02 0.  0.
<mgrwt>
<rscale>  0 0.20893053E+03</rscale>
<asrwt>0</asrwt>
<pdfrwt beam="1">  1        2 0.15238987E+00 0.20893053E+03</pdfrwt>
<pdfrwt beam="2">  1       -2 0.16949661E-02 0.20893053E+03</pdfrwt>
<totfact> 0.25736526E+04</totfact>
</mgrwt>
</event>
<event>
 4    1  0.4751076E-004  0.1842596E+03  0.7818608E-02  0.1163743E+00
          2   -1    0    0  501    0  0.00000000000E+00  0.00000000000E+00  0.35459857658E+02  0.35459857750E+02  0.25500000000E-02 0.  1.
         -2   -1    0    0    0  501 -0.00000000000E+00 -0.00000000000E+00 -0.23936653130E+03  0.23936653131E+03  0.25500000000E-02 0. -1.
    5000001    1    1    2    0    0  0.16193371141E+02  0.43177956348E+02 -0.70940469465E+02  0.11440328401E+03  0.77000000000E+02 0.  0.
   -5000001    1    1    2    0    0 -0.16193371141E+02 -0.43177956348E+02 -0.13296620418E+03  0.16042310506E+03  0.77000000000E+02 0.  0.
<mgrwt>
<rscale>  0 0.18425963E+03</rscale>
<asrwt>0</asrwt>
<pdfrwt beam="1">  1        2 0.54553629E-02 0.18425963E+03</pdfrwt>
<pdfrwt beam="2">  1       -2 0.36825619E-01 0.18425963E+03</pdfrwt>
<totfact> 0.94142720E+03</totfact>
</mgrwt>
</event>
<event>
 4    1  0.4751076E-004  0.3293364E+03  0.7818608E-02  0.1071431E+00
         -2   -1    0    0    0  501 -0.00000000000E+00  0.00000000000E+00  0.91215171195E+03  0.91215171196E+03  0.25500000000E-02 0. -1.
          2   -1    0    0  501    0  0.00000000000E+00 -0.00000000000E+00 -0.29727084723E+02  0.29727084832E+02  0.25500000000E-02 0.  1.
    5000001    1    1    2    0    0  0.98698049468E+02  0.69955855759E+02  0.67269855619E+03  0.68781354612E+03  0.77000000000E+02 0.  0.
   -5000001    1    1    2    0    0 -0.98698049468E+02 -0.69955855759E+02  0.20972607104E+03  0.25406525067E+03  0.77000000000E+02 0.  0.
<mgrwt>
<rscale>  0 0.32933637E+03</rscale>
<asrwt>0</asrwt>
<pdfrwt beam="1">  1        2 0.45733976E-02 0.32933637E+03</pdfrwt>
<pdfrwt beam="2">  1       -2 0.14033103E+00 0.32933637E+03</pdfrwt>
<totfact> 0.66900878E+02</totfact>
</mgrwt>
</event>
<event>
 4    1  0.4751076E-004  0.2009488E+03  0.7818608E-02  0.1148941E+00
         -2   -1    0    0    0  501 -0.00000000000E+00  0.00000000000E+00  0.15729884511E+02  0.15729884718E+02  0.25500000000E-02 0. -1.
          2   -1    0    0  501    0  0.00000000000E+00 -0.00000000000E+00 -0.64177890446E+03  0.64177890446E+03  0.25500000000E-02 0.  1.
    5000001    1    1    2    0    0  0.10547967783E+02  0.35355229349E+02 -0.48631366496E+03  0.49375219756E+03  0.77000000000E+02 0.  0.
   -5000001    1    1    2    0    0 -0.10547967783E+02 -0.35355229349E+02 -0.13973535499E+03  0.16375659163E+03  0.77000000000E+02 0.  0.
<mgrwt>
<rscale>  0 0.20094883E+03</rscale>
<asrwt>0</asrwt>
<pdfrwt beam="1">  1        2 0.98735196E-01 0.20094883E+03</pdfrwt>
<pdfrwt beam="2">  1       -2 0.24199827E-02 0.20094883E+03</pdfrwt>
<totfact> 0.26417148E+04</totfact>
</mgrwt>
</event>
<event>
 4    1  0.4751076E-004  0.9007608E+03  0.7818608E-02  0.9424631E-01
         -2   -1    0    0    0  501 -0.00000000000E+00  0.00000000000E+00  0.64365578097E+03  0.64365578098E+03  0.25500000000E-02 0. -1.
          2   -1    0    0  501    0  0.00000000000E+00 -0.00000000000E+00 -0.31514127604E+03  0.31514127605E+03  0.25500000000E-02 0.  1.
    5000001    1    1    2    0    0  0.17625020484E+03 -0.38903919877E+03  0.36092284143E+02  0.43548511555E+03  0.77000000000E+02 0.  0.
   -5000001    1    1    2    0    0 -0.17625020484E+03  0.38903919877E+03  0.29242222078E+03  0.52331194148E+03  0.77000000000E+02 0.  0.
<mgrwt>
<rscale>  0 0.90076080E+03</rscale>
<asrwt>0</asrwt>
<pdfrwt beam="1">  1        2 0.48483273E-01 0.90076080E+03</pdfrwt>
<pdfrwt beam="2">  1       -2 0.99023966E-01 0.90076080E+03</pdfrwt>
<totfact> 0.88150058E+01</totfact>
</mgrwt>
</event>
<event>
 4    1  0.4751076E-004  0.2383904E+03  0.7818608E-02  0.1120870E+00
         -2   -1    0    0    0  501 -0.00000000000E+00  0.00000000000E+00  0.25116627254E+02  0.25116627383E+02  0.25500000000E-02 0. -1.
          2   -1    0    0  501    0  0.00000000000E+00 -0.00000000000E+00 -0.56566103640E+03  0.56566103641E+03  0.25500000000E-02 0.  1.
    5000001    1    1    2    0    0  0.59237134358E+02 -0.66221122012E+02 -0.22169566282E+03  0.25094270661E+03  0.77000000000E+02 0.  0.
   -5000001    1    1    2    0    0 -0.59237134358E+02  0.66221122012E+02 -0.31884874633E+03  0.33983495719E+03  0.77000000000E+02 0.  0.
<mgrwt>
<rscale>  0 0.23839041E+03</rscale>
<asrwt>0</asrwt>
<pdfrwt beam="1">  1        2 0.87024765E-01 0.23839041E+03</pdfrwt>
<pdfrwt beam="2">  1       -2 0.38640969E-02 0.23839041E+03</pdfrwt>
<totfact> 0.15429431E+04</totfact>
</mgrwt>
</event>
<event>
 4    1  0.4751076E-004  0.2530647E+03  0.7818608E-02  0.1111383E+00
          2   -1    0    0  501    0  0.00000000000E+00  0.00000000000E+00  0.98670692220E+02  0.98670692253E+02  0.25500000000E-02 0.  1.
         -2   -1    0    0    0  501 -0.00000000000E+00 -0.00000000000E+00 -0.16226135457E+03  0.16226135459E+03  0.25500000000E-02 0. -1.
    5000001    1    1    2    0    0 -0.81011481157E+01  0.86510008674E+02 -0.83676895023E+02  0.14310986326E+03  0.77000000000E+02 0.  0.
   -5000001    1    1    2    0    0  0.81011481157E+01 -0.86510008674E+02  0.20086232673E+02  0.11782218358E+03  0.77000000000E+02 0.  0.
<mgrwt>
<rscale>  0 0.25306474E+03</rscale>
<asrwt>0</asrwt>
<pdfrwt beam="1">  1        2 0.15180106E-01 0.25306474E+03</pdfrwt>
<pdfrwt beam="2">  1       -2 0.24963285E-01 0.25306474E+03</pdfrwt>
<totfact> 0.54123564E+03</totfact>
</mgrwt>
</event>
<event>
 4    1  0.4751076E-004  0.2084084E+03  0.7818608E-02  0.1142833E+00
          2   -1    0    0  501    0  0.00000000000E+00  0.00000000000E+00  0.80213791289E+03  0.80213791289E+03  0.25500000000E-02 0.  1.
         -2   -1    0    0    0  501 -0.00000000000E+00 -0.00000000000E+00 -0.13536964845E+02  0.13536965085E+02  0.25500000000E-02 0. -1.
    5000001    1    1    2    0    0 -0.17797625333E+01 -0.69146333265E+02  0.34715062377E+03  0.36225258942E+03  0.77000000000E+02 0.  0.
   -5000001    1    1    2    0    0  0.17797625333E+01  0.69146333265E+02  0.44145032427E+03  0.45342228855E+03  0.77000000000E+02 0.  0.
<mgrwt>
<rscale>  0 0.20840838E+03</rscale>
<asrwt>0</asrwt>
<pdfrwt beam="1">  1        2 0.12340581E+00 0.20840838E+03</pdfrwt>
<pdfrwt beam="2">  1       -2 0.20826103E-02 0.20840838E+03</pdfrwt>
<totfact> 0.25177276E+04</totfact>
</mgrwt>
</event>
<event>
 4    1  0.4751076E-004  0.4259342E+03  0.7818608E-02  0.1035152E+00
         -2   -1    0    0    0  501 -0.00000000000E+00  0.00000000000E+00  0.65237790940E+02  0.65237790989E+02  0.25500000000E-02 0. -1.
          2   -1    0    0  501    0  0.00000000000E+00 -0.00000000000E+00 -0.69522578446E+03  0.69522578447E+03  0.25500000000E-02 0.  1.
    5000001    1    1    2    0    0  0.19277295026E+03 -0.43264800957E+02 -0.35037653710E+03  0.40954361319E+03  0.77000000000E+02 0.  0.
   -5000001    1    1    2    0    0 -0.19277295026E+03  0.43264800957E+02 -0.27961145642E+03  0.35091996226E+03  0.77000000000E+02 0.  0.
<mgrwt>
<rscale>  0 0.42593424E+03</rscale>
<asrwt>0</asrwt>
<pdfrwt beam="1">  1        2 0.10695781E+00 0.42593424E+03</pdfrwt>
<pdfrwt beam="2">  1       -2 0.10036584E-01 0.42593424E+03</pdfrwt>
<totfact> 0.28052353E+03</totfact>
</mgrwt>
</event>
<event>
 4    1  0.4751076E-004  0.2036880E+03  0.7818608E-02  0.1146664E+00
          2   -1    0    0  501    0  0.00000000000E+00  0.00000000000E+00  0.17473216006E+04  0.17473216006E+04  0.25500000000E-02 0.  1.
         -2   -1    0    0    0  501 -0.00000000000E+00 -0.00000000000E+00 -0.59360572024E+01  0.59360577501E+01  0.25500000000E-02 0. -1.
    5000001    1    1    2    0    0 -0.17978035396E+01  0.46537322656E+02  0.12811794699E+04  0.12843359329E+04  0.77000000000E+02 0.  0.
   -5000001    1    1    2    0    0  0.17978035396E+01 -0.46537322656E+02  0.46020607350E+03  0.46892172544E+03  0.77000000000E+02 0.  0.
<mgrwt>
<rscale>  0 0.20368801E+03</rscale>
<asrwt>0</asrwt>
<pdfrwt beam="1">  1        2 0.26881876E+00 0.20368801E+03</pdfrwt>
<pdfrwt beam="2">  1       -2 0.91323943E-03 0.20368801E+03</pdfrwt>
<totfact> 0.24213598E+04</totfact>
</mgrwt>
</event>
<event>
 4    1  0.4751076E-004  0.2073606E+03  0.7818608E-02  0.1143673E+00
         -2   -1    0    0    0  501 -0.00000000000E+00  0.00000000000E+00  0.38367324660E+02  0.38367324745E+02  0.25500000000E-02 0. -1.
          2   -1    0    0  501    0  0.00000000000E+00 -0.00000000000E+00 -0.28017606804E+03  0.28017606806E+03  0.25500000000E-02 0.  1.
    5000001    1    1    2    0    0  0.13022023439E+02 -0.59960872908E+02 -0.70990862613E+02  0.12138196715E+03  0.77000000000E+02 0.  0.
   -5000001    1    1    2    0    0 -0.13022023439E+02  0.59960872908E+02 -0.17081788077E+03  0.19716142565E+03  0.77000000000E+02 0.  0.
<mgrwt>
<rscale>  0 0.20736062E+03</rscale>
<asrwt>0</asrwt>
<pdfrwt beam="1">  1        2 0.43104009E-01 0.20736062E+03</pdfrwt>
<pdfrwt beam="2">  1       -2 0.59026655E-02 0.20736062E+03</pdfrwt>
<totfact> 0.17343812E+04</totfact>
</mgrwt>
</event>
<event>
 4    1  0.4751076E-004  0.4252744E+03  0.7818608E-02  0.1035363E+00
         -2   -1    0    0    0  501 -0.00000000000E+00  0.00000000000E+00  0.11897902555E+03  0.11897902558E+03  0.25500000000E-02 0. -1.
          2   -1    0    0  501    0  0.00000000000E+00 -0.00000000000E+00 -0.38002137591E+03  0.38002137592E+03  0.25500000000E-02 0.  1.
    5000001    1    1    2    0    0  0.28131604204E+02 -0.15440458119E+03  0.11515680705E+02  0.17519638338E+03  0.77000000000E+02 0.  0.
   -5000001    1    1    2    0    0 -0.28131604204E+02  0.15440458119E+03 -0.27255803107E+03  0.32380401811E+03  0.77000000000E+02 0.  0.
<mgrwt>
<rscale>  0 0.42527437E+03</rscale>
<asrwt>0</asrwt>
<pdfrwt beam="1">  1        2 0.58464826E-01 0.42527437E+03</pdfrwt>
<pdfrwt beam="2">  1       -2 0.18304466E-01 0.42527437E+03</pdfrwt>
<totfact> 0.20804898E+03</totfact>
</mgrwt>
</event>
<event>
 4    1  0.4751076E-004  0.2132626E+03  0.7818608E-02  0.1139008E+00
          2   -1    0    0  501    0  0.00000000000E+00  0.00000000000E+00  0.23642717292E+04  0.23642717292E+04  0.25500000000E-02 0.  1.
         -2   -1    0    0    0  501 -0.00000000000E+00 -0.00000000000E+00 -0.48091909864E+01  0.48091916625E+01  0.25500000000E-02 0. -1.
    5000001    1    1    2    0    0  0.35792089185E+02  0.20635957730E+01  0.18958711826E+04  0.18977728718E+04  0.77000000000E+02 0.  0.
   -5000001    1    1    2    0    0 -0.35792089185E+02 -0.20635957730E+01  0.46359135561E+03  0.47130804902E+03  0.77000000000E+02 0.  0.
<mgrwt>
<rscale>  0 0.21326261E+03</rscale>
<asrwt>0</asrwt>
<pdfrwt beam="1">  1        2 0.36373484E+00 0.21326261E+03</pdfrwt>
<pdfrwt beam="2">  1       -2 0.73987410E-03 0.21326261E+03</pdfrwt>
<totfact> 0.15602401E+04</totfact>
</mgrwt>
</event>
<event>
 4    1  0.4751076E-004  0.1863786E+03  0.7818608E-02  0.1161769E+00
         -2   -1    0    0    0  501 -0.00000000000E+00  0.00000000000E+00  0.96283723317E+02  0.96283723351E+02  0.25500000000E-02 0. -1.
          2   -1    0    0  501    0  0.00000000000E+00 -0.00000000000E+00 -0.90194304248E+02  0.90194304284E+02  0.25500000000E-02 0.  1.
    5000001    1    1    2    0    0 -0.34233471242E+02  0.34712218183E+02  0.22506947446E+02  0.93874551013E+02  0.77000000000E+02 0.  0.
   -5000001    1    1    2    0    0  0.34233471242E+02 -0.34712218183E+02 -0.16417528377E+02  0.92603476622E+02  0.77000000000E+02 0.  0.
<mgrwt>
<rscale>  0 0.18637858E+03</rscale>
<asrwt>0</asrwt>
<pdfrwt beam="1">  1        2 0.13876047E-01 0.18637858E+03</pdfrwt>
<pdfrwt beam="2">  1       -2 0.14812880E-01 0.18637858E+03</pdfrwt>
<totfact> 0.14345505E+04</totfact>
</mgrwt>
</event>
<event>
 4    1  0.4751076E-004  0.1977700E+03  0.7818608E-02  0.1151634E+00
          2   -1    0    0  501    0  0.00000000000E+00  0.00000000000E+00  0.14795077873E+03  0.14795077875E+03  0.25500000000E-02 0.  1.
         -2   -1    0    0    0  501 -0.00000000000E+00 -0.00000000000E+00 -0.66091199859E+02  0.66091199908E+02  0.25500000000E-02 0. -1.
    5000001    1    1    2    0    0 -0.37172999037E+02 -0.27834469359E+02 -0.35971385692E+01  0.89991827117E+02  0.77000000000E+02 0.  0.
   -5000001    1    1    2    0    0  0.37172999037E+02  0.27834469359E+02  0.85456717435E+02  0.12405015154E+03  0.77000000000E+02 0.  0.
<mgrwt>
<rscale>  0 0.19777001E+03</rscale>
<asrwt>0</asrwt>
<pdfrwt beam="1">  1        2 0.22761658E-01 0.19777001E+03</pdfrwt>
<pdfrwt beam="2">  1       -2 0.10167877E-01 0.19777001E+03</pdfrwt>
<totfact> 0.14912247E+04</totfact>
</mgrwt>
</event>
<event>
 4    1  0.4751076E-004  0.2746519E+03  0.7818608E-02  0.1098646E+00
         -2   -1    0    0    0  501 -0.00000000000E+00  0.00000000000E+00  0.79270678646E+01  0.79270682747E+01  0.25500000000E-02 0. -1.
          2   -1    0    0  501    0  0.00000000000E+00 -0.00000000000E+00 -0.23789902156E+04  0.23789902156E+04  0.25500000000E-02 0.  1.
    5000001    1    1    2    0    0  0.95446921465E+02  0.35177456713E+02 -0.74394060812E+03  0.75480076622E+03  0.77000000000E+02 0.  0.
   -5000001    1    1    2    0    0 -0.95446921465E+02 -0.35177456713E+02 -0.16271225396E+04  0.16321165176E+04  0.77000000000E+02 0.  0.
<mgrwt>
<rscale>  0 0.27465191E+03</rscale>
<asrwt>0</asrwt>
<pdfrwt beam="1">  1        2 0.36599793E+00 0.27465191E+03</pdfrwt>
<pdfrwt beam="2">  1       -2 0.12195508E-02 0.27465191E+03</pdfrwt>
<totfact> 0.74534513E+03</totfact>
</mgrwt>
</event>
<event>
 4    1  0.4751076E-004  0.2034773E+03  0.7818608E-02  0.1146838E+00
         -2   -1    0    0    0  501 -0.00000000000E+00  0.00000000000E+00  0.75258385271E+01  0.75258389591E+01  0.25500000000E-02 0. -1.
          2   -1    0    0  501    0  0.00000000000E+00 -0.00000000000E+00 -0.13753624667E+04  0.13753624667E+04  0.25500000000E-02 0.  1.
    5000001    1    1    2    0    0  0.57411445141E+01  0.57882321306E+02 -0.90292640535E+03  0.90806850916E+03  0.77000000000E+02 0.  0.
   -5000001    1    1    2    0    0 -0.57411445141E+01 -0.57882321306E+02 -0.46491022287E+03  0.47481979655E+03  0.77000000000E+02 0.  0.
<mgrwt>
<rscale>  0 0.20347733E+03</rscale>
<asrwt>0</asrwt>
<pdfrwt beam="1">  1        2 0.21159403E+00 0.20347733E+03</pdfrwt>
<pdfrwt beam="2">  1       -2 0.11578224E-02 0.20347733E+03</pdfrwt>
<totfact> 0.27001635E+04</totfact>
</mgrwt>
</event>
<event>
 4    1  0.4751076E-004  0.2152663E+03  0.7818608E-02  0.1137462E+00
          2   -1    0    0  501    0  0.00000000000E+00  0.00000000000E+00  0.63748957199E+03  0.63748957199E+03  0.25500000000E-02 0.  1.
         -2   -1    0    0    0  501 -0.00000000000E+00 -0.00000000000E+00 -0.18172686817E+02  0.18172686996E+02  0.25500000000E-02 0. -1.
    5000001    1    1    2    0    0 -0.40420415432E+02  0.57987379982E+02  0.23143648950E+03  0.25394525964E+03  0.77000000000E+02 0.  0.
   -5000001    1    1    2    0    0  0.40420415432E+02 -0.57987379982E+02  0.38788039567E+03  0.40171699935E+03  0.77000000000E+02 0.  0.
<mgrwt>
<rscale>  0 0.21526633E+03</rscale>
<asrwt>0</asrwt>
<pdfrwt beam="1">  1        2 0.98075311E-01 0.21526633E+03</pdfrwt>
<pdfrwt beam="2">  1       -2 0.27957982E-02 0.21526633E+03</pdfrwt>
<totfact> 0.21621592E+04</totfact>
</mgrwt>
</event>
<event>
 4    1  0.4751076E-004  0.3240463E+03  0.7818608E-02  0.1073802E+00
         -2   -1    0    0    0  501 -0.00000000000E+00  0.00000000000E+00  0.15983347266E+02  0.15983347469E+02  0.25500000000E-02 0. -1.
          2   -1    0    0  501    0  0.00000000000E+00 -0.00000000000E+00 -0.16424283844E+04  0.16424283844E+04  0.25500000000E-02 0.  1.
    5000001    1    1    2    0    0 -0.66197925192E+02 -0.67120564330E+02 -0.13604987027E+04  0.13659330348E+04  0.77000000000E+02 0.  0.
   -5000001    1    1    2    0    0  0.66197925192E+02  0.67120564330E+02 -0.26594633448E+03  0.29247869714E+03  0.77000000000E+02 0.  0.
<mgrwt>
<rscale>  0 0.32404631E+03</rscale>
<asrwt>0</asrwt>
<pdfrwt beam="1">  1        2 0.25268116E+00 0.32404631E+03</pdfrwt>
<pdfrwt beam="2">  1       -2 0.24589778E-02 0.32404631E+03</pdfrwt>
<totfact> 0.65379980E+03</totfact>
</mgrwt>
</event>
<event>
 4    1  0.4751076E-004  0.3278364E+03  0.7818608E-02  0.1072098E+00
         -2   -1    0    0    0  501 -0.00000000000E+00  0.00000000000E+00  0.10986300111E+03  0.10986300114E+03  0.25500000000E-02 0. -1.
          2   -1    0    0  501    0  0.00000000000E+00 -0.00000000000E+00 -0.24456985087E+03  0.24456985088E+03  0.25500000000E-02 0.  1.
    5000001    1    1    2    0    0 -0.72484144108E+01  0.13909408703E+03 -0.10978643737E+03  0.19334364843E+03  0.77000000000E+02 0.  0.
   -5000001    1    1    2    0    0  0.72484144108E+01 -0.13909408703E+03 -0.24920412382E+02  0.16108920359E+03  0.77000000000E+02 0.  0.
<mgrwt>
<rscale>  0 0.32783641E+03</rscale>
<asrwt>0</asrwt>
<pdfrwt beam="1">  1        2 0.37626131E-01 0.32783641E+03</pdfrwt>
<pdfrwt beam="2">  1       -2 0.16902000E-01 0.32783641E+03</pdfrwt>
<totfact> 0.38331443E+03</totfact>
</mgrwt>
</event>
<event>
 4    1  0.4751076E-004  0.2316248E+03  0.7818608E-02  0.1125501E+00
         -2   -1    0    0    0  501 -0.00000000000E+00  0.00000000000E+00  0.23640119058E+03  0.23640119059E+03  0.25500000000E-02 0. -1.
          2   -1    0    0  501    0  0.00000000000E+00 -0.00000000000E+00 -0.56736216591E+02  0.56736216648E+02  0.25500000000E-02 0.  1.
    5000001    1    1    2    0    0  0.78447279086E+02 -0.14908566998E+02  0.13194514404E+03  0.17237970299E+03  0.77000000000E+02 0.  0.
   -5000001    1    1    2    0    0 -0.78447279086E+02  0.14908566998E+02  0.47719829942E+02  0.12075770425E+03  0.77000000000E+02 0.  0.
<mgrwt>
<rscale>  0 0.23162478E+03</rscale>
<asrwt>0</asrwt>
<pdfrwt beam="1">  1        2 0.87286488E-02 0.23162478E+03</pdfrwt>
<pdfrwt beam="2">  1       -2 0.36369413E-01 0.23162478E+03</pdfrwt>
<totfact> 0.53491828E+03</totfact>
</mgrwt>
</event>
<event>
 4    1  0.4751076E-004  0.3907959E+03  0.7818608E-02  0.1047014E+00
         -2   -1    0    0    0  501 -0.00000000000E+00  0.00000000000E+00  0.27877603702E+02  0.27877603819E+02  0.25500000000E-02 0. -1.
          2   -1    0    0  501    0  0.00000000000E+00 -0.00000000000E+00 -0.13695713446E+04  0.13695713446E+04  0.25500000000E-02 0.  1.
    5000001    1    1    2    0    0  0.36510363597E+01  0.17144380089E+03 -0.48011132071E+03  0.51559886269E+03  0.77000000000E+02 0.  0.
   -5000001    1    1    2    0    0 -0.36510363597E+01 -0.17144380089E+03 -0.86158242020E+03  0.88185008574E+03  0.77000000000E+02 0.  0.
<mgrwt>
<rscale>  0 0.39079594E+03</rscale>
<asrwt>0</asrwt>
<pdfrwt beam="1">  1        2 0.21070323E+00 0.39079594E+03</pdfrwt>
<pdfrwt beam="2">  1       -2 0.42888632E-02 0.39079594E+03</pdfrwt>
<totfact> 0.39816096E+03</totfact>
</mgrwt>
</event>
<event>
 4    1  0.4751076E-004  0.1787751E+03  0.7818608E-02  0.1168994E+00
          2   -1    0    0  501    0  0.00000000000E+00  0.00000000000E+00  0.11099621909E+04  0.11099621909E+04  0.25500000000E-02 0.  1.
         -2   -1    0    0    0  501 -0.00000000000E+00 -0.00000000000E+00 -0.71985610188E+01  0.71985614704E+01  0.25500000000E-02 0. -1.
    5000001    1    1    2    0    0  0.13459857245E+02  0.33697376288E+02  0.72188263172E+03  0.72688390744E+03  0.77000000000E+02 0.  0.
   -5000001    1    1    2    0    0 -0.13459857245E+02 -0.33697376288E+02  0.38088099816E+03  0.39027684493E+03  0.77000000000E+02 0.  0.
<mgrwt>
<rscale>  0 0.17877506E+03</rscale>
<asrwt>0</asrwt>
<pdfrwt beam="1">  1        2 0.17076335E+00 0.17877506E+03</pdfrwt>
<pdfrwt beam="2">  1       -2 0.11074713E-02 0.17877506E+03</pdfrwt>
<totfact> 0.40088924E+04</totfact>
</mgrwt>
</event>
<event>
 4    1  0.4751076E-004  0.1795313E+03  0.7818608E-02  0.1168257E+00
          2   -1    0    0  501    0  0.00000000000E+00  0.00000000000E+00  0.32977818082E+02  0.32977818181E+02  0.25500000000E-02 0.  1.
         -2   -1    0    0    0  501 -0.00000000000E+00 -0.00000000000E+00 -0.24434227659E+03  0.24434227660E+03  0.25500000000E-02 0. -1.
    5000001    1    1    2    0    0 -0.21075848077E+02  0.34868497360E+02 -0.72234389102E+02  0.11316717921E+03  0.77000000000E+02 0.  0.
   -5000001    1    1    2    0    0  0.21075848077E+02 -0.34868497360E+02 -0.13913006940E+03  0.16415291558E+03  0.77000000000E+02 0.  0.
<mgrwt>
<rscale>  0 0.17953134E+03</rscale>
<asrwt>0</asrwt>
<pdfrwt beam="1">  1        2 0.50735107E-02 0.17953134E+03</pdfrwt>
<pdfrwt beam="2">  1       -2 0.37591118E-01 0.17953134E+03</pdfrwt>
<totfact> 0.99403252E+03</totfact>
</mgrwt>
</event>
<event>
 4    1  0.4751076E-004  0.2059232E+03  0.7818608E-02  0.1144836E+00
          2   -1    0    0  501    0  0.00000000000E+00  0.00000000000E+00  0.29940895230E+02  0.29940895339E+02  0.25500000000E-02 0.  1.
         -2   -1    0    0    0  501 -0.00000000000E+00 -0.00000000000E+00 -0.35406728279E+03  0.35406728280E+03  0.25500000000E-02 0. -1.
    5000001    1    1    2    0    0 -0.21292720757E+02  0.61513353474E+02 -0.12317754420E+03  0.15918222265E+03  0.77000000000E+02 0.  0.
   -5000001    1    1    2    0    0  0.21292720757E+02 -0.61513353474E+02 -0.20094884336E+03  0.22482595549E+03  0.77000000000E+02 0.  0.
<mgrwt>
<rscale>  0 0.20592320E+03</rscale>
<asrwt>0</asrwt>
<pdfrwt beam="1">  1        2 0.46062918E-02 0.20592320E+03</pdfrwt>
<pdfrwt beam="2">  1       -2 0.54471887E-01 0.20592320E+03</pdfrwt>
<totfact> 0.55325976E+03</totfact>
</mgrwt>
</event>
<event>
 4    1  0.4751076E-004  0.2015410E+03  0.7818608E-02  0.1148445E+00
          2   -1    0    0  501    0  0.00000000000E+00  0.00000000000E+00  0.12955477374E+03  0.12955477376E+03  0.25500000000E-02 0.  1.
         -2   -1    0    0    0  501 -0.00000000000E+00 -0.00000000000E+00 -0.78381454246E+02  0.78381454288E+02  0.25500000000E-02 0. -1.
    5000001    1    1    2    0    0 -0.21386702442E+02 -0.34424970588E+02  0.78024845452E+02  0.11687320544E+03  0.77000000000E+02 0.  0.
   -5000001    1    1    2    0    0  0.21386702442E+02  0.34424970588E+02 -0.26851525960E+02  0.91063022615E+02  0.77000000000E+02 0.  0.
<mgrwt>
<rscale>  0 0.20154098E+03</rscale>
<asrwt>0</asrwt>
<pdfrwt beam="1">  1        2 0.19931503E-01 0.20154098E+03</pdfrwt>
<pdfrwt beam="2">  1       -2 0.12058685E-01 0.20154098E+03</pdfrwt>
<totfact> 0.13216992E+04</totfact>
</mgrwt>
</event>
<event>
 4    1  0.4751076E-004  0.1958596E+03  0.7818608E-02  0.1153280E+00
         -2   -1    0    0    0  501 -0.00000000000E+00  0.00000000000E+00  0.44215486779E+02  0.44215486853E+02  0.25500000000E-02 0. -1.
          2   -1    0    0  501    0  0.00000000000E+00 -0.00000000000E+00 -0.21689794187E+03  0.21689794189E+03  0.25500000000E-02 0.  1.
    5000001    1    1    2    0    0  0.47417658674E+02  0.37478604447E+02 -0.82531089110E+02  0.12803695098E+03  0.77000000000E+02 0.  0.
   -5000001    1    1    2    0    0 -0.47417658674E+02 -0.37478604447E+02 -0.90151365982E+02  0.13307647776E+03  0.77000000000E+02 0.  0.
<mgrwt>
<rscale>  0 0.19585962E+03</rscale>
<asrwt>0</asrwt>
<pdfrwt beam="1">  1        2 0.33368914E-01 0.19585962E+03</pdfrwt>
<pdfrwt beam="2">  1       -2 0.68023827E-02 0.19585962E+03</pdfrwt>
<totfact> 0.18305128E+04</totfact>
</mgrwt>
</event>
<event>
 4    1  0.4751076E-004  0.1780296E+03  0.7818608E-02  0.1169724E+00
          2   -1    0    0  501    0  0.00000000000E+00  0.00000000000E+00  0.11563648820E+04  0.11563648820E+04  0.25500000000E-02 0.  1.
         -2   -1    0    0    0  501 -0.00000000000E+00 -0.00000000000E+00 -0.68521923789E+01  0.68521928534E+01  0.25500000000E-02 0. -1.
    5000001    1    1    2    0    0  0.34786201823E+02  0.19528023500E+02  0.70595667545E+03  0.71126313777E+03  0.77000000000E+02 0.  0.
   -5000001    1    1    2    0    0 -0.34786201823E+02 -0.19528023500E+02  0.44355601414E+03  0.45195393705E+03  0.77000000000E+02 0.  0.
<mgrwt>
<rscale>  0 0.17802960E+03</rscale>
<asrwt>0</asrwt>
<pdfrwt beam="1">  1        2 0.17790233E+00 0.17802960E+03</pdfrwt>
<pdfrwt beam="2">  1       -2 0.10541832E-02 0.17802960E+03</pdfrwt>
<totfact> 0.40476960E+04</totfact>
</mgrwt>
</event>
<event>
 4    1  0.4751076E-004  0.2574572E+03  0.7818608E-02  0.1108681E+00
          2   -1    0    0  501    0  0.00000000000E+00  0.00000000000E+00  0.24969591980E+04  0.24969591980E+04  0.25500000000E-02 0.  1.
         -2   -1    0    0    0  501 -0.00000000000E+00 -0.00000000000E+00 -0.66364944772E+01  0.66364949671E+01  0.25500000000E-02 0. -1.
    5000001    1    1    2    0    0  0.53374554027E+02  0.73510927997E+02  0.76982654020E+03  0.77898305601E+03  0.77000000000E+02 0.  0.
   -5000001    1    1    2    0    0 -0.53374554027E+02 -0.73510927997E+02  0.17204961634E+04  0.17246126370E+04  0.77000000000E+02 0.  0.
<mgrwt>
<rscale>  0 0.25745723E+03</rscale>
<asrwt>0</asrwt>
<pdfrwt beam="1">  1        2 0.38414756E+00 0.25745723E+03</pdfrwt>
<pdfrwt beam="2">  1       -2 0.10209992E-02 0.25745723E+03</pdfrwt>
<totfact> 0.83264668E+03</totfact>
</mgrwt>
</event>
<event>
 4    1  0.4751076E-004  0.2181444E+03  0.7818608E-02  0.1135274E+00
         -2   -1    0    0    0  501 -0.00000000000E+00  0.00000000000E+00  0.32112808919E+02  0.32112809020E+02  0.25500000000E-02 0. -1.
          2   -1    0    0  501    0  0.00000000000E+00 -0.00000000000E+00 -0.37046735952E+03  0.37046735953E+03  0.25500000000E-02 0.  1.
    5000001    1    1    2    0    0  0.55028092426E+02 -0.49887657128E+02 -0.20836390439E+03  0.23422507539E+03  0.77000000000E+02 0.  0.
   -5000001    1    1    2    0    0 -0.55028092426E+02  0.49887657128E+02 -0.12999064622E+03  0.16835509316E+03  0.77000000000E+02 0.  0.
<mgrwt>
<rscale>  0 0.21814443E+03</rscale>
<asrwt>0</asrwt>
<pdfrwt beam="1">  1        2 0.56994975E-01 0.21814443E+03</pdfrwt>
<pdfrwt beam="2">  1       -2 0.49404324E-02 0.21814443E+03</pdfrwt>
<totfact> 0.16904003E+04</totfact>
</mgrwt>
</event>
