<event>
 4    1  0.6346694E-005  0.4403685E+03  0.7818608E-02  0.1030634E+00
          2   -1    0    0  501    0  0.00000000000E+00  0.00000000000E+00  0.10873361103E+04  0.10873361103E+04  0.25500000000E-02 0.  1.
         -2   -1    0    0    0  501 -0.00000000000E+00 -0.00000000000E+00 -0.44587045596E+02  0.44587045669E+02  0.25500000000E-02 0. -1.
    5000001    1    1    2    0    0  0.71366032519E+02  0.85204841723E+02  0.59335165587E+03  0.63226826836E+03  0.18800000000E+03 0.  0.
   -5000001    1    1    2    0    0 -0.71366032519E+02 -0.85204841723E+02  0.44939740886E+03  0.49965488764E+03  0.18800000000E+03 0.  0.
<mgrwt>
<rscale>  0 0.44036850E+03</rscale>
<asrwt>0</asrwt>
<pdfrwt beam="1">  1        2 0.15533372E+00 0.44036850E+03</pdfrwt>
<pdfrwt beam="2">  1       -2 0.63695782E-02 0.44036850E+03</pdfrwt>
<totfact> 0.35113548E+03</totfact>
</mgrwt>
</event>
<event>
 4    1  0.6346694E-005  0.5767679E+03  0.7818608E-02  0.9954813E-01
          2   -1    0    0  501    0  0.00000000000E+00  0.00000000000E+00  0.19091908706E+04  0.19091908706E+04  0.25500000000E-02 0.  1.
         -2   -1    0    0    0  501 -0.00000000000E+00 -0.00000000000E+00 -0.43560499064E+02  0.43560499139E+02  0.25500000000E-02 0. -1.
    5000001    1    1    2    0    0 -0.83406092962E+02 -0.13728771449E+03  0.14351844922E+04  0.14563320431E+04  0.18800000000E+03 0.  0.
   -5000001    1    1    2    0    0  0.83406092962E+02  0.13728771449E+03  0.43044587929E+03  0.49641932667E+03  0.18800000000E+03 0.  0.
<mgrwt>
<rscale>  0 0.57676792E+03</rscale>
<asrwt>0</asrwt>
<pdfrwt beam="1">  1        2 0.27274148E+00 0.57676792E+03</pdfrwt>
<pdfrwt beam="2">  1       -2 0.62229300E-02 0.57676792E+03</pdfrwt>
<totfact> 0.13438202E+03</totfact>
</mgrwt>
</event>
<event>
 4    1  0.6346694E-005  0.8447288E+03  0.7818608E-02  0.9497439E-01
         -2   -1    0    0    0  501 -0.00000000000E+00  0.00000000000E+00  0.96935723452E+02  0.96935723486E+02  0.25500000000E-02 0. -1.
          2   -1    0    0  501    0  0.00000000000E+00 -0.00000000000E+00 -0.18403091699E+04  0.18403091699E+04  0.25500000000E-02 0.  1.
    5000001    1    1    2    0    0  0.19900756172E+03 -0.23486123449E+03 -0.13756145488E+04  0.14221192623E+04  0.18800000000E+03 0.  0.
   -5000001    1    1    2    0    0 -0.19900756172E+03  0.23486123449E+03 -0.36775889762E+03  0.51512563115E+03  0.18800000000E+03 0.  0.
<mgrwt>
<rscale>  0 0.84472883E+03</rscale>
<asrwt>0</asrwt>
<pdfrwt beam="1">  1        2 0.26290129E+00 0.84472883E+03</pdfrwt>
<pdfrwt beam="2">  1       -2 0.13847962E-01 0.84472883E+03</pdfrwt>
<totfact> 0.39288384E+02</totfact>
</mgrwt>
</event>
<event>
 4    1  0.6346694E-005  0.8518040E+03  0.7818608E-02  0.9487919E-01
         -2   -1    0    0    0  501 -0.00000000000E+00  0.00000000000E+00  0.32207456839E+03  0.32207456840E+03  0.25500000000E-02 0. -1.
          2   -1    0    0  501    0  0.00000000000E+00 -0.00000000000E+00 -0.56320030690E+03  0.56320030690E+03  0.25500000000E-02 0.  1.
    5000001    1    1    2    0    0  0.29907677606E+03  0.44000377019E+02 -0.36355674307E+03  0.50882261800E+03  0.18800000000E+03 0.  0.
   -5000001    1    1    2    0    0 -0.29907677606E+03 -0.44000377019E+02  0.12243100456E+03  0.37645225731E+03  0.18800000000E+03 0.  0.
<mgrwt>
<rscale>  0 0.85180396E+03</rscale>
<asrwt>0</asrwt>
<pdfrwt beam="1">  1        2 0.80457186E-01 0.85180396E+03</pdfrwt>
<pdfrwt beam="2">  1       -2 0.46010653E-01 0.85180396E+03</pdfrwt>
<totfact> 0.26299419E+02</totfact>
</mgrwt>
</event>
<event>
 4    1  0.6346694E-005  0.8905416E+03  0.7818608E-02  0.9437483E-01
          2   -1    0    0  501    0  0.00000000000E+00  0.00000000000E+00  0.96326506072E+03  0.96326506072E+03  0.25500000000E-02 0.  1.
         -2   -1    0    0    0  501 -0.00000000000E+00 -0.00000000000E+00 -0.20582715353E+03  0.20582715355E+03  0.25500000000E-02 0. -1.
    5000001    1    1    2    0    0  0.18614670144E+03  0.24506064207E+03  0.72159739792E+03  0.80669208340E+03  0.18800000000E+03 0.  0.
   -5000001    1    1    2    0    0 -0.18614670144E+03 -0.24506064207E+03  0.35840509272E+02  0.36240013087E+03  0.18800000000E+03 0.  0.
<mgrwt>
<rscale>  0 0.89054165E+03</rscale>
<asrwt>0</asrwt>
<pdfrwt beam="1">  1        2 0.13760930E+00 0.89054165E+03</pdfrwt>
<pdfrwt beam="2">  1       -2 0.29403878E-01 0.89054165E+03</pdfrwt>
<totfact> 0.31514671E+02</totfact>
</mgrwt>
</event>
<event>
 4    1  0.6346694E-005  0.9953765E+03  0.7818608E-02  0.9313630E-01
          2   -1    0    0  501    0  0.00000000000E+00  0.00000000000E+00  0.26704753197E+04  0.26704753197E+04  0.25500000000E-02 0.  1.
         -2   -1    0    0    0  501 -0.00000000000E+00 -0.00000000000E+00 -0.92752618014E+02  0.92752618049E+02  0.25500000000E-02 0. -1.
    5000001    1    1    2    0    0  0.34509976293E+03  0.30443180243E+03  0.13555451727E+04  0.14438210706E+04  0.18800000000E+03 0.  0.
   -5000001    1    1    2    0    0 -0.34509976293E+03 -0.30443180243E+03  0.12221775290E+04  0.13194068672E+04  0.18800000000E+03 0.  0.
<mgrwt>
<rscale>  0 0.99537647E+03</rscale>
<asrwt>0</asrwt>
<pdfrwt beam="1">  1        2 0.38149647E+00 0.99537647E+03</pdfrwt>
<pdfrwt beam="2">  1       -2 0.13250374E-01 0.99537647E+03</pdfrwt>
<totfact> 0.15655507E+02</totfact>
</mgrwt>
</event>
<event>
 4    1  0.6346694E-005  0.6522581E+03  0.7818608E-02  0.9802551E-01
          2   -1    0    0  501    0  0.00000000000E+00  0.00000000000E+00  0.14754608188E+04  0.14754608188E+04  0.25500000000E-02 0.  1.
         -2   -1    0    0    0  501 -0.00000000000E+00 -0.00000000000E+00 -0.72086049402E+02  0.72086049447E+02  0.25500000000E-02 0. -1.
    5000001    1    1    2    0    0  0.19053093172E+03  0.13415587825E+03  0.10084444094E+04  0.10519524526E+04  0.18800000000E+03 0.  0.
   -5000001    1    1    2    0    0 -0.19053093172E+03 -0.13415587825E+03  0.39493036002E+03  0.49559441570E+03  0.18800000000E+03 0.  0.
<mgrwt>
<rscale>  0 0.65225805E+03</rscale>
<asrwt>0</asrwt>
<pdfrwt beam="1">  1        2 0.21078011E+00 0.65225805E+03</pdfrwt>
<pdfrwt beam="2">  1       -2 0.10298008E-01 0.65225805E+03</pdfrwt>
<totfact> 0.99841559E+02</totfact>
</mgrwt>
</event>
<event>
 4    1  0.6346694E-005  0.5243678E+03  0.7818608E-02  0.1007607E+00
         -2   -1    0    0    0  501 -0.00000000000E+00  0.00000000000E+00  0.14185980085E+03  0.14185980087E+03  0.25500000000E-02 0. -1.
          2   -1    0    0  501    0  0.00000000000E+00 -0.00000000000E+00 -0.48456575515E+03  0.48456575516E+03  0.25500000000E-02 0.  1.
    5000001    1    1    2    0    0 -0.48938764044E+02 -0.17597064876E+03 -0.16421215841E+03  0.30930616680E+03  0.18800000000E+03 0.  0.
   -5000001    1    1    2    0    0  0.48938764044E+02  0.17597064876E+03 -0.17849379590E+03  0.31711938923E+03  0.18800000000E+03 0.  0.
<mgrwt>
<rscale>  0 0.52436782E+03</rscale>
<asrwt>0</asrwt>
<pdfrwt beam="1">  1        2 0.69223678E-01 0.52436782E+03</pdfrwt>
<pdfrwt beam="2">  1       -2 0.20265686E-01 0.52436782E+03</pdfrwt>
<totfact> 0.14486064E+03</totfact>
</mgrwt>
</event>
<event>
 4    1  0.6346694E-005  0.7146866E+03  0.7818608E-02  0.9692441E-01
         -2   -1    0    0    0  501 -0.00000000000E+00  0.00000000000E+00  0.17086490909E+03  0.17086490911E+03  0.25500000000E-02 0.  1.
          2   -1    0    0  501    0  0.00000000000E+00 -0.00000000000E+00 -0.74734025473E+03  0.74734025473E+03  0.25500000000E-02 0. -1.
    5000001    1    1    2    0    0  0.16113631585E+03  0.23892593961E+03 -0.16434125254E+03  0.38131688160E+03  0.18800000000E+03 0.  0.
   -5000001    1    1    2    0    0 -0.16113631585E+03 -0.23892593961E+03 -0.41213409310E+03  0.53688828224E+03  0.18800000000E+03 0.  0.
<mgrwt>
<rscale>  0 0.71468657E+03</rscale>
<asrwt>0</asrwt>
<pdfrwt beam="1">  1        2 0.10676289E+00 0.71468657E+03</pdfrwt>
<pdfrwt beam="2">  1       -2 0.24409273E-01 0.71468657E+03</pdfrwt>
<totfact> 0.62282609E+02</totfact>
</mgrwt>
</event>
<event>
 4    1  0.6346694E-005  0.6755263E+03  0.7818608E-02  0.9760026E-01
         -2   -1    0    0    0  501 -0.00000000000E+00  0.00000000000E+00  0.44196079693E+03  0.44196079694E+03  0.25500000000E-02 0. -1.
          2   -1    0    0  501    0  0.00000000000E+00 -0.00000000000E+00 -0.25813138288E+03  0.25813138289E+03  0.25500000000E-02 0.  1.
    5000001    1    1    2    0    0 -0.89042413009E+02 -0.21713784939E+03 -0.67505646805E+02  0.30818567342E+03  0.18800000000E+03 0.  0.
   -5000001    1    1    2    0    0  0.89042413009E+02  0.21713784939E+03  0.25133506085E+03  0.39190650641E+03  0.18800000000E+03 0.  0.
<mgrwt>
<rscale>  0 0.67552632E+03</rscale>
<asrwt>0</asrwt>
<pdfrwt beam="1">  1        2 0.36875912E-01 0.67552632E+03</pdfrwt>
<pdfrwt beam="2">  1       -2 0.63137257E-01 0.67552632E+03</pdfrwt>
<totfact> 0.33080194E+02</totfact>
</mgrwt>
</event>
<event>
 4    1  0.6346694E-005  0.5399862E+03  0.7818608E-02  0.1003839E+00
          2   -1    0    0  501    0  0.00000000000E+00  0.00000000000E+00  0.57477612308E+03  0.57477612308E+03  0.25500000000E-02 0.  1.
         -2   -1    0    0    0  501 -0.00000000000E+00 -0.00000000000E+00 -0.12682548666E+03  0.12682548669E+03  0.25500000000E-02 0. -1.
    5000001    1    1    2    0    0  0.16066615639E+03  0.54129677753E+02  0.34591976605E+03  0.42865851253E+03  0.18800000000E+03 0.  0.
   -5000001    1    1    2    0    0 -0.16066615639E+03 -0.54129677753E+02  0.10203087036E+03  0.27294309724E+03  0.18800000000E+03 0.  0.
<mgrwt>
<rscale>  0 0.53998615E+03</rscale>
<asrwt>0</asrwt>
<pdfrwt beam="1">  1        2 0.82110875E-01 0.53998615E+03</pdfrwt>
<pdfrwt beam="2">  1       -2 0.18117927E-01 0.53998615E+03</pdfrwt>
<totfact> 0.14460665E+03</totfact>
</mgrwt>
</event>
<event>
 4    1  0.6346694E-005  0.8584327E+03  0.7818608E-02  0.9479088E-01
          2   -1    0    0  501    0  0.00000000000E+00  0.00000000000E+00  0.27971647888E+03  0.27971647889E+03  0.25500000000E-02 0.  1.
         -2   -1    0    0    0  501 -0.00000000000E+00 -0.00000000000E+00 -0.65861937357E+03  0.65861937357E+03  0.25500000000E-02 0. -1.
    5000001    1    1    2    0    0  0.72740953703E+02  0.37076398912E+03 -0.27500206885E+03  0.50371352954E+03  0.18800000000E+03 0.  0.
   -5000001    1    1    2    0    0 -0.72740953703E+02 -0.37076398912E+03 -0.10390082584E+03  0.43462232292E+03  0.18800000000E+03 0.  0.
<mgrwt>
<rscale>  0 0.85843274E+03</rscale>
<asrwt>0</asrwt>
<pdfrwt beam="1">  1        2 0.39959497E-01 0.85843274E+03</pdfrwt>
<pdfrwt beam="2">  1       -2 0.94088482E-01 0.85843274E+03</pdfrwt>
<totfact> 0.12356366E+02</totfact>
</mgrwt>
</event>
<event>
 4    1  0.6346694E-005  0.4263646E+03  0.7818608E-02  0.1035015E+00
         -2   -1    0    0    0  501 -0.00000000000E+00  0.00000000000E+00  0.15759025157E+03  0.15759025159E+03  0.25500000000E-02 0. -1.
          2   -1    0    0  501    0  0.00000000000E+00 -0.00000000000E+00 -0.28838513694E+03  0.28838513695E+03  0.25500000000E-02 0.  1.
    5000001    1    1    2    0    0  0.74331243179E+02 -0.58634373090E+02 -0.10070754127E+03  0.23334337850E+03  0.18800000000E+03 0.  0.
   -5000001    1    1    2    0    0 -0.74331243179E+02  0.58634373090E+02 -0.30087344096E+02  0.21263201004E+03  0.18800000000E+03 0.  0.
<mgrwt>
<rscale>  0 0.42636457E+03</rscale>
<asrwt>0</asrwt>
<pdfrwt beam="1">  1        2 0.41197877E-01 0.42636457E+03</pdfrwt>
<pdfrwt beam="2">  1       -2 0.22512893E-01 0.42636457E+03</pdfrwt>
<totfact> 0.21337351E+03</totfact>
</mgrwt>
</event>
<event>
 4    1  0.6346694E-005  0.6197016E+03  0.7818608E-02  0.9865354E-01
         -2   -1    0    0    0  501 -0.00000000000E+00  0.00000000000E+00  0.10509840478E+04  0.10509840478E+04  0.25500000000E-02 0. -1.
          2   -1    0    0  501    0  0.00000000000E+00 -0.00000000000E+00 -0.91350109219E+02  0.91350109255E+02  0.25500000000E-02 0.  1.
    5000001    1    1    2    0    0  0.55421256174E+01  0.24378972456E+03  0.54365593214E+03  0.62479590068E+03  0.18800000000E+03 0.  0.
   -5000001    1    1    2    0    0 -0.55421256174E+01 -0.24378972456E+03  0.41597800639E+03  0.51753825633E+03  0.18800000000E+03 0.  0.
<mgrwt>
<rscale>  0 0.61970157E+03</rscale>
<asrwt>0</asrwt>
<pdfrwt beam="1">  1        2 0.13050016E-01 0.61970157E+03</pdfrwt>
<pdfrwt beam="2">  1       -2 0.15014058E+00 0.61970157E+03</pdfrwt>
<totfact> 0.14445154E+02</totfact>
</mgrwt>
</event>
<event>
 4    1  0.6346694E-005  0.4961214E+03  0.7818608E-02  0.1014796E+00
          2   -1    0    0  501    0  0.00000000000E+00  0.00000000000E+00  0.73807219369E+03  0.73807219369E+03  0.25500000000E-02 0.  1.
         -2   -1    0    0    0  501 -0.00000000000E+00 -0.00000000000E+00 -0.83371406914E+02  0.83371406953E+02  0.25500000000E-02 0. -1.
    5000001    1    1    2    0    0  0.11575880249E+03 -0.60657792976E+02  0.48538944890E+03  0.53668089709E+03  0.18800000000E+03 0.  0.
   -5000001    1    1    2    0    0 -0.11575880249E+03  0.60657792976E+02  0.16931133788E+03  0.28476270356E+03  0.18800000000E+03 0.  0.
<mgrwt>
<rscale>  0 0.49612143E+03</rscale>
<asrwt>0</asrwt>
<pdfrwt beam="1">  1        2 0.10543889E+00 0.49612143E+03</pdfrwt>
<pdfrwt beam="2">  1       -2 0.11910201E-01 0.49612143E+03</pdfrwt>
<totfact> 0.21654342E+03</totfact>
</mgrwt>
</event>
<event>
 4    1  0.6346694E-005  0.7549872E+03  0.7818608E-02  0.9627559E-01
          2   -1    0    0  501    0  0.00000000000E+00  0.00000000000E+00  0.28770663324E+03  0.28770663326E+03  0.25500000000E-02 0.  1.
         -2   -1    0    0    0  501 -0.00000000000E+00 -0.00000000000E+00 -0.49530107147E+03  0.49530107148E+03  0.25500000000E-02 0. -1.
    5000001    1    1    2    0    0  0.91200600286E+02 -0.26073816312E+03 -0.28597378582E+03  0.43980330306E+03  0.18800000000E+03 0.  0.
   -5000001    1    1    2    0    0 -0.91200600286E+02  0.26073816312E+03  0.78379347594E+02  0.34320440168E+03  0.18800000000E+03 0.  0.
<mgrwt>
<rscale>  0 0.75498716E+03</rscale>
<asrwt>0</asrwt>
<pdfrwt beam="1">  1        2 0.41100948E-01 0.75498716E+03</pdfrwt>
<pdfrwt beam="2">  1       -2 0.70757296E-01 0.75498716E+03</pdfrwt>
<totfact> 0.22877674E+02</totfact>
</mgrwt>
</event>
<event>
 4    1  0.6346694E-005  0.5252376E+03  0.7818608E-02  0.1007394E+00
          2   -1    0    0  501    0  0.00000000000E+00  0.00000000000E+00  0.37103046635E+03  0.37103046636E+03  0.25500000000E-02 0.  1.
         -2   -1    0    0    0  501 -0.00000000000E+00 -0.00000000000E+00 -0.18588401381E+03  0.18588401382E+03  0.25500000000E-02 0. -1.
    5000001    1    1    2    0    0 -0.11245330669E+03  0.74229227731E+02  0.22444824500E+03  0.32229914538E+03  0.18800000000E+03 0.  0.
   -5000001    1    1    2    0    0  0.11245330669E+03 -0.74229227731E+02 -0.39301792447E+02  0.23461533480E+03  0.18800000000E+03 0.  0.
<mgrwt>
<rscale>  0 0.52523759E+03</rscale>
<asrwt>0</asrwt>
<pdfrwt beam="1">  1        2 0.53004353E-01 0.52523759E+03</pdfrwt>
<pdfrwt beam="2">  1       -2 0.26554859E-01 0.52523759E+03</pdfrwt>
<totfact> 0.12077822E+03</totfact>
</mgrwt>
</event>
<event>
 4    1  0.6346694E-005  0.9586490E+03  0.7818608E-02  0.9355098E-01
         -2   -1    0    0    0  501 -0.00000000000E+00  0.00000000000E+00  0.38587974045E+03  0.38587974046E+03  0.25500000000E-02 0. -1.
          2   -1    0    0  501    0  0.00000000000E+00 -0.00000000000E+00 -0.59539784539E+03  0.59539784539E+03  0.25500000000E-02 0.  1.
    5000001    1    1    2    0    0  0.77203062035E+00  0.42666959121E+03  0.90427272496E+01  0.46634033389E+03  0.18800000000E+03 0.  0.
   -5000001    1    1    2    0    0 -0.77203062035E+00 -0.42666959121E+03 -0.21856083219E+03  0.51493725197E+03  0.18800000000E+03 0.  0.
<mgrwt>
<rscale>  0 0.95864898E+03</rscale>
<asrwt>0</asrwt>
<pdfrwt beam="1">  1        2 0.85056835E-01 0.95864898E+03</pdfrwt>
<pdfrwt beam="2">  1       -2 0.55125677E-01 0.95864898E+03</pdfrwt>
<totfact> 0.16954881E+02</totfact>
</mgrwt>
</event>
<event>
 4    1  0.6346694E-005  0.5596465E+03  0.7818608E-02  0.9992855E-01
          2   -1    0    0  501    0  0.00000000000E+00  0.00000000000E+00  0.41628568528E+03  0.41628568529E+03  0.25500000000E-02 0.  1.
         -2   -1    0    0    0  501 -0.00000000000E+00 -0.00000000000E+00 -0.18809450677E+03  0.18809450679E+03  0.25500000000E-02 0. -1.
    5000001    1    1    2    0    0  0.18132875321E+03  0.10030140308E+03  0.11849058852E+03  0.30384948209E+03  0.18800000000E+03 0.  0.
   -5000001    1    1    2    0    0 -0.18132875321E+03 -0.10030140308E+03  0.10970058999E+03  0.30053070999E+03  0.18800000000E+03 0.  0.
<mgrwt>
<rscale>  0 0.55964650E+03</rscale>
<asrwt>0</asrwt>
<pdfrwt beam="1">  1        2 0.59469384E-01 0.55964650E+03</pdfrwt>
<pdfrwt beam="2">  1       -2 0.26870644E-01 0.55964650E+03</pdfrwt>
<totfact> 0.10406387E+03</totfact>
</mgrwt>
</event>
<event>
 4    1  0.6346694E-005  0.1172880E+04  0.7818608E-02  0.9136931E-01
          2   -1    0    0  501    0  0.00000000000E+00  0.00000000000E+00  0.20743368204E+04  0.20743368204E+04  0.25500000000E-02 0.  1.
         -2   -1    0    0    0  501 -0.00000000000E+00 -0.00000000000E+00 -0.16579372692E+03  0.16579372694E+03  0.25500000000E-02 0. -1.
    5000001    1    1    2    0    0  0.17905979357E+03 -0.29447222144E+03  0.17863385381E+04  0.18289684720E+04  0.18800000000E+03 0.  0.
   -5000001    1    1    2    0    0 -0.17905979357E+03  0.29447222144E+03  0.12220455542E+03  0.41116207539E+03  0.18800000000E+03 0.  0.
<mgrwt>
<rscale>  0 0.11728803E+04</rscale>
<asrwt>0</asrwt>
<pdfrwt beam="1">  1        2 0.29633379E+00 0.11728803E+04</pdfrwt>
<pdfrwt beam="2">  1       -2 0.23684821E-01 0.11728803E+04</pdfrwt>
<totfact> 0.11496865E+02</totfact>
</mgrwt>
</event>
<event>
 4    1  0.6346694E-005  0.7730025E+03  0.7818608E-02  0.9599939E-01
          2   -1    0    0  501    0  0.00000000000E+00  0.00000000000E+00  0.37218054847E+03  0.37218054848E+03  0.25500000000E-02 0.  1.
         -2   -1    0    0    0  501 -0.00000000000E+00 -0.00000000000E+00 -0.40137298214E+03  0.40137298215E+03  0.25500000000E-02 0. -1.
    5000001    1    1    2    0    0 -0.22032903824E+03 -0.25366367796E+03  0.19325882604E+02  0.38549661003E+03  0.18800000000E+03 0.  0.
   -5000001    1    1    2    0    0  0.22032903824E+03  0.25366367796E+03 -0.48518316273E+02  0.38805692059E+03  0.18800000000E+03 0.  0.
<mgrwt>
<rscale>  0 0.77300250E+03</rscale>
<asrwt>0</asrwt>
<pdfrwt beam="1">  1        2 0.53168650E-01 0.77300250E+03</pdfrwt>
<pdfrwt beam="2">  1       -2 0.57338997E-01 0.77300250E+03</pdfrwt>
<totfact> 0.26921474E+02</totfact>
</mgrwt>
</event>
<event>
 4    1  0.6346694E-005  0.1287462E+04  0.7818608E-02  0.9039568E-01
         -2   -1    0    0    0  501 -0.00000000000E+00  0.00000000000E+00  0.34307528668E+03  0.34307528669E+03  0.25500000000E-02 0. -1.
          2   -1    0    0  501    0  0.00000000000E+00 -0.00000000000E+00 -0.12078672780E+04  0.12078672780E+04  0.25500000000E-02 0.  1.
    5000001    1    1    2    0    0 -0.99022111890E+02 -0.52171867452E+03 -0.57113420450E+02  0.56621700503E+03  0.18800000000E+03 0.  0.
   -5000001    1    1    2    0    0  0.99022111890E+02  0.52171867452E+03 -0.80767857086E+03  0.98472555964E+03  0.18800000000E+03 0.  0.
<mgrwt>
<rscale>  0 0.12874617E+04</rscale>
<asrwt>0</asrwt>
<pdfrwt beam="1">  1        2 0.17255247E+00 0.12874617E+04</pdfrwt>
<pdfrwt beam="2">  1       -2 0.49010756E-01 0.12874617E+04</pdfrwt>
<totfact> 0.81810287E+01</totfact>
</mgrwt>
</event>
<event>
 4    1  0.6346694E-005  0.6681510E+03  0.7818608E-02  0.9773304E-01
          2   -1    0    0  501    0  0.00000000000E+00  0.00000000000E+00  0.10843369668E+04  0.10843369668E+04  0.25500000000E-02 0.  1.
         -2   -1    0    0    0  501 -0.00000000000E+00 -0.00000000000E+00 -0.10292596037E+03  0.10292596040E+03  0.25500000000E-02 0. -1.
    5000001    1    1    2    0    0  0.18878962657E+03 -0.27019164319E+02  0.84560799146E+03  0.88699968070E+03  0.18800000000E+03 0.  0.
   -5000001    1    1    2    0    0 -0.18878962657E+03  0.27019164319E+02  0.13580301502E+03  0.30026324655E+03  0.18800000000E+03 0.  0.
<mgrwt>
<rscale>  0 0.66815095E+03</rscale>
<asrwt>0</asrwt>
<pdfrwt beam="1">  1        2 0.15490528E+00 0.66815095E+03</pdfrwt>
<pdfrwt beam="2">  1       -2 0.14703709E-01 0.66815095E+03</pdfrwt>
<totfact> 0.90955904E+02</totfact>
</mgrwt>
</event>
<event>
 4    1  0.6346694E-005  0.5599037E+03  0.7818608E-02  0.9992273E-01
          2   -1    0    0  501    0  0.00000000000E+00  0.00000000000E+00  0.23959115537E+04  0.23959115537E+04  0.25500000000E-02 0.  1.
         -2   -1    0    0    0  501 -0.00000000000E+00 -0.00000000000E+00 -0.32711154804E+02  0.32711154903E+02  0.25500000000E-02 0. -1.
    5000001    1    1    2    0    0  0.20522377473E+03 -0.29807273521E+02  0.12027445108E+04  0.12348860796E+04  0.18800000000E+03 0.  0.
   -5000001    1    1    2    0    0 -0.20522377473E+03  0.29807273521E+02  0.11604558881E+04  0.11937366290E+04  0.18800000000E+03 0.  0.
<mgrwt>
<rscale>  0 0.55990368E+03</rscale>
<asrwt>0</asrwt>
<pdfrwt beam="1">  1        2 0.34227317E+00 0.55990368E+03</pdfrwt>
<pdfrwt beam="2">  1       -2 0.46730209E-02 0.55990368E+03</pdfrwt>
<totfact> 0.11951202E+03</totfact>
</mgrwt>
</event>
<event>
 4    1  0.6346694E-005  0.7461463E+03  0.7818608E-02  0.9641416E-01
         -2   -1    0    0    0  501 -0.00000000000E+00  0.00000000000E+00  0.91895911251E+02  0.91895911286E+02  0.25500000000E-02 0. -1.
          2   -1    0    0  501    0  0.00000000000E+00 -0.00000000000E+00 -0.15145783766E+04  0.15145783766E+04  0.25500000000E-02 0.  1.
    5000001    1    1    2    0    0  0.18134463922E+03  0.21499200646E+03 -0.37274628202E+03  0.50337980867E+03  0.18800000000E+03 0.  0.
   -5000001    1    1    2    0    0 -0.18134463922E+03 -0.21499200646E+03 -0.10499361834E+04  0.11030944793E+04  0.18800000000E+03 0.  0.
<mgrwt>
<rscale>  0 0.74614626E+03</rscale>
<asrwt>0</asrwt>
<pdfrwt beam="1">  1        2 0.21636832E+00 0.74614626E+03</pdfrwt>
<pdfrwt beam="2">  1       -2 0.13127988E-01 0.74614626E+03</pdfrwt>
<totfact> 0.63578985E+02</totfact>
</mgrwt>
</event>
<event>
 4    1  0.6346694E-005  0.4798283E+03  0.7818608E-02  0.1019182E+00
          2   -1    0    0  501    0  0.00000000000E+00  0.00000000000E+00  0.12381807400E+04  0.12381807400E+04  0.25500000000E-02 0.  1.
         -2   -1    0    0    0  501 -0.00000000000E+00 -0.00000000000E+00 -0.46486579982E+02  0.46486580051E+02  0.25500000000E-02 0. -1.
    5000001    1    1    2    0    0 -0.14397020039E+03  0.16547262955E+02  0.68911559156E+03  0.72885219973E+03  0.18800000000E+03 0.  0.
   -5000001    1    1    2    0    0  0.14397020039E+03 -0.16547262955E+02  0.50257856842E+03  0.55581512029E+03  0.18800000000E+03 0.  0.
<mgrwt>
<rscale>  0 0.47982825E+03</rscale>
<asrwt>0</asrwt>
<pdfrwt beam="1">  1        2 0.17688295E+00 0.47982825E+03</pdfrwt>
<pdfrwt beam="2">  1       -2 0.66409405E-02 0.47982825E+03</pdfrwt>
<totfact> 0.27062266E+03</totfact>
</mgrwt>
</event>
<event>
 4    1  0.6346694E-005  0.8966463E+03  0.7818608E-02  0.9429783E-01
         -2   -1    0    0    0  501 -0.00000000000E+00  0.00000000000E+00  0.16523106565E+03  0.16523106567E+03  0.25500000000E-02 0. -1.
          2   -1    0    0  501    0  0.00000000000E+00 -0.00000000000E+00 -0.12164398448E+04  0.12164398448E+04  0.25500000000E-02 0.  1.
    5000001    1    1    2    0    0 -0.13490788078E+03  0.38372342566E+03 -0.50349600789E+03  0.67401486160E+03  0.18800000000E+03 0.  0.
   -5000001    1    1    2    0    0  0.13490788078E+03 -0.38372342566E+03 -0.54771277125E+03  0.70765604886E+03  0.18800000000E+03 0.  0.
<mgrwt>
<rscale>  0 0.89664631E+03</rscale>
<asrwt>0</asrwt>
<pdfrwt beam="1">  1        2 0.17377712E+00 0.89664631E+03</pdfrwt>
<pdfrwt beam="2">  1       -2 0.23604439E-01 0.89664631E+03</pdfrwt>
<totfact> 0.33261652E+02</totfact>
</mgrwt>
</event>
<event>
 4    1  0.6346694E-005  0.5913523E+03  0.7818608E-02  0.9923511E-01
         -2   -1    0    0    0  501 -0.00000000000E+00  0.00000000000E+00  0.13143671799E+03  0.13143671801E+03  0.25500000000E-02 0. -1.
          2   -1    0    0  501    0  0.00000000000E+00 -0.00000000000E+00 -0.66514432215E+03  0.66514432215E+03  0.25500000000E-02 0.  1.
    5000001    1    1    2    0    0  0.10753396754E+03  0.10162537674E+03 -0.32803683359E+02  0.24147743790E+03  0.18800000000E+03 0.  0.
   -5000001    1    1    2    0    0 -0.10753396754E+03 -0.10162537674E+03 -0.50090392080E+03  0.55510360226E+03  0.18800000000E+03 0.  0.
<mgrwt>
<rscale>  0 0.59135230E+03</rscale>
<asrwt>0</asrwt>
<pdfrwt beam="1">  1        2 0.95020615E-01 0.59135230E+03</pdfrwt>
<pdfrwt beam="2">  1       -2 0.18776674E-01 0.59135230E+03</pdfrwt>
<totfact> 0.11437513E+03</totfact>
</mgrwt>
</event>
<event>
 4    1  0.6346694E-005  0.8286938E+03  0.7818608E-02  0.9519388E-01
         -2   -1    0    0    0  501 -0.00000000000E+00  0.00000000000E+00  0.70206010345E+03  0.70206010345E+03  0.25500000000E-02 0. -1.
          2   -1    0    0  501    0  0.00000000000E+00 -0.00000000000E+00 -0.24454223694E+03  0.24454223696E+03  0.25500000000E-02 0.  1.
    5000001    1    1    2    0    0 -0.27945381250E+03 -0.23915581133E+03  0.19175510458E+03  0.45541624427E+03  0.18800000000E+03 0.  0.
   -5000001    1    1    2    0    0  0.27945381250E+03  0.23915581133E+03  0.26576276192E+03  0.49118609614E+03  0.18800000000E+03 0.  0.
<mgrwt>
<rscale>  0 0.82869379E+03</rscale>
<asrwt>0</asrwt>
<pdfrwt beam="1">  1        2 0.34934606E-01 0.82869379E+03</pdfrwt>
<pdfrwt beam="2">  1       -2 0.10029430E+00 0.82869379E+03</pdfrwt>
<totfact> 0.12371597E+02</totfact>
</mgrwt>
</event>
<event>
 4    1  0.6346694E-005  0.4036037E+03  0.7818608E-02  0.1042539E+00
          2   -1    0    0  501    0  0.00000000000E+00  0.00000000000E+00  0.78480845398E+03  0.78480845398E+03  0.25500000000E-02 0.  1.
         -2   -1    0    0    0  501 -0.00000000000E+00 -0.00000000000E+00 -0.51890348781E+02  0.51890348844E+02  0.25500000000E-02 0. -1.
    5000001    1    1    2    0    0 -0.92369979258E+01  0.70861623937E+02  0.33218796241E+03  0.38832915709E+03  0.18800000000E+03 0.  0.
   -5000001    1    1    2    0    0  0.92369979258E+01 -0.70861623937E+02  0.40073014278E+03  0.44836964573E+03  0.18800000000E+03 0.  0.
<mgrwt>
<rscale>  0 0.40360369E+03</rscale>
<asrwt>0</asrwt>
<pdfrwt beam="1">  1        2 0.11211547E+00 0.40360369E+03</pdfrwt>
<pdfrwt beam="2">  1       -2 0.74129082E-02 0.40360369E+03</pdfrwt>
<totfact> 0.42816852E+03</totfact>
</mgrwt>
</event>
<event>
 4    1  0.6346694E-005  0.4423986E+03  0.7818608E-02  0.1030013E+00
          2   -1    0    0  501    0  0.00000000000E+00  0.00000000000E+00  0.30807904375E+04  0.30807904375E+04  0.25500000000E-02 0.  1.
         -2   -1    0    0    0  501 -0.00000000000E+00 -0.00000000000E+00 -0.15882002525E+02  0.15882002730E+02  0.25500000000E-02 0. -1.
    5000001    1    1    2    0    0 -0.55647443013E+02 -0.94965713170E+02  0.12640805992E+04  0.12827154345E+04  0.18800000000E+03 0.  0.
   -5000001    1    1    2    0    0  0.55647443013E+02  0.94965713170E+02  0.18008278358E+04  0.18139570057E+04  0.18800000000E+03 0.  0.
<mgrwt>
<rscale>  0 0.44239856E+03</rscale>
<asrwt>0</asrwt>
<pdfrwt beam="1">  1        2 0.44011348E+00 0.44239856E+03</pdfrwt>
<pdfrwt beam="2">  1       -2 0.22688546E-02 0.44239856E+03</pdfrwt>
<totfact> 0.15818026E+03</totfact>
</mgrwt>
</event>
<event>
 4    1  0.6346694E-005  0.4931533E+03  0.7818608E-02  0.1015582E+00
         -2   -1    0    0    0  501 -0.00000000000E+00  0.00000000000E+00  0.11172242666E+03  0.11172242669E+03  0.25500000000E-02 0. -1.
          2   -1    0    0  501    0  0.00000000000E+00 -0.00000000000E+00 -0.54420620648E+03  0.54420620648E+03  0.25500000000E-02 0.  1.
    5000001    1    1    2    0    0  0.43486998913E+02  0.14426788480E+03 -0.14647089405E+03  0.28196110452E+03  0.18800000000E+03 0.  0.
   -5000001    1    1    2    0    0 -0.43486998913E+02 -0.14426788480E+03 -0.28601288577E+03  0.37396752865E+03  0.18800000000E+03 0.  0.
<mgrwt>
<rscale>  0 0.49315327E+03</rscale>
<asrwt>0</asrwt>
<pdfrwt beam="1">  1        2 0.77743742E-01 0.49315327E+03</pdfrwt>
<pdfrwt beam="2">  1       -2 0.15960347E-01 0.49315327E+03</pdfrwt>
<totfact> 0.19107956E+03</totfact>
</mgrwt>
</event>
<event>
 4    1  0.6346694E-005  0.6237187E+03  0.7818608E-02  0.9857383E-01
          2   -1    0    0  501    0  0.00000000000E+00  0.00000000000E+00  0.22739553455E+04  0.22739553455E+04  0.25500000000E-02 0.  1.
         -2   -1    0    0    0  501 -0.00000000000E+00 -0.00000000000E+00 -0.42769643088E+02  0.42769643164E+02  0.25500000000E-02 0. -1.
    5000001    1    1    2    0    0 -0.56823161125E+02  0.23534057094E+03  0.90227638730E+03  0.95292220829E+03  0.18800000000E+03 0.  0.
   -5000001    1    1    2    0    0  0.56823161125E+02 -0.23534057094E+03  0.13289093151E+04  0.13638027803E+04  0.18800000000E+03 0.  0.
<mgrwt>
<rscale>  0 0.62371871E+03</rscale>
<asrwt>0</asrwt>
<pdfrwt beam="1">  1        2 0.32485070E+00 0.62371871E+03</pdfrwt>
<pdfrwt beam="2">  1       -2 0.61099502E-02 0.62371871E+03</pdfrwt>
<totfact> 0.90403512E+02</totfact>
</mgrwt>
</event>
<event>
 4    1  0.6346694E-005  0.6213837E+03  0.7818608E-02  0.9862009E-01
          2   -1    0    0  501    0  0.00000000000E+00  0.00000000000E+00  0.22438737541E+04  0.22438737541E+04  0.25500000000E-02 0. -1.
         -2   -1    0    0    0  501 -0.00000000000E+00 -0.00000000000E+00 -0.43019095609E+02  0.43019095685E+02  0.25500000000E-02 0.  1.
    5000001    1    1    2    0    0 -0.56063794003E+02 -0.10903537138E+03  0.30976951273E+03  0.38253498171E+03  0.18800000000E+03 0.  0.
   -5000001    1    1    2    0    0  0.56063794003E+02  0.10903537138E+03  0.18910851458E+04  0.19043578681E+04  0.18800000000E+03 0.  0.
<mgrwt>
<rscale>  0 0.62138368E+03</rscale>
<asrwt>0</asrwt>
<pdfrwt beam="1">  1        2 0.32055346E+00 0.62138368E+03</pdfrwt>
<pdfrwt beam="2">  1       -2 0.61455838E-02 0.62138368E+03</pdfrwt>
<totfact> 0.92789466E+02</totfact>
</mgrwt>
</event>
<event>
 4    1  0.6346694E-005  0.4747238E+03  0.7818608E-02  0.1020595E+00
         -2   -1    0    0    0  501 -0.00000000000E+00  0.00000000000E+00  0.48942972848E+03  0.48942972848E+03  0.25500000000E-02 0. -1.
          2   -1    0    0  501    0  0.00000000000E+00 -0.00000000000E+00 -0.11511491642E+03  0.11511491645E+03  0.25500000000E-02 0.  1.
    5000001    1    1    2    0    0 -0.70192591646E+02  0.54703953065E+02  0.41529771978E+02  0.21210432425E+03  0.18800000000E+03 0.  0.
   -5000001    1    1    2    0    0  0.70192591646E+02 -0.54703953065E+02  0.33278504008E+03  0.39244032069E+03  0.18800000000E+03 0.  0.
<mgrwt>
<rscale>  0 0.47472376E+03</rscale>
<asrwt>0</asrwt>
<pdfrwt beam="1">  1        2 0.16444988E-01 0.47472376E+03</pdfrwt>
<pdfrwt beam="2">  1       -2 0.69918533E-01 0.47472376E+03</pdfrwt>
<totfact> 0.67262799E+02</totfact>
</mgrwt>
</event>
<event>
 4    1  0.6346694E-005  0.5552805E+03  0.7818608E-02  0.1000279E+00
          2   -1    0    0  501    0  0.00000000000E+00  0.00000000000E+00  0.10901691351E+04  0.10901691351E+04  0.25500000000E-02 0.  1.
         -2   -1    0    0    0  501 -0.00000000000E+00 -0.00000000000E+00 -0.70708400482E+02  0.70708400528E+02  0.25500000000E-02 0. -1.
    5000001    1    1    2    0    0 -0.11558166423E+03  0.16720785811E+03  0.55270390917E+03  0.61817732094E+03  0.18800000000E+03 0.  0.
   -5000001    1    1    2    0    0  0.11558166423E+03 -0.16720785811E+03  0.46675682545E+03  0.54270021469E+03  0.18800000000E+03 0.  0.
<mgrwt>
<rscale>  0 0.55528053E+03</rscale>
<asrwt>0</asrwt>
<pdfrwt beam="1">  1        2 0.15573845E+00 0.55528053E+03</pdfrwt>
<pdfrwt beam="2">  1       -2 0.10101200E-01 0.55528053E+03</pdfrwt>
<totfact> 0.16813040E+03</totfact>
</mgrwt>
</event>
<event>
 4    1  0.6346694E-005  0.7449594E+03  0.7818608E-02  0.9643292E-01
          2   -1    0    0  501    0  0.00000000000E+00  0.00000000000E+00  0.17789781989E+04  0.17789781989E+04  0.25500000000E-02 0.  1.
         -2   -1    0    0    0  501 -0.00000000000E+00 -0.00000000000E+00 -0.77989225907E+02  0.77989225949E+02  0.25500000000E-02 0. -1.
    5000001    1    1    2    0    0  0.26292343189E+03  0.11095321991E+03  0.12198681547E+04  0.12668313474E+04  0.18800000000E+03 0.  0.
   -5000001    1    1    2    0    0 -0.26292343189E+03 -0.11095321991E+03  0.48112081827E+03  0.59013607737E+03  0.18800000000E+03 0.  0.
<mgrwt>
<rscale>  0 0.74495942E+03</rscale>
<asrwt>0</asrwt>
<pdfrwt beam="1">  1        2 0.25413974E+00 0.74495942E+03</pdfrwt>
<pdfrwt beam="2">  1       -2 0.11141318E-01 0.74495942E+03</pdfrwt>
<totfact> 0.60942153E+02</totfact>
</mgrwt>
</event>
<event>
 4    1  0.6346694E-005  0.5145576E+03  0.7818608E-02  0.1010048E+00
         -2   -1    0    0    0  501 -0.00000000000E+00  0.00000000000E+00  0.16910071184E+03  0.16910071186E+03  0.25500000000E-02 0. -1.
          2   -1    0    0  501    0  0.00000000000E+00 -0.00000000000E+00 -0.39143758981E+03  0.39143758982E+03  0.25500000000E-02 0.  1.
    5000001    1    1    2    0    0  0.25966326274E+02  0.16102048072E+03 -0.40179873182E+02  0.25211161719E+03  0.18800000000E+03 0.  0.
   -5000001    1    1    2    0    0 -0.25966326274E+02 -0.16102048072E+03 -0.18215700480E+03  0.30842668449E+03  0.18800000000E+03 0.  0.
<mgrwt>
<rscale>  0 0.51455758E+03</rscale>
<asrwt>0</asrwt>
<pdfrwt beam="1">  1        2 0.55919655E-01 0.51455758E+03</pdfrwt>
<pdfrwt beam="2">  1       -2 0.24157245E-01 0.51455758E+03</pdfrwt>
<totfact> 0.13489946E+03</totfact>
</mgrwt>
</event>
<event>
 4    1  0.6346694E-005  0.8218020E+03  0.7818608E-02  0.9528985E-01
          2   -1    0    0  501    0  0.00000000000E+00  0.00000000000E+00  0.29775961052E+04  0.29775961052E+04  0.25500000000E-02 0.  1.
         -2   -1    0    0    0  501 -0.00000000000E+00 -0.00000000000E+00 -0.56703339130E+02  0.56703339187E+02  0.25500000000E-02 0. -1.
    5000001    1    1    2    0    0 -0.17742691634E+02  0.26006234161E+03  0.51514055498E+03  0.60717461740E+03  0.18800000000E+03 0.  0.
   -5000001    1    1    2    0    0  0.17742691634E+02 -0.26006234161E+03  0.24057522111E+04  0.24271248270E+04  0.18800000000E+03 0.  0.
<mgrwt>
<rscale>  0 0.82180202E+03</rscale>
<asrwt>0</asrwt>
<pdfrwt beam="1">  1        2 0.42537088E+00 0.82180202E+03</pdfrwt>
<pdfrwt beam="2">  1       -2 0.81004770E-02 0.82180202E+03</pdfrwt>
<totfact> 0.24341922E+02</totfact>
</mgrwt>
</event>
<event>
 4    1  0.6346694E-005  0.6905439E+03  0.7818608E-02  0.9733541E-01
         -2   -1    0    0    0  501 -0.00000000000E+00  0.00000000000E+00  0.12304875149E+03  0.12304875151E+03  0.25500000000E-02 0. -1.
          2   -1    0    0  501    0  0.00000000000E+00 -0.00000000000E+00 -0.96882518564E+03  0.96882518564E+03  0.25500000000E-02 0.  1.
    5000001    1    1    2    0    0 -0.25707378587E+03 -0.51568365660E+02 -0.61733152934E+03  0.69655469622E+03  0.18800000000E+03 0.  0.
   -5000001    1    1    2    0    0  0.25707378587E+03  0.51568365660E+02 -0.22844490481E+03  0.39531924093E+03  0.18800000000E+03 0.  0.
<mgrwt>
<rscale>  0 0.69054393E+03</rscale>
<asrwt>0</asrwt>
<pdfrwt beam="1">  1        2 0.13840359E+00 0.69054393E+03</pdfrwt>
<pdfrwt beam="2">  1       -2 0.17578394E-01 0.69054393E+03</pdfrwt>
<totfact> 0.78790559E+02</totfact>
</mgrwt>
</event>
<event>
 4    1  0.6346694E-005  0.4580743E+03  0.7818608E-02  0.1025341E+00
          2   -1    0    0  501    0  0.00000000000E+00  0.00000000000E+00  0.20604482752E+03  0.20604482753E+03  0.25500000000E-02 0.  1.
         -2   -1    0    0    0  501 -0.00000000000E+00 -0.00000000000E+00 -0.25459515482E+03  0.25459515483E+03  0.25500000000E-02 0. -1.
    5000001    1    1    2    0    0 -0.11021566379E+03  0.65049923653E+02  0.29881186732E+01  0.22744650792E+03  0.18800000000E+03 0.  0.
   -5000001    1    1    2    0    0  0.11021566379E+03 -0.65049923653E+02 -0.51538445976E+02  0.23319347445E+03  0.18800000000E+03 0.  0.
<mgrwt>
<rscale>  0 0.45807429E+03</rscale>
<asrwt>0</asrwt>
<pdfrwt beam="1">  1        2 0.29434975E-01 0.45807429E+03</pdfrwt>
<pdfrwt beam="2">  1       -2 0.36370737E-01 0.45807429E+03</pdfrwt>
<totfact> 0.12905414E+03</totfact>
</mgrwt>
</event>
<event>
 4    1  0.6346694E-005  0.5920488E+03  0.7818608E-02  0.9922041E-01
         -2   -1    0    0    0  501 -0.00000000000E+00  0.00000000000E+00  0.52386383780E+02  0.52386383842E+02  0.25500000000E-02 0. -1.
          2   -1    0    0  501    0  0.00000000000E+00 -0.00000000000E+00 -0.16727712582E+04  0.16727712582E+04  0.25500000000E-02 0.  1.
    5000001    1    1    2    0    0 -0.10358826626E+03 -0.18053334578E+03 -0.10860678547E+04  0.11216996937E+04  0.18800000000E+03 0.  0.
   -5000001    1    1    2    0    0  0.10358826626E+03  0.18053334578E+03 -0.53431701967E+03  0.60345794829E+03  0.18800000000E+03 0.  0.
<mgrwt>
<rscale>  0 0.59204877E+03</rscale>
<asrwt>0</asrwt>
<pdfrwt beam="1">  1        2 0.23896729E+00 0.59204877E+03</pdfrwt>
<pdfrwt beam="2">  1       -2 0.74837701E-02 0.59204877E+03</pdfrwt>
<totfact> 0.13216519E+03</totfact>
</mgrwt>
</event>
<event>
 4    1  0.6346694E-005  0.5434933E+03  0.7818608E-02  0.1003011E+00
         -2   -1    0    0    0  501 -0.00000000000E+00  0.00000000000E+00  0.36970376007E+02  0.36970376095E+02  0.25500000000E-02 0. -1.
          2   -1    0    0  501    0  0.00000000000E+00 -0.00000000000E+00 -0.19974437725E+04  0.19974437725E+04  0.25500000000E-02 0.  1.
    5000001    1    1    2    0    0  0.13956895776E+03 -0.11855205666E+03 -0.71639521021E+03  0.76295490124E+03  0.18800000000E+03 0.  0.
   -5000001    1    1    2    0    0 -0.13956895776E+03  0.11855205666E+03 -0.12440781862E+04  0.12714592473E+04  0.18800000000E+03 0.  0.
<mgrwt>
<rscale>  0 0.54349332E+03</rscale>
<asrwt>0</asrwt>
<pdfrwt beam="1">  1        2 0.28534904E+00 0.54349332E+03</pdfrwt>
<pdfrwt beam="2">  1       -2 0.52814836E-02 0.54349332E+03</pdfrwt>
<totfact> 0.15700822E+03</totfact>
</mgrwt>
</event>
<event>
 4    1  0.6346694E-005  0.6168612E+03  0.7818608E-02  0.9871029E-01
          2   -1    0    0  501    0  0.00000000000E+00  0.00000000000E+00  0.12019473944E+04  0.12019473944E+04  0.25500000000E-02 0.  1.
         -2   -1    0    0    0  501 -0.00000000000E+00 -0.00000000000E+00 -0.79146095282E+02  0.79146095323E+02  0.25500000000E-02 0. -1.
    5000001    1    1    2    0    0 -0.19549994234E+03 -0.67040357894E+02  0.83274473831E+03  0.87836349891E+03  0.18800000000E+03 0.  0.
   -5000001    1    1    2    0    0  0.19549994234E+03  0.67040357894E+02  0.29005656085E+03  0.40272999085E+03  0.18800000000E+03 0.  0.
<mgrwt>
<rscale>  0 0.61686123E+03</rscale>
<asrwt>0</asrwt>
<pdfrwt beam="1">  1        2 0.17170677E+00 0.61686123E+03</pdfrwt>
<pdfrwt beam="2">  1       -2 0.11306585E-01 0.61686123E+03</pdfrwt>
<totfact> 0.12063311E+03</totfact>
</mgrwt>
</event>
<event>
 4    1  0.6346694E-005  0.1883462E+04  0.7818608E-02  0.8663132E-01
          2   -1    0    0  501    0  0.00000000000E+00  0.00000000000E+00  0.82288889168E+03  0.82288889169E+03  0.25500000000E-02 0. -1.
         -2   -1    0    0    0  501 -0.00000000000E+00 -0.00000000000E+00 -0.10777363453E+04  0.10777363453E+04  0.25500000000E-02 0.  1.
    5000001    1    1    2    0    0 -0.79853777461E+03 -0.45478615361E+03 -0.21197413842E+03  0.96164965468E+03  0.18800000000E+03 0.  0.
   -5000001    1    1    2    0    0  0.79853777461E+03  0.45478615361E+03 -0.42873315179E+02  0.93897558229E+03  0.18800000000E+03 0.  0.
<mgrwt>
<rscale>  0 0.18834620E+04</rscale>
<asrwt>0</asrwt>
<pdfrwt beam="1">  1        2 0.11755556E+00 0.18834620E+04</pdfrwt>
<pdfrwt beam="2">  1       -2 0.15396233E+00 0.18834620E+04</pdfrwt>
<totfact> 0.96335579E+00</totfact>
</mgrwt>
</event>
<event>
 4    1  0.6346694E-005  0.4342496E+03  0.7818608E-02  0.1032526E+00
          2   -1    0    0  501    0  0.00000000000E+00  0.00000000000E+00  0.32989212063E+03  0.32989212064E+03  0.25500000000E-02 0.  1.
         -2   -1    0    0    0  501 -0.00000000000E+00 -0.00000000000E+00 -0.14290482219E+03  0.14290482221E+03  0.25500000000E-02 0. -1.
    5000001    1    1    2    0    0  0.42527898241E+02  0.91376421903E+02  0.49389788834E+02  0.21895575774E+03  0.18800000000E+03 0.  0.
   -5000001    1    1    2    0    0 -0.42527898241E+02 -0.91376421903E+02  0.13759750961E+03  0.25384118511E+03  0.18800000000E+03 0.  0.
<mgrwt>
<rscale>  0 0.43424958E+03</rscale>
<asrwt>0</asrwt>
<pdfrwt beam="1">  1        2 0.47127446E-01 0.43424958E+03</pdfrwt>
<pdfrwt beam="2">  1       -2 0.20414975E-01 0.43424958E+03</pdfrwt>
<totfact> 0.21855390E+03</totfact>
</mgrwt>
</event>
<event>
 4    1  0.6346694E-005  0.7504310E+03  0.7818608E-02  0.9634674E-01
         -2   -1    0    0    0  501 -0.00000000000E+00  0.00000000000E+00  0.69640602399E+02  0.69640602446E+02  0.25500000000E-02 0. -1.
          2   -1    0    0  501    0  0.00000000000E+00 -0.00000000000E+00 -0.20216174344E+04  0.20216174344E+04  0.25500000000E-02 0.  1.
    5000001    1    1    2    0    0  0.22788650972E+03  0.23104093552E+03 -0.94415595614E+03  0.10159166524E+04  0.18800000000E+03 0.  0.
   -5000001    1    1    2    0    0 -0.22788650972E+03 -0.23104093552E+03 -0.10078208759E+04  0.10753413844E+04  0.18800000000E+03 0.  0.
<mgrwt>
<rscale>  0 0.75043096E+03</rscale>
<asrwt>0</asrwt>
<pdfrwt beam="1">  1        2 0.28880245E+00 0.75043096E+03</pdfrwt>
<pdfrwt beam="2">  1       -2 0.99486588E-02 0.75043096E+03</pdfrwt>
<totfact> 0.55225498E+02</totfact>
</mgrwt>
</event>
<event>
 4    1  0.6346694E-005  0.7411214E+03  0.7818608E-02  0.9649383E-01
          2   -1    0    0  501    0  0.00000000000E+00  0.00000000000E+00  0.95774633192E+03  0.95774633192E+03  0.25500000000E-02 0.  1.
         -2   -1    0    0    0  501 -0.00000000000E+00 -0.00000000000E+00 -0.14337326175E+03  0.14337326177E+03  0.25500000000E-02 0. -1.
    5000001    1    1    2    0    0 -0.19950752207E+03  0.24931083420E+03  0.40202430632E+03  0.54674188269E+03  0.18800000000E+03 0.  0.
   -5000001    1    1    2    0    0  0.19950752207E+03 -0.24931083420E+03  0.41234876384E+03  0.55437771100E+03  0.18800000000E+03 0.  0.
<mgrwt>
<rscale>  0 0.74112135E+03</rscale>
<asrwt>0</asrwt>
<pdfrwt beam="1">  1        2 0.13682090E+00 0.74112135E+03</pdfrwt>
<pdfrwt beam="2">  1       -2 0.20481895E-01 0.74112135E+03</pdfrwt>
<totfact> 0.61297377E+02</totfact>
</mgrwt>
</event>
<event>
 4    1  0.6346694E-005  0.7094968E+03  0.7818608E-02  0.9701128E-01
         -2   -1    0    0    0  501 -0.00000000000E+00  0.00000000000E+00  0.58751034361E+02  0.58751034417E+02  0.25500000000E-02 0. -1.
          2   -1    0    0  501    0  0.00000000000E+00 -0.00000000000E+00 -0.21420290666E+04  0.21420290666E+04  0.25500000000E-02 0.  1.
    5000001    1    1    2    0    0  0.38033564587E+02  0.29842178070E+03 -0.10399060462E+04  0.10987496058E+04  0.18800000000E+03 0.  0.
   -5000001    1    1    2    0    0 -0.38033564587E+02 -0.29842178070E+03 -0.10433719860E+04  0.11020304953E+04  0.18800000000E+03 0.  0.
<mgrwt>
<rscale>  0 0.70949679E+03</rscale>
<asrwt>0</asrwt>
<pdfrwt beam="1">  1        2 0.30600410E+00 0.70949679E+03</pdfrwt>
<pdfrwt beam="2">  1       -2 0.83930063E-02 0.70949679E+03</pdfrwt>
<totfact> 0.63346588E+02</totfact>
</mgrwt>
</event>
<event>
 4    1  0.6346694E-005  0.4559170E+03  0.7818608E-02  0.1025972E+00
          2   -1    0    0  501    0  0.00000000000E+00  0.00000000000E+00  0.31176102045E+03  0.31176102046E+03  0.25500000000E-02 0.  1.
         -2   -1    0    0    0  501 -0.00000000000E+00 -0.00000000000E+00 -0.16668244349E+03  0.16668244351E+03  0.25500000000E-02 0. -1.
    5000001    1    1    2    0    0  0.12865921644E+03  0.66089411145E+01  0.67375108028E+02  0.23765579576E+03  0.18800000000E+03 0.  0.
   -5000001    1    1    2    0    0 -0.12865921644E+03 -0.66089411145E+01  0.77703468927E+02  0.24078766821E+03  0.18800000000E+03 0.  0.
<mgrwt>
<rscale>  0 0.45591705E+03</rscale>
<asrwt>0</asrwt>
<pdfrwt beam="1">  1        2 0.44537288E-01 0.45591705E+03</pdfrwt>
<pdfrwt beam="2">  1       -2 0.23811778E-01 0.45591705E+03</pdfrwt>
<totfact> 0.17760147E+03</totfact>
</mgrwt>
</event>
<event>
 4    1  0.6346694E-005  0.6014774E+03  0.7818608E-02  0.9902346E-01
          2   -1    0    0  501    0  0.00000000000E+00  0.00000000000E+00  0.93625351584E+03  0.93625351584E+03  0.25500000000E-02 0.  1.
         -2   -1    0    0    0  501 -0.00000000000E+00 -0.00000000000E+00 -0.96601777427E+02  0.96601777460E+02  0.25500000000E-02 0. -1.
    5000001    1    1    2    0    0 -0.14136058128E+03  0.18717835130E+03  0.40435158355E+03  0.50384794557E+03  0.18800000000E+03 0.  0.
   -5000001    1    1    2    0    0  0.14136058128E+03 -0.18717835130E+03  0.43530015486E+03  0.52900734773E+03  0.18800000000E+03 0.  0.
<mgrwt>
<rscale>  0 0.60147736E+03</rscale>
<asrwt>0</asrwt>
<pdfrwt beam="1">  1        2 0.13375050E+00 0.60147736E+03</pdfrwt>
<pdfrwt beam="2">  1       -2 0.13800254E-01 0.60147736E+03</pdfrwt>
<totfact> 0.12468108E+03</totfact>
</mgrwt>
</event>
<event>
 4    1  0.6346694E-005  0.6986318E+03  0.7818608E-02  0.9719575E-01
         -2   -1    0    0    0  501 -0.00000000000E+00  0.00000000000E+00  0.19929939486E+03  0.19929939488E+03  0.25500000000E-02 0. -1.
          2   -1    0    0  501    0  0.00000000000E+00 -0.00000000000E+00 -0.61225270367E+03  0.61225270368E+03  0.25500000000E-02 0.  1.
    5000001    1    1    2    0    0 -0.22024347282E+03  0.17427474636E+03 -0.10389263897E+03  0.35357680208E+03  0.18800000000E+03 0.  0.
   -5000001    1    1    2    0    0  0.22024347282E+03 -0.17427474636E+03 -0.30906066984E+03  0.45797529647E+03  0.18800000000E+03 0.  0.
<mgrwt>
<rscale>  0 0.69863179E+03</rscale>
<asrwt>0</asrwt>
<pdfrwt beam="1">  1        2 0.87464671E-01 0.69863179E+03</pdfrwt>
<pdfrwt beam="2">  1       -2 0.28471342E-01 0.69863179E+03</pdfrwt>
<totfact> 0.60086425E+02</totfact>
</mgrwt>
</event>
<event>
 4    1  0.6346694E-005  0.9956352E+03  0.7818608E-02  0.9313345E-01
         -2   -1    0    0    0  501 -0.00000000000E+00  0.00000000000E+00  0.98149911799E+03  0.98149911799E+03  0.25500000000E-02 0. -1.
          2   -1    0    0  501    0  0.00000000000E+00 -0.00000000000E+00 -0.25249369955E+03  0.25249369956E+03  0.25500000000E-02 0.  1.
    5000001    1    1    2    0    0  0.39063773582E+03 -0.18590887688E+03  0.16729201193E+03  0.50049032798E+03  0.18800000000E+03 0.  0.
   -5000001    1    1    2    0    0 -0.39063773582E+03  0.18590887688E+03  0.56171340651E+03  0.73350248957E+03  0.18800000000E+03 0.  0.
<mgrwt>
<rscale>  0 0.99563516E+03</rscale>
<asrwt>0</asrwt>
<pdfrwt beam="1">  1        2 0.36070529E-01 0.99563516E+03</pdfrwt>
<pdfrwt beam="2">  1       -2 0.14021416E+00 0.99563516E+03</pdfrwt>
<totfact> 0.51650735E+01</totfact>
</mgrwt>
</event>
<event>
 4    1  0.6346694E-005  0.1058520E+04  0.7818608E-02  0.9246592E-01
         -2   -1    0    0    0  501 -0.00000000000E+00  0.00000000000E+00  0.80716047363E+02  0.80716047403E+02  0.25500000000E-02 0. -1.
          2   -1    0    0  501    0  0.00000000000E+00 -0.00000000000E+00 -0.34703894869E+04  0.34703894869E+04  0.25500000000E-02 0.  1.
    5000001    1    1    2    0    0  0.35448064348E+03 -0.60963550984E+02 -0.28344713317E+04  0.28633799628E+04  0.18800000000E+03 0.  0.
   -5000001    1    1    2    0    0 -0.35448064348E+03  0.60963550984E+02 -0.55520210784E+03  0.68772557150E+03  0.18800000000E+03 0.  0.
<mgrwt>
<rscale>  0 0.10585200E+04</rscale>
<asrwt>0</asrwt>
<pdfrwt beam="1">  1        2 0.49576983E+00 0.10585200E+04</pdfrwt>
<pdfrwt beam="2">  1       -2 0.11530866E-01 0.10585200E+04</pdfrwt>
<totfact> 0.69909608E+01</totfact>
</mgrwt>
</event>
<event>
 4    1  0.6346694E-005  0.5153750E+03  0.7818608E-02  0.1009842E+00
          2   -1    0    0  501    0  0.00000000000E+00  0.00000000000E+00  0.89108454151E+03  0.89108454151E+03  0.25500000000E-02 0.  1.
         -2   -1    0    0    0  501 -0.00000000000E+00 -0.00000000000E+00 -0.74519137596E+02  0.74519137640E+02  0.25500000000E-02 0. -1.
    5000001    1    1    2    0    0  0.11659589528E+03 -0.56032972630E+02  0.18404113618E+03  0.29317134346E+03  0.18800000000E+03 0.  0.
   -5000001    1    1    2    0    0 -0.11659589528E+03  0.56032972630E+02  0.63252426772E+03  0.67243233569E+03  0.18800000000E+03 0.  0.
<mgrwt>
<rscale>  0 0.51537502E+03</rscale>
<asrwt>0</asrwt>
<pdfrwt beam="1">  1        2 0.12729779E+00 0.51537502E+03</pdfrwt>
<pdfrwt beam="2">  1       -2 0.10645592E-01 0.51537502E+03</pdfrwt>
<totfact> 0.20442646E+03</totfact>
</mgrwt>
</event>
<event>
 4    1  0.6346694E-005  0.5546327E+03  0.7818608E-02  0.1000427E+00
         -2   -1    0    0    0  501 -0.00000000000E+00  0.00000000000E+00  0.80877895650E+02  0.80877895690E+02  0.25500000000E-02 0. -1.
          2   -1    0    0  501    0  0.00000000000E+00 -0.00000000000E+00 -0.95086996610E+03  0.95086996610E+03  0.25500000000E-02 0.  1.
    5000001    1    1    2    0    0 -0.33218253000E+02 -0.17257089160E+03 -0.24278585591E+03  0.35379815826E+03  0.18800000000E+03 0.  0.
   -5000001    1    1    2    0    0  0.33218253000E+02  0.17257089160E+03 -0.62720621454E+03  0.67794970353E+03  0.18800000000E+03 0.  0.
<mgrwt>
<rscale>  0 0.55463271E+03</rscale>
<asrwt>0</asrwt>
<pdfrwt beam="1">  1        2 0.13583856E+00 0.55463271E+03</pdfrwt>
<pdfrwt beam="2">  1       -2 0.11553986E-01 0.55463271E+03</pdfrwt>
<totfact> 0.16386270E+03</totfact>
</mgrwt>
</event>
<event>
 4    1  0.6346694E-005  0.6555252E+03  0.7818608E-02  0.9796466E-01
         -2   -1    0    0    0  501 -0.00000000000E+00  0.00000000000E+00  0.45115101077E+03  0.45115101078E+03  0.25500000000E-02 0. -1.
          2   -1    0    0  501    0  0.00000000000E+00 -0.00000000000E+00 -0.23812054072E+03  0.23812054073E+03  0.25500000000E-02 0.  1.
    5000001    1    1    2    0    0  0.19746730526E+03 -0.63011051921E+02  0.28594771959E+03  0.40009227392E+03  0.18800000000E+03 0.  0.
   -5000001    1    1    2    0    0 -0.19746730526E+03  0.63011051921E+02 -0.72917249533E+02  0.28917927759E+03  0.18800000000E+03 0.  0.
<mgrwt>
<rscale>  0 0.65552520E+03</rscale>
<asrwt>0</asrwt>
<pdfrwt beam="1">  1        2 0.34017220E-01 0.65552520E+03</pdfrwt>
<pdfrwt beam="2">  1       -2 0.64450145E-01 0.65552520E+03</pdfrwt>
<totfact> 0.34656943E+02</totfact>
</mgrwt>
</event>
<event>
 4    1  0.6346694E-005  0.8812039E+03  0.7818608E-02  0.9449387E-01
          2   -1    0    0  501    0  0.00000000000E+00  0.00000000000E+00  0.42890425956E+03  0.42890425956E+03  0.25500000000E-02 0.  1.
         -2   -1    0    0    0  501 -0.00000000000E+00 -0.00000000000E+00 -0.45261869776E+03  0.45261869777E+03  0.25500000000E-02 0. -1.
    5000001    1    1    2    0    0 -0.38683137044E+03 -0.20027237193E+02 -0.10541373923E+03  0.44327830514E+03  0.18800000000E+03 0.  0.
   -5000001    1    1    2    0    0  0.38683137044E+03  0.20027237193E+02  0.81699301023E+02  0.43824465219E+03  0.18800000000E+03 0.  0.
<mgrwt>
<rscale>  0 0.88120392E+03</rscale>
<asrwt>0</asrwt>
<pdfrwt beam="1">  1        2 0.61272037E-01 0.88120392E+03</pdfrwt>
<pdfrwt beam="2">  1       -2 0.64659814E-01 0.88120392E+03</pdfrwt>
<totfact> 0.17732098E+02</totfact>
</mgrwt>
</event>
<event>
 4    1  0.6346694E-005  0.5177919E+03  0.7818608E-02  0.1009237E+00
         -2   -1    0    0    0  501 -0.00000000000E+00  0.00000000000E+00  0.76767750885E+02  0.76767750928E+02  0.25500000000E-02 0. -1.
          2   -1    0    0  501    0  0.00000000000E+00 -0.00000000000E+00 -0.87311549730E+03  0.87311549730E+03  0.25500000000E-02 0.  1.
    5000001    1    1    2    0    0  0.30379107198E+02  0.11991027099E+03 -0.63297226609E+03  0.67178810118E+03  0.18800000000E+03 0.  0.
   -5000001    1    1    2    0    0 -0.30379107198E+02 -0.11991027099E+03 -0.16337548032E+03  0.27809514705E+03  0.18800000000E+03 0.  0.
<mgrwt>
<rscale>  0 0.51779190E+03</rscale>
<asrwt>0</asrwt>
<pdfrwt beam="1">  1        2 0.12473078E+00 0.51779190E+03</pdfrwt>
<pdfrwt beam="2">  1       -2 0.10966822E-01 0.51779190E+03</pdfrwt>
<totfact> 0.20008626E+03</totfact>
</mgrwt>
</event>
<event>
 4    1  0.6346694E-005  0.1116189E+04  0.7818608E-02  0.9189555E-01
         -2   -1    0    0    0  501 -0.00000000000E+00  0.00000000000E+00  0.23096975453E+03  0.23096975455E+03  0.25500000000E-02 0. -1.
          2   -1    0    0  501    0  0.00000000000E+00 -0.00000000000E+00 -0.13485282338E+04  0.13485282338E+04  0.25500000000E-02 0.  1.
    5000001    1    1    2    0    0  0.95217001606E+02 -0.50831250388E+03 -0.42696108876E+03  0.69648234027E+03  0.18800000000E+03 0.  0.
   -5000001    1    1    2    0    0 -0.95217001606E+02  0.50831250388E+03 -0.69059739055E+03  0.88301564812E+03  0.18800000000E+03 0.  0.
<mgrwt>
<rscale>  0 0.11161886E+04</rscale>
<asrwt>0</asrwt>
<pdfrwt beam="1">  1        2 0.19264689E+00 0.11161886E+04</pdfrwt>
<pdfrwt beam="2">  1       -2 0.32995680E-01 0.11161886E+04</pdfrwt>
<totfact> 0.14983271E+02</totfact>
</mgrwt>
</event>
<event>
 4    1  0.6346694E-005  0.6099069E+03  0.7818608E-02  0.9885063E-01
          2   -1    0    0  501    0  0.00000000000E+00  0.00000000000E+00  0.29779187674E+03  0.29779187675E+03  0.25500000000E-02 0.  1.
         -2   -1    0    0    0  501 -0.00000000000E+00 -0.00000000000E+00 -0.31228724048E+03  0.31228724049E+03  0.25500000000E-02 0. -1.
    5000001    1    1    2    0    0  0.87244407079E+02  0.18161075648E+03 -0.13789294766E+03  0.30814366528E+03  0.18800000000E+03 0.  0.
   -5000001    1    1    2    0    0 -0.87244407079E+02 -0.18161075648E+03  0.12339758393E+03  0.30193545197E+03  0.18800000000E+03 0.  0.
<mgrwt>
<rscale>  0 0.60990689E+03</rscale>
<asrwt>0</asrwt>
<pdfrwt beam="1">  1        2 0.42541697E-01 0.60990689E+03</pdfrwt>
<pdfrwt beam="2">  1       -2 0.44612462E-01 0.60990689E+03</pdfrwt>
<totfact> 0.57696008E+02</totfact>
</mgrwt>
</event>
<event>
 4    1  0.6346694E-005  0.6957295E+03  0.7818608E-02  0.9724563E-01
          2   -1    0    0  501    0  0.00000000000E+00  0.00000000000E+00  0.12726447320E+04  0.12726447320E+04  0.25500000000E-02 0.  1.
         -2   -1    0    0    0  501 -0.00000000000E+00 -0.00000000000E+00 -0.95085364488E+02  0.95085364522E+02  0.25500000000E-02 0. -1.
    5000001    1    1    2    0    0  0.25666348011E+03 -0.13240800604E+03  0.49536630656E+03  0.60343997196E+03  0.18800000000E+03 0.  0.
   -5000001    1    1    2    0    0 -0.25666348011E+03  0.13240800604E+03  0.68219306093E+03  0.76429012454E+03  0.18800000000E+03 0.  0.
<mgrwt>
<rscale>  0 0.69572951E+03</rscale>
<asrwt>0</asrwt>
<pdfrwt beam="1">  1        2 0.18180638E+00 0.69572951E+03</pdfrwt>
<pdfrwt beam="2">  1       -2 0.13583624E-01 0.69572951E+03</pdfrwt>
<totfact> 0.81133217E+02</totfact>
</mgrwt>
</event>
<event>
 4    1  0.6346694E-005  0.5245639E+03  0.7818608E-02  0.1007559E+00
          2   -1    0    0  501    0  0.00000000000E+00  0.00000000000E+00  0.20591995148E+03  0.20591995150E+03  0.25500000000E-02 0.  1.
         -2   -1    0    0    0  501 -0.00000000000E+00 -0.00000000000E+00 -0.33407070158E+03  0.33407070159E+03  0.25500000000E-02 0. -1.
    5000001    1    1    2    0    0 -0.13648252097E+03 -0.12172154186E+03 -0.61963108577E+02  0.26949404280E+03  0.18800000000E+03 0.  0.
   -5000001    1    1    2    0    0  0.13648252097E+03  0.12172154186E+03 -0.66187641522E+02  0.27049661028E+03  0.18800000000E+03 0.  0.
<mgrwt>
<rscale>  0 0.52456391E+03</rscale>
<asrwt>0</asrwt>
<pdfrwt beam="1">  1        2 0.29417136E-01 0.52456391E+03</pdfrwt>
<pdfrwt beam="2">  1       -2 0.47724385E-01 0.52456391E+03</pdfrwt>
<totfact> 0.76071242E+02</totfact>
</mgrwt>
</event>
<event>
 4    1  0.6346694E-005  0.6390110E+03  0.7818608E-02  0.9827620E-01
          2   -1    0    0  501    0  0.00000000000E+00  0.00000000000E+00  0.19701109938E+04  0.19701109938E+04  0.25500000000E-02 0. -1.
         -2   -1    0    0    0  501 -0.00000000000E+00 -0.00000000000E+00 -0.51816256818E+02  0.51816256881E+02  0.25500000000E-02 0.  1.
    5000001    1    1    2    0    0 -0.24369353832E+03 -0.42815904913E+02  0.72406065859E+03  0.78792612575E+03  0.18800000000E+03 0.  0.
   -5000001    1    1    2    0    0  0.24369353832E+03  0.42815904913E+02  0.11942340784E+04  0.12340011250E+04  0.18800000000E+03 0.  0.
<mgrwt>
<rscale>  0 0.63901104E+03</rscale>
<asrwt>0</asrwt>
<pdfrwt beam="1">  1        2 0.28144444E+00 0.63901104E+03</pdfrwt>
<pdfrwt beam="2">  1       -2 0.74023220E-02 0.63901104E+03</pdfrwt>
<totfact> 0.94922769E+02</totfact>
</mgrwt>
</event>
<event>
 4    1  0.6346694E-005  0.5728217E+03  0.7818608E-02  0.9963454E-01
         -2   -1    0    0    0  501 -0.00000000000E+00  0.00000000000E+00  0.33722976228E+02  0.33722976324E+02  0.25500000000E-02 0. -1.
          2   -1    0    0  501    0  0.00000000000E+00 -0.00000000000E+00 -0.24325012600E+04  0.24325012600E+04  0.25500000000E-02 0.  1.
    5000001    1    1    2    0    0  0.22948553367E+02  0.21296870637E+03 -0.10772435923E+04  0.11143069879E+04  0.18800000000E+03 0.  0.
   -5000001    1    1    2    0    0 -0.22948553367E+02 -0.21296870637E+03 -0.13215346914E+04  0.13519172485E+04  0.18800000000E+03 0.  0.
<mgrwt>
<rscale>  0 0.57282173E+03</rscale>
<asrwt>0</asrwt>
<pdfrwt beam="1">  1        2 0.34750007E+00 0.57282173E+03</pdfrwt>
<pdfrwt beam="2">  1       -2 0.48175696E-02 0.57282173E+03</pdfrwt>
<totfact> 0.10913436E+03</totfact>
</mgrwt>
</event>
<event>
 4    1  0.6346694E-005  0.5470095E+03  0.7818608E-02  0.1002188E+00
          2   -1    0    0  501    0  0.00000000000E+00  0.00000000000E+00  0.57059420893E+03  0.57059420893E+03  0.25500000000E-02 0.  1.
         -2   -1    0    0    0  501 -0.00000000000E+00 -0.00000000000E+00 -0.13109990175E+03  0.13109990178E+03  0.25500000000E-02 0. -1.
    5000001    1    1    2    0    0  0.14041743049E+03 -0.12215160276E+03  0.13066278340E+03  0.29505055805E+03  0.18800000000E+03 0.  0.
   -5000001    1    1    2    0    0 -0.14041743049E+03  0.12215160276E+03  0.30883152377E+03  0.40664355266E+03  0.18800000000E+03 0.  0.
<mgrwt>
<rscale>  0 0.54700949E+03</rscale>
<asrwt>0</asrwt>
<pdfrwt beam="1">  1        2 0.81513457E-01 0.54700949E+03</pdfrwt>
<pdfrwt beam="2">  1       -2 0.18728558E-01 0.54700949E+03</pdfrwt>
<totfact> 0.13775635E+03</totfact>
</mgrwt>
</event>
<event>
 4    1  0.6346694E-005  0.6831014E+03  0.7818608E-02  0.9746576E-01
         -2   -1    0    0    0  501 -0.00000000000E+00  0.00000000000E+00  0.25816348364E+03  0.25816348366E+03  0.25500000000E-02 0. -1.
          2   -1    0    0  501    0  0.00000000000E+00 -0.00000000000E+00 -0.45187213507E+03  0.45187213507E+03  0.25500000000E-02 0.  1.
    5000001    1    1    2    0    0  0.19562222677E+03 -0.12130389307E+03  0.78098004299E+02  0.30728811945E+03  0.18800000000E+03 0.  0.
   -5000001    1    1    2    0    0 -0.19562222677E+03  0.12130389307E+03 -0.27180665572E+03  0.40274749928E+03  0.18800000000E+03 0.  0.
<mgrwt>
<rscale>  0 0.68310141E+03</rscale>
<asrwt>0</asrwt>
<pdfrwt beam="1">  1        2 0.64553162E-01 0.68310141E+03</pdfrwt>
<pdfrwt beam="2">  1       -2 0.36880498E-01 0.68310141E+03</pdfrwt>
<totfact> 0.52519356E+02</totfact>
</mgrwt>
</event>
<event>
 4    1  0.6346694E-005  0.5079531E+03  0.7818608E-02  0.1011724E+00
          2   -1    0    0  501    0  0.00000000000E+00  0.00000000000E+00  0.17573208557E+04  0.17573208557E+04  0.25500000000E-02 0.  1.
         -2   -1    0    0    0  501 -0.00000000000E+00 -0.00000000000E+00 -0.36705919518E+02  0.36705919607E+02  0.25500000000E-02 0. -1.
    5000001    1    1    2    0    0  0.76209395506E+01  0.16893360253E+03  0.77647194191E+03  0.81660842352E+03  0.18800000000E+03 0.  0.
   -5000001    1    1    2    0    0 -0.76209395506E+01 -0.16893360253E+03  0.94414299422E+03  0.97741835174E+03  0.18800000000E+03 0.  0.
<mgrwt>
<rscale>  0 0.50795306E+03</rscale>
<asrwt>0</asrwt>
<pdfrwt beam="1">  1        2 0.25104591E+00 0.50795306E+03</pdfrwt>
<pdfrwt beam="2">  1       -2 0.52437013E-02 0.50795306E+03</pdfrwt>
<totfact> 0.20976799E+03</totfact>
</mgrwt>
</event>
<event>
 4    1  0.6346694E-005  0.6134529E+03  0.7818608E-02  0.9877882E-01
         -2   -1    0    0    0  501 -0.00000000000E+00  0.00000000000E+00  0.39663468643E+02  0.39663468725E+02  0.25500000000E-02 0. -1.
          2   -1    0    0  501    0  0.00000000000E+00 -0.00000000000E+00 -0.23719836787E+04  0.23719836787E+04  0.25500000000E-02 0.  1.
    5000001    1    1    2    0    0 -0.20722038768E+03  0.11633018009E+03 -0.13532198877E+04  0.13867303502E+04  0.18800000000E+03 0.  0.
   -5000001    1    1    2    0    0  0.20722038768E+03 -0.11633018009E+03 -0.97910032240E+03  0.10249167972E+04  0.18800000000E+03 0.  0.
<mgrwt>
<rscale>  0 0.61345285E+03</rscale>
<asrwt>0</asrwt>
<pdfrwt beam="1">  1        2 0.33885472E+00 0.61345285E+03</pdfrwt>
<pdfrwt beam="2">  1       -2 0.56662113E-02 0.61345285E+03</pdfrwt>
<totfact> 0.90784433E+02</totfact>
</mgrwt>
</event>
<event>
 4    1  0.6346694E-005  0.7744829E+03  0.7818608E-02  0.9597705E-01
         -2   -1    0    0    0  501 -0.00000000000E+00  0.00000000000E+00  0.88366262181E+02  0.88366262218E+02  0.25500000000E-02 0. -1.
          2   -1    0    0  501    0  0.00000000000E+00 -0.00000000000E+00 -0.16969819688E+04  0.16969819688E+04  0.25500000000E-02 0.  1.
    5000001    1    1    2    0    0 -0.17928239934E+03  0.21961447879E+03 -0.37775461591E+03  0.50834559883E+03  0.18800000000E+03 0.  0.
   -5000001    1    1    2    0    0  0.17928239934E+03 -0.21961447879E+03 -0.12308610907E+04  0.12770026322E+04  0.18800000000E+03 0.  0.
<mgrwt>
<rscale>  0 0.77448293E+03</rscale>
<asrwt>0</asrwt>
<pdfrwt beam="1">  1        2 0.24242598E+00 0.77448293E+03</pdfrwt>
<pdfrwt beam="2">  1       -2 0.12623753E-01 0.77448293E+03</pdfrwt>
<totfact> 0.54513031E+02</totfact>
</mgrwt>
</event>
<event>
 4    1  0.6346694E-005  0.5430184E+03  0.7818608E-02  0.1003123E+00
         -2   -1    0    0    0  501 -0.00000000000E+00  0.00000000000E+00  0.13473608864E+03  0.13473608867E+03  0.25500000000E-02 0. -1.
          2   -1    0    0  501    0  0.00000000000E+00 -0.00000000000E+00 -0.54712314386E+03  0.54712314387E+03  0.25500000000E-02 0.  1.
    5000001    1    1    2    0    0 -0.14647790342E+03  0.26805175033E+02 -0.36601072162E+03  0.43758672505E+03  0.18800000000E+03 0.  0.
   -5000001    1    1    2    0    0  0.14647790342E+03 -0.26805175033E+02 -0.46376333604E+02  0.24427250749E+03  0.18800000000E+03 0.  0.
<mgrwt>
<rscale>  0 0.54301835E+03</rscale>
<asrwt>0</asrwt>
<pdfrwt beam="1">  1        2 0.78160448E-01 0.54301835E+03</pdfrwt>
<pdfrwt beam="2">  1       -2 0.19248013E-01 0.54301835E+03</pdfrwt>
<totfact> 0.13793961E+03</totfact>
</mgrwt>
</event>
<event>
 4    1  0.6346694E-005  0.6788033E+03  0.7818608E-02  0.9754184E-01
          2   -1    0    0  501    0  0.00000000000E+00  0.00000000000E+00  0.54151982424E+03  0.54151982424E+03  0.25500000000E-02 0.  1.
         -2   -1    0    0    0  501 -0.00000000000E+00 -0.00000000000E+00 -0.21272257973E+03  0.21272257974E+03  0.25500000000E-02 0. -1.
    5000001    1    1    2    0    0  0.22077519475E+03 -0.10475845354E+03  0.67368766868E+01  0.30839164339E+03  0.18800000000E+03 0.  0.
   -5000001    1    1    2    0    0 -0.22077519475E+03  0.10475845354E+03  0.32206036782E+03  0.44585076060E+03  0.18800000000E+03 0.  0.
<mgrwt>
<rscale>  0 0.67880334E+03</rscale>
<asrwt>0</asrwt>
<pdfrwt beam="1">  1        2 0.77359973E-01 0.67880334E+03</pdfrwt>
<pdfrwt beam="2">  1       -2 0.30388941E-01 0.67880334E+03</pdfrwt>
<totfact> 0.61546354E+02</totfact>
</mgrwt>
</event>
<event>
 4    1  0.6346694E-005  0.4856283E+03  0.7818608E-02  0.1017600E+00
         -2   -1    0    0    0  501 -0.00000000000E+00  0.00000000000E+00  0.80821210749E+02  0.80821210790E+02  0.25500000000E-02 0. -1.
          2   -1    0    0  501    0  0.00000000000E+00 -0.00000000000E+00 -0.72949539108E+03  0.72949539109E+03  0.25500000000E-02 0.  1.
    5000001    1    1    2    0    0  0.57879848020E+02  0.13666084174E+03 -0.25783489785E+03  0.35192200417E+03  0.18800000000E+03 0.  0.
   -5000001    1    1    2    0    0 -0.57879848020E+02 -0.13666084174E+03 -0.39083928248E+03  0.45839459770E+03  0.18800000000E+03 0.  0.
<mgrwt>
<rscale>  0 0.48562826E+03</rscale>
<asrwt>0</asrwt>
<pdfrwt beam="1">  1        2 0.10421362E+00 0.48562826E+03</pdfrwt>
<pdfrwt beam="2">  1       -2 0.11545888E-01 0.48562826E+03</pdfrwt>
<totfact> 0.23111378E+03</totfact>
</mgrwt>
</event>
<event>
 4    1  0.6346694E-005  0.6421348E+03  0.7818608E-02  0.9821651E-01
         -2   -1    0    0    0  501 -0.00000000000E+00  0.00000000000E+00  0.15682236804E+03  0.15682236806E+03  0.25500000000E-02 0.  1.
          2   -1    0    0  501    0  0.00000000000E+00 -0.00000000000E+00 -0.65733150458E+03  0.65733150459E+03  0.25500000000E-02 0. -1.
    5000001    1    1    2    0    0  0.67508254424E+02  0.22023488740E+03 -0.96638694597E+02  0.31264006035E+03  0.18800000000E+03 0.  0.
   -5000001    1    1    2    0    0 -0.67508254424E+02 -0.22023488740E+03 -0.40387044194E+03  0.50151381229E+03  0.18800000000E+03 0.  0.
<mgrwt>
<rscale>  0 0.64213482E+03</rscale>
<asrwt>0</asrwt>
<pdfrwt beam="1">  1        2 0.93904499E-01 0.64213482E+03</pdfrwt>
<pdfrwt beam="2">  1       -2 0.22403196E-01 0.64213482E+03</pdfrwt>
<totfact> 0.85124777E+02</totfact>
</mgrwt>
</event>
<event>
 4    1  0.6346694E-005  0.5594313E+03  0.7818608E-02  0.9993342E-01
         -2   -1    0    0    0  501 -0.00000000000E+00  0.00000000000E+00  0.62052281300E+02  0.62052281352E+02  0.25500000000E-02 0.  1.
          2   -1    0    0  501    0  0.00000000000E+00 -0.00000000000E+00 -0.12608857322E+04  0.12608857322E+04  0.25500000000E-02 0. -1.
    5000001    1    1    2    0    0  0.15092159450E+03  0.34183209876E+02 -0.27387323541E+03  0.36646468943E+03  0.18800000000E+03 0.  0.
   -5000001    1    1    2    0    0 -0.15092159450E+03 -0.34183209876E+02 -0.92496021553E+03  0.95647332416E+03  0.18800000000E+03 0.  0.
<mgrwt>
<rscale>  0 0.55943127E+03</rscale>
<asrwt>0</asrwt>
<pdfrwt beam="1">  1        2 0.18012652E+00 0.55943127E+03</pdfrwt>
<pdfrwt beam="2">  1       -2 0.88646124E-02 0.55943127E+03</pdfrwt>
<totfact> 0.16621537E+03</totfact>
</mgrwt>
</event>
<event>
 4    1  0.6346694E-005  0.5569279E+03  0.7818608E-02  0.9999030E-01
          2   -1    0    0  501    0  0.00000000000E+00  0.00000000000E+00  0.13494024073E+04  0.13494024073E+04  0.25500000000E-02 0. -1.
         -2   -1    0    0    0  501 -0.00000000000E+00 -0.00000000000E+00 -0.57464080831E+02  0.57464080888E+02  0.25500000000E-02 0.  1.
    5000001    1    1    2    0    0 -0.48510913135E+02 -0.11692427788E+03  0.10546510861E+04  0.10787295809E+04  0.18800000000E+03 0.  0.
   -5000001    1    1    2    0    0  0.48510913135E+02  0.11692427788E+03  0.23728724045E+03  0.32813690730E+03  0.18800000000E+03 0.  0.
<mgrwt>
<rscale>  0 0.55692789E+03</rscale>
<asrwt>0</asrwt>
<pdfrwt beam="1">  1        2 0.19277174E+00 0.55692789E+03</pdfrwt>
<pdfrwt beam="2">  1       -2 0.82091557E-02 0.55692789E+03</pdfrwt>
<totfact> 0.16829232E+03</totfact>
</mgrwt>
</event>
<event>
 4    1  0.6346694E-005  0.1149311E+04  0.7818608E-02  0.9158420E-01
          2   -1    0    0  501    0  0.00000000000E+00  0.00000000000E+00  0.43625004147E+03  0.43625004147E+03  0.25500000000E-02 0.  1.
         -2   -1    0    0    0  501 -0.00000000000E+00 -0.00000000000E+00 -0.75697145695E+03  0.75697145695E+03  0.25500000000E-02 0. -1.
    5000001    1    1    2    0    0 -0.42542899644E+03 -0.30755021638E+03 -0.16099127783E+02  0.55783523420E+03  0.18800000000E+03 0.  0.
   -5000001    1    1    2    0    0  0.42542899644E+03  0.30755021638E+03 -0.30462228770E+03  0.63538626423E+03  0.18800000000E+03 0.  0.
<mgrwt>
<rscale>  0 0.11493108E+04</rscale>
<asrwt>0</asrwt>
<pdfrwt beam="1">  1        2 0.62321435E-01 0.11493108E+04</pdfrwt>
<pdfrwt beam="2">  1       -2 0.10813878E+00 0.11493108E+04</pdfrwt>
<totfact> 0.53209220E+01</totfact>
</mgrwt>
</event>
<event>
 4    1  0.6346694E-005  0.1021033E+04  0.7818608E-02  0.9285772E-01
          2   -1    0    0  501    0  0.00000000000E+00  0.00000000000E+00  0.92883782218E+03  0.92883782218E+03  0.25500000000E-02 0.  1.
         -2   -1    0    0    0  501 -0.00000000000E+00 -0.00000000000E+00 -0.28059481044E+03  0.28059481045E+03  0.25500000000E-02 0. -1.
    5000001    1    1    2    0    0 -0.25623312465E+02  0.33281282053E+03 -0.75576152798E+02  0.39048262768E+03  0.18800000000E+03 0.  0.
   -5000001    1    1    2    0    0  0.25623312465E+02 -0.33281282053E+03  0.72381916454E+03  0.81895000495E+03  0.18800000000E+03 0.  0.
<mgrwt>
<rscale>  0 0.10210330E+04</rscale>
<asrwt>0</asrwt>
<pdfrwt beam="1">  1        2 0.13269112E+00 0.10210330E+04</pdfrwt>
<pdfrwt beam="2">  1       -2 0.40084972E-01 0.10210330E+04</pdfrwt>
<totfact> 0.18266877E+02</totfact>
</mgrwt>
</event>
<event>
 4    1  0.6346694E-005  0.9307862E+03  0.7818608E-02  0.9387895E-01
         -2   -1    0    0    0  501 -0.00000000000E+00  0.00000000000E+00  0.32257872323E+03  0.32257872324E+03  0.25500000000E-02 0. -1.
          2   -1    0    0  501    0  0.00000000000E+00 -0.00000000000E+00 -0.67143525924E+03  0.67143525925E+03  0.25500000000E-02 0.  1.
    5000001    1    1    2    0    0 -0.33920563308E+03 -0.24869149650E+03 -0.24477237469E+03  0.52169477413E+03  0.18800000000E+03 0.  0.
   -5000001    1    1    2    0    0  0.33920563308E+03  0.24869149650E+03 -0.10408416133E+03  0.47231920836E+03  0.18800000000E+03 0.  0.
<mgrwt>
<rscale>  0 0.93078618E+03</rscale>
<asrwt>0</asrwt>
<pdfrwt beam="1">  1        2 0.95919323E-01 0.93078618E+03</pdfrwt>
<pdfrwt beam="2">  1       -2 0.46082675E-01 0.93078618E+03</pdfrwt>
<totfact> 0.21174236E+02</totfact>
</mgrwt>
</event>
<event>
 4    1  0.6346694E-005  0.7108501E+03  0.7818608E-02  0.9698855E-01
          2   -1    0    0  501    0  0.00000000000E+00  0.00000000000E+00  0.16759314531E+04  0.16759314531E+04  0.25500000000E-02 0.  1.
         -2   -1    0    0    0  501 -0.00000000000E+00 -0.00000000000E+00 -0.75377167092E+02  0.75377167135E+02  0.25500000000E-02 0. -1.
    5000001    1    1    2    0    0  0.25369079568E+03  0.70492261340E+02  0.11628218852E+04  0.12069908514E+04  0.18800000000E+03 0.  0.
   -5000001    1    1    2    0    0 -0.25369079568E+03 -0.70492261340E+02  0.43773240078E+03  0.54431776878E+03  0.18800000000E+03 0.  0.
<mgrwt>
<rscale>  0 0.71085010E+03</rscale>
<asrwt>0</asrwt>
<pdfrwt beam="1">  1        2 0.23941876E+00 0.71085010E+03</pdfrwt>
<pdfrwt beam="2">  1       -2 0.10768168E-01 0.71085010E+03</pdfrwt>
<totfact> 0.72881522E+02</totfact>
</mgrwt>
</event>
<event>
 4    1  0.6346694E-005  0.4177554E+03  0.7818608E-02  0.1037799E+00
         -2   -1    0    0    0  501 -0.00000000000E+00  0.00000000000E+00  0.59851840479E+02  0.59851840533E+02  0.25500000000E-02 0. -1.
          2   -1    0    0  501    0  0.00000000000E+00 -0.00000000000E+00 -0.72896479414E+03  0.72896479414E+03  0.25500000000E-02 0.  1.
    5000001    1    1    2    0    0  0.73724512082E+02  0.39542358451E+02 -0.40229573006E+03  0.45186807391E+03  0.18800000000E+03 0.  0.
   -5000001    1    1    2    0    0 -0.73724512082E+02 -0.39542358451E+02 -0.26681722360E+03  0.33694856077E+03  0.18800000000E+03 0.  0.
<mgrwt>
<rscale>  0 0.41775536E+03</rscale>
<asrwt>0</asrwt>
<pdfrwt beam="1">  1        2 0.10413782E+00 0.41775536E+03</pdfrwt>
<pdfrwt beam="2">  1       -2 0.85502634E-02 0.41775536E+03</pdfrwt>
<totfact> 0.37460439E+03</totfact>
</mgrwt>
</event>
<event>
 4    1  0.6346694E-005  0.5318831E+03  0.7818608E-02  0.1005776E+00
          2   -1    0    0  501    0  0.00000000000E+00  0.00000000000E+00  0.23622854204E+04  0.23622854204E+04  0.25500000000E-02 0.  1.
         -2   -1    0    0    0  501 -0.00000000000E+00 -0.00000000000E+00 -0.29939192452E+02  0.29939192560E+02  0.25500000000E-02 0. -1.
    5000001    1    1    2    0    0 -0.71840146100E+02  0.16745782427E+03  0.95628222915E+03  0.99147507851E+03  0.18800000000E+03 0.  0.
   -5000001    1    1    2    0    0  0.71840146100E+02 -0.16745782427E+03  0.13760639988E+04  0.14007495344E+04  0.18800000000E+03 0.  0.
<mgrwt>
<rscale>  0 0.53188314E+03</rscale>
<asrwt>0</asrwt>
<pdfrwt beam="1">  1        2 0.33746943E+00 0.53188314E+03</pdfrwt>
<pdfrwt beam="2">  1       -2 0.42770265E-02 0.53188314E+03</pdfrwt>
<totfact> 0.14271817E+03</totfact>
</mgrwt>
</event>
<event>
 4    1  0.6346694E-005  0.5981193E+03  0.7818608E-02  0.9909316E-01
          2   -1    0    0  501    0  0.00000000000E+00  0.00000000000E+00  0.58554481280E+03  0.58554481280E+03  0.25500000000E-02 0.  1.
         -2   -1    0    0    0  501 -0.00000000000E+00 -0.00000000000E+00 -0.15274096505E+03  0.15274096507E+03  0.25500000000E-02 0. -1.
    5000001    1    1    2    0    0  0.22776535549E+03  0.46433991237E+02  0.22592376752E+03  0.37472486097E+03  0.18800000000E+03 0.  0.
   -5000001    1    1    2    0    0 -0.22776535549E+03 -0.46433991237E+02  0.20688008023E+03  0.36356091690E+03  0.18800000000E+03 0.  0.
<mgrwt>
<rscale>  0 0.59811932E+03</rscale>
<asrwt>0</asrwt>
<pdfrwt beam="1">  1        2 0.83649258E-01 0.59811932E+03</pdfrwt>
<pdfrwt beam="2">  1       -2 0.21820138E-01 0.59811932E+03</pdfrwt>
<totfact> 0.10238290E+03</totfact>
</mgrwt>
</event>
<event>
 4    1  0.6346694E-005  0.7814884E+03  0.7818608E-02  0.9587205E-01
          2   -1    0    0  501    0  0.00000000000E+00  0.00000000000E+00  0.20353146554E+04  0.20353146554E+04  0.25500000000E-02 0.  1.
         -2   -1    0    0    0  501 -0.00000000000E+00 -0.00000000000E+00 -0.75015932166E+02  0.75015932210E+02  0.25500000000E-02 0. -1.
    5000001    1    1    2    0    0 -0.25909530772E+03 -0.16067617922E+03  0.14018771315E+04  0.14469107453E+04  0.18800000000E+03 0.  0.
   -5000001    1    1    2    0    0  0.25909530772E+03  0.16067617922E+03  0.55842159172E+03  0.66341984229E+03  0.18800000000E+03 0.  0.
<mgrwt>
<rscale>  0 0.78148839E+03</rscale>
<asrwt>0</asrwt>
<pdfrwt beam="1">  1        2 0.29075922E+00 0.78148839E+03</pdfrwt>
<pdfrwt beam="2">  1       -2 0.10716563E-01 0.78148839E+03</pdfrwt>
<totfact> 0.48041492E+02</totfact>
</mgrwt>
</event>
<event>
 4    1  0.6346694E-005  0.4694044E+03  0.7818608E-02  0.1022088E+00
          2   -1    0    0  501    0  0.00000000000E+00  0.00000000000E+00  0.11755814866E+03  0.11755814869E+03  0.25500000000E-02 0.  1.
         -2   -1    0    0    0  501 -0.00000000000E+00 -0.00000000000E+00 -0.46857770991E+03  0.46857770991E+03  0.25500000000E-02 0. -1.
    5000001    1    1    2    0    0 -0.60734172555E+02 -0.12330318391E+03 -0.21188931859E+03  0.31485456676E+03  0.18800000000E+03 0.  0.
   -5000001    1    1    2    0    0  0.60734172555E+02  0.12330318391E+03 -0.13913024266E+03  0.27128129184E+03  0.18800000000E+03 0.  0.
<mgrwt>
<rscale>  0 0.46940442E+03</rscale>
<asrwt>0</asrwt>
<pdfrwt beam="1">  1        2 0.16794021E-01 0.46940442E+03</pdfrwt>
<pdfrwt beam="2">  1       -2 0.66939672E-01 0.46940442E+03</pdfrwt>
<totfact> 0.72049785E+02</totfact>
</mgrwt>
</event>
<event>
 4    1  0.6346694E-005  0.4214474E+03  0.7818608E-02  0.1036596E+00
          2   -1    0    0  501    0  0.00000000000E+00  0.00000000000E+00  0.19300350193E+02  0.19300350361E+02  0.25500000000E-02 0.  1.
         -2   -1    0    0    0  501 -0.00000000000E+00 -0.00000000000E+00 -0.23007086533E+04  0.23007086533E+04  0.25500000000E-02 0. -1.
    5000001    1    1    2    0    0 -0.21975816422E+02 -0.91829615921E+02 -0.10744470334E+04  0.10948497807E+04  0.18800000000E+03 0.  0.
   -5000001    1    1    2    0    0  0.21975816422E+02  0.91829615921E+02 -0.12069612697E+04  0.12251592229E+04  0.18800000000E+03 0.  0.
<mgrwt>
<rscale>  0 0.42144742E+03</rscale>
<asrwt>0</asrwt>
<pdfrwt beam="1">  1        2 0.27571944E-02 0.42144742E+03</pdfrwt>
<pdfrwt beam="2">  1       -2 0.32867249E+00 0.42144742E+03</pdfrwt>
<totfact> 0.85846260E+01</totfact>
</mgrwt>
</event>
<event>
 4    1  0.6346694E-005  0.5047002E+03  0.7818608E-02  0.1012559E+00
         -2   -1    0    0    0  501 -0.00000000000E+00  0.00000000000E+00  0.33981364351E+03  0.33981364352E+03  0.25500000000E-02 0. -1.
          2   -1    0    0  501    0  0.00000000000E+00 -0.00000000000E+00 -0.18739851885E+03  0.18739851887E+03  0.25500000000E-02 0.  1.
    5000001    1    1    2    0    0 -0.91069173774E+02 -0.10390665065E+03  0.17665479487E+03  0.29264501193E+03  0.18800000000E+03 0.  0.
   -5000001    1    1    2    0    0  0.91069173774E+02  0.10390665065E+03 -0.24239670215E+02  0.23456715045E+03  0.18800000000E+03 0.  0.
<mgrwt>
<rscale>  0 0.50470020E+03</rscale>
<asrwt>0</asrwt>
<pdfrwt beam="1">  1        2 0.26771217E-01 0.50470020E+03</pdfrwt>
<pdfrwt beam="2">  1       -2 0.48544805E-01 0.50470020E+03</pdfrwt>
<totfact> 0.81750558E+02</totfact>
</mgrwt>
</event>
<event>
 4    1  0.6346694E-005  0.5256807E+03  0.7818608E-02  0.1007285E+00
          2   -1    0    0  501    0  0.00000000000E+00  0.00000000000E+00  0.81350158906E+02  0.81350158946E+02  0.25500000000E-02 0.  1.
         -2   -1    0    0    0  501 -0.00000000000E+00 -0.00000000000E+00 -0.84923080700E+03  0.84923080700E+03  0.25500000000E-02 0. -1.
    5000001    1    1    2    0    0 -0.10126699554E+03  0.14107912730E+03 -0.27798091318E+03  0.37785673560E+03  0.18800000000E+03 0.  0.
   -5000001    1    1    2    0    0  0.10126699554E+03 -0.14107912730E+03 -0.48989973491E+03  0.55272423035E+03  0.18800000000E+03 0.  0.
<mgrwt>
<rscale>  0 0.52568074E+03</rscale>
<asrwt>0</asrwt>
<pdfrwt beam="1">  1        2 0.11621452E-01 0.52568074E+03</pdfrwt>
<pdfrwt beam="2">  1       -2 0.12131868E+00 0.52568074E+03</pdfrwt>
<totfact> 0.28777781E+02</totfact>
</mgrwt>
</event>
<event>
 4    1  0.6346694E-005  0.5013421E+03  0.7818608E-02  0.1013429E+00
          2   -1    0    0  501    0  0.00000000000E+00  0.00000000000E+00  0.22451461342E+04  0.22451461342E+04  0.25500000000E-02 0.  1.
         -2   -1    0    0    0  501 -0.00000000000E+00 -0.00000000000E+00 -0.27987481471E+02  0.27987481587E+02  0.25500000000E-02 0. -1.
    5000001    1    1    2    0    0 -0.16281931794E+03  0.13769723319E+02  0.98095837352E+03  0.10120884676E+04  0.18800000000E+03 0.  0.
   -5000001    1    1    2    0    0  0.16281931794E+03 -0.13769723319E+02  0.12362002792E+04  0.12610451483E+04  0.18800000000E+03 0.  0.
<mgrwt>
<rscale>  0 0.50134214E+03</rscale>
<asrwt>0</asrwt>
<pdfrwt beam="1">  1        2 0.32073513E+00 0.50134214E+03</pdfrwt>
<pdfrwt beam="2">  1       -2 0.39982120E-02 0.50134214E+03</pdfrwt>
<totfact> 0.18159998E+03</totfact>
</mgrwt>
</event>
<event>
 4    1  0.6346694E-005  0.6516807E+03  0.7818608E-02  0.9803631E-01
          2   -1    0    0  501    0  0.00000000000E+00  0.00000000000E+00  0.22692343114E+04  0.22692343114E+04  0.25500000000E-02 0.  1.
         -2   -1    0    0    0  501 -0.00000000000E+00 -0.00000000000E+00 -0.46787563012E+02  0.46787563082E+02  0.25500000000E-02 0. -1.
    5000001    1    1    2    0    0 -0.19128792768E+03  0.17377264623E+03  0.13371124412E+04  0.13747733210E+04  0.18800000000E+03 0.  0.
   -5000001    1    1    2    0    0  0.19128792768E+03 -0.17377264623E+03  0.88533430719E+03  0.94124855343E+03  0.18800000000E+03 0.  0.
<mgrwt>
<rscale>  0 0.65168073E+03</rscale>
<asrwt>0</asrwt>
<pdfrwt beam="1">  1        2 0.32417628E+00 0.65168073E+03</pdfrwt>
<pdfrwt beam="2">  1       -2 0.66839387E-02 0.65168073E+03</pdfrwt>
<totfact> 0.78775756E+02</totfact>
</mgrwt>
</event>
<event>
 4    1  0.6346694E-005  0.7051501E+03  0.7818608E-02  0.9708465E-01
          2   -1    0    0  501    0  0.00000000000E+00  0.00000000000E+00  0.16674200511E+04  0.16674200511E+04  0.25500000000E-02 0.  1.
         -2   -1    0    0    0  501 -0.00000000000E+00 -0.00000000000E+00 -0.74551802905E+02  0.74551802949E+02  0.25500000000E-02 0. -1.
    5000001    1    1    2    0    0  0.15756706264E+03 -0.24505287693E+03  0.63850746063E+03  0.72657695325E+03  0.18800000000E+03 0.  0.
   -5000001    1    1    2    0    0 -0.15756706264E+03  0.24505287693E+03  0.95436078757E+03  0.10153949008E+04  0.18800000000E+03 0.  0.
<mgrwt>
<rscale>  0 0.70515011E+03</rscale>
<asrwt>0</asrwt>
<pdfrwt beam="1">  1        2 0.23820284E+00 0.70515011E+03</pdfrwt>
<pdfrwt beam="2">  1       -2 0.10650258E-01 0.70515011E+03</pdfrwt>
<totfact> 0.74977221E+02</totfact>
</mgrwt>
</event>
<event>
 4    1  0.6346694E-005  0.5000511E+03  0.7818608E-02  0.1013766E+00
          2   -1    0    0  501    0  0.00000000000E+00  0.00000000000E+00  0.74167232193E+03  0.74167232193E+03  0.25500000000E-02 0.  1.
         -2   -1    0    0    0  501 -0.00000000000E+00 -0.00000000000E+00 -0.84286257602E+02  0.84286257641E+02  0.25500000000E-02 0. -1.
    5000001    1    1    2    0    0 -0.10450443457E+03  0.12095491184E+03  0.39512364501E+03  0.46585186743E+03  0.18800000000E+03 0.  0.
   -5000001    1    1    2    0    0  0.10450443457E+03 -0.12095491184E+03  0.26226241932E+03  0.36010671214E+03  0.18800000000E+03 0.  0.
<mgrwt>
<rscale>  0 0.50005113E+03</rscale>
<asrwt>0</asrwt>
<pdfrwt beam="1">  1        2 0.10595319E+00 0.50005113E+03</pdfrwt>
<pdfrwt beam="2">  1       -2 0.12040894E-01 0.50005113E+03</pdfrwt>
<totfact> 0.21143231E+03</totfact>
</mgrwt>
</event>
<event>
 4    1  0.6346694E-005  0.5109512E+03  0.7818608E-02  0.1010959E+00
         -2   -1    0    0    0  501 -0.00000000000E+00  0.00000000000E+00  0.20478356725E+03  0.20478356727E+03  0.25500000000E-02 0. -1.
          2   -1    0    0  501    0  0.00000000000E+00 -0.00000000000E+00 -0.31871596286E+03  0.31871596287E+03  0.25500000000E-02 0.  1.
    5000001    1    1    2    0    0 -0.22506937235E+02 -0.22996356232E+02 -0.23110620742E+03  0.29964891745E+03  0.18800000000E+03 0.  0.
   -5000001    1    1    2    0    0  0.22506937235E+02  0.22996356232E+02  0.11717381182E+03  0.22385061268E+03  0.18800000000E+03 0.  0.
<mgrwt>
<rscale>  0 0.51095124E+03</rscale>
<asrwt>0</asrwt>
<pdfrwt beam="1">  1        2 0.45530852E-01 0.51095124E+03</pdfrwt>
<pdfrwt beam="2">  1       -2 0.29254796E-01 0.51095124E+03</pdfrwt>
<totfact> 0.11968937E+03</totfact>
</mgrwt>
</event>
<event>
 4    1  0.6346694E-005  0.9651052E+03  0.7818608E-02  0.9347667E-01
          2   -1    0    0  501    0  0.00000000000E+00  0.00000000000E+00  0.86063599475E+03  0.86063599476E+03  0.25500000000E-02 0.  1.
         -2   -1    0    0    0  501 -0.00000000000E+00 -0.00000000000E+00 -0.27056387203E+03  0.27056387204E+03  0.25500000000E-02 0. -1.
    5000001    1    1    2    0    0 -0.40460943352E+03 -0.94204879343E+02  0.10997168802E+03  0.46906409493E+03  0.18800000000E+03 0.  0.
   -5000001    1    1    2    0    0  0.40460943352E+03  0.94204879343E+02  0.48010043470E+03  0.66213577187E+03  0.18800000000E+03 0.  0.
<mgrwt>
<rscale>  0 0.96510519E+03</rscale>
<asrwt>0</asrwt>
<pdfrwt beam="1">  1        2 0.12294800E+00 0.96510519E+03</pdfrwt>
<pdfrwt beam="2">  1       -2 0.38651982E-01 0.96510519E+03</pdfrwt>
<totfact> 0.21802238E+02</totfact>
</mgrwt>
</event>
<event>
 4    1  0.6346694E-005  0.5378798E+03  0.7818608E-02  0.1004339E+00
          2   -1    0    0  501    0  0.00000000000E+00  0.00000000000E+00  0.10305179684E+04  0.10305179684E+04  0.25500000000E-02 0.  1.
         -2   -1    0    0    0  501 -0.00000000000E+00 -0.00000000000E+00 -0.70186724939E+02  0.70186724985E+02  0.25500000000E-02 0. -1.
    5000001    1    1    2    0    0  0.98494574741E+02  0.16486536458E+03  0.45940608958E+03  0.53224028862E+03  0.18800000000E+03 0.  0.
   -5000001    1    1    2    0    0 -0.98494574741E+02 -0.16486536458E+03  0.50092515386E+03  0.56846440474E+03  0.18800000000E+03 0.  0.
<mgrwt>
<rscale>  0 0.53787984E+03</rscale>
<asrwt>0</asrwt>
<pdfrwt beam="1">  1        2 0.14721684E+00 0.53787984E+03</pdfrwt>
<pdfrwt beam="2">  1       -2 0.10026676E-01 0.53787984E+03</pdfrwt>
<totfact> 0.18456292E+03</totfact>
</mgrwt>
</event>
<event>
 4    1  0.6346694E-005  0.6291492E+03  0.7818608E-02  0.9846710E-01
         -2   -1    0    0    0  501 -0.00000000000E+00  0.00000000000E+00  0.83081789378E+02  0.83081789417E+02  0.25500000000E-02 0. -1.
          2   -1    0    0  501    0  0.00000000000E+00 -0.00000000000E+00 -0.11910814663E+04  0.11910814663E+04  0.25500000000E-02 0.  1.
    5000001    1    1    2    0    0  0.22269620648E+03  0.73785957427E+02 -0.74153981205E+03  0.80016452105E+03  0.18800000000E+03 0.  0.
   -5000001    1    1    2    0    0 -0.22269620648E+03 -0.73785957427E+02 -0.36645986482E+03  0.47399873462E+03  0.18800000000E+03 0.  0.
<mgrwt>
<rscale>  0 0.62914920E+03</rscale>
<asrwt>0</asrwt>
<pdfrwt beam="1">  1        2 0.17015448E+00 0.62914920E+03</pdfrwt>
<pdfrwt beam="2">  1       -2 0.11868828E-01 0.62914920E+03</pdfrwt>
<totfact> 0.11292793E+03</totfact>
</mgrwt>
</event>
<event>
 4    1  0.6346694E-005  0.4513754E+03  0.7818608E-02  0.1027313E+00
          2   -1    0    0  501    0  0.00000000000E+00  0.00000000000E+00  0.27128468777E+04  0.27128468777E+04  0.25500000000E-02 0.  1.
         -2   -1    0    0    0  501 -0.00000000000E+00 -0.00000000000E+00 -0.18775452392E+02  0.18775452565E+02  0.25500000000E-02 0. -1.
    5000001    1    1    2    0    0 -0.98466198264E+02  0.71463386552E+02  0.11771198071E+04  0.11982310495E+04  0.18800000000E+03 0.  0.
   -5000001    1    1    2    0    0  0.98466198264E+02 -0.71463386552E+02  0.15169516182E+04  0.15333912807E+04  0.18800000000E+03 0.  0.
<mgrwt>
<rscale>  0 0.45137535E+03</rscale>
<asrwt>0</asrwt>
<pdfrwt beam="1">  1        2 0.38754967E+00 0.45137535E+03</pdfrwt>
<pdfrwt beam="2">  1       -2 0.26822067E-02 0.45137535E+03</pdfrwt>
<totfact> 0.19290941E+03</totfact>
</mgrwt>
</event>
<event>
 4    1  0.6346694E-005  0.8553790E+03  0.7818608E-02  0.9483146E-01
          2   -1    0    0  501    0  0.00000000000E+00  0.00000000000E+00  0.10475879863E+04  0.10475879863E+04  0.25500000000E-02 0.  1.
         -2   -1    0    0    0  501 -0.00000000000E+00 -0.00000000000E+00 -0.17460900166E+03  0.17460900168E+03  0.25500000000E-02 0. -1.
    5000001    1    1    2    0    0 -0.10906342685E+03  0.36109697637E+03  0.33258215134E+03  0.53688056847E+03  0.18800000000E+03 0.  0.
   -5000001    1    1    2    0    0  0.10906342685E+03 -0.36109697637E+03  0.54039683334E+03  0.68531641955E+03  0.18800000000E+03 0.  0.
<mgrwt>
<rscale>  0 0.85537896E+03</rscale>
<asrwt>0</asrwt>
<pdfrwt beam="1">  1        2 0.14965542E+00 0.85537896E+03</pdfrwt>
<pdfrwt beam="2">  1       -2 0.24944143E-01 0.85537896E+03</pdfrwt>
<totfact> 0.37839725E+02</totfact>
</mgrwt>
</event>
<event>
 4    1  0.6346694E-005  0.6097922E+03  0.7818608E-02  0.9885296E-01
         -2   -1    0    0    0  501 -0.00000000000E+00  0.00000000000E+00  0.39947300253E+02  0.39947300335E+02  0.25500000000E-02 0. -1.
          2   -1    0    0  501    0  0.00000000000E+00 -0.00000000000E+00 -0.23271066209E+04  0.23271066209E+04  0.25500000000E-02 0.  1.
    5000001    1    1    2    0    0 -0.46082035400E+02 -0.22660676897E+03 -0.89371369674E+03  0.94209466269E+03  0.18800000000E+03 0.  0.
   -5000001    1    1    2    0    0  0.46082035400E+02  0.22660676897E+03 -0.13934456240E+04  0.14249592586E+04  0.18800000000E+03 0.  0.
<mgrwt>
<rscale>  0 0.60979218E+03</rscale>
<asrwt>0</asrwt>
<pdfrwt beam="1">  1        2 0.33244372E+00 0.60979218E+03</pdfrwt>
<pdfrwt beam="2">  1       -2 0.57067586E-02 0.60979218E+03</pdfrwt>
<totfact> 0.94639742E+02</totfact>
</mgrwt>
</event>
<event>
 4    1  0.6346694E-005  0.6358888E+03  0.7818608E-02  0.9833624E-01
          2   -1    0    0  501    0  0.00000000000E+00  0.00000000000E+00  0.51826460484E+02  0.51826460547E+02  0.25500000000E-02 0.  1.
         -2   -1    0    0    0  501 -0.00000000000E+00 -0.00000000000E+00 -0.19505218883E+04  0.19505218883E+04  0.25500000000E-02 0. -1.
    5000001    1    1    2    0    0  0.16137087173E+03 -0.19796610275E+03 -0.87799134989E+03  0.93351162101E+03  0.18800000000E+03 0.  0.
   -5000001    1    1    2    0    0 -0.16137087173E+03  0.19796610275E+03 -0.10207040779E+04  0.10688367278E+04  0.18800000000E+03 0.  0.
<mgrwt>
<rscale>  0 0.63588881E+03</rscale>
<asrwt>0</asrwt>
<pdfrwt beam="1">  1        2 0.74037813E-02 0.63588881E+03</pdfrwt>
<pdfrwt beam="2">  1       -2 0.27864594E+00 0.63588881E+03</pdfrwt>
<totfact> 0.44012465E+01</totfact>
</mgrwt>
</event>
<event>
 4    1  0.6346694E-005  0.5065379E+03  0.7818608E-02  0.1012086E+00
         -2   -1    0    0    0  501 -0.00000000000E+00  0.00000000000E+00  0.78831417461E+02  0.78831417502E+02  0.25500000000E-02 0. -1.
          2   -1    0    0  501    0  0.00000000000E+00 -0.00000000000E+00 -0.81370059851E+03  0.81370059852E+03  0.25500000000E-02 0.  1.
    5000001    1    1    2    0    0 -0.11571587323E+03  0.11086201044E+03 -0.46586572008E+03  0.52730960339E+03  0.18800000000E+03 0.  0.
   -5000001    1    1    2    0    0  0.11571587323E+03 -0.11086201044E+03 -0.26900346097E+03  0.36522241263E+03  0.18800000000E+03 0.  0.
<mgrwt>
<rscale>  0 0.50653794E+03</rscale>
<asrwt>0</asrwt>
<pdfrwt beam="1">  1        2 0.11624294E+00 0.50653794E+03</pdfrwt>
<pdfrwt beam="2">  1       -2 0.11261632E-01 0.50653794E+03</pdfrwt>
<totfact> 0.20994411E+03</totfact>
</mgrwt>
</event>
<event>
 4    1  0.6346694E-005  0.5003392E+03  0.7818608E-02  0.1013690E+00
          2   -1    0    0  501    0  0.00000000000E+00  0.00000000000E+00  0.38039927355E+04  0.38039927355E+04  0.25500000000E-02 0. -1.
         -2   -1    0    0    0  501 -0.00000000000E+00 -0.00000000000E+00 -0.16452402726E+02  0.16452402924E+02  0.25500000000E-02 0.  1.
    5000001    1    1    2    0    0  0.97322116426E+02 -0.10917812477E+03  0.13097823686E+04  0.13312645531E+04  0.18800000000E+03 0.  0.
   -5000001    1    1    2    0    0 -0.97322116426E+02  0.10917812477E+03  0.24777579643E+04  0.24891805854E+04  0.18800000000E+03 0.  0.
<mgrwt>
<rscale>  0 0.50033917E+03</rscale>
<asrwt>0</asrwt>
<pdfrwt beam="1">  1        2 0.54342805E+00 0.50033917E+03</pdfrwt>
<pdfrwt beam="2">  1       -2 0.23503410E-02 0.50033917E+03</pdfrwt>
<totfact> 0.56274999E+02</totfact>
</mgrwt>
</event>
<event>
 4    1  0.6346694E-005  0.6589927E+03  0.7818608E-02  0.9790050E-01
         -2   -1    0    0    0  501 -0.00000000000E+00  0.00000000000E+00  0.11530459739E+04  0.11530459739E+04  0.25500000000E-02 0. -1.
          2   -1    0    0  501    0  0.00000000000E+00 -0.00000000000E+00 -0.94157424362E+02  0.94157424397E+02  0.25500000000E-02 0.  1.
    5000001    1    1    2    0    0  0.21050825120E+03 -0.14175611264E+03  0.35174906149E+03  0.47273663022E+03  0.18800000000E+03 0.  0.
   -5000001    1    1    2    0    0 -0.21050825120E+03  0.14175611264E+03  0.70713948801E+03  0.77446676804E+03  0.18800000000E+03 0.  0.
<mgrwt>
<rscale>  0 0.65899268E+03</rscale>
<asrwt>0</asrwt>
<pdfrwt beam="1">  1        2 0.13451061E-01 0.65899268E+03</pdfrwt>
<pdfrwt beam="2">  1       -2 0.16472085E+00 0.65899268E+03</pdfrwt>
<totfact> 0.10837206E+02</totfact>
</mgrwt>
</event>
<event>
 4    1  0.6346694E-005  0.1062546E+04  0.7818608E-02  0.9242486E-01
          2   -1    0    0  501    0  0.00000000000E+00  0.00000000000E+00  0.11766228902E+04  0.11766228902E+04  0.25500000000E-02 0.  1.
         -2   -1    0    0    0  501 -0.00000000000E+00 -0.00000000000E+00 -0.23988249434E+03  0.23988249435E+03  0.25500000000E-02 0. -1.
    5000001    1    1    2    0    0  0.32992812191E+03  0.36954633997E+03  0.41690799984E+03  0.67422054503E+03  0.18800000000E+03 0.  0.
   -5000001    1    1    2    0    0 -0.32992812191E+03 -0.36954633997E+03  0.51983239599E+03  0.74228483949E+03  0.18800000000E+03 0.  0.
<mgrwt>
<rscale>  0 0.10625464E+04</rscale>
<asrwt>0</asrwt>
<pdfrwt beam="1">  1        2 0.16808898E+00 0.10625464E+04</pdfrwt>
<pdfrwt beam="2">  1       -2 0.34268928E-01 0.10625464E+04</pdfrwt>
<totfact> 0.17458167E+02</totfact>
</mgrwt>
</event>
<event>
 4    1  0.6346694E-005  0.9128634E+03  0.7818608E-02  0.9409643E-01
          2   -1    0    0  501    0  0.00000000000E+00  0.00000000000E+00  0.38530713214E+03  0.38530713215E+03  0.25500000000E-02 0.  1.
         -2   -1    0    0    0  501 -0.00000000000E+00 -0.00000000000E+00 -0.54068533409E+03  0.54068533409E+03  0.25500000000E-02 0. -1.
    5000001    1    1    2    0    0 -0.15343329847E+03  0.38422645637E+03 -0.34483458858E+02  0.45574648193E+03  0.18800000000E+03 0.  0.
   -5000001    1    1    2    0    0  0.15343329847E+03 -0.38422645637E+03 -0.12089474309E+03  0.47024598431E+03  0.18800000000E+03 0.  0.
<mgrwt>
<rscale>  0 0.91286344E+03</rscale>
<asrwt>0</asrwt>
<pdfrwt beam="1">  1        2 0.55043876E-01 0.91286344E+03</pdfrwt>
<pdfrwt beam="2">  1       -2 0.77240761E-01 0.91286344E+03</pdfrwt>
<totfact> 0.13533367E+02</totfact>
</mgrwt>
</event>
<event>
 4    1  0.6346694E-005  0.7499873E+03  0.7818608E-02  0.9635370E-01
          2   -1    0    0  501    0  0.00000000000E+00  0.00000000000E+00  0.38204531610E+04  0.38204531610E+04  0.25500000000E-02 0.  1.
         -2   -1    0    0    0  501 -0.00000000000E+00 -0.00000000000E+00 -0.36807215560E+02  0.36807215648E+02  0.25500000000E-02 0. -1.
    5000001    1    1    2    0    0 -0.26480446947E+03  0.11271383506E+03  0.26624377735E+04  0.26845380819E+04  0.18800000000E+03 0.  0.
   -5000001    1    1    2    0    0  0.26480446947E+03 -0.11271383506E+03  0.11212081719E+04  0.11727222947E+04  0.18800000000E+03 0.  0.
<mgrwt>
<rscale>  0 0.74998732E+03</rscale>
<asrwt>0</asrwt>
<pdfrwt beam="1">  1        2 0.54577927E+00 0.74998732E+03</pdfrwt>
<pdfrwt beam="2">  1       -2 0.52581713E-02 0.74998732E+03</pdfrwt>
<totfact> 0.15497187E+02</totfact>
</mgrwt>
</event>
<event>
 4    1  0.6346694E-005  0.4589499E+03  0.7818608E-02  0.1025086E+00
          2   -1    0    0  501    0  0.00000000000E+00  0.00000000000E+00  0.86487445078E+03  0.86487445078E+03  0.25500000000E-02 0.  1.
         -2   -1    0    0    0  501 -0.00000000000E+00 -0.00000000000E+00 -0.60886014435E+02  0.60886014488E+02  0.25500000000E-02 0. -1.
    5000001    1    1    2    0    0 -0.12779856283E+03 -0.28902823777E+02  0.37754513321E+03  0.44164711421E+03  0.18800000000E+03 0.  0.
   -5000001    1    1    2    0    0  0.12779856283E+03  0.28902823777E+02  0.42644330313E+03  0.48411335106E+03  0.18800000000E+03 0.  0.
<mgrwt>
<rscale>  0 0.45894992E+03</rscale>
<asrwt>0</asrwt>
<pdfrwt beam="1">  1        2 0.12355348E+00 0.45894992E+03</pdfrwt>
<pdfrwt beam="2">  1       -2 0.86980028E-02 0.45894992E+03</pdfrwt>
<totfact> 0.29414842E+03</totfact>
</mgrwt>
</event>
<event>
 4    1  0.6346694E-005  0.5135772E+03  0.7818608E-02  0.1010295E+00
          2   -1    0    0  501    0  0.00000000000E+00  0.00000000000E+00  0.17253234843E+04  0.17253234843E+04  0.25500000000E-02 0.  1.
         -2   -1    0    0    0  501 -0.00000000000E+00 -0.00000000000E+00 -0.38219146254E+02  0.38219146339E+02  0.25500000000E-02 0. -1.
    5000001    1    1    2    0    0  0.34603189116E+02  0.14681865461E+03  0.53944306758E+03  0.59084339820E+03  0.18800000000E+03 0.  0.
   -5000001    1    1    2    0    0 -0.34603189116E+02 -0.14681865461E+03  0.11476612705E+04  0.11726992324E+04  0.18800000000E+03 0.  0.
<mgrwt>
<rscale>  0 0.51357722E+03</rscale>
<asrwt>0</asrwt>
<pdfrwt beam="1">  1        2 0.24647481E+00 0.51357722E+03</pdfrwt>
<pdfrwt beam="2">  1       -2 0.54598774E-02 0.51357722E+03</pdfrwt>
<totfact> 0.20444633E+03</totfact>
</mgrwt>
</event>
<event>
 4    1  0.6346694E-005  0.5751723E+03  0.7818608E-02  0.9958298E-01
         -2   -1    0    0    0  501 -0.00000000000E+00  0.00000000000E+00  0.44793513907E+02  0.44793513980E+02  0.25500000000E-02 0. -1.
          2   -1    0    0  501    0  0.00000000000E+00 -0.00000000000E+00 -0.18463788248E+04  0.18463788248E+04  0.25500000000E-02 0.  1.
    5000001    1    1    2    0    0 -0.41780186265E+02 -0.21313113186E+03 -0.94627337138E+03  0.98891241105E+03  0.18800000000E+03 0.  0.
   -5000001    1    1    2    0    0  0.41780186265E+02  0.21313113186E+03 -0.85531193954E+03  0.90225992776E+03  0.18800000000E+03 0.  0.
<mgrwt>
<rscale>  0 0.57517231E+03</rscale>
<asrwt>0</asrwt>
<pdfrwt beam="1">  1        2 0.26376836E+00 0.57517231E+03</pdfrwt>
<pdfrwt beam="2">  1       -2 0.63990746E-02 0.57517231E+03</pdfrwt>
<totfact> 0.13833109E+03</totfact>
</mgrwt>
</event>
<event>
 4    1  0.6346694E-005  0.5594558E+03  0.7818608E-02  0.9993287E-01
         -2   -1    0    0    0  501 -0.00000000000E+00  0.00000000000E+00  0.60555815614E+02  0.60555815668E+02  0.25500000000E-02 0. -1.
          2   -1    0    0  501    0  0.00000000000E+00 -0.00000000000E+00 -0.12921583795E+04  0.12921583796E+04  0.25500000000E-02 0.  1.
    5000001    1    1    2    0    0 -0.56392503865E+02 -0.19019720691E+03 -0.75983678181E+03  0.80749676593E+03  0.18800000000E+03 0.  0.
   -5000001    1    1    2    0    0  0.56392503865E+02  0.19019720691E+03 -0.47176578213E+03  0.54521742929E+03  0.18800000000E+03 0.  0.
<mgrwt>
<rscale>  0 0.55945582E+03</rscale>
<asrwt>0</asrwt>
<pdfrwt beam="1">  1        2 0.18459404E+00 0.55945582E+03</pdfrwt>
<pdfrwt beam="2">  1       -2 0.86508316E-02 0.55945582E+03</pdfrwt>
<totfact> 0.16617877E+03</totfact>
</mgrwt>
</event>
<event>
 4    1  0.6346694E-005  0.7748136E+03  0.7818608E-02  0.9597206E-01
          2   -1    0    0  501    0  0.00000000000E+00  0.00000000000E+00  0.10751948945E+04  0.10751948945E+04  0.25500000000E-02 0.  1.
         -2   -1    0    0    0  501 -0.00000000000E+00 -0.00000000000E+00 -0.13958775593E+03  0.13958775596E+03  0.25500000000E-02 0. -1.
    5000001    1    1    2    0    0  0.18737040133E+03 -0.20363796694E+03  0.16151696323E+03  0.37149403533E+03  0.18800000000E+03 0.  0.
   -5000001    1    1    2    0    0 -0.18737040133E+03  0.20363796694E+03  0.77409017536E+03  0.84328861516E+03  0.18800000000E+03 0.  0.
<mgrwt>
<rscale>  0 0.77481364E+03</rscale>
<asrwt>0</asrwt>
<pdfrwt beam="1">  1        2 0.15359928E+00 0.77481364E+03</pdfrwt>
<pdfrwt beam="2">  1       -2 0.19941107E-01 0.77481364E+03</pdfrwt>
<totfact> 0.54406378E+02</totfact>
</mgrwt>
</event>
<event>
 4    1  0.6346694E-005  0.8657636E+03  0.7818608E-02  0.9469420E-01
         -2   -1    0    0    0  501 -0.00000000000E+00  0.00000000000E+00  0.89411377611E+03  0.89411377612E+03  0.25500000000E-02 0. -1.
          2   -1    0    0  501    0  0.00000000000E+00 -0.00000000000E+00 -0.20957809867E+03  0.20957809868E+03  0.25500000000E-02 0.  1.
    5000001    1    1    2    0    0  0.28348630444E+03 -0.26183347660E+03  0.27104422888E+03  0.50767137824E+03  0.18800000000E+03 0.  0.
   -5000001    1    1    2    0    0 -0.28348630444E+03  0.26183347660E+03  0.41349144857E+03  0.59602049656E+03  0.18800000000E+03 0.  0.
<mgrwt>
<rscale>  0 0.86576363E+03</rscale>
<asrwt>0</asrwt>
<pdfrwt beam="1">  1        2 0.29939728E-01 0.86576363E+03</pdfrwt>
<pdfrwt beam="2">  1       -2 0.12773054E+00 0.86576363E+03</pdfrwt>
<totfact> 0.81386893E+01</totfact>
</mgrwt>
</event>
<event>
 4    1  0.6346694E-005  0.4325177E+03  0.7818608E-02  0.1033068E+00
          2   -1    0    0  501    0  0.00000000000E+00  0.00000000000E+00  0.36937839946E+03  0.36937839947E+03  0.25500000000E-02 0.  1.
         -2   -1    0    0    0  501 -0.00000000000E+00 -0.00000000000E+00 -0.12661243826E+03  0.12661243829E+03  0.25500000000E-02 0. -1.
    5000001    1    1    2    0    0 -0.44342687711E+02 -0.50251303115E+02  0.21686301038E+03  0.29472874426E+03  0.18800000000E+03 0.  0.
   -5000001    1    1    2    0    0  0.44342687711E+02  0.50251303115E+02  0.25902950818E+02  0.20126209350E+03  0.18800000000E+03 0.  0.
<mgrwt>
<rscale>  0 0.43251774E+03</rscale>
<asrwt>0</asrwt>
<pdfrwt beam="1">  1        2 0.52768343E-01 0.43251774E+03</pdfrwt>
<pdfrwt beam="2">  1       -2 0.18087491E-01 0.43251774E+03</pdfrwt>
<totfact> 0.23782029E+03</totfact>
</mgrwt>
</event>
<event>
 4    1  0.6346694E-005  0.4839062E+03  0.7818608E-02  0.1018067E+00
          2   -1    0    0  501    0  0.00000000000E+00  0.00000000000E+00  0.75980721828E+03  0.75980721829E+03  0.25500000000E-02 0.  1.
         -2   -1    0    0    0  501 -0.00000000000E+00 -0.00000000000E+00 -0.77047558234E+02  0.77047558277E+02  0.25500000000E-02 0. -1.
    5000001    1    1    2    0    0  0.15071706628E+03  0.73358899445E+01  0.30560888252E+03  0.38924316105E+03  0.18800000000E+03 0.  0.
   -5000001    1    1    2    0    0 -0.15071706628E+03 -0.73358899445E+01  0.37715077752E+03  0.44761161551E+03  0.18800000000E+03 0.  0.
<mgrwt>
<rscale>  0 0.48390615E+03</rscale>
<asrwt>0</asrwt>
<pdfrwt beam="1">  1        2 0.10854389E+00 0.48390615E+03</pdfrwt>
<pdfrwt beam="2">  1       -2 0.11006794E-01 0.48390615E+03</pdfrwt>
<totfact> 0.23755882E+03</totfact>
</mgrwt>
</event>
<event>
 4    1  0.6346694E-005  0.4336386E+03  0.7818608E-02  0.1032717E+00
          2   -1    0    0  501    0  0.00000000000E+00  0.00000000000E+00  0.38229955776E+03  0.38229955776E+03  0.25500000000E-02 0.  1.
         -2   -1    0    0    0  501 -0.00000000000E+00 -0.00000000000E+00 -0.12296798564E+03  0.12296798567E+03  0.25500000000E-02 0. -1.
    5000001    1    1    2    0    0  0.83894318620E+02 -0.67542422811E+02  0.12017324390E+03  0.24776166799E+03  0.18800000000E+03 0.  0.
   -5000001    1    1    2    0    0 -0.83894318620E+02  0.67542422811E+02  0.13915832822E+03  0.25750587544E+03  0.18800000000E+03 0.  0.
<mgrwt>
<rscale>  0 0.43363859E+03</rscale>
<asrwt>0</asrwt>
<pdfrwt beam="1">  1        2 0.54614222E-01 0.43363859E+03</pdfrwt>
<pdfrwt beam="2">  1       -2 0.17566855E-01 0.43363859E+03</pdfrwt>
<totfact> 0.24070801E+03</totfact>
</mgrwt>
</event>
<event>
 4    1  0.6346694E-005  0.8553807E+03  0.7818608E-02  0.9483143E-01
         -2   -1    0    0    0  501 -0.00000000000E+00  0.00000000000E+00  0.75921235607E+02  0.75921235650E+02  0.25500000000E-02 0. -1.
          2   -1    0    0  501    0  0.00000000000E+00 -0.00000000000E+00 -0.24093265259E+04  0.24093265259E+04  0.25500000000E-02 0.  1.
    5000001    1    1    2    0    0 -0.24952512418E+03  0.29134940697E+03 -0.11066099534E+04  0.11862027034E+04  0.18800000000E+03 0.  0.
   -5000001    1    1    2    0    0  0.24952512418E+03 -0.29134940697E+03 -0.12267953368E+04  0.12990450581E+04  0.18800000000E+03 0.  0.
<mgrwt>
<rscale>  0 0.85538073E+03</rscale>
<asrwt>0</asrwt>
<pdfrwt beam="1">  1        2 0.34418946E+00 0.85538073E+03</pdfrwt>
<pdfrwt beam="2">  1       -2 0.10845892E-01 0.85538073E+03</pdfrwt>
<totfact> 0.30207039E+02</totfact>
</mgrwt>
</event>
<event>
 4    1  0.6346694E-005  0.5748665E+03  0.7818608E-02  0.9958967E-01
          2   -1    0    0  501    0  0.00000000000E+00  0.00000000000E+00  0.18079112724E+04  0.18079112724E+04  0.25500000000E-02 0.  1.
         -2   -1    0    0    0  501 -0.00000000000E+00 -0.00000000000E+00 -0.45697968250E+02  0.45697968321E+02  0.25500000000E-02 0. -1.
    5000001    1    1    2    0    0  0.79867549029E+02 -0.31021641805E+02  0.15254473293E+04  0.15393747829E+04  0.18800000000E+03 0.  0.
   -5000001    1    1    2    0    0 -0.79867549029E+02  0.31021641805E+02  0.23676597477E+03  0.31423445778E+03  0.18800000000E+03 0.  0.
<mgrwt>
<rscale>  0 0.57486650E+03</rscale>
<asrwt>0</asrwt>
<pdfrwt beam="1">  1        2 0.25827307E+00 0.57486650E+03</pdfrwt>
<pdfrwt beam="2">  1       -2 0.65282803E-02 0.57486650E+03</pdfrwt>
<totfact> 0.14017041E+03</totfact>
</mgrwt>
</event>
<event>
 4    1  0.6346694E-005  0.6922042E+03  0.7818608E-02  0.9730658E-01
          2   -1    0    0  501    0  0.00000000000E+00  0.00000000000E+00  0.25048163304E+04  0.25048163305E+04  0.25500000000E-02 0. -1.
         -2   -1    0    0    0  501 -0.00000000000E+00 -0.00000000000E+00 -0.47822528912E+02  0.47822528980E+02  0.25500000000E-02 0.  1.
    5000001    1    1    2    0    0 -0.25396290991E+03  0.13852486827E+03  0.13299154418E+04  0.13739379102E+04  0.18800000000E+03 0.  0.
   -5000001    1    1    2    0    0  0.25396290991E+03 -0.13852486827E+03  0.11270783598E+04  0.11787009493E+04  0.18800000000E+03 0.  0.
<mgrwt>
<rscale>  0 0.69220416E+03</rscale>
<asrwt>0</asrwt>
<pdfrwt beam="1">  1        2 0.35783095E+00 0.69220416E+03</pdfrwt>
<pdfrwt beam="2">  1       -2 0.68317891E-02 0.69220416E+03</pdfrwt>
<totfact> 0.57510730E+02</totfact>
</mgrwt>
</event>
<event>
 4    1  0.6346694E-005  0.1142068E+04  0.7818608E-02  0.9165133E-01
          2   -1    0    0  501    0  0.00000000000E+00  0.00000000000E+00  0.22232762945E+04  0.22232762945E+04  0.25500000000E-02 0.  1.
         -2   -1    0    0    0  501 -0.00000000000E+00 -0.00000000000E+00 -0.14666630197E+03  0.14666630199E+03  0.25500000000E-02 0. -1.
    5000001    1    1    2    0    0  0.36559579216E+03 -0.29957914043E+03  0.49985788725E+03  0.71316888047E+03  0.18800000000E+03 0.  0.
   -5000001    1    1    2    0    0 -0.36559579216E+03  0.29957914043E+03  0.15767521053E+04  0.16567737161E+04  0.18800000000E+03 0.  0.
<mgrwt>
<rscale>  0 0.11420678E+04</rscale>
<asrwt>0</asrwt>
<pdfrwt beam="1">  1        2 0.31761092E+00 0.11420678E+04</pdfrwt>
<pdfrwt beam="2">  1       -2 0.20952328E-01 0.11420678E+04</pdfrwt>
<totfact> 0.12025369E+02</totfact>
</mgrwt>
</event>
<event>
 4    1  0.6346694E-005  0.5389097E+03  0.7818608E-02  0.1004094E+00
         -2   -1    0    0    0  501 -0.00000000000E+00  0.00000000000E+00  0.64039859550E+02  0.64039859601E+02  0.25500000000E-02 0. -1.
          2   -1    0    0  501    0  0.00000000000E+00 -0.00000000000E+00 -0.11337614762E+04  0.11337614762E+04  0.25500000000E-02 0.  1.
    5000001    1    1    2    0    0 -0.12680105975E+03  0.63453770719E+02 -0.24372884135E+03  0.33889915591E+03  0.18800000000E+03 0.  0.
   -5000001    1    1    2    0    0  0.12680105975E+03 -0.63453770719E+02 -0.82599277528E+03  0.85890217987E+03  0.18800000000E+03 0.  0.
<mgrwt>
<rscale>  0 0.53890974E+03</rscale>
<asrwt>0</asrwt>
<pdfrwt beam="1">  1        2 0.16196591E+00 0.53890974E+03</pdfrwt>
<pdfrwt beam="2">  1       -2 0.91485520E-02 0.53890974E+03</pdfrwt>
<totfact> 0.18619923E+03</totfact>
</mgrwt>
</event>
<event>
 4    1  0.6346694E-005  0.5466429E+03  0.7818608E-02  0.1002274E+00
         -2   -1    0    0    0  501 -0.00000000000E+00  0.00000000000E+00  0.36319209111E+02  0.36319209200E+02  0.25500000000E-02 0. -1.
          2   -1    0    0  501    0  0.00000000000E+00 -0.00000000000E+00 -0.20568901888E+04  0.20568901888E+04  0.25500000000E-02 0.  1.
    5000001    1    1    2    0    0 -0.43559263961E+02 -0.18863454086E+03 -0.11763259408E+04  0.12068832249E+04  0.18800000000E+03 0.  0.
   -5000001    1    1    2    0    0  0.43559263961E+02  0.18863454086E+03 -0.84424503889E+03  0.88632617313E+03  0.18800000000E+03 0.  0.
<mgrwt>
<rscale>  0 0.54664294E+03</rscale>
<asrwt>0</asrwt>
<pdfrwt beam="1">  1        2 0.29384138E+00 0.54664294E+03</pdfrwt>
<pdfrwt beam="2">  1       -2 0.51884597E-02 0.54664294E+03</pdfrwt>
<totfact> 0.15068820E+03</totfact>
</mgrwt>
</event>
<event>
 4    1  0.6346694E-005  0.4848579E+03  0.7818608E-02  0.1017809E+00
         -2   -1    0    0    0  501 -0.00000000000E+00  0.00000000000E+00  0.94845470096E+02  0.94845470130E+02  0.25500000000E-02 0. -1.
          2   -1    0    0  501    0  0.00000000000E+00 -0.00000000000E+00 -0.61965833326E+03  0.61965833326E+03  0.25500000000E-02 0.  1.
    5000001    1    1    2    0    0  0.13185975630E+03  0.41691387990E+02 -0.35906860119E+03  0.42825159372E+03  0.18800000000E+03 0.  0.
   -5000001    1    1    2    0    0 -0.13185975630E+03 -0.41691387990E+02 -0.16574426197E+03  0.28625220967E+03  0.18800000000E+03 0.  0.
<mgrwt>
<rscale>  0 0.48485786E+03</rscale>
<asrwt>0</asrwt>
<pdfrwt beam="1">  1        2 0.88522617E-01 0.48485786E+03</pdfrwt>
<pdfrwt beam="2">  1       -2 0.13549353E-01 0.48485786E+03</pdfrwt>
<totfact> 0.21610923E+03</totfact>
</mgrwt>
</event>
<event>
 4    1  0.6346694E-005  0.4538949E+03  0.7818608E-02  0.1026567E+00
          2   -1    0    0  501    0  0.00000000000E+00  0.00000000000E+00  0.56707675127E+03  0.56707675128E+03  0.25500000000E-02 0.  1.
         -2   -1    0    0    0  501 -0.00000000000E+00 -0.00000000000E+00 -0.90825721060E+02  0.90825721096E+02  0.25500000000E-02 0. -1.
    5000001    1    1    2    0    0  0.94982375184E+02  0.47203465234E+02  0.33970499920E+03  0.40248391919E+03  0.18800000000E+03 0.  0.
   -5000001    1    1    2    0    0 -0.94982375184E+02 -0.47203465234E+02  0.13654603102E+03  0.25541855319E+03  0.18800000000E+03 0.  0.
<mgrwt>
<rscale>  0 0.45389494E+03</rscale>
<asrwt>0</asrwt>
<pdfrwt beam="1">  1        2 0.81010964E-01 0.45389494E+03</pdfrwt>
<pdfrwt beam="2">  1       -2 0.12975103E-01 0.45389494E+03</pdfrwt>
<totfact> 0.25724552E+03</totfact>
</mgrwt>
</event>
<event>
 4    1  0.6346694E-005  0.4828154E+03  0.7818608E-02  0.1018364E+00
          2   -1    0    0  501    0  0.00000000000E+00  0.00000000000E+00  0.11747198234E+04  0.11747198234E+04  0.25500000000E-02 0.  1.
         -2   -1    0    0    0  501 -0.00000000000E+00 -0.00000000000E+00 -0.49609852174E+02  0.49609852239E+02  0.25500000000E-02 0. -1.
    5000001    1    1    2    0    0  0.50345076752E+00 -0.12613875744E+03  0.35005387789E+03  0.41688482464E+03  0.18800000000E+03 0.  0.
   -5000001    1    1    2    0    0 -0.50345076752E+00  0.12613875744E+03  0.77505609335E+03  0.80744485101E+03  0.18800000000E+03 0.  0.
<mgrwt>
<rscale>  0 0.48281540E+03</rscale>
<asrwt>0</asrwt>
<pdfrwt beam="1">  1        2 0.16781710E+00 0.48281540E+03</pdfrwt>
<pdfrwt beam="2">  1       -2 0.70871224E-02 0.48281540E+03</pdfrwt>
<totfact> 0.26497998E+03</totfact>
</mgrwt>
</event>
<event>
 4    1  0.6346694E-005  0.8667065E+03  0.7818608E-02  0.9468184E-01
          2   -1    0    0  501    0  0.00000000000E+00  0.00000000000E+00  0.36126742648E+03  0.36126742649E+03  0.25500000000E-02 0.  1.
         -2   -1    0    0    0  501 -0.00000000000E+00 -0.00000000000E+00 -0.51982283931E+03  0.51982283931E+03  0.25500000000E-02 0. -1.
    5000001    1    1    2    0    0 -0.28641349225E+03 -0.17465667255E+03 -0.28237670602E+03  0.47709354000E+03  0.18800000000E+03 0.  0.
   -5000001    1    1    2    0    0  0.28641349225E+03  0.17465667255E+03  0.12382129319E+03  0.40399672580E+03  0.18800000000E+03 0.  0.
<mgrwt>
<rscale>  0 0.86670655E+03</rscale>
<asrwt>0</asrwt>
<pdfrwt beam="1">  1        2 0.51609633E-01 0.86670655E+03</pdfrwt>
<pdfrwt beam="2">  1       -2 0.74260405E-01 0.86670655E+03</pdfrwt>
<totfact> 0.15904537E+02</totfact>
</mgrwt>
</event>
<event>
 4    1  0.6346694E-005  0.6875677E+03  0.7818608E-02  0.9738733E-01
          2   -1    0    0  501    0  0.00000000000E+00  0.00000000000E+00  0.21487031775E+04  0.21487031775E+04  0.25500000000E-02 0.  1.
         -2   -1    0    0    0  501 -0.00000000000E+00 -0.00000000000E+00 -0.55004025095E+02  0.55004025154E+02  0.25500000000E-02 0. -1.
    5000001    1    1    2    0    0 -0.20690790089E+03  0.17159648951E+03  0.71706774410E+03  0.78853432664E+03  0.18800000000E+03 0.  0.
   -5000001    1    1    2    0    0  0.20690790089E+03 -0.17159648951E+03  0.13766314083E+04  0.14151728760E+04  0.18800000000E+03 0.  0.
<mgrwt>
<rscale>  0 0.68756767E+03</rscale>
<asrwt>0</asrwt>
<pdfrwt beam="1">  1        2 0.30695751E+00 0.68756767E+03</pdfrwt>
<pdfrwt beam="2">  1       -2 0.78577201E-02 0.68756767E+03</pdfrwt>
<totfact> 0.69949872E+02</totfact>
</mgrwt>
</event>
<event>
 4    1  0.6346694E-005  0.7946732E+03  0.7818608E-02  0.9567760E-01
          2   -1    0    0  501    0  0.00000000000E+00  0.00000000000E+00  0.10265896697E+04  0.10265896697E+04  0.25500000000E-02 0.  1.
         -2   -1    0    0    0  501 -0.00000000000E+00 -0.00000000000E+00 -0.15378721468E+03  0.15378721470E+03  0.25500000000E-02 0. -1.
    5000001    1    1    2    0    0 -0.31885634438E+03 -0.12094892368E+03  0.55368229746E+03  0.67690922361E+03  0.18800000000E+03 0.  0.
   -5000001    1    1    2    0    0  0.31885634438E+03  0.12094892368E+03  0.31912015756E+03  0.50346766078E+03  0.18800000000E+03 0.  0.
<mgrwt>
<rscale>  0 0.79467318E+03</rscale>
<asrwt>0</asrwt>
<pdfrwt beam="1">  1        2 0.14665567E+00 0.79467318E+03</pdfrwt>
<pdfrwt beam="2">  1       -2 0.21969601E-01 0.79467318E+03</pdfrwt>
<totfact> 0.49022030E+02</totfact>
</mgrwt>
</event>
<event>
 4    1  0.6346694E-005  0.7215098E+03  0.7818608E-02  0.9681139E-01
          2   -1    0    0  501    0  0.00000000000E+00  0.00000000000E+00  0.32147273566E+03  0.32147273567E+03  0.25500000000E-02 0.  1.
         -2   -1    0    0    0  501 -0.00000000000E+00 -0.00000000000E+00 -0.40483709828E+03  0.40483709829E+03  0.25500000000E-02 0. -1.
    5000001    1    1    2    0    0 -0.14707910173E+03 -0.22861710963E+03 -0.18721940573E+03  0.37985938301E+03  0.18800000000E+03 0.  0.
   -5000001    1    1    2    0    0  0.14707910173E+03  0.22861710963E+03  0.10385504311E+03  0.34645045095E+03  0.18800000000E+03 0.  0.
<mgrwt>
<rscale>  0 0.72150978E+03</rscale>
<asrwt>0</asrwt>
<pdfrwt beam="1">  1        2 0.45924677E-01 0.72150978E+03</pdfrwt>
<pdfrwt beam="2">  1       -2 0.57833871E-01 0.72150978E+03</pdfrwt>
<totfact> 0.31166945E+02</totfact>
</mgrwt>
</event>
<event>
 4    1  0.6346694E-005  0.6892582E+03  0.7818608E-02  0.9735780E-01
          2   -1    0    0  501    0  0.00000000000E+00  0.00000000000E+00  0.57361558827E+03  0.57361558827E+03  0.25500000000E-02 0.  1.
         -2   -1    0    0    0  501 -0.00000000000E+00 -0.00000000000E+00 -0.20705370026E+03  0.20705370028E+03  0.25500000000E-02 0. -1.
    5000001    1    1    2    0    0  0.28881444140E+03  0.27608842769E+01  0.18549638401E+03  0.39137490022E+03  0.18800000000E+03 0.  0.
   -5000001    1    1    2    0    0 -0.28881444140E+03 -0.27608842769E+01  0.18106550399E+03  0.38929438832E+03  0.18800000000E+03 0.  0.
<mgrwt>
<rscale>  0 0.68925824E+03</rscale>
<asrwt>0</asrwt>
<pdfrwt beam="1">  1        2 0.81945083E-01 0.68925824E+03</pdfrwt>
<pdfrwt beam="2">  1       -2 0.29579100E-01 0.68925824E+03</pdfrwt>
<totfact> 0.60493503E+02</totfact>
</mgrwt>
</event>
<event>
 4    1  0.6346694E-005  0.1423344E+04  0.7818608E-02  0.8937092E-01
         -2   -1    0    0    0  501 -0.00000000000E+00  0.00000000000E+00  0.93498216615E+03  0.93498216615E+03  0.25500000000E-02 0. -1.
          2   -1    0    0  501    0  0.00000000000E+00 -0.00000000000E+00 -0.54169688055E+03  0.54169688055E+03  0.25500000000E-02 0.  1.
    5000001    1    1    2    0    0  0.10724939634E+03 -0.61624005200E+03  0.48986139929E+03  0.81643274385E+03  0.18800000000E+03 0.  0.
   -5000001    1    1    2    0    0 -0.10724939634E+03  0.61624005200E+03 -0.96576113693E+02  0.66024630286E+03  0.18800000000E+03 0.  0.
<mgrwt>
<rscale>  0 0.14233438E+04</rscale>
<asrwt>0</asrwt>
<pdfrwt beam="1">  1        2 0.77385269E-01 0.14233438E+04</pdfrwt>
<pdfrwt beam="2">  1       -2 0.13356888E+00 0.14233438E+04</pdfrwt>
<totfact> 0.24138156E+01</totfact>
</mgrwt>
</event>
<event>
 4    1  0.6346694E-005  0.5021246E+03  0.7818608E-02  0.1013226E+00
         -2   -1    0    0    0  501 -0.00000000000E+00  0.00000000000E+00  0.84398240167E+02  0.84398240205E+02  0.25500000000E-02 0. -1.
          2   -1    0    0  501    0  0.00000000000E+00 -0.00000000000E+00 -0.74684340807E+03  0.74684340808E+03  0.25500000000E-02 0.  1.
    5000001    1    1    2    0    0 -0.75726888943E+02 -0.14662572417E+03 -0.29592599315E+03  0.38749175233E+03  0.18800000000E+03 0.  0.
   -5000001    1    1    2    0    0  0.75726888943E+02  0.14662572417E+03 -0.36651917476E+03  0.44374989596E+03  0.18800000000E+03 0.  0.
<mgrwt>
<rscale>  0 0.50212456E+03</rscale>
<asrwt>0</asrwt>
<pdfrwt beam="1">  1        2 0.10669191E+00 0.50212456E+03</pdfrwt>
<pdfrwt beam="2">  1       -2 0.12056892E-01 0.50212456E+03</pdfrwt>
<totfact> 0.20916574E+03</totfact>
</mgrwt>
</event>
<event>
 4    1  0.6346694E-005  0.4605502E+03  0.7818608E-02  0.1024622E+00
          2   -1    0    0  501    0  0.00000000000E+00  0.00000000000E+00  0.33463120242E+03  0.33463120243E+03  0.25500000000E-02 0.  1.
         -2   -1    0    0    0  501 -0.00000000000E+00 -0.00000000000E+00 -0.15846286916E+03  0.15846286918E+03  0.25500000000E-02 0. -1.
    5000001    1    1    2    0    0 -0.66436357404E+02 -0.11336001642E+03  0.66185572569E+02  0.23872329783E+03  0.18800000000E+03 0.  0.
   -5000001    1    1    2    0    0  0.66436357404E+02  0.11336001642E+03  0.10998276068E+03  0.25437077379E+03  0.18800000000E+03 0.  0.
<mgrwt>
<rscale>  0 0.46055019E+03</rscale>
<asrwt>0</asrwt>
<pdfrwt beam="1">  1        2 0.47804457E-01 0.46055019E+03</pdfrwt>
<pdfrwt beam="2">  1       -2 0.22637553E-01 0.46055019E+03</pdfrwt>
<totfact> 0.17973232E+03</totfact>
</mgrwt>
</event>
<event>
 4    1  0.6346694E-005  0.5577334E+03  0.7818608E-02  0.9997196E-01
          2   -1    0    0  501    0  0.00000000000E+00  0.00000000000E+00  0.29690885566E+04  0.29690885566E+04  0.25500000000E-02 0.  1.
         -2   -1    0    0    0  501 -0.00000000000E+00 -0.00000000000E+00 -0.26192094400E+02  0.26192094524E+02  0.25500000000E-02 0. -1.
    5000001    1    1    2    0    0  0.11651745521E+03 -0.16959494323E+03  0.15206357680E+04  0.15459676261E+04  0.18800000000E+03 0.  0.
   -5000001    1    1    2    0    0 -0.11651745521E+03  0.16959494323E+03  0.14222606943E+04  0.14493130251E+04  0.18800000000E+03 0.  0.
<mgrwt>
<rscale>  0 0.55773344E+03</rscale>
<asrwt>0</asrwt>
<pdfrwt beam="1">  1        2 0.42415560E+00 0.55773344E+03</pdfrwt>
<pdfrwt beam="2">  1       -2 0.37417270E-02 0.55773344E+03</pdfrwt>
<totfact> 0.84440311E+02</totfact>
</mgrwt>
</event>
<event>
 4    1  0.6346694E-005  0.4720843E+03  0.7818608E-02  0.1021334E+00
         -2   -1    0    0    0  501 -0.00000000000E+00  0.00000000000E+00  0.15783847887E+03  0.15783847889E+03  0.25500000000E-02 0. -1.
          2   -1    0    0  501    0  0.00000000000E+00 -0.00000000000E+00 -0.35299317658E+03  0.35299317659E+03  0.25500000000E-02 0.  1.
    5000001    1    1    2    0    0 -0.93619546391E+01 -0.13646139642E+03 -0.53456364621E+02  0.23856014300E+03  0.18800000000E+03 0.  0.
   -5000001    1    1    2    0    0  0.93619546391E+01  0.13646139642E+03 -0.14169833309E+03  0.27227151248E+03  0.18800000000E+03 0.  0.
<mgrwt>
<rscale>  0 0.47208434E+03</rscale>
<asrwt>0</asrwt>
<pdfrwt beam="1">  1        2 0.50427597E-01 0.47208434E+03</pdfrwt>
<pdfrwt beam="2">  1       -2 0.22548354E-01 0.47208434E+03</pdfrwt>
<totfact> 0.17072442E+03</totfact>
</mgrwt>
</event>
<event>
 4    1  0.6346694E-005  0.6045803E+03  0.7818608E-02  0.9895949E-01
          2   -1    0    0  501    0  0.00000000000E+00  0.00000000000E+00  0.17951056200E+04  0.17951056200E+04  0.25500000000E-02 0.  1.
         -2   -1    0    0    0  501 -0.00000000000E+00 -0.00000000000E+00 -0.50904707207E+02  0.50904707271E+02  0.25500000000E-02 0. -1.
    5000001    1    1    2    0    0 -0.22499689263E+03 -0.67397662084E+02  0.96212478194E+03  0.10080645528E+04  0.18800000000E+03 0.  0.
   -5000001    1    1    2    0    0  0.22499689263E+03  0.67397662084E+02  0.78207613087E+03  0.83794577452E+03  0.18800000000E+03 0.  0.
<mgrwt>
<rscale>  0 0.60458027E+03</rscale>
<asrwt>0</asrwt>
<pdfrwt beam="1">  1        2 0.25644367E+00 0.60458027E+03</pdfrwt>
<pdfrwt beam="2">  1       -2 0.72721009E-02 0.60458027E+03</pdfrwt>
<totfact> 0.11983161E+03</totfact>
</mgrwt>
</event>
<event>
 4    1  0.6346694E-005  0.5680256E+03  0.7818608E-02  0.9974057E-01
          2   -1    0    0  501    0  0.00000000000E+00  0.00000000000E+00  0.70806481087E+03  0.70806481087E+03  0.25500000000E-02 0.  1.
         -2   -1    0    0    0  501 -0.00000000000E+00 -0.00000000000E+00 -0.11392072805E+03  0.11392072807E+03  0.25500000000E-02 0. -1.
    5000001    1    1    2    0    0 -0.14235334743E+03 -0.54954143410E+02  0.82263717591E+02  0.25572593266E+03  0.18800000000E+03 0.  0.
   -5000001    1    1    2    0    0  0.14235334743E+03  0.54954143410E+02  0.51188036523E+03  0.56625960629E+03  0.18800000000E+03 0.  0.
<mgrwt>
<rscale>  0 0.56802556E+03</rscale>
<asrwt>0</asrwt>
<pdfrwt beam="1">  1        2 0.10115212E+00 0.56802556E+03</pdfrwt>
<pdfrwt beam="2">  1       -2 0.16274390E-01 0.56802556E+03</pdfrwt>
<totfact> 0.13542898E+03</totfact>
</mgrwt>
</event>
<event>
 4    1  0.6346694E-005  0.5961795E+03  0.7818608E-02  0.9913364E-01
          2   -1    0    0  501    0  0.00000000000E+00  0.00000000000E+00  0.10334731413E+04  0.10334731413E+04  0.25500000000E-02 0.  1.
         -2   -1    0    0    0  501 -0.00000000000E+00 -0.00000000000E+00 -0.85979485633E+02  0.85979485671E+02  0.25500000000E-02 0. -1.
    5000001    1    1    2    0    0  0.96694964140E+02  0.35773951580E+02  0.84902898121E+02  0.23061264885E+03  0.18800000000E+03 0.  0.
   -5000001    1    1    2    0    0 -0.96694964140E+02 -0.35773951580E+02  0.86259075753E+03  0.88883997810E+03  0.18800000000E+03 0.  0.
<mgrwt>
<rscale>  0 0.59617947E+03</rscale>
<asrwt>0</asrwt>
<pdfrwt beam="1">  1        2 0.14763903E+00 0.59617947E+03</pdfrwt>
<pdfrwt beam="2">  1       -2 0.12282783E-01 0.59617947E+03</pdfrwt>
<totfact> 0.13183729E+03</totfact>
</mgrwt>
</event>
<event>
 4    1  0.6346694E-005  0.5278854E+03  0.7818608E-02  0.1006746E+00
         -2   -1    0    0    0  501 -0.00000000000E+00  0.00000000000E+00  0.31609923602E+02  0.31609923705E+02  0.25500000000E-02 0. -1.
          2   -1    0    0  501    0  0.00000000000E+00 -0.00000000000E+00 -0.22039200758E+04  0.22039200758E+04  0.25500000000E-02 0.  1.
    5000001    1    1    2    0    0  0.29588951483E+01  0.17865199417E+03 -0.12934675933E+04  0.13192148062E+04  0.18800000000E+03 0.  0.
   -5000001    1    1    2    0    0 -0.29588951483E+01 -0.17865199417E+03 -0.87884255890E+03  0.91631519327E+03  0.18800000000E+03 0.  0.
<mgrwt>
<rscale>  0 0.52788539E+03</rscale>
<asrwt>0</asrwt>
<pdfrwt beam="1">  1        2 0.31484563E+00 0.52788539E+03</pdfrwt>
<pdfrwt beam="2">  1       -2 0.45157048E-02 0.52788539E+03</pdfrwt>
<totfact> 0.15778215E+03</totfact>
</mgrwt>
</event>
<event>
 4    1  0.6346694E-005  0.5633459E+03  0.7818608E-02  0.9984512E-01
          2   -1    0    0  501    0  0.00000000000E+00  0.00000000000E+00  0.81568035899E+03  0.81568035900E+03  0.25500000000E-02 0.  1.
         -2   -1    0    0    0  501 -0.00000000000E+00 -0.00000000000E+00 -0.97268074284E+02  0.97268074317E+02  0.25500000000E-02 0. -1.
    5000001    1    1    2    0    0 -0.68603466238E+02 -0.16177737339E+03  0.54481272583E+03  0.60253071319E+03  0.18800000000E+03 0.  0.
   -5000001    1    1    2    0    0  0.68603466238E+02  0.16177737339E+03  0.17359955888E+03  0.31041772012E+03  0.18800000000E+03 0.  0.
<mgrwt>
<rscale>  0 0.56334592E+03</rscale>
<asrwt>0</asrwt>
<pdfrwt beam="1">  1        2 0.11652576E+00 0.56334592E+03</pdfrwt>
<pdfrwt beam="2">  1       -2 0.13895440E-01 0.56334592E+03</pdfrwt>
<totfact> 0.14796140E+03</totfact>
</mgrwt>
</event>
<event>
 4    1  0.6346694E-005  0.4417144E+03  0.7818608E-02  0.1030222E+00
         -2   -1    0    0    0  501 -0.00000000000E+00  0.00000000000E+00  0.26410958469E+02  0.26410958592E+02  0.25500000000E-02 0. -1.
          2   -1    0    0  501    0  0.00000000000E+00 -0.00000000000E+00 -0.18468814612E+04  0.18468814612E+04  0.25500000000E-02 0.  1.
    5000001    1    1    2    0    0  0.68524296890E+02  0.82878818232E+02 -0.72686925055E+03  0.75845064782E+03  0.18800000000E+03 0.  0.
   -5000001    1    1    2    0    0 -0.68524296890E+02 -0.82878818232E+02 -0.10936012521E+04  0.11148417719E+04  0.18800000000E+03 0.  0.
<mgrwt>
<rscale>  0 0.44171443E+03</rscale>
<asrwt>0</asrwt>
<pdfrwt beam="1">  1        2 0.26384013E+00 0.44171443E+03</pdfrwt>
<pdfrwt beam="2">  1       -2 0.37729952E-02 0.44171443E+03</pdfrwt>
<totfact> 0.31410840E+03</totfact>
</mgrwt>
</event>
<event>
 4    1  0.6346694E-005  0.3988250E+03  0.7818608E-02  0.1044187E+00
          2   -1    0    0  501    0  0.00000000000E+00  0.00000000000E+00  0.23770202323E+04  0.23770202323E+04  0.25500000000E-02 0.  1.
         -2   -1    0    0    0  501 -0.00000000000E+00 -0.00000000000E+00 -0.16729072904E+02  0.16729073098E+02  0.25500000000E-02 0. -1.
    5000001    1    1    2    0    0 -0.28694385577E+02  0.44377052323E+02  0.14223660085E+04  0.14357094946E+04  0.18800000000E+03 0.  0.
   -5000001    1    1    2    0    0  0.28694385577E+02 -0.44377052323E+02  0.93792515091E+03  0.95803981089E+03  0.18800000000E+03 0.  0.
<mgrwt>
<rscale>  0 0.39882500E+03</rscale>
<asrwt>0</asrwt>
<pdfrwt beam="1">  1        2 0.33957412E+00 0.39882500E+03</pdfrwt>
<pdfrwt beam="2">  1       -2 0.23898690E-02 0.39882500E+03</pdfrwt>
<totfact> 0.34110254E+03</totfact>
</mgrwt>
</event>
<event>
 4    1  0.6346694E-005  0.4832294E+03  0.7818608E-02  0.1018251E+00
         -2   -1    0    0    0  501 -0.00000000000E+00  0.00000000000E+00  0.63659104614E+02  0.63659104665E+02  0.25500000000E-02 0. -1.
          2   -1    0    0  501    0  0.00000000000E+00 -0.00000000000E+00 -0.91703567745E+03  0.91703567746E+03  0.25500000000E-02 0.  1.
    5000001    1    1    2    0    0 -0.14002940152E+03  0.17186414197E+02 -0.54023043302E+03  0.58914898530E+03  0.18800000000E+03 0.  0.
   -5000001    1    1    2    0    0  0.14002940152E+03 -0.17186414197E+02 -0.31314613982E+03  0.39154579682E+03  0.18800000000E+03 0.  0.
<mgrwt>
<rscale>  0 0.48322943E+03</rscale>
<asrwt>0</asrwt>
<pdfrwt beam="1">  1        2 0.13100509E+00 0.48322943E+03</pdfrwt>
<pdfrwt beam="2">  1       -2 0.90941584E-02 0.48322943E+03</pdfrwt>
<totfact> 0.25363431E+03</totfact>
</mgrwt>
</event>
<event>
 4    1  0.6346694E-005  0.5752439E+03  0.7818608E-02  0.9958141E-01
          2   -1    0    0  501    0  0.00000000000E+00  0.00000000000E+00  0.23828556205E+04  0.23828556205E+04  0.25500000000E-02 0.  1.
         -2   -1    0    0    0  501 -0.00000000000E+00 -0.00000000000E+00 -0.34717330004E+02  0.34717330097E+02  0.25500000000E-02 0. -1.
    5000001    1    1    2    0    0 -0.21061321664E+03  0.16262121590E+01  0.94304286054E+03  0.98439545326E+03  0.18800000000E+03 0.  0.
   -5000001    1    1    2    0    0  0.21061321664E+03 -0.16262121590E+01  0.14050954299E+04  0.14331774973E+04  0.18800000000E+03 0.  0.
<mgrwt>
<rscale>  0 0.57524390E+03</rscale>
<asrwt>0</asrwt>
<pdfrwt beam="1">  1        2 0.34040800E+00 0.57524390E+03</pdfrwt>
<pdfrwt beam="2">  1       -2 0.49596178E-02 0.57524390E+03</pdfrwt>
<totfact> 0.11056169E+03</totfact>
</mgrwt>
</event>
<event>
 4    1  0.6346694E-005  0.1028841E+04  0.7818608E-02  0.9277466E-01
          2   -1    0    0  501    0  0.00000000000E+00  0.00000000000E+00  0.80503094626E+03  0.80503094626E+03  0.25500000000E-02 0.  1.
         -2   -1    0    0    0  501 -0.00000000000E+00 -0.00000000000E+00 -0.32871864803E+03  0.32871864804E+03  0.25500000000E-02 0. -1.
    5000001    1    1    2    0    0 -0.20410325795E+03  0.24914871329E+03  0.62861887261E+03  0.73091648514E+03  0.18800000000E+03 0.  0.
   -5000001    1    1    2    0    0  0.20410325795E+03 -0.24914871329E+03 -0.15230657439E+03  0.40283310917E+03  0.18800000000E+03 0.  0.
<mgrwt>
<rscale>  0 0.10288415E+04</rscale>
<asrwt>0</asrwt>
<pdfrwt beam="1">  1        2 0.11500442E+00 0.10288415E+04</pdfrwt>
<pdfrwt beam="2">  1       -2 0.46959806E-01 0.10288415E+04</pdfrwt>
<totfact> 0.16146520E+02</totfact>
</mgrwt>
</event>
<event>
 4    1  0.6346694E-005  0.4266865E+03  0.7818608E-02  0.1034912E+00
          2   -1    0    0  501    0  0.00000000000E+00  0.00000000000E+00  0.13309158107E+04  0.13309158107E+04  0.25500000000E-02 0.  1.
         -2   -1    0    0    0  501 -0.00000000000E+00 -0.00000000000E+00 -0.34198511466E+02  0.34198511561E+02  0.25500000000E-02 0. -1.
    5000001    1    1    2    0    0 -0.29647078447E+02 -0.71973631984E+02  0.44319682807E+03  0.48767466755E+03  0.18800000000E+03 0.  0.
   -5000001    1    1    2    0    0  0.29647078447E+02  0.71973631984E+02  0.85352047113E+03  0.87743965467E+03  0.18800000000E+03 0.  0.
<mgrwt>
<rscale>  0 0.42668649E+03</rscale>
<asrwt>0</asrwt>
<pdfrwt beam="1">  1        2 0.19013081E+00 0.42668649E+03</pdfrwt>
<pdfrwt beam="2">  1       -2 0.48855022E-02 0.42668649E+03</pdfrwt>
<totfact> 0.38819564E+03</totfact>
</mgrwt>
</event>
<event>
 4    1  0.6346694E-005  0.5153044E+03  0.7818608E-02  0.1009860E+00
          2   -1    0    0  501    0  0.00000000000E+00  0.00000000000E+00  0.16971158007E+03  0.16971158008E+03  0.25500000000E-02 0.  1.
         -2   -1    0    0    0  501 -0.00000000000E+00 -0.00000000000E+00 -0.39116160256E+03  0.39116160257E+03  0.25500000000E-02 0. -1.
    5000001    1    1    2    0    0 -0.16582859646E+03  0.57677517467E+02 -0.94771636866E+02  0.27413770733E+03  0.18800000000E+03 0.  0.
   -5000001    1    1    2    0    0  0.16582859646E+03 -0.57677517467E+02 -0.12667838563E+03  0.28673547533E+03  0.18800000000E+03 0.  0.
<mgrwt>
<rscale>  0 0.51530439E+03</rscale>
<asrwt>0</asrwt>
<pdfrwt beam="1">  1        2 0.24244512E-01 0.51530439E+03</pdfrwt>
<pdfrwt beam="2">  1       -2 0.55880228E-01 0.51530439E+03</pdfrwt>
<totfact> 0.68692580E+02</totfact>
</mgrwt>
</event>
<event>
 4    1  0.6346694E-005  0.4998607E+03  0.7818608E-02  0.1013815E+00
          2   -1    0    0  501    0  0.00000000000E+00  0.00000000000E+00  0.15357231731E+04  0.15357231731E+04  0.25500000000E-02 0.  1.
         -2   -1    0    0    0  501 -0.00000000000E+00 -0.00000000000E+00 -0.40674759293E+02  0.40674759373E+02  0.25500000000E-02 0. -1.
    5000001    1    1    2    0    0  0.69016572888E+02  0.83443612211E+02  0.11388220030E+04  0.11593039628E+04  0.18800000000E+03 0.  0.
   -5000001    1    1    2    0    0 -0.69016572888E+02 -0.83443612211E+02  0.35622641087E+03  0.41709396969E+03  0.18800000000E+03 0.  0.
<mgrwt>
<rscale>  0 0.49986066E+03</rscale>
<asrwt>0</asrwt>
<pdfrwt beam="1">  1        2 0.21938901E+00 0.49986066E+03</pdfrwt>
<pdfrwt beam="2">  1       -2 0.58106802E-02 0.49986066E+03</pdfrwt>
<totfact> 0.23187192E+03</totfact>
</mgrwt>
</event>
<event>
 4    1  0.6346694E-005  0.5533033E+03  0.7818608E-02  0.1000732E+00
          2   -1    0    0  501    0  0.00000000000E+00  0.00000000000E+00  0.14928551136E+04  0.14928551136E+04  0.25500000000E-02 0.  1.
         -2   -1    0    0    0  501 -0.00000000000E+00 -0.00000000000E+00 -0.51268303263E+02  0.51268303326E+02  0.25500000000E-02 0. -1.
    5000001    1    1    2    0    0 -0.32347268914E+02  0.19173547940E+03  0.55846686394E+03  0.62051436566E+03  0.18800000000E+03 0.  0.
   -5000001    1    1    2    0    0  0.32347268914E+02 -0.19173547940E+03  0.88311994643E+03  0.92360905130E+03  0.18800000000E+03 0.  0.
<mgrwt>
<rscale>  0 0.55330335E+03</rscale>
<asrwt>0</asrwt>
<pdfrwt beam="1">  1        2 0.21326499E+00 0.55330335E+03</pdfrwt>
<pdfrwt beam="2">  1       -2 0.73240442E-02 0.55330335E+03</pdfrwt>
<totfact> 0.16947787E+03</totfact>
</mgrwt>
</event>
<event>
 4    1  0.6346694E-005  0.9194561E+03  0.7818608E-02  0.9401582E-01
          2   -1    0    0  501    0  0.00000000000E+00  0.00000000000E+00  0.49934471544E+03  0.49934471545E+03  0.25500000000E-02 0.  1.
         -2   -1    0    0    0  501 -0.00000000000E+00 -0.00000000000E+00 -0.42325446965E+03  0.42325446965E+03  0.25500000000E-02 0. -1.
    5000001    1    1    2    0    0  0.14009147276E+03 -0.38452978793E+03 -0.54558514320E+02  0.45366222019E+03  0.18800000000E+03 0.  0.
   -5000001    1    1    2    0    0 -0.14009147276E+03  0.38452978793E+03  0.13064876012E+03  0.46893696491E+03  0.18800000000E+03 0.  0.
<mgrwt>
<rscale>  0 0.91945611E+03</rscale>
<asrwt>0</asrwt>
<pdfrwt beam="1">  1        2 0.71334959E-01 0.91945611E+03</pdfrwt>
<pdfrwt beam="2">  1       -2 0.60464924E-01 0.91945611E+03</pdfrwt>
<totfact> 0.17180641E+02</totfact>
</mgrwt>
</event>
<event>
 4    1  0.6346694E-005  0.5534038E+03  0.7818608E-02  0.1000709E+00
         -2   -1    0    0    0  501 -0.00000000000E+00  0.00000000000E+00  0.40644918684E+02  0.40644918764E+02  0.25500000000E-02 0. -1.
          2   -1    0    0  501    0  0.00000000000E+00 -0.00000000000E+00 -0.18837273930E+04  0.18837273931E+04  0.25500000000E-02 0.  1.
    5000001    1    1    2    0    0 -0.15224338045E+03 -0.13002839327E+03 -0.10386669971E+04  0.10743642589E+04  0.18800000000E+03 0.  0.
   -5000001    1    1    2    0    0  0.15224338045E+03  0.13002839327E+03 -0.80441547725E+03  0.85000805289E+03  0.18800000000E+03 0.  0.
<mgrwt>
<rscale>  0 0.55340382E+03</rscale>
<asrwt>0</asrwt>
<pdfrwt beam="1">  1        2 0.26910386E+00 0.55340382E+03</pdfrwt>
<pdfrwt beam="2">  1       -2 0.58064181E-02 0.55340382E+03</pdfrwt>
<totfact> 0.15440158E+03</totfact>
</mgrwt>
</event>
<event>
 4    1  0.6346694E-005  0.5294044E+03  0.7818608E-02  0.1006377E+00
         -2   -1    0    0    0  501 -0.00000000000E+00  0.00000000000E+00  0.61800527034E+03  0.61800527034E+03  0.25500000000E-02 0. -1.
          2   -1    0    0  501    0  0.00000000000E+00 -0.00000000000E+00 -0.11337648912E+03  0.11337648915E+03  0.25500000000E-02 0.  1.
    5000001    1    1    2    0    0 -0.73374514287E+02 -0.16929888925E+03  0.28826929680E+03  0.39049855407E+03  0.18800000000E+03 0.  0.
   -5000001    1    1    2    0    0  0.73374514287E+02  0.16929888925E+03  0.21635948441E+03  0.34088320543E+03  0.18800000000E+03 0.  0.
<mgrwt>
<rscale>  0 0.52940445E+03</rscale>
<asrwt>0</asrwt>
<pdfrwt beam="1">  1        2 0.16196641E-01 0.52940445E+03</pdfrwt>
<pdfrwt beam="2">  1       -2 0.88286467E-01 0.52940445E+03</pdfrwt>
<totfact> 0.40771028E+02</totfact>
</mgrwt>
</event>
<event>
 4    1  0.6346694E-005  0.5265045E+03  0.7818608E-02  0.1007083E+00
         -2   -1    0    0    0  501 -0.00000000000E+00  0.00000000000E+00  0.11693413560E+03  0.11693413563E+03  0.25500000000E-02 0. -1.
          2   -1    0    0  501    0  0.00000000000E+00 -0.00000000000E+00 -0.59265620454E+03  0.59265620454E+03  0.25500000000E-02 0.  1.
    5000001    1    1    2    0    0  0.40530729117E+02 -0.17696569093E+03 -0.28044072432E+03  0.38334135653E+03  0.18800000000E+03 0.  0.
   -5000001    1    1    2    0    0 -0.40530729117E+02  0.17696569093E+03 -0.19528134462E+03  0.32624898364E+03  0.18800000000E+03 0.  0.
<mgrwt>
<rscale>  0 0.52650448E+03</rscale>
<asrwt>0</asrwt>
<pdfrwt beam="1">  1        2 0.84665170E-01 0.52650448E+03</pdfrwt>
<pdfrwt beam="2">  1       -2 0.16704877E-01 0.52650448E+03</pdfrwt>
<totfact> 0.16028525E+03</totfact>
</mgrwt>
</event>
<event>
 4    1  0.6346694E-005  0.5761735E+03  0.7818608E-02  0.9956110E-01
          2   -1    0    0  501    0  0.00000000000E+00  0.00000000000E+00  0.17273547921E+04  0.17273547922E+04  0.25500000000E-02 0.  1.
         -2   -1    0    0    0  501 -0.00000000000E+00 -0.00000000000E+00 -0.48046864101E+02  0.48046864169E+02  0.25500000000E-02 0. -1.
    5000001    1    1    2    0    0 -0.16627639466E+03 -0.12429073972E+03  0.10475937668E+04  0.10843858758E+04  0.18800000000E+03 0.  0.
   -5000001    1    1    2    0    0  0.16627639466E+03  0.12429073972E+03  0.63171416122E+03  0.69101578049E+03  0.18800000000E+03 0.  0.
<mgrwt>
<rscale>  0 0.57617352E+03</rscale>
<asrwt>0</asrwt>
<pdfrwt beam="1">  1        2 0.24676492E+00 0.57617352E+03</pdfrwt>
<pdfrwt beam="2">  1       -2 0.68638392E-02 0.57617352E+03</pdfrwt>
<totfact> 0.14225333E+03</totfact>
</mgrwt>
</event>
<event>
 4    1  0.6346694E-005  0.1003635E+04  0.7818608E-02  0.9304567E-01
          2   -1    0    0  501    0  0.00000000000E+00  0.00000000000E+00  0.13501013971E+03  0.13501013973E+03  0.25500000000E-02 0.  1.
         -2   -1    0    0    0  501 -0.00000000000E+00 -0.00000000000E+00 -0.18651998032E+04  0.18651998032E+04  0.25500000000E-02 0. -1.
    5000001    1    1    2    0    0  0.43749668226E+03 -0.15033302292E+03 -0.76597568920E+03  0.91436651361E+03  0.18800000000E+03 0.  0.
   -5000001    1    1    2    0    0 -0.43749668226E+03  0.15033302292E+03 -0.96421397427E+03  0.10858434293E+04  0.18800000000E+03 0.  0.
<mgrwt>
<rscale>  0 0.10036352E+04</rscale>
<asrwt>0</asrwt>
<pdfrwt beam="1">  1        2 0.19287164E-01 0.10036352E+04</pdfrwt>
<pdfrwt beam="2">  1       -2 0.26645710E+00 0.10036352E+04</pdfrwt>
<totfact> 0.15260489E+01</totfact>
</mgrwt>
</event>
<event>
 4    1  0.6346694E-005  0.9281654E+03  0.7818608E-02  0.9391042E-01
          2   -1    0    0  501    0  0.00000000000E+00  0.00000000000E+00  0.62862252386E+03  0.62862252387E+03  0.25500000000E-02 0.  1.
         -2   -1    0    0    0  501 -0.00000000000E+00 -0.00000000000E+00 -0.34261061774E+03  0.34261061775E+03  0.25500000000E-02 0. -1.
    5000001    1    1    2    0    0  0.63756131828E+02  0.32317321842E+03  0.42285311939E+03  0.56802687791E+03  0.18800000000E+03 0.  0.
   -5000001    1    1    2    0    0 -0.63756131828E+02 -0.32317321842E+03 -0.13684121327E+03  0.40320626371E+03  0.18800000000E+03 0.  0.
<mgrwt>
<rscale>  0 0.92816540E+03</rscale>
<asrwt>0</asrwt>
<pdfrwt beam="1">  1        2 0.89803218E-01 0.92816540E+03</pdfrwt>
<pdfrwt beam="2">  1       -2 0.48944374E-01 0.92816540E+03</pdfrwt>
<totfact> 0.20313524E+02</totfact>
</mgrwt>
</event>
<event>
 4    1  0.6346694E-005  0.4291797E+03  0.7818608E-02  0.1034119E+00
          2   -1    0    0  501    0  0.00000000000E+00  0.00000000000E+00  0.67905236877E+03  0.67905236878E+03  0.25500000000E-02 0.  1.
         -2   -1    0    0    0  501 -0.00000000000E+00 -0.00000000000E+00 -0.67813342965E+02  0.67813343013E+02  0.25500000000E-02 0. -1.
    5000001    1    1    2    0    0 -0.90629272511E+02  0.33887570149E+02  0.36938791639E+03  0.42562126970E+03  0.18800000000E+03 0.  0.
   -5000001    1    1    2    0    0  0.90629272511E+02 -0.33887570149E+02  0.24185110941E+03  0.32124444209E+03  0.18800000000E+03 0.  0.
<mgrwt>
<rscale>  0 0.42917973E+03</rscale>
<asrwt>0</asrwt>
<pdfrwt beam="1">  1        2 0.97007475E-01 0.42917973E+03</pdfrwt>
<pdfrwt beam="2">  1       -2 0.96876210E-02 0.42917973E+03</pdfrwt>
<totfact> 0.33454179E+03</totfact>
</mgrwt>
</event>
<event>
 4    1  0.6346694E-005  0.9875396E+03  0.7818608E-02  0.9322318E-01
          2   -1    0    0  501    0  0.00000000000E+00  0.00000000000E+00  0.17648689310E+04  0.17648689310E+04  0.25500000000E-02 0.  1.
         -2   -1    0    0    0  501 -0.00000000000E+00 -0.00000000000E+00 -0.13814545102E+03  0.13814545104E+03  0.25500000000E-02 0. -1.
    5000001    1    1    2    0    0  0.16401534525E+02 -0.38930807961E+03  0.35476672824E+03  0.55949371994E+03  0.18800000000E+03 0.  0.
   -5000001    1    1    2    0    0 -0.16401534525E+02  0.38930807961E+03  0.12719567517E+04  0.13435206621E+04  0.18800000000E+03 0.  0.
<mgrwt>
<rscale>  0 0.98753960E+03</rscale>
<asrwt>0</asrwt>
<pdfrwt beam="1">  1        2 0.25212413E+00 0.98753960E+03</pdfrwt>
<pdfrwt beam="2">  1       -2 0.19735064E-01 0.98753960E+03</pdfrwt>
<totfact> 0.23185963E+02</totfact>
</mgrwt>
</event>
<event>
 4    1  0.6346694E-005  0.4691131E+03  0.7818608E-02  0.1022171E+00
          2   -1    0    0  501    0  0.00000000000E+00  0.00000000000E+00  0.48761960775E+03  0.48761960776E+03  0.25500000000E-02 0.  1.
         -2   -1    0    0    0  501 -0.00000000000E+00 -0.00000000000E+00 -0.11282723635E+03  0.11282723638E+03  0.25500000000E-02 0. -1.
    5000001    1    1    2    0    0  0.12306619392E+03  0.54471381403E+02  0.13683602075E+03  0.26866431853E+03  0.18800000000E+03 0.  0.
   -5000001    1    1    2    0    0 -0.12306619392E+03 -0.54471381403E+02  0.23795635066E+03  0.33178252561E+03  0.18800000000E+03 0.  0.
<mgrwt>
<rscale>  0 0.46911309E+03</rscale>
<asrwt>0</asrwt>
<pdfrwt beam="1">  1        2 0.69659945E-01 0.46911309E+03</pdfrwt>
<pdfrwt beam="2">  1       -2 0.16118176E-01 0.46911309E+03</pdfrwt>
<totfact> 0.21280261E+03</totfact>
</mgrwt>
</event>
<event>
 4    1  0.6346694E-005  0.1578203E+04  0.7818608E-02  0.8834052E-01
         -2   -1    0    0    0  501 -0.00000000000E+00  0.00000000000E+00  0.24743370166E+03  0.24743370168E+03  0.25500000000E-02 0. -1.
          2   -1    0    0  501    0  0.00000000000E+00 -0.00000000000E+00 -0.25165584578E+04  0.25165584578E+04  0.25500000000E-02 0.  1.
    5000001    1    1    2    0    0 -0.52581175282E+03 -0.35403495234E+03 -0.38022151380E+03  0.76271301709E+03  0.18800000000E+03 0.  0.
   -5000001    1    1    2    0    0  0.52581175282E+03  0.35403495234E+03 -0.18889032424E+04  0.20012791424E+04  0.18800000000E+03 0.  0.
<mgrwt>
<rscale>  0 0.15782033E+04</rscale>
<asrwt>0</asrwt>
<pdfrwt beam="1">  1        2 0.35950834E+00 0.15782033E+04</pdfrwt>
<pdfrwt beam="2">  1       -2 0.35347673E-01 0.15782033E+04</pdfrwt>
<totfact> 0.31287322E+01</totfact>
</mgrwt>
</event>
<event>
 4    1  0.6346694E-005  0.4775577E+03  0.7818608E-02  0.1019809E+00
          2   -1    0    0  501    0  0.00000000000E+00  0.00000000000E+00  0.23579376315E+04  0.23579376315E+04  0.25500000000E-02 0.  1.
         -2   -1    0    0    0  501 -0.00000000000E+00 -0.00000000000E+00 -0.24180176113E+02  0.24180176247E+02  0.25500000000E-02 0. -1.
    5000001    1    1    2    0    0  0.12678395402E+03 -0.65904125882E+02  0.13435050355E+04  0.13640994485E+04  0.18800000000E+03 0.  0.
   -5000001    1    1    2    0    0 -0.12678395402E+03  0.65904125882E+02  0.99025241980E+03  0.10180183592E+04  0.18800000000E+03 0.  0.
<mgrwt>
<rscale>  0 0.47755773E+03</rscale>
<asrwt>0</asrwt>
<pdfrwt beam="1">  1        2 0.33684827E+00 0.47755773E+03</pdfrwt>
<pdfrwt beam="2">  1       -2 0.34543105E-02 0.47755773E+03</pdfrwt>
<totfact> 0.19943311E+03</totfact>
</mgrwt>
</event>
<event>
 4    1  0.6346694E-005  0.3859233E+03  0.7818608E-02  0.1048766E+00
         -2   -1    0    0    0  501 -0.00000000000E+00  0.00000000000E+00  0.10779727442E+03  0.10779727445E+03  0.25500000000E-02 0. -1.
          2   -1    0    0  501    0  0.00000000000E+00 -0.00000000000E+00 -0.34540947074E+03  0.34540947075E+03  0.25500000000E-02 0.  1.
    5000001    1    1    2    0    0  0.11776487226E+02  0.38988051907E+02 -0.10094040424E+03  0.21723655091E+03  0.18800000000E+03 0.  0.
   -5000001    1    1    2    0    0 -0.11776487226E+02 -0.38988051907E+02 -0.13667179208E+03  0.23597019429E+03  0.18800000000E+03 0.  0.
<mgrwt>
<rscale>  0 0.38592331E+03</rscale>
<asrwt>0</asrwt>
<pdfrwt beam="1">  1        2 0.49344210E-01 0.38592331E+03</pdfrwt>
<pdfrwt beam="2">  1       -2 0.15399611E-01 0.38592331E+03</pdfrwt>
<totfact> 0.33517044E+03</totfact>
</mgrwt>
</event>
<event>
 4    1  0.6346694E-005  0.5138005E+03  0.7818608E-02  0.1010238E+00
          2   -1    0    0  501    0  0.00000000000E+00  0.00000000000E+00  0.12571022851E+04  0.12571022851E+04  0.25500000000E-02 0.  1.
         -2   -1    0    0    0  501 -0.00000000000E+00 -0.00000000000E+00 -0.52499900684E+02  0.52499900746E+02  0.25500000000E-02 0. -1.
    5000001    1    1    2    0    0  0.17151031568E+03  0.18337134737E+01  0.51274265839E+03  0.57242308184E+03  0.18800000000E+03 0.  0.
   -5000001    1    1    2    0    0 -0.17151031568E+03 -0.18337134737E+01  0.69185972601E+03  0.73717910400E+03  0.18800000000E+03 0.  0.
<mgrwt>
<rscale>  0 0.51380053E+03</rscale>
<asrwt>0</asrwt>
<pdfrwt beam="1">  1        2 0.17958602E+00 0.51380053E+03</pdfrwt>
<pdfrwt beam="2">  1       -2 0.74999867E-02 0.51380053E+03</pdfrwt>
<totfact> 0.21811496E+03</totfact>
</mgrwt>
</event>
<event>
 4    1  0.6346694E-005  0.6810364E+03  0.7818608E-02  0.9750224E-01
         -2   -1    0    0    0  501 -0.00000000000E+00  0.00000000000E+00  0.12431412507E+03  0.12431412510E+03  0.25500000000E-02 0. -1.
          2   -1    0    0  501    0  0.00000000000E+00 -0.00000000000E+00 -0.93273910258E+03  0.93273910258E+03  0.25500000000E-02 0.  1.
    5000001    1    1    2    0    0  0.16654295671E+03 -0.22909361555E+03 -0.43479384432E+03  0.55191496462E+03  0.18800000000E+03 0.  0.
   -5000001    1    1    2    0    0 -0.16654295671E+03  0.22909361555E+03 -0.37363113319E+03  0.50513826306E+03  0.18800000000E+03 0.  0.
<mgrwt>
<rscale>  0 0.68103640E+03</rscale>
<asrwt>0</asrwt>
<pdfrwt beam="1">  1        2 0.13324844E+00 0.68103640E+03</pdfrwt>
<pdfrwt beam="2">  1       -2 0.17759161E-01 0.68103640E+03</pdfrwt>
<totfact> 0.81593050E+02</totfact>
</mgrwt>
</event>
<event>
 4    1  0.6346694E-005  0.4338259E+03  0.7818608E-02  0.1032658E+00
          2   -1    0    0  501    0  0.00000000000E+00  0.00000000000E+00  0.29551850766E+03  0.29551850767E+03  0.25500000000E-02 0.  1.
         -2   -1    0    0    0  501 -0.00000000000E+00 -0.00000000000E+00 -0.15921583384E+03  0.15921583386E+03  0.25500000000E-02 0. -1.
    5000001    1    1    2    0    0  0.10498935736E+03  0.15929490279E+02  0.46397509783E+02  0.22084664981E+03  0.18800000000E+03 0.  0.
   -5000001    1    1    2    0    0 -0.10498935736E+03 -0.15929490279E+02  0.89905164030E+02  0.23388769172E+03  0.18800000000E+03 0.  0.
<mgrwt>
<rscale>  0 0.43382589E+03</rscale>
<asrwt>0</asrwt>
<pdfrwt beam="1">  1        2 0.42216929E-01 0.43382589E+03</pdfrwt>
<pdfrwt beam="2">  1       -2 0.22745120E-01 0.43382589E+03</pdfrwt>
<totfact> 0.20407690E+03</totfact>
</mgrwt>
</event>
<event>
 4    1  0.6346694E-005  0.5796542E+03  0.7818608E-02  0.9948540E-01
          2   -1    0    0  501    0  0.00000000000E+00  0.00000000000E+00  0.53306309838E+02  0.53306309899E+02  0.25500000000E-02 0.  1.
         -2   -1    0    0    0  501 -0.00000000000E+00 -0.00000000000E+00 -0.15757935665E+04  0.15757935665E+04  0.25500000000E-02 0. -1.
    5000001    1    1    2    0    0  0.15337389881E+03 -0.11490209661E+03 -0.10682118535E+04  0.11014293480E+04  0.18800000000E+03 0.  0.
   -5000001    1    1    2    0    0 -0.15337389881E+03  0.11490209661E+03 -0.45427540316E+03  0.52767052841E+03  0.18800000000E+03 0.  0.
<mgrwt>
<rscale>  0 0.57965417E+03</rscale>
<asrwt>0</asrwt>
<pdfrwt beam="1">  1        2 0.76151881E-02 0.57965417E+03</pdfrwt>
<pdfrwt beam="2">  1       -2 0.22511334E+00 0.57965417E+03</pdfrwt>
<totfact> 0.89565792E+01</totfact>
</mgrwt>
</event>
<event>
 4    1  0.6346694E-005  0.6115058E+03  0.7818608E-02  0.9881819E-01
          2   -1    0    0  501    0  0.00000000000E+00  0.00000000000E+00  0.29709555711E+03  0.29709555712E+03  0.25500000000E-02 0.  1.
         -2   -1    0    0    0  501 -0.00000000000E+00 -0.00000000000E+00 -0.31466246686E+03  0.31466246687E+03  0.25500000000E-02 0. -1.
    5000001    1    1    2    0    0 -0.15015364396E+02 -0.22987808373E+03 -0.80026781458E+02  0.30792479650E+03  0.18800000000E+03 0.  0.
   -5000001    1    1    2    0    0  0.15015364396E+02  0.22987808373E+03  0.62459871709E+02  0.30383322748E+03  0.18800000000E+03 0.  0.
<mgrwt>
<rscale>  0 0.61150575E+03</rscale>
<asrwt>0</asrwt>
<pdfrwt beam="1">  1        2 0.42442223E-01 0.61150575E+03</pdfrwt>
<pdfrwt beam="2">  1       -2 0.44951781E-01 0.61150575E+03</pdfrwt>
<totfact> 0.56980950E+02</totfact>
</mgrwt>
</event>
<event>
 4    1  0.6346694E-005  0.6042045E+03  0.7818608E-02  0.9896721E-01
          2   -1    0    0  501    0  0.00000000000E+00  0.00000000000E+00  0.17860790853E+04  0.17860790853E+04  0.25500000000E-02 0.  1.
         -2   -1    0    0    0  501 -0.00000000000E+00 -0.00000000000E+00 -0.51098396130E+02  0.51098396194E+02  0.25500000000E-02 0. -1.
    5000001    1    1    2    0    0  0.21771811740E+03  0.39345428306E+02  0.11213902283E+04  0.11583649189E+04  0.18800000000E+03 0.  0.
   -5000001    1    1    2    0    0 -0.21771811740E+03 -0.39345428306E+02  0.61359046087E+03  0.67881256252E+03  0.18800000000E+03 0.  0.
<mgrwt>
<rscale>  0 0.60420452E+03</rscale>
<asrwt>0</asrwt>
<pdfrwt beam="1">  1        2 0.25515417E+00 0.60420452E+03</pdfrwt>
<pdfrwt beam="2">  1       -2 0.72997705E-02 0.60420452E+03</pdfrwt>
<totfact> 0.12037277E+03</totfact>
</mgrwt>
</event>
<event>
 4    1  0.6346694E-005  0.7536130E+03  0.7818608E-02  0.9629699E-01
          2   -1    0    0  501    0  0.00000000000E+00  0.00000000000E+00  0.16302102218E+04  0.16302102218E+04  0.25500000000E-02 0.  1.
         -2   -1    0    0    0  501 -0.00000000000E+00 -0.00000000000E+00 -0.87094990016E+02  0.87094990054E+02  0.25500000000E-02 0. -1.
    5000001    1    1    2    0    0  0.14170520154E+03  0.28697583182E+03  0.62381274356E+03  0.72589381539E+03  0.18800000000E+03 0.  0.
   -5000001    1    1    2    0    0 -0.14170520154E+03 -0.28697583182E+03  0.91930248820E+03  0.99141139645E+03  0.18800000000E+03 0.  0.
<mgrwt>
<rscale>  0 0.75361301E+03</rscale>
<asrwt>0</asrwt>
<pdfrwt beam="1">  1        2 0.23288718E+00 0.75361301E+03</pdfrwt>
<pdfrwt beam="2">  1       -2 0.12442141E-01 0.75361301E+03</pdfrwt>
<totfact> 0.60505918E+02</totfact>
</mgrwt>
</event>
<event>
 4    1  0.6346694E-005  0.6315402E+03  0.7818608E-02  0.9842048E-01
         -2   -1    0    0    0  501 -0.00000000000E+00  0.00000000000E+00  0.41781813523E+02  0.41781813600E+02  0.25500000000E-02 0. -1.
          2   -1    0    0  501    0  0.00000000000E+00 -0.00000000000E+00 -0.23864627868E+04  0.23864627868E+04  0.25500000000E-02 0.  1.
    5000001    1    1    2    0    0  0.12405199085E+03 -0.19607126568E+01 -0.32144884337E+03  0.39251254723E+03  0.18800000000E+03 0.  0.
   -5000001    1    1    2    0    0 -0.12405199085E+03  0.19607126568E+01 -0.20232321299E+04  0.20357320531E+04  0.18800000000E+03 0.  0.
<mgrwt>
<rscale>  0 0.63154016E+03</rscale>
<asrwt>0</asrwt>
<pdfrwt beam="1">  1        2 0.34092317E+00 0.63154016E+03</pdfrwt>
<pdfrwt beam="2">  1       -2 0.59688320E-02 0.63154016E+03</pdfrwt>
<totfact> 0.82175453E+02</totfact>
</mgrwt>
</event>
<event>
 4    1  0.6346694E-005  0.5277321E+03  0.7818608E-02  0.1006784E+00
         -2   -1    0    0    0  501 -0.00000000000E+00  0.00000000000E+00  0.28256305991E+03  0.28256305992E+03  0.25500000000E-02 0. -1.
          2   -1    0    0  501    0  0.00000000000E+00 -0.00000000000E+00 -0.24640622152E+03  0.24640622153E+03  0.25500000000E-02 0.  1.
    5000001    1    1    2    0    0 -0.10978058523E+03  0.68878782348E+02  0.15062014886E+03  0.27354431596E+03  0.18800000000E+03 0.  0.
   -5000001    1    1    2    0    0  0.10978058523E+03 -0.68878782348E+02 -0.11446331047E+03  0.25542496549E+03  0.18800000000E+03 0.  0.
<mgrwt>
<rscale>  0 0.52773211E+03</rscale>
<asrwt>0</asrwt>
<pdfrwt beam="1">  1        2 0.35200889E-01 0.52773211E+03</pdfrwt>
<pdfrwt beam="2">  1       -2 0.40366151E-01 0.52773211E+03</pdfrwt>
<totfact> 0.86624779E+02</totfact>
</mgrwt>
</event>
<event>
 4    1  0.6346694E-005  0.6803113E+03  0.7818608E-02  0.9751508E-01
         -2   -1    0    0    0  501 -0.00000000000E+00  0.00000000000E+00  0.33966124573E+03  0.33966124574E+03  0.25500000000E-02 0. -1.
          2   -1    0    0  501    0  0.00000000000E+00 -0.00000000000E+00 -0.34065081695E+03  0.34065081696E+03  0.25500000000E-02 0.  1.
    5000001    1    1    2    0    0  0.69251439074E+02 -0.25550468707E+03  0.10091278651E+03  0.34000852549E+03  0.18800000000E+03 0.  0.
   -5000001    1    1    2    0    0 -0.69251439074E+02  0.25550468707E+03 -0.10190235772E+03  0.34030353721E+03  0.18800000000E+03 0.  0.
<mgrwt>
<rscale>  0 0.68031134E+03</rscale>
<asrwt>0</asrwt>
<pdfrwt beam="1">  1        2 0.48664402E-01 0.68031134E+03</pdfrwt>
<pdfrwt beam="2">  1       -2 0.48523035E-01 0.68031134E+03</pdfrwt>
<totfact> 0.41971172E+02</totfact>
</mgrwt>
</event>
<event>
 4    1  0.6346694E-005  0.7465143E+03  0.7818608E-02  0.9640835E-01
          2   -1    0    0  501    0  0.00000000000E+00  0.00000000000E+00  0.29590289357E+04  0.29590289357E+04  0.25500000000E-02 0.  1.
         -2   -1    0    0    0  501 -0.00000000000E+00 -0.00000000000E+00 -0.47083322859E+02  0.47083322928E+02  0.25500000000E-02 0. -1.
    5000001    1    1    2    0    0 -0.27429381575E+03  0.16623555880E+03  0.15898656931E+04  0.16327548134E+04  0.18800000000E+03 0.  0.
   -5000001    1    1    2    0    0  0.27429381575E+03 -0.16623555880E+03  0.13220799197E+04  0.13733574452E+04  0.18800000000E+03 0.  0.
<mgrwt>
<rscale>  0 0.74651434E+03</rscale>
<asrwt>0</asrwt>
<pdfrwt beam="1">  1        2 0.42271847E+00 0.74651434E+03</pdfrwt>
<pdfrwt beam="2">  1       -2 0.67261881E-02 0.74651434E+03</pdfrwt>
<totfact> 0.33748656E+02</totfact>
</mgrwt>
</event>
<event>
 4    1  0.6346694E-005  0.1025914E+04  0.7818608E-02  0.9280571E-01
          2   -1    0    0  501    0  0.00000000000E+00  0.00000000000E+00  0.70953243553E+03  0.70953243554E+03  0.25500000000E-02 0.  1.
         -2   -1    0    0    0  501 -0.00000000000E+00 -0.00000000000E+00 -0.37084243613E+03  0.37084243614E+03  0.25500000000E-02 0. -1.
    5000001    1    1    2    0    0 -0.30322496248E+03 -0.93954703427E+02  0.54464534184E+03  0.65784147981E+03  0.18800000000E+03 0.  0.
   -5000001    1    1    2    0    0  0.30322496248E+03  0.93954703427E+02 -0.20595534244E+03  0.42253339187E+03  0.18800000000E+03 0.  0.
<mgrwt>
<rscale>  0 0.10259137E+04</rscale>
<asrwt>0</asrwt>
<pdfrwt beam="1">  1        2 0.10136177E+00 0.10259137E+04</pdfrwt>
<pdfrwt beam="2">  1       -2 0.52977492E-01 0.10259137E+04</pdfrwt>
<totfact> 0.14828477E+02</totfact>
</mgrwt>
</event>
<event>
 4    1  0.6346694E-005  0.4766613E+03  0.7818608E-02  0.1020057E+00
         -2   -1    0    0    0  501 -0.00000000000E+00  0.00000000000E+00  0.56035542010E+02  0.56035542068E+02  0.25500000000E-02 0.  1.
          2   -1    0    0  501    0  0.00000000000E+00 -0.00000000000E+00 -0.10136693104E+04  0.10136693104E+04  0.25500000000E-02 0. -1.
    5000001    1    1    2    0    0 -0.14574817001E+03  0.10538210905E+02 -0.45593895112E+03  0.51437137372E+03  0.18800000000E+03 0.  0.
   -5000001    1    1    2    0    0  0.14574817001E+03 -0.10538210905E+02 -0.50169481729E+03  0.55533347877E+03  0.18800000000E+03 0.  0.
<mgrwt>
<rscale>  0 0.47666134E+03</rscale>
<asrwt>0</asrwt>
<pdfrwt beam="1">  1        2 0.14480989E+00 0.47666134E+03</pdfrwt>
<pdfrwt beam="2">  1       -2 0.80050781E-02 0.47666134E+03</pdfrwt>
<totfact> 0.27096206E+03</totfact>
</mgrwt>
</event>
<event>
 4    1  0.6346694E-005  0.5411754E+03  0.7818608E-02  0.1003557E+00
          2   -1    0    0  501    0  0.00000000000E+00  0.00000000000E+00  0.77253907285E+03  0.77253907286E+03  0.25500000000E-02 0.  1.
         -2   -1    0    0    0  501 -0.00000000000E+00 -0.00000000000E+00 -0.94775390640E+02  0.94775390674E+02  0.25500000000E-02 0. -1.
    5000001    1    1    2    0    0 -0.16948367182E+03 -0.61029626657E+02  0.45691741353E+03  0.52589623799E+03  0.18800000000E+03 0.  0.
   -5000001    1    1    2    0    0  0.16948367182E+03  0.61029626657E+02  0.22084626868E+03  0.34141822554E+03  0.18800000000E+03 0.  0.
<mgrwt>
<rscale>  0 0.54117536E+03</rscale>
<asrwt>0</asrwt>
<pdfrwt beam="1">  1        2 0.11036273E+00 0.54117536E+03</pdfrwt>
<pdfrwt beam="2">  1       -2 0.13539341E-01 0.54117536E+03</pdfrwt>
<totfact> 0.16556751E+03</totfact>
</mgrwt>
</event>
<event>
 4    1  0.6346694E-005  0.7147731E+03  0.7818608E-02  0.9692297E-01
          2   -1    0    0  501    0  0.00000000000E+00  0.00000000000E+00  0.61993820673E+03  0.61993820673E+03  0.25500000000E-02 0.  1.
         -2   -1    0    0    0  501 -0.00000000000E+00 -0.00000000000E+00 -0.20602882172E+03  0.20602882173E+03  0.25500000000E-02 0. -1.
    5000001    1    1    2    0    0  0.29507660366E+03 -0.27431224905E+02  0.28497430639E+03  0.45208077755E+03  0.18800000000E+03 0.  0.
   -5000001    1    1    2    0    0 -0.29507660366E+03  0.27431224905E+02  0.12893507862E+03  0.37388625092E+03  0.18800000000E+03 0.  0.
<mgrwt>
<rscale>  0 0.71477308E+03</rscale>
<asrwt>0</asrwt>
<pdfrwt beam="1">  1        2 0.88562600E-01 0.71477308E+03</pdfrwt>
<pdfrwt beam="2">  1       -2 0.29432689E-01 0.71477308E+03</pdfrwt>
<totfact> 0.55664757E+02</totfact>
</mgrwt>
</event>
<event>
 4    1  0.6346694E-005  0.9041509E+03  0.7818608E-02  0.9420407E-01
         -2   -1    0    0    0  501 -0.00000000000E+00  0.00000000000E+00  0.92442067752E+02  0.92442067787E+02  0.25500000000E-02 0. -1.
          2   -1    0    0  501    0  0.00000000000E+00 -0.00000000000E+00 -0.22108140311E+04  0.22108140311E+04  0.25500000000E-02 0.  1.
    5000001    1    1    2    0    0 -0.29562199972E+03  0.28480343169E+03 -0.11174356725E+04  0.12052019929E+04  0.18800000000E+03 0.  0.
   -5000001    1    1    2    0    0  0.29562199972E+03 -0.28480343169E+03 -0.10009362908E+04  0.10980541060E+04  0.18800000000E+03 0.  0.
<mgrwt>
<rscale>  0 0.90415092E+03</rscale>
<asrwt>0</asrwt>
<pdfrwt beam="1">  1        2 0.31583054E+00 0.90415092E+03</pdfrwt>
<pdfrwt beam="2">  1       -2 0.13206011E-01 0.90415092E+03</pdfrwt>
<totfact> 0.27451427E+02</totfact>
</mgrwt>
</event>
<event>
 4    1  0.6346694E-005  0.4230145E+03  0.7818608E-02  0.1036090E+00
          2   -1    0    0  501    0  0.00000000000E+00  0.00000000000E+00  0.88974368101E+03  0.88974368101E+03  0.25500000000E-02 0.  1.
         -2   -1    0    0    0  501 -0.00000000000E+00 -0.00000000000E+00 -0.50278889607E+02  0.50278889671E+02  0.25500000000E-02 0. -1.
    5000001    1    1    2    0    0 -0.35473737181E+02  0.77844000884E+02  0.52091568915E+03  0.56037061817E+03  0.18800000000E+03 0.  0.
   -5000001    1    1    2    0    0  0.35473737181E+02 -0.77844000884E+02  0.31854910225E+03  0.37965195251E+03  0.18800000000E+03 0.  0.
<mgrwt>
<rscale>  0 0.42301454E+03</rscale>
<asrwt>0</asrwt>
<pdfrwt beam="1">  1        2 0.12710622E+00 0.42301454E+03</pdfrwt>
<pdfrwt beam="2">  1       -2 0.71826994E-02 0.42301454E+03</pdfrwt>
<totfact> 0.38334592E+03</totfact>
</mgrwt>
</event>
<event>
 4    1  0.6346694E-005  0.5813468E+03  0.7818608E-02  0.9944880E-01
         -2   -1    0    0    0  501 -0.00000000000E+00  0.00000000000E+00  0.22104433978E+03  0.22104433979E+03  0.25500000000E-02 0. -1.
          2   -1    0    0  501    0  0.00000000000E+00 -0.00000000000E+00 -0.38223560918E+03  0.38223560919E+03  0.25500000000E-02 0.  1.
    5000001    1    1    2    0    0  0.25427157248E+02 -0.21705529123E+03 -0.11924983500E+03  0.31196804792E+03  0.18800000000E+03 0.  0.
   -5000001    1    1    2    0    0 -0.25427157248E+02  0.21705529123E+03 -0.41941434401E+02  0.29131190105E+03  0.18800000000E+03 0.  0.
<mgrwt>
<rscale>  0 0.58134677E+03</rscale>
<asrwt>0</asrwt>
<pdfrwt beam="1">  1        2 0.54605087E-01 0.58134677E+03</pdfrwt>
<pdfrwt beam="2">  1       -2 0.31577763E-01 0.58134677E+03</pdfrwt>
<totfact> 0.85035573E+02</totfact>
</mgrwt>
</event>
<event>
 4    1  0.6346694E-005  0.5991899E+03  0.7818608E-02  0.9907088E-01
          2   -1    0    0  501    0  0.00000000000E+00  0.00000000000E+00  0.21973676971E+03  0.21973676973E+03  0.25500000000E-02 0. -1.
         -2   -1    0    0    0  501 -0.00000000000E+00 -0.00000000000E+00 -0.40847566167E+03  0.40847566168E+03  0.25500000000E-02 0.  1.
    5000001    1    1    2    0    0  0.11896649988E+03 -0.20064885683E+03 -0.93990598732E+02  0.31399239559E+03  0.18800000000E+03 0.  0.
   -5000001    1    1    2    0    0 -0.11896649988E+03  0.20064885683E+03 -0.94748293227E+02  0.31422003582E+03  0.18800000000E+03 0.  0.
<mgrwt>
<rscale>  0 0.59918986E+03</rscale>
<asrwt>0</asrwt>
<pdfrwt beam="1">  1        2 0.31390967E-01 0.59918986E+03</pdfrwt>
<pdfrwt beam="2">  1       -2 0.58353666E-01 0.59918986E+03</pdfrwt>
<totfact> 0.46834051E+02</totfact>
</mgrwt>
</event>
<event>
 4    1  0.6346694E-005  0.8933433E+03  0.7818608E-02  0.9433941E-01
          2   -1    0    0  501    0  0.00000000000E+00  0.00000000000E+00  0.13764327682E+04  0.13764327682E+04  0.25500000000E-02 0.  1.
         -2   -1    0    0    0  501 -0.00000000000E+00 -0.00000000000E+00 -0.14495117385E+03  0.14495117387E+03  0.25500000000E-02 0. -1.
    5000001    1    1    2    0    0 -0.32364792886E+03 -0.11153642397E+03  0.24660028401E+03  0.46189182262E+03  0.18800000000E+03 0.  0.
   -5000001    1    1    2    0    0  0.32364792886E+03  0.11153642397E+03  0.98488131039E+03  0.10594921195E+04  0.18800000000E+03 0.  0.
<mgrwt>
<rscale>  0 0.89334326E+03</rscale>
<asrwt>0</asrwt>
<pdfrwt beam="1">  1        2 0.19663326E+00 0.89334326E+03</pdfrwt>
<pdfrwt beam="2">  1       -2 0.20707310E-01 0.89334326E+03</pdfrwt>
<totfact> 0.34256823E+02</totfact>
</mgrwt>
</event>
<event>
 4    1  0.6346694E-005  0.1037755E+04  0.7818608E-02  0.9268078E-01
         -2   -1    0    0    0  501 -0.00000000000E+00  0.00000000000E+00  0.38930183558E+03  0.38930183559E+03  0.25500000000E-02 0. -1.
          2   -1    0    0  501    0  0.00000000000E+00 -0.00000000000E+00 -0.69158139207E+03  0.69158139207E+03  0.25500000000E-02 0.  1.
    5000001    1    1    2    0    0 -0.46596427489E+03  0.10720627323E+03 -0.75499244766E+02  0.51928799952E+03  0.18800000000E+03 0.  0.
   -5000001    1    1    2    0    0  0.46596427489E+03 -0.10720627323E+03 -0.22678031172E+03  0.56159522814E+03  0.18800000000E+03 0.  0.
<mgrwt>
<rscale>  0 0.10377551E+04</rscale>
<asrwt>0</asrwt>
<pdfrwt beam="1">  1        2 0.98797342E-01 0.10377551E+04</pdfrwt>
<pdfrwt beam="2">  1       -2 0.55614548E-01 0.10377551E+04</pdfrwt>
<totfact> 0.13832578E+02</totfact>
</mgrwt>
</event>
<event>
 4    1  0.6346694E-005  0.5195842E+03  0.7818608E-02  0.1008790E+00
         -2   -1    0    0    0  501 -0.00000000000E+00  0.00000000000E+00  0.52405671237E+02  0.52405671299E+02  0.25500000000E-02 0. -1.
          2   -1    0    0  501    0  0.00000000000E+00 -0.00000000000E+00 -0.12878746622E+04  0.12878746622E+04  0.25500000000E-02 0.  1.
    5000001    1    1    2    0    0 -0.90756970974E+02  0.15431421085E+03 -0.59216819918E+03  0.64657318192E+03  0.18800000000E+03 0.  0.
   -5000001    1    1    2    0    0  0.90756970974E+02 -0.15431421085E+03 -0.64330079173E+03  0.69370715154E+03  0.18800000000E+03 0.  0.
<mgrwt>
<rscale>  0 0.51958420E+03</rscale>
<asrwt>0</asrwt>
<pdfrwt beam="1">  1        2 0.18398207E+00 0.51958420E+03</pdfrwt>
<pdfrwt beam="2">  1       -2 0.74865253E-02 0.51958420E+03</pdfrwt>
<totfact> 0.21043189E+03</totfact>
</mgrwt>
</event>
<event>
 4    1  0.6346694E-005  0.9255382E+03  0.7818608E-02  0.9394209E-01
         -2   -1    0    0    0  501 -0.00000000000E+00  0.00000000000E+00  0.12161183031E+03  0.12161183034E+03  0.25500000000E-02 0. -1.
          2   -1    0    0  501    0  0.00000000000E+00 -0.00000000000E+00 -0.17609738163E+04  0.17609738163E+04  0.25500000000E-02 0.  1.
    5000001    1    1    2    0    0  0.22815646794E+03  0.17682478341E+03 -0.19113542964E+03  0.39395320833E+03  0.18800000000E+03 0.  0.
   -5000001    1    1    2    0    0 -0.22815646794E+03 -0.17682478341E+03 -0.14482265563E+04  0.14886324383E+04  0.18800000000E+03 0.  0.
<mgrwt>
<rscale>  0 0.92553822E+03</rscale>
<asrwt>0</asrwt>
<pdfrwt beam="1">  1        2 0.25156767E+00 0.92553822E+03</pdfrwt>
<pdfrwt beam="2">  1       -2 0.17373120E-01 0.92553822E+03</pdfrwt>
<totfact> 0.29182388E+02</totfact>
</mgrwt>
</event>
<event>
 4    1  0.6346694E-005  0.4657044E+03  0.7818608E-02  0.1023140E+00
         -2   -1    0    0    0  501 -0.00000000000E+00  0.00000000000E+00  0.11585257707E+03  0.11585257710E+03  0.25500000000E-02 0. -1.
          2   -1    0    0  501    0  0.00000000000E+00 -0.00000000000E+00 -0.46800981627E+03  0.46800981627E+03  0.25500000000E-02 0.  1.
    5000001    1    1    2    0    0 -0.12825805213E+03  0.45994804801E+02 -0.15398706375E+03  0.27860665069E+03  0.18800000000E+03 0.  0.
   -5000001    1    1    2    0    0  0.12825805213E+03 -0.45994804801E+02 -0.19817017544E+03  0.30525574268E+03  0.18800000000E+03 0.  0.
<mgrwt>
<rscale>  0 0.46570438E+03</rscale>
<asrwt>0</asrwt>
<pdfrwt beam="1">  1        2 0.66858544E-01 0.46570438E+03</pdfrwt>
<pdfrwt beam="2">  1       -2 0.16550368E-01 0.46570438E+03</pdfrwt>
<totfact> 0.21307138E+03</totfact>
</mgrwt>
</event>
<event>
 4    1  0.6346694E-005  0.6250485E+03  0.7818608E-02  0.9854759E-01
         -2   -1    0    0    0  501 -0.00000000000E+00  0.00000000000E+00  0.15148468129E+03  0.15148468131E+03  0.25500000000E-02 0. -1.
          2   -1    0    0  501    0  0.00000000000E+00 -0.00000000000E+00 -0.64476105143E+03  0.64476105143E+03  0.25500000000E-02 0.  1.
    5000001    1    1    2    0    0 -0.22426362918E+03 -0.96063614210E+02 -0.17916953087E+03  0.35632585387E+03  0.18800000000E+03 0.  0.
   -5000001    1    1    2    0    0  0.22426362918E+03  0.96063614210E+02 -0.31410683927E+03  0.43991987887E+03  0.18800000000E+03 0.  0.
<mgrwt>
<rscale>  0 0.62504855E+03</rscale>
<asrwt>0</asrwt>
<pdfrwt beam="1">  1        2 0.92108720E-01 0.62504855E+03</pdfrwt>
<pdfrwt beam="2">  1       -2 0.21640669E-01 0.62504855E+03</pdfrwt>
<totfact> 0.92646688E+02</totfact>
</mgrwt>
</event>
<event>
 4    1  0.6346694E-005  0.6036591E+03  0.7818608E-02  0.9897844E-01
         -2   -1    0    0    0  501 -0.00000000000E+00  0.00000000000E+00  0.42410512413E+02  0.42410512490E+02  0.25500000000E-02 0. -1.
          2   -1    0    0  501    0  0.00000000000E+00 -0.00000000000E+00 -0.21480776061E+04  0.21480776061E+04  0.25500000000E-02 0.  1.
    5000001    1    1    2    0    0 -0.35725102984E+02 -0.17896510392E+03 -0.15965586615E+04  0.16179148158E+04  0.18800000000E+03 0.  0.
   -5000001    1    1    2    0    0  0.35725102984E+02  0.17896510392E+03 -0.50910843217E+03  0.57257330283E+03  0.18800000000E+03 0.  0.
<mgrwt>
<rscale>  0 0.60365908E+03</rscale>
<asrwt>0</asrwt>
<pdfrwt beam="1">  1        2 0.30686816E+00 0.60365908E+03</pdfrwt>
<pdfrwt beam="2">  1       -2 0.60586460E-02 0.60365908E+03</pdfrwt>
<totfact> 0.10616250E+03</totfact>
</mgrwt>
</event>
<event>
 4    1  0.6346694E-005  0.6175849E+03  0.7818608E-02  0.9869580E-01
         -2   -1    0    0    0  501 -0.00000000000E+00  0.00000000000E+00  0.26085396385E+03  0.26085396387E+03  0.25500000000E-02 0. -1.
          2   -1    0    0  501    0  0.00000000000E+00 -0.00000000000E+00 -0.36554087309E+03  0.36554087310E+03  0.25500000000E-02 0.  1.
    5000001    1    1    2    0    0 -0.11324097089E+03  0.10620143786E+03 -0.24453671582E+03  0.34531792348E+03  0.18800000000E+03 0.  0.
   -5000001    1    1    2    0    0  0.11324097089E+03 -0.10620143786E+03  0.13984980658E+03  0.28107691348E+03  0.18800000000E+03 0.  0.
<mgrwt>
<rscale>  0 0.61758493E+03</rscale>
<asrwt>0</asrwt>
<pdfrwt beam="1">  1        2 0.52220124E-01 0.61758493E+03</pdfrwt>
<pdfrwt beam="2">  1       -2 0.37264852E-01 0.61758493E+03</pdfrwt>
<totfact> 0.65318787E+02</totfact>
</mgrwt>
</event>
<event>
 4    1  0.6346694E-005  0.4710226E+03  0.7818608E-02  0.1021632E+00
         -2   -1    0    0    0  501 -0.00000000000E+00  0.00000000000E+00  0.78289772002E+02  0.78289772043E+02  0.25500000000E-02 0.  1.
          2   -1    0    0  501    0  0.00000000000E+00 -0.00000000000E+00 -0.70846520761E+03  0.70846520762E+03  0.25500000000E-02 0. -1.
    5000001    1    1    2    0    0  0.47415701348E+02  0.10633058030E+03 -0.45044630615E+03  0.50179708625E+03  0.18800000000E+03 0.  0.
   -5000001    1    1    2    0    0 -0.47415701348E+02 -0.10633058030E+03 -0.17972912946E+03  0.28495789341E+03  0.18800000000E+03 0.  0.
<mgrwt>
<rscale>  0 0.47102263E+03</rscale>
<asrwt>0</asrwt>
<pdfrwt beam="1">  1        2 0.10120931E+00 0.47102263E+03</pdfrwt>
<pdfrwt beam="2">  1       -2 0.11184254E-01 0.47102263E+03</pdfrwt>
<totfact> 0.25223994E+03</totfact>
</mgrwt>
</event>
<event>
 4    1  0.6346694E-005  0.8851199E+03  0.7818608E-02  0.9444376E-01
          2   -1    0    0  501    0  0.00000000000E+00  0.00000000000E+00  0.16499957627E+04  0.16499957627E+04  0.25500000000E-02 0.  1.
         -2   -1    0    0    0  501 -0.00000000000E+00 -0.00000000000E+00 -0.11870290583E+03  0.11870290586E+03  0.25500000000E-02 0. -1.
    5000001    1    1    2    0    0  0.28685536371E+03 -0.14691448609E+03  0.29005481667E+03  0.47259460702E+03  0.18800000000E+03 0.  0.
   -5000001    1    1    2    0    0 -0.28685536371E+03  0.14691448609E+03  0.12412380402E+04  0.12961040615E+04  0.18800000000E+03 0.  0.
<mgrwt>
<rscale>  0 0.88511986E+03</rscale>
<asrwt>0</asrwt>
<pdfrwt beam="1">  1        2 0.23571369E+00 0.88511986E+03</pdfrwt>
<pdfrwt beam="2">  1       -2 0.16957558E-01 0.88511986E+03</pdfrwt>
<totfact> 0.34790231E+02</totfact>
</mgrwt>
</event>
<event>
 4    1  0.6346694E-005  0.6329505E+03  0.7818608E-02  0.9839308E-01
          2   -1    0    0  501    0  0.00000000000E+00  0.00000000000E+00  0.26006687755E+03  0.26006687756E+03  0.25500000000E-02 0.  1.
         -2   -1    0    0    0  501 -0.00000000000E+00 -0.00000000000E+00 -0.38511855653E+03  0.38511855654E+03  0.25500000000E-02 0. -1.
    5000001    1    1    2    0    0 -0.17185671140E+03  0.14351069561E+03  0.60987903952E+02  0.29865293140E+03  0.18800000000E+03 0.  0.
   -5000001    1    1    2    0    0  0.17185671140E+03 -0.14351069561E+03 -0.18603958294E+03  0.34653250270E+03  0.18800000000E+03 0.  0.
<mgrwt>
<rscale>  0 0.63295049E+03</rscale>
<asrwt>0</asrwt>
<pdfrwt beam="1">  1        2 0.37152411E-01 0.63295049E+03</pdfrwt>
<pdfrwt beam="2">  1       -2 0.55016937E-01 0.63295049E+03</pdfrwt>
<totfact> 0.43835149E+02</totfact>
</mgrwt>
</event>
<event>
 4    1  0.6346694E-005  0.5217920E+03  0.7818608E-02  0.1008242E+00
          2   -1    0    0  501    0  0.00000000000E+00  0.00000000000E+00  0.55346706136E+03  0.55346706136E+03  0.25500000000E-02 0.  1.
         -2   -1    0    0    0  501 -0.00000000000E+00 -0.00000000000E+00 -0.12298242724E+03  0.12298242727E+03  0.25500000000E-02 0. -1.
    5000001    1    1    2    0    0 -0.54015489010E+02  0.17261787829E+03  0.21154868840E+03  0.33587416174E+03  0.18800000000E+03 0.  0.
   -5000001    1    1    2    0    0  0.54015489010E+02 -0.17261787829E+03  0.21893594572E+03  0.34057532689E+03  0.18800000000E+03 0.  0.
<mgrwt>
<rscale>  0 0.52179200E+03</rscale>
<asrwt>0</asrwt>
<pdfrwt beam="1">  1        2 0.79066723E-01 0.52179200E+03</pdfrwt>
<pdfrwt beam="2">  1       -2 0.17568918E-01 0.52179200E+03</pdfrwt>
<totfact> 0.15924011E+03</totfact>
</mgrwt>
</event>
<event>
 4    1  0.6346694E-005  0.5392812E+03  0.7818608E-02  0.1004006E+00
          2   -1    0    0  501    0  0.00000000000E+00  0.00000000000E+00  0.27758524961E+04  0.27758524961E+04  0.25500000000E-02 0.  1.
         -2   -1    0    0    0  501 -0.00000000000E+00 -0.00000000000E+00 -0.26192336999E+02  0.26192337123E+02  0.25500000000E-02 0. -1.
    5000001    1    1    2    0    0  0.10133339505E+03  0.16028425036E+03  0.15694205077E+04  0.15919749457E+04  0.18800000000E+03 0.  0.
   -5000001    1    1    2    0    0 -0.10133339505E+03 -0.16028425036E+03  0.11802396514E+04  0.12100698875E+04  0.18800000000E+03 0.  0.
<mgrwt>
<rscale>  0 0.53928124E+03</rscale>
<asrwt>0</asrwt>
<pdfrwt beam="1">  1        2 0.39655019E+00 0.53928124E+03</pdfrwt>
<pdfrwt beam="2">  1       -2 0.37417640E-02 0.53928124E+03</pdfrwt>
<totfact> 0.10721419E+03</totfact>
</mgrwt>
</event>
<event>
 4    1  0.6346694E-005  0.6072017E+03  0.7818608E-02  0.9890576E-01
         -2   -1    0    0    0  501 -0.00000000000E+00  0.00000000000E+00  0.19993877365E+03  0.19993877367E+03  0.25500000000E-02 0. -1.
          2   -1    0    0  501    0  0.00000000000E+00 -0.00000000000E+00 -0.46100852601E+03  0.46100852602E+03  0.25500000000E-02 0.  1.
    5000001    1    1    2    0    0  0.21888323122E+03  0.50261424498E+02 -0.21757104630E+03  0.36485235355E+03  0.18800000000E+03 0.  0.
   -5000001    1    1    2    0    0 -0.21888323122E+03 -0.50261424498E+02 -0.43498706056E+02  0.29609494614E+03  0.18800000000E+03 0.  0.
<mgrwt>
<rscale>  0 0.60720171E+03</rscale>
<asrwt>0</asrwt>
<pdfrwt beam="1">  1        2 0.65858360E-01 0.60720171E+03</pdfrwt>
<pdfrwt beam="2">  1       -2 0.28562682E-01 0.60720171E+03</pdfrwt>
<totfact> 0.83019055E+02</totfact>
</mgrwt>
</event>
<event>
 4    1  0.6346694E-005  0.6137200E+03  0.7818608E-02  0.9877343E-01
         -2   -1    0    0    0  501 -0.00000000000E+00  0.00000000000E+00  0.10971996012E+03  0.10971996015E+03  0.25500000000E-02 0. -1.
          2   -1    0    0  501    0  0.00000000000E+00 -0.00000000000E+00 -0.85821256052E+03  0.85821256052E+03  0.25500000000E-02 0.  1.
    5000001    1    1    2    0    0  0.36416535505E+02  0.18379701122E+03 -0.61710559854E+03  0.67176694258E+03  0.18800000000E+03 0.  0.
   -5000001    1    1    2    0    0 -0.36416535505E+02 -0.18379701122E+03 -0.13138700186E+03  0.29616557810E+03  0.18800000000E+03 0.  0.
<mgrwt>
<rscale>  0 0.61371996E+03</rscale>
<asrwt>0</asrwt>
<pdfrwt beam="1">  1        2 0.12260179E+00 0.61371996E+03</pdfrwt>
<pdfrwt beam="2">  1       -2 0.15674280E-01 0.61371996E+03</pdfrwt>
<totfact> 0.11305229E+03</totfact>
</mgrwt>
</event>
<event>
 4    1  0.6346694E-005  0.6081128E+03  0.7818608E-02  0.9888716E-01
         -2   -1    0    0    0  501 -0.00000000000E+00  0.00000000000E+00  0.51640850218E+02  0.51640850281E+02  0.25500000000E-02 0. -1.
          2   -1    0    0  501    0  0.00000000000E+00 -0.00000000000E+00 -0.17902552233E+04  0.17902552233E+04  0.25500000000E-02 0.  1.
    5000001    1    1    2    0    0  0.21516277341E+03  0.38593772847E+02 -0.57687112096E+03  0.64490990732E+03  0.18800000000E+03 0.  0.
   -5000001    1    1    2    0    0 -0.21516277341E+03 -0.38593772847E+02 -0.11617432521E+04  0.11969861662E+04  0.18800000000E+03 0.  0.
<mgrwt>
<rscale>  0 0.60811282E+03</rscale>
<asrwt>0</asrwt>
<pdfrwt beam="1">  1        2 0.25575071E+00 0.60811282E+03</pdfrwt>
<pdfrwt beam="2">  1       -2 0.73772654E-02 0.60811282E+03</pdfrwt>
<totfact> 0.11777888E+03</totfact>
</mgrwt>
</event>
<event>
 4    1  0.6346694E-005  0.4838885E+03  0.7818608E-02  0.1018072E+00
         -2   -1    0    0    0  501 -0.00000000000E+00  0.00000000000E+00  0.76352598083E+02  0.76352598125E+02  0.25500000000E-02 0. -1.
          2   -1    0    0  501    0  0.00000000000E+00 -0.00000000000E+00 -0.76666712176E+03  0.76666712176E+03  0.25500000000E-02 0.  1.
    5000001    1    1    2    0    0  0.12368691090E+03  0.88354467161E+02 -0.36150616956E+03  0.43489731480E+03  0.18800000000E+03 0.  0.
   -5000001    1    1    2    0    0 -0.12368691090E+03 -0.88354467161E+02 -0.32880835412E+03  0.40812240508E+03  0.18800000000E+03 0.  0.
<mgrwt>
<rscale>  0 0.48388853E+03</rscale>
<asrwt>0</asrwt>
<pdfrwt beam="1">  1        2 0.10952387E+00 0.48388853E+03</pdfrwt>
<pdfrwt beam="2">  1       -2 0.10907514E-01 0.48388853E+03</pdfrwt>
<totfact> 0.23839508E+03</totfact>
</mgrwt>
</event>
<event>
 4    1  0.6346694E-005  0.7601825E+03  0.7818608E-02  0.9619510E-01
         -2   -1    0    0    0  501 -0.00000000000E+00  0.00000000000E+00  0.17567182058E+03  0.17567182060E+03  0.25500000000E-02 0. -1.
          2   -1    0    0  501    0  0.00000000000E+00 -0.00000000000E+00 -0.82238202042E+03  0.82238202043E+03  0.25500000000E-02 0.  1.
    5000001    1    1    2    0    0 -0.21343115942E+03  0.93157272885E+02 -0.63096434772E+03  0.69834887083E+03  0.18800000000E+03 0.  0.
   -5000001    1    1    2    0    0  0.21343115942E+03 -0.93157272885E+02 -0.15745852120E+02  0.29970497020E+03  0.18800000000E+03 0.  0.
<mgrwt>
<rscale>  0 0.76018247E+03</rscale>
<asrwt>0</asrwt>
<pdfrwt beam="1">  1        2 0.11748314E+00 0.76018247E+03</pdfrwt>
<pdfrwt beam="2">  1       -2 0.25095975E-01 0.76018247E+03</pdfrwt>
<totfact> 0.52356899E+02</totfact>
</mgrwt>
</event>
<event>
 4    1  0.6346694E-005  0.7679590E+03  0.7818608E-02  0.9607589E-01
         -2   -1    0    0    0  501 -0.00000000000E+00  0.00000000000E+00  0.17992706643E+03  0.17992706645E+03  0.25500000000E-02 0. -1.
          2   -1    0    0  501    0  0.00000000000E+00 -0.00000000000E+00 -0.81944451308E+03  0.81944451308E+03  0.25500000000E-02 0.  1.
    5000001    1    1    2    0    0  0.48427980490E+02 -0.19344245407E+03 -0.66974514329E+03  0.72364895446E+03  0.18800000000E+03 0.  0.
   -5000001    1    1    2    0    0 -0.48427980490E+02  0.19344245407E+03  0.30227696646E+02  0.27572262507E+03  0.18800000000E+03 0.  0.
<mgrwt>
<rscale>  0 0.76795898E+03</rscale>
<asrwt>0</asrwt>
<pdfrwt beam="1">  1        2 0.11706350E+00 0.76795898E+03</pdfrwt>
<pdfrwt beam="2">  1       -2 0.25703867E-01 0.76795898E+03</pdfrwt>
<totfact> 0.50360633E+02</totfact>
</mgrwt>
</event>
<event>
 4    1  0.6346694E-005  0.7365771E+03  0.7818608E-02  0.9656647E-01
         -2   -1    0    0    0  501 -0.00000000000E+00  0.00000000000E+00  0.52333688931E+02  0.52333688993E+02  0.25500000000E-02 0. -1.
          2   -1    0    0  501    0  0.00000000000E+00 -0.00000000000E+00 -0.25917618460E+04  0.25917618460E+04  0.25500000000E-02 0.  1.
    5000001    1    1    2    0    0 -0.30912862920E+03 -0.57522708261E+02 -0.11342966239E+04  0.11919908566E+04  0.18800000000E+03 0.  0.
   -5000001    1    1    2    0    0  0.30912862920E+03  0.57522708261E+02 -0.14051315332E+04  0.14521046784E+04  0.18800000000E+03 0.  0.
<mgrwt>
<rscale>  0 0.73657711E+03</rscale>
<asrwt>0</asrwt>
<pdfrwt beam="1">  1        2 0.37025161E+00 0.73657711E+03</pdfrwt>
<pdfrwt beam="2">  1       -2 0.74762429E-02 0.73657711E+03</pdfrwt>
<totfact> 0.44770136E+02</totfact>
</mgrwt>
</event>
<event>
 4    1  0.6346694E-005  0.4408649E+03  0.7818608E-02  0.1030482E+00
         -2   -1    0    0    0  501 -0.00000000000E+00  0.00000000000E+00  0.11930895358E+03  0.11930895361E+03  0.25500000000E-02 0. -1.
          2   -1    0    0  501    0  0.00000000000E+00 -0.00000000000E+00 -0.40726578003E+03  0.40726578004E+03  0.25500000000E-02 0.  1.
    5000001    1    1    2    0    0  0.65520940374E+01  0.11186321516E+03 -0.17535637876E+03  0.28044637351E+03  0.18800000000E+03 0.  0.
   -5000001    1    1    2    0    0 -0.65520940374E+01 -0.11186321516E+03 -0.11260044769E+03  0.24612836014E+03  0.18800000000E+03 0.  0.
<mgrwt>
<rscale>  0 0.44086485E+03</rscale>
<asrwt>0</asrwt>
<pdfrwt beam="1">  1        2 0.58180825E-01 0.44086485E+03</pdfrwt>
<pdfrwt beam="2">  1       -2 0.17044136E-01 0.44086485E+03</pdfrwt>
<totfact> 0.23639081E+03</totfact>
</mgrwt>
</event>
<event>
 4    1  0.6346694E-005  0.4874263E+03  0.7818608E-02  0.1017114E+00
         -2   -1    0    0    0  501 -0.00000000000E+00  0.00000000000E+00  0.52463637239E+02  0.52463637301E+02  0.25500000000E-02 0. -1.
          2   -1    0    0  501    0  0.00000000000E+00 -0.00000000000E+00 -0.11321382646E+04  0.11321382646E+04  0.25500000000E-02 0.  1.
    5000001    1    1    2    0    0 -0.34129673645E+02 -0.14155438505E+03 -0.41010253471E+03  0.47405755719E+03  0.18800000000E+03 0.  0.
   -5000001    1    1    2    0    0  0.34129673645E+02  0.14155438505E+03 -0.66957209266E+03  0.71054434472E+03  0.18800000000E+03 0.  0.
<mgrwt>
<rscale>  0 0.48742627E+03</rscale>
<asrwt>0</asrwt>
<pdfrwt beam="1">  1        2 0.16173402E+00 0.48742627E+03</pdfrwt>
<pdfrwt beam="2">  1       -2 0.74948060E-02 0.48742627E+03</pdfrwt>
<totfact> 0.25643745E+03</totfact>
</mgrwt>
</event>
<event>
 4    1  0.6346694E-005  0.5394291E+03  0.7818608E-02  0.1003971E+00
         -2   -1    0    0    0  501 -0.00000000000E+00  0.00000000000E+00  0.17089369737E+03  0.17089369739E+03  0.25500000000E-02 0. -1.
          2   -1    0    0  501    0  0.00000000000E+00 -0.00000000000E+00 -0.42567950839E+03  0.42567950840E+03  0.25500000000E-02 0.  1.
    5000001    1    1    2    0    0  0.56376984090E+02  0.14859032445E+03 -0.24926916173E+03  0.35033778535E+03  0.18800000000E+03 0.  0.
   -5000001    1    1    2    0    0 -0.56376984090E+02 -0.14859032445E+03 -0.55166492949E+01  0.24623542043E+03  0.18800000000E+03 0.  0.
<mgrwt>
<rscale>  0 0.53942912E+03</rscale>
<asrwt>0</asrwt>
<pdfrwt beam="1">  1        2 0.60811358E-01 0.53942912E+03</pdfrwt>
<pdfrwt beam="2">  1       -2 0.24413385E-01 0.53942912E+03</pdfrwt>
<totfact> 0.12063328E+03</totfact>
</mgrwt>
</event>
<event>
 4    1  0.6346694E-005  0.1147139E+04  0.7818608E-02  0.9160427E-01
          2   -1    0    0  501    0  0.00000000000E+00  0.00000000000E+00  0.21526648551E+04  0.21526648551E+04  0.25500000000E-02 0.  1.
         -2   -1    0    0    0  501 -0.00000000000E+00 -0.00000000000E+00 -0.15282550829E+03  0.15282550832E+03  0.25500000000E-02 0. -1.
    5000001    1    1    2    0    0  0.41178224152E+03 -0.64685179999E+02  0.16958045818E+04  0.17563729577E+04  0.18800000000E+03 0.  0.
   -5000001    1    1    2    0    0 -0.41178224152E+03  0.64685179999E+02  0.30403476506E+03  0.54911740576E+03  0.18800000000E+03 0.  0.
<mgrwt>
<rscale>  0 0.11471392E+04</rscale>
<asrwt>0</asrwt>
<pdfrwt beam="1">  1        2 0.30752353E+00 0.11471392E+04</pdfrwt>
<pdfrwt beam="2">  1       -2 0.21832217E-01 0.11471392E+04</pdfrwt>
<totfact> 0.12147817E+02</totfact>
</mgrwt>
</event>
<event>
 4    1  0.6346694E-005  0.1114205E+04  0.7818608E-02  0.9191456E-01
          2   -1    0    0  501    0  0.00000000000E+00  0.00000000000E+00  0.22312026060E+04  0.22312026060E+04  0.25500000000E-02 0. -1.
         -2   -1    0    0    0  501 -0.00000000000E+00 -0.00000000000E+00 -0.13910125872E+03  0.13910125874E+03  0.25500000000E-02 0.  1.
    5000001    1    1    2    0    0  0.24942668372E+03  0.45417237690E+03  0.87410506625E+03  0.10333875775E+04  0.18800000000E+03 0.  0.
   -5000001    1    1    2    0    0 -0.24942668372E+03 -0.45417237690E+03  0.12179962810E+04  0.13369162872E+04  0.18800000000E+03 0.  0.
<mgrwt>
<rscale>  0 0.11142048E+04</rscale>
<asrwt>0</asrwt>
<pdfrwt beam="1">  1        2 0.31874321E+00 0.11142048E+04</pdfrwt>
<pdfrwt beam="2">  1       -2 0.19871610E-01 0.11142048E+04</pdfrwt>
<totfact> 0.13105632E+02</totfact>
</mgrwt>
</event>
<event>
 4    1  0.6346694E-005  0.5935344E+03  0.7818608E-02  0.9918912E-01
          2   -1    0    0  501    0  0.00000000000E+00  0.00000000000E+00  0.65275512645E+03  0.65275512646E+03  0.25500000000E-02 0.  1.
         -2   -1    0    0    0  501 -0.00000000000E+00 -0.00000000000E+00 -0.13492161541E+03  0.13492161544E+03  0.25500000000E-02 0. -1.
    5000001    1    1    2    0    0  0.19285849244E+03 -0.10664219703E+03  0.34450997770E+03  0.45010896573E+03  0.18800000000E+03 0.  0.
   -5000001    1    1    2    0    0 -0.19285849244E+03  0.10664219703E+03  0.17332353334E+03  0.33756777616E+03  0.18800000000E+03 0.  0.
<mgrwt>
<rscale>  0 0.59353442E+03</rscale>
<asrwt>0</asrwt>
<pdfrwt beam="1">  1        2 0.93250733E-01 0.59353442E+03</pdfrwt>
<pdfrwt beam="2">  1       -2 0.19274516E-01 0.59353442E+03</pdfrwt>
<totfact> 0.11180963E+03</totfact>
</mgrwt>
</event>
<event>
 4    1  0.6346694E-005  0.4831564E+03  0.7818608E-02  0.1018271E+00
         -2   -1    0    0    0  501 -0.00000000000E+00  0.00000000000E+00  0.51062800397E+02  0.51062800461E+02  0.25500000000E-02 0. -1.
          2   -1    0    0  501    0  0.00000000000E+00 -0.00000000000E+00 -0.11429071073E+04  0.11429071073E+04  0.25500000000E-02 0.  1.
    5000001    1    1    2    0    0  0.35433041492E+02  0.12744095861E+03 -0.72951220583E+03  0.76487172573E+03  0.18800000000E+03 0.  0.
   -5000001    1    1    2    0    0 -0.35433041492E+02 -0.12744095861E+03 -0.36233210107E+03  0.42909818204E+03  0.18800000000E+03 0.  0.
<mgrwt>
<rscale>  0 0.48315644E+03</rscale>
<asrwt>0</asrwt>
<pdfrwt beam="1">  1        2 0.16327243E+00 0.48315644E+03</pdfrwt>
<pdfrwt beam="2">  1       -2 0.72946865E-02 0.48315644E+03</pdfrwt>
<totfact> 0.26388135E+03</totfact>
</mgrwt>
</event>
<event>
 4    1  0.6346694E-005  0.6463855E+03  0.7818608E-02  0.9813585E-01
         -2   -1    0    0    0  501 -0.00000000000E+00  0.00000000000E+00  0.12277873457E+03  0.12277873460E+03  0.25500000000E-02 0.  1.
          2   -1    0    0  501    0  0.00000000000E+00 -0.00000000000E+00 -0.85074619761E+03  0.85074619762E+03  0.25500000000E-02 0. -1.
    5000001    1    1    2    0    0  0.76645706457E+02 -0.25084991330E+03 -0.39047143156E+03  0.50656903003E+03  0.18800000000E+03 0.  0.
   -5000001    1    1    2    0    0 -0.76645706457E+02  0.25084991330E+03 -0.33749603148E+03  0.46695590218E+03  0.18800000000E+03 0.  0.
<mgrwt>
<rscale>  0 0.64638546E+03</rscale>
<asrwt>0</asrwt>
<pdfrwt beam="1">  1        2 0.12153517E+00 0.64638546E+03</pdfrwt>
<pdfrwt beam="2">  1       -2 0.17539820E-01 0.64638546E+03</pdfrwt>
<totfact> 0.94350922E+02</totfact>
</mgrwt>
</event>
<event>
 4    1  0.6346694E-005  0.4645736E+03  0.7818608E-02  0.1023463E+00
          2   -1    0    0  501    0  0.00000000000E+00  0.00000000000E+00  0.11947452430E+03  0.11947452433E+03  0.25500000000E-02 0.  1.
         -2   -1    0    0    0  501 -0.00000000000E+00 -0.00000000000E+00 -0.45162063318E+03  0.45162063319E+03  0.25500000000E-02 0. -1.
    5000001    1    1    2    0    0 -0.24486978261E+02  0.97333429985E+02 -0.27967259087E+03  0.35161650528E+03  0.18800000000E+03 0.  0.
   -5000001    1    1    2    0    0  0.24486978261E+02 -0.97333429985E+02 -0.52473518005E+02  0.21947865224E+03  0.18800000000E+03 0.  0.
<mgrwt>
<rscale>  0 0.46457361E+03</rscale>
<asrwt>0</asrwt>
<pdfrwt beam="1">  1        2 0.17067789E-01 0.46457361E+03</pdfrwt>
<pdfrwt beam="2">  1       -2 0.64517233E-01 0.46457361E+03</pdfrwt>
<totfact> 0.76463037E+02</totfact>
</mgrwt>
</event>
<event>
 4    1  0.6346694E-005  0.6523373E+03  0.7818608E-02  0.9802403E-01
         -2   -1    0    0    0  501 -0.00000000000E+00  0.00000000000E+00  0.22353806035E+03  0.22353806036E+03  0.25500000000E-02 0. -1.
          2   -1    0    0  501    0  0.00000000000E+00 -0.00000000000E+00 -0.47591884713E+03  0.47591884713E+03  0.25500000000E-02 0.  1.
    5000001    1    1    2    0    0  0.93962322134E+02  0.24569116905E+03 -0.17229521675E+03  0.36636417708E+03  0.18800000000E+03 0.  0.
   -5000001    1    1    2    0    0 -0.93962322134E+02 -0.24569116905E+03 -0.80085570028E+02  0.33309273042E+03  0.18800000000E+03 0.  0.
<mgrwt>
<rscale>  0 0.65233726E+03</rscale>
<asrwt>0</asrwt>
<pdfrwt beam="1">  1        2 0.67988406E-01 0.65233726E+03</pdfrwt>
<pdfrwt beam="2">  1       -2 0.31934009E-01 0.65233726E+03</pdfrwt>
<totfact> 0.65092916E+02</totfact>
</mgrwt>
</event>
<event>
 4    1  0.6346694E-005  0.1048091E+04  0.7818608E-02  0.9257317E-01
         -2   -1    0    0    0  501 -0.00000000000E+00  0.00000000000E+00  0.14338313178E+03  0.14338313180E+03  0.25500000000E-02 0. -1.
          2   -1    0    0  501    0  0.00000000000E+00 -0.00000000000E+00 -0.19153148883E+04  0.19153148883E+04  0.25500000000E-02 0.  1.
    5000001    1    1    2    0    0  0.46043285330E+03 -0.84211997957E+01 -0.12099785035E+04  0.13082283088E+04  0.18800000000E+03 0.  0.
   -5000001    1    1    2    0    0 -0.46043285330E+03  0.84211997957E+01 -0.56195325302E+03  0.75046971131E+03  0.18800000000E+03 0.  0.
<mgrwt>
<rscale>  0 0.10480913E+04</rscale>
<asrwt>0</asrwt>
<pdfrwt beam="1">  1        2 0.27361640E+00 0.10480913E+04</pdfrwt>
<pdfrwt beam="2">  1       -2 0.20483306E-01 0.10480913E+04</pdfrwt>
<totfact> 0.18112380E+02</totfact>
</mgrwt>
</event>
<event>
 4    1  0.6346694E-005  0.1080040E+04  0.7818608E-02  0.9224868E-01
          2   -1    0    0  501    0  0.00000000000E+00  0.00000000000E+00  0.82159529019E+03  0.82159529019E+03  0.25500000000E-02 0.  1.
         -2   -1    0    0    0  501 -0.00000000000E+00 -0.00000000000E+00 -0.35494545654E+03  0.35494545655E+03  0.25500000000E-02 0. -1.
    5000001    1    1    2    0    0 -0.14066125006E+03 -0.46972081310E+03  0.96160791723E+02  0.53386714395E+03  0.18800000000E+03 0.  0.
   -5000001    1    1    2    0    0  0.14066125006E+03  0.46972081310E+03  0.37048904193E+03  0.64267360278E+03  0.18800000000E+03 0.  0.
<mgrwt>
<rscale>  0 0.10800398E+04</rscale>
<asrwt>0</asrwt>
<pdfrwt beam="1">  1        2 0.11737075E+00 0.10800398E+04</pdfrwt>
<pdfrwt beam="2">  1       -2 0.50706495E-01 0.10800398E+04</pdfrwt>
<totfact> 0.13418870E+02</totfact>
</mgrwt>
</event>
<event>
 4    1  0.6346694E-005  0.9877783E+03  0.7818608E-02  0.9322052E-01
          2   -1    0    0  501    0  0.00000000000E+00  0.00000000000E+00  0.97300104336E+03  0.97300104336E+03  0.25500000000E-02 0.  1.
         -2   -1    0    0    0  501 -0.00000000000E+00 -0.00000000000E+00 -0.25069501575E+03  0.25069501576E+03  0.25500000000E-02 0. -1.
    5000001    1    1    2    0    0 -0.15653234781E+03 -0.36810695744E+03  0.88109909134E+02  0.45068000190E+03  0.18800000000E+03 0.  0.
   -5000001    1    1    2    0    0  0.15653234781E+03  0.36810695744E+03  0.63419611847E+03  0.77301605722E+03  0.18800000000E+03 0.  0.
<mgrwt>
<rscale>  0 0.98777834E+03</rscale>
<asrwt>0</asrwt>
<pdfrwt beam="1">  1        2 0.13900015E+00 0.98777834E+03</pdfrwt>
<pdfrwt beam="2">  1       -2 0.35813573E-01 0.98777834E+03</pdfrwt>
<totfact> 0.21332713E+02</totfact>
</mgrwt>
</event>
<event>
 4    1  0.6346694E-005  0.3926178E+03  0.7818608E-02  0.1046366E+00
         -2   -1    0    0    0  501 -0.00000000000E+00  0.00000000000E+00  0.16575086657E+02  0.16575086853E+02  0.25500000000E-02 0. -1.
          2   -1    0    0  501    0  0.00000000000E+00 -0.00000000000E+00 -0.23250065191E+04  0.23250065191E+04  0.25500000000E-02 0.  1.
    5000001    1    1    2    0    0  0.55213978812E+02 -0.10988907804E+02 -0.11250924619E+04  0.11420798516E+04  0.18800000000E+03 0.  0.
   -5000001    1    1    2    0    0 -0.55213978812E+02  0.10988907804E+02 -0.11833389705E+04  0.11995017544E+04  0.18800000000E+03 0.  0.
<mgrwt>
<rscale>  0 0.39261780E+03</rscale>
<asrwt>0</asrwt>
<pdfrwt beam="1">  1        2 0.33214358E+00 0.39261780E+03</pdfrwt>
<pdfrwt beam="2">  1       -2 0.23678710E-02 0.39261780E+03</pdfrwt>
<totfact> 0.36728802E+03</totfact>
</mgrwt>
</event>
<event>
 4    1  0.6346694E-005  0.4103479E+03  0.7818608E-02  0.1040254E+00
          2   -1    0    0  501    0  0.00000000000E+00  0.00000000000E+00  0.68937054864E+03  0.68937054864E+03  0.25500000000E-02 0.  1.
         -2   -1    0    0    0  501 -0.00000000000E+00 -0.00000000000E+00 -0.61064919378E+02  0.61064919431E+02  0.25500000000E-02 0. -1.
    5000001    1    1    2    0    0 -0.80562407754E+02  0.16149974605E+02  0.31212149301E+03  0.37351700044E+03  0.18800000000E+03 0.  0.
   -5000001    1    1    2    0    0  0.80562407754E+02 -0.16149974605E+02  0.31618413625E+03  0.37691846763E+03  0.18800000000E+03 0.  0.
<mgrwt>
<rscale>  0 0.41034794E+03</rscale>
<asrwt>0</asrwt>
<pdfrwt beam="1">  1        2 0.98481497E-01 0.41034794E+03</pdfrwt>
<pdfrwt beam="2">  1       -2 0.87235608E-02 0.41034794E+03</pdfrwt>
<totfact> 0.38816292E+03</totfact>
</mgrwt>
</event>
<event>
 4    1  0.6346694E-005  0.6597357E+03  0.7818608E-02  0.9788680E-01
         -2   -1    0    0    0  501 -0.00000000000E+00  0.00000000000E+00  0.17871070280E+03  0.17871070282E+03  0.25500000000E-02 0. -1.
          2   -1    0    0  501    0  0.00000000000E+00 -0.00000000000E+00 -0.60887669881E+03  0.60887669882E+03  0.25500000000E-02 0.  1.
    5000001    1    1    2    0    0  0.15385946570E+03 -0.22276002638E+03 -0.23083102621E+03  0.40239498904E+03  0.18800000000E+03 0.  0.
   -5000001    1    1    2    0    0 -0.15385946570E+03  0.22276002638E+03 -0.19933496980E+03  0.38519241260E+03  0.18800000000E+03 0.  0.
<mgrwt>
<rscale>  0 0.65973565E+03</rscale>
<asrwt>0</asrwt>
<pdfrwt beam="1">  1        2 0.86982384E-01 0.65973565E+03</pdfrwt>
<pdfrwt beam="2">  1       -2 0.25530101E-01 0.65973565E+03</pdfrwt>
<totfact> 0.73827927E+02</totfact>
</mgrwt>
</event>
<event>
 4    1  0.6346694E-005  0.6382265E+03  0.7818608E-02  0.9829126E-01
          2   -1    0    0  501    0  0.00000000000E+00  0.00000000000E+00  0.15509349494E+04  0.15509349494E+04  0.25500000000E-02 0.  1.
         -2   -1    0    0    0  501 -0.00000000000E+00 -0.00000000000E+00 -0.65659281620E+02  0.65659281670E+02  0.25500000000E-02 0. -1.
    5000001    1    1    2    0    0  0.23762889034E+02  0.24945850994E+03  0.89660794641E+03  0.94975998686E+03  0.18800000000E+03 0.  0.
   -5000001    1    1    2    0    0 -0.23762889034E+02 -0.24945850994E+03  0.58866772139E+03  0.66683424423E+03  0.18800000000E+03 0.  0.
<mgrwt>
<rscale>  0 0.63822653E+03</rscale>
<asrwt>0</asrwt>
<pdfrwt beam="1">  1        2 0.22156212E+00 0.63822653E+03</pdfrwt>
<pdfrwt beam="2">  1       -2 0.93798979E-02 0.63822653E+03</pdfrwt>
<totfact> 0.10615604E+03</totfact>
</mgrwt>
</event>
<event>
 4    1  0.6346694E-005  0.5388704E+03  0.7818608E-02  0.1004103E+00
         -2   -1    0    0    0  501 -0.00000000000E+00  0.00000000000E+00  0.12078244044E+04  0.12078244044E+04  0.25500000000E-02 0. -1.
          2   -1    0    0  501    0  0.00000000000E+00 -0.00000000000E+00 -0.60104202258E+02  0.60104202312E+02  0.25500000000E-02 0.  1.
    5000001    1    1    2    0    0 -0.13987071129E+03 -0.10288561626E+03  0.77215089184E+03  0.81345575521E+03  0.18800000000E+03 0.  0.
   -5000001    1    1    2    0    0  0.13987071129E+03  0.10288561626E+03  0.37556931025E+03  0.45447285146E+03  0.18800000000E+03 0.  0.
<mgrwt>
<rscale>  0 0.53887038E+03</rscale>
<asrwt>0</asrwt>
<pdfrwt beam="1">  1        2 0.85863144E-02 0.53887038E+03</pdfrwt>
<pdfrwt beam="2">  1       -2 0.17254635E+00 0.53887038E+03</pdfrwt>
<totfact> 0.16875654E+02</totfact>
</mgrwt>
</event>
<event>
 4    1  0.6346694E-005  0.6286298E+03  0.7818608E-02  0.9847726E-01
         -2   -1    0    0    0  501 -0.00000000000E+00  0.00000000000E+00  0.26521352028E+03  0.26521352029E+03  0.25500000000E-02 0. -1.
          2   -1    0    0  501    0  0.00000000000E+00 -0.00000000000E+00 -0.37250690339E+03  0.37250690340E+03  0.25500000000E-02 0.  1.
    5000001    1    1    2    0    0 -0.19809326409E+03  0.15409943734E+03 -0.75458529725E+02  0.32252994834E+03  0.18800000000E+03 0.  0.
   -5000001    1    1    2    0    0  0.19809326409E+03 -0.15409943734E+03 -0.31834853386E+02  0.31519047536E+03  0.18800000000E+03 0.  0.
<mgrwt>
<rscale>  0 0.62862983E+03</rscale>
<asrwt>0</asrwt>
<pdfrwt beam="1">  1        2 0.53215272E-01 0.62862983E+03</pdfrwt>
<pdfrwt beam="2">  1       -2 0.37887646E-01 0.62862983E+03</pdfrwt>
<totfact> 0.61950004E+02</totfact>
</mgrwt>
</event>
<event>
 4    1  0.6346694E-005  0.5462668E+03  0.7818608E-02  0.1002362E+00
         -2   -1    0    0    0  501 -0.00000000000E+00  0.00000000000E+00  0.25360485727E+03  0.25360485728E+03  0.25500000000E-02 0. -1.
          2   -1    0    0  501    0  0.00000000000E+00 -0.00000000000E+00 -0.29416567959E+03  0.29416567961E+03  0.25500000000E-02 0.  1.
    5000001    1    1    2    0    0  0.15907726786E+03  0.75536536402E+02 -0.11134063484E+03  0.28062801437E+03  0.18800000000E+03 0.  0.
   -5000001    1    1    2    0    0 -0.15907726786E+03 -0.75536536402E+02  0.70779812516E+02  0.26714252252E+03  0.18800000000E+03 0.  0.
<mgrwt>
<rscale>  0 0.54626677E+03</rscale>
<asrwt>0</asrwt>
<pdfrwt beam="1">  1        2 0.42023668E-01 0.54626677E+03</pdfrwt>
<pdfrwt beam="2">  1       -2 0.36229266E-01 0.54626677E+03</pdfrwt>
<totfact> 0.87669783E+02</totfact>
</mgrwt>
</event>
<event>
 4    1  0.6346694E-005  0.5988782E+03  0.7818608E-02  0.9907736E-01
         -2   -1    0    0    0  501 -0.00000000000E+00  0.00000000000E+00  0.56558109124E+02  0.56558109181E+02  0.25500000000E-02 0. -1.
          2   -1    0    0  501    0  0.00000000000E+00 -0.00000000000E+00 -0.15853388080E+04  0.15853388080E+04  0.25500000000E-02 0.  1.
    5000001    1    1    2    0    0  0.13378599371E+03 -0.17998214267E+03 -0.59039995854E+03  0.65894489514E+03  0.18800000000E+03 0.  0.
   -5000001    1    1    2    0    0 -0.13378599371E+03  0.17998214267E+03 -0.93838074031E+03  0.98295202201E+03  0.18800000000E+03 0.  0.
<mgrwt>
<rscale>  0 0.59887817E+03</rscale>
<asrwt>0</asrwt>
<pdfrwt beam="1">  1        2 0.22647695E+00 0.59887817E+03</pdfrwt>
<pdfrwt beam="2">  1       -2 0.80797309E-02 0.59887817E+03</pdfrwt>
<totfact> 0.12967121E+03</totfact>
</mgrwt>
</event>
<event>
 4    1  0.6346694E-005  0.5170083E+03  0.7818608E-02  0.1009432E+00
          2   -1    0    0  501    0  0.00000000000E+00  0.00000000000E+00  0.45715842350E+03  0.45715842351E+03  0.25500000000E-02 0.  1.
         -2   -1    0    0    0  501 -0.00000000000E+00 -0.00000000000E+00 -0.14617336169E+03  0.14617336172E+03  0.25500000000E-02 0. -1.
    5000001    1    1    2    0    0  0.11788321883E+03  0.28963731307E+02  0.30650114713E+03  0.37950270645E+03  0.18800000000E+03 0.  0.
   -5000001    1    1    2    0    0 -0.11788321883E+03 -0.28963731307E+02  0.44839146763E+01  0.22382907877E+03  0.18800000000E+03 0.  0.
<mgrwt>
<rscale>  0 0.51700825E+03</rscale>
<asrwt>0</asrwt>
<pdfrwt beam="1">  1        2 0.65308346E-01 0.51700825E+03</pdfrwt>
<pdfrwt beam="2">  1       -2 0.20881909E-01 0.51700825E+03</pdfrwt>
<totfact> 0.14678519E+03</totfact>
</mgrwt>
</event>
<event>
 4    1  0.6346694E-005  0.1024230E+04  0.7818608E-02  0.9282362E-01
          2   -1    0    0  501    0  0.00000000000E+00  0.00000000000E+00  0.48766291554E+04  0.48766291554E+04  0.25500000000E-02 0.  1.
         -2   -1    0    0    0  501 -0.00000000000E+00 -0.00000000000E+00 -0.53779324846E+02  0.53779324906E+02  0.25500000000E-02 0. -1.
    5000001    1    1    2    0    0 -0.43134783573E+03 -0.26047942999E+02  0.33763232135E+04  0.34090529319E+04  0.18800000000E+03 0.  0.
   -5000001    1    1    2    0    0  0.43134783573E+03  0.26047942999E+02  0.14465266171E+04  0.15213555485E+04  0.18800000000E+03 0.  0.
<mgrwt>
<rscale>  0 0.10242301E+04</rscale>
<asrwt>0</asrwt>
<pdfrwt beam="1">  1        2 0.69666097E+00 0.10242301E+04</pdfrwt>
<pdfrwt beam="2">  1       -2 0.76827645E-02 0.10242301E+04</pdfrwt>
<totfact> 0.13098152E+01</totfact>
</mgrwt>
</event>
<event>
 4    1  0.6346694E-005  0.5678997E+03  0.7818608E-02  0.9974337E-01
         -2   -1    0    0    0  501 -0.00000000000E+00  0.00000000000E+00  0.40826026134E+03  0.40826026135E+03  0.25500000000E-02 0.  1.
          2   -1    0    0  501    0  0.00000000000E+00 -0.00000000000E+00 -0.19749049259E+03  0.19749049260E+03  0.25500000000E-02 0. -1.
    5000001    1    1    2    0    0 -0.15911112704E+03 -0.13723288471E+03  0.14130909122E+03  0.31537513322E+03  0.18800000000E+03 0.  0.
   -5000001    1    1    2    0    0  0.15911112704E+03  0.13723288471E+03  0.69460677536E+02  0.29037562073E+03  0.18800000000E+03 0.  0.
<mgrwt>
<rscale>  0 0.56789971E+03</rscale>
<asrwt>0</asrwt>
<pdfrwt beam="1">  1        2 0.28212928E-01 0.56789971E+03</pdfrwt>
<pdfrwt beam="2">  1       -2 0.58322894E-01 0.56789971E+03</pdfrwt>
<totfact> 0.52886421E+02</totfact>
</mgrwt>
</event>
<event>
 4    1  0.6346694E-005  0.4880423E+03  0.7818608E-02  0.1016948E+00
          2   -1    0    0  501    0  0.00000000000E+00  0.00000000000E+00  0.80564994654E+03  0.80564994655E+03  0.25500000000E-02 0.  1.
         -2   -1    0    0    0  501 -0.00000000000E+00 -0.00000000000E+00 -0.73910902393E+02  0.73910902437E+02  0.25500000000E-02 0. -1.
    5000001    1    1    2    0    0  0.13844691476E+03  0.31579522646E+02  0.25135390310E+03  0.34451066611E+03  0.18800000000E+03 0.  0.
   -5000001    1    1    2    0    0 -0.13844691476E+03 -0.31579522646E+02  0.48038514105E+03  0.53505018288E+03  0.18800000000E+03 0.  0.
<mgrwt>
<rscale>  0 0.48804227E+03</rscale>
<asrwt>0</asrwt>
<pdfrwt beam="1">  1        2 0.11509284E+00 0.48804227E+03</pdfrwt>
<pdfrwt beam="2">  1       -2 0.10558701E-01 0.48804227E+03</pdfrwt>
<totfact> 0.23608898E+03</totfact>
</mgrwt>
</event>
<event>
 4    1  0.6346694E-005  0.5205775E+03  0.7818608E-02  0.1008543E+00
          2   -1    0    0  501    0  0.00000000000E+00  0.00000000000E+00  0.87283000117E+03  0.87283000118E+03  0.25500000000E-02 0.  1.
         -2   -1    0    0    0  501 -0.00000000000E+00 -0.00000000000E+00 -0.77621342173E+02  0.77621342215E+02  0.25500000000E-02 0. -1.
    5000001    1    1    2    0    0  0.14173394176E+03 -0.11038827090E+03  0.41859311330E+03  0.49278623673E+03  0.18800000000E+03 0.  0.
   -5000001    1    1    2    0    0 -0.14173394176E+03  0.11038827090E+03  0.37661554570E+03  0.45766510667E+03  0.18800000000E+03 0.  0.
<mgrwt>
<rscale>  0 0.52057751E+03</rscale>
<asrwt>0</asrwt>
<pdfrwt beam="1">  1        2 0.12469000E+00 0.52057751E+03</pdfrwt>
<pdfrwt beam="2">  1       -2 0.11088763E-01 0.52057751E+03</pdfrwt>
<totfact> 0.19659761E+03</totfact>
</mgrwt>
</event>
<event>
 4    1  0.6346694E-005  0.5235099E+03  0.7818608E-02  0.1007818E+00
         -2   -1    0    0    0  501 -0.00000000000E+00  0.00000000000E+00  0.11181925951E+03  0.11181925954E+03  0.25500000000E-02 0. -1.
          2   -1    0    0  501    0  0.00000000000E+00 -0.00000000000E+00 -0.61273561952E+03  0.61273561952E+03  0.25500000000E-02 0.  1.
    5000001    1    1    2    0    0 -0.17325784613E+03 -0.51294836396E+02 -0.21883062709E+03  0.34041193405E+03  0.18800000000E+03 0.  0.
   -5000001    1    1    2    0    0  0.17325784613E+03  0.51294836396E+02 -0.28208573292E+03  0.38414294501E+03  0.18800000000E+03 0.  0.
<mgrwt>
<rscale>  0 0.52350986E+03</rscale>
<asrwt>0</asrwt>
<pdfrwt beam="1">  1        2 0.87533658E-01 0.52350986E+03</pdfrwt>
<pdfrwt beam="2">  1       -2 0.15974180E-01 0.52350986E+03</pdfrwt>
<totfact> 0.16627958E+03</totfact>
</mgrwt>
</event>
<event>
 4    1  0.6346694E-005  0.5086135E+03  0.7818608E-02  0.1011555E+00
          2   -1    0    0  501    0  0.00000000000E+00  0.00000000000E+00  0.16892474812E+04  0.16892474812E+04  0.25500000000E-02 0.  1.
         -2   -1    0    0    0  501 -0.00000000000E+00 -0.00000000000E+00 -0.38284453199E+02  0.38284453284E+02  0.25500000000E-02 0. -1.
    5000001    1    1    2    0    0  0.14819783468E+03  0.74275910826E+02  0.67945321191E+03  0.72421003605E+03  0.18800000000E+03 0.  0.
   -5000001    1    1    2    0    0 -0.14819783468E+03 -0.74275910826E+02  0.97150981610E+03  0.10033218985E+04  0.18800000000E+03 0.  0.
<mgrwt>
<rscale>  0 0.50861347E+03</rscale>
<asrwt>0</asrwt>
<pdfrwt beam="1">  1        2 0.24132108E+00 0.50861347E+03</pdfrwt>
<pdfrwt beam="2">  1       -2 0.54692073E-02 0.50861347E+03</pdfrwt>
<totfact> 0.21267988E+03</totfact>
</mgrwt>
</event>
<event>
 4    1  0.6346694E-005  0.5075999E+03  0.7818608E-02  0.1011814E+00
          2   -1    0    0  501    0  0.00000000000E+00  0.00000000000E+00  0.78480961126E+03  0.78480961127E+03  0.25500000000E-02 0.  1.
         -2   -1    0    0    0  501 -0.00000000000E+00 -0.00000000000E+00 -0.82076487357E+02  0.82076487397E+02  0.25500000000E-02 0. -1.
    5000001    1    1    2    0    0 -0.14194044526E+03  0.78741602528E+02  0.44048574553E+03  0.50568668361E+03  0.18800000000E+03 0.  0.
   -5000001    1    1    2    0    0  0.14194044526E+03 -0.78741602528E+02  0.26224737838E+03  0.36119941505E+03  0.18800000000E+03 0.  0.
<mgrwt>
<rscale>  0 0.50759991E+03</rscale>
<asrwt>0</asrwt>
<pdfrwt beam="1">  1        2 0.11211566E+00 0.50759991E+03</pdfrwt>
<pdfrwt beam="2">  1       -2 0.11725212E-01 0.50759991E+03</pdfrwt>
<totfact> 0.20578437E+03</totfact>
</mgrwt>
</event>
<event>
 4    1  0.6346694E-005  0.6882073E+03  0.7818608E-02  0.9737615E-01
         -2   -1    0    0    0  501 -0.00000000000E+00  0.00000000000E+00  0.13883531917E+03  0.13883531920E+03  0.25500000000E-02 0. -1.
          2   -1    0    0  501    0  0.00000000000E+00 -0.00000000000E+00 -0.85286169218E+03  0.85286169219E+03  0.25500000000E-02 0.  1.
    5000001    1    1    2    0    0  0.21595535712E+03  0.16126896107E+03 -0.50409917658E+03  0.60175108965E+03  0.18800000000E+03 0.  0.
   -5000001    1    1    2    0    0 -0.21595535712E+03 -0.16126896107E+03 -0.20992719643E+03  0.38994592173E+03  0.18800000000E+03 0.  0.
<mgrwt>
<rscale>  0 0.68820731E+03</rscale>
<asrwt>0</asrwt>
<pdfrwt beam="1">  1        2 0.12183738E+00 0.68820731E+03</pdfrwt>
<pdfrwt beam="2">  1       -2 0.19833618E-01 0.68820731E+03</pdfrwt>
<totfact> 0.75951378E+02</totfact>
</mgrwt>
</event>
<event>
 4    1  0.6346694E-005  0.1775500E+04  0.7818608E-02  0.8719438E-01
         -2   -1    0    0    0  501 -0.00000000000E+00  0.00000000000E+00  0.16469742411E+04  0.16469742411E+04  0.25500000000E-02 0.  1.
          2   -1    0    0  501    0  0.00000000000E+00 -0.00000000000E+00 -0.47851403743E+03  0.47851403744E+03  0.25500000000E-02 0. -1.
    5000001    1    1    2    0    0 -0.56745595546E+03  0.64686124075E+03  0.71710817764E+03  0.11357921749E+04  0.18800000000E+03 0.  0.
   -5000001    1    1    2    0    0  0.56745595546E+03 -0.64686124075E+03  0.45135202606E+03  0.98969610366E+03  0.18800000000E+03 0.  0.
<mgrwt>
<rscale>  0 0.17755003E+04</rscale>
<asrwt>0</asrwt>
<pdfrwt beam="1">  1        2 0.68359148E-01 0.17755003E+04</pdfrwt>
<pdfrwt beam="2">  1       -2 0.23528204E+00 0.17755003E+04</pdfrwt>
<totfact> 0.53052879E+00</totfact>
</mgrwt>
</event>
<event>
 4    1  0.6346694E-005  0.6777731E+03  0.7818608E-02  0.9756017E-01
          2   -1    0    0  501    0  0.00000000000E+00  0.00000000000E+00  0.15668988883E+04  0.15668988884E+04  0.25500000000E-02 0.  1.
         -2   -1    0    0    0  501 -0.00000000000E+00 -0.00000000000E+00 -0.73293877196E+02  0.73293877240E+02  0.25500000000E-02 0. -1.
    5000001    1    1    2    0    0  0.22226378077E+03 -0.11649940386E+03  0.43569901261E+03  0.53679691591E+03  0.18800000000E+03 0.  0.
   -5000001    1    1    2    0    0 -0.22226378077E+03  0.11649940386E+03  0.10579059985E+04  0.11033958497E+04  0.18800000000E+03 0.  0.
<mgrwt>
<rscale>  0 0.67777310E+03</rscale>
<asrwt>0</asrwt>
<pdfrwt beam="1">  1        2 0.22384266E+00 0.67777310E+03</pdfrwt>
<pdfrwt beam="2">  1       -2 0.10470556E-01 0.67777310E+03</pdfrwt>
<totfact> 0.86974279E+02</totfact>
</mgrwt>
</event>
<event>
 4    1  0.6346694E-005  0.5333487E+03  0.7818608E-02  0.1005423E+00
         -2   -1    0    0    0  501 -0.00000000000E+00  0.00000000000E+00  0.86043403584E+02  0.86043403622E+02  0.25500000000E-02 0.  1.
          2   -1    0    0  501    0  0.00000000000E+00 -0.00000000000E+00 -0.82650389948E+03  0.82650389949E+03  0.25500000000E-02 0. -1.
    5000001    1    1    2    0    0  0.20037819512E+02 -0.18225601415E+03 -0.44960998263E+03  0.52068407445E+03  0.18800000000E+03 0.  0.
   -5000001    1    1    2    0    0 -0.20037819512E+02  0.18225601415E+03 -0.29085051327E+03  0.39186322866E+03  0.18800000000E+03 0.  0.
<mgrwt>
<rscale>  0 0.53334870E+03</rscale>
<asrwt>0</asrwt>
<pdfrwt beam="1">  1        2 0.11807198E+00 0.53334870E+03</pdfrwt>
<pdfrwt beam="2">  1       -2 0.12291915E-01 0.53334870E+03</pdfrwt>
<totfact> 0.17828203E+03</totfact>
</mgrwt>
</event>
<event>
 4    1  0.6346694E-005  0.1674331E+04  0.7818608E-02  0.8776141E-01
          2   -1    0    0  501    0  0.00000000000E+00  0.00000000000E+00  0.34243405701E+04  0.34243405701E+04  0.25500000000E-02 0.  1.
         -2   -1    0    0    0  501 -0.00000000000E+00 -0.00000000000E+00 -0.20466610483E+03  0.20466610485E+03  0.25500000000E-02 0. -1.
    5000001    1    1    2    0    0 -0.34169679847E+03 -0.32755641107E+03  0.30499229543E+04  0.30921552244E+04  0.18800000000E+03 0.  0.
   -5000001    1    1    2    0    0  0.34169679847E+03  0.32755641107E+03  0.16975151100E+03  0.53685145059E+03  0.18800000000E+03 0.  0.
<mgrwt>
<rscale>  0 0.16743314E+04</rscale>
<asrwt>0</asrwt>
<pdfrwt beam="1">  1        2 0.48919150E+00 0.16743314E+04</pdfrwt>
<pdfrwt beam="2">  1       -2 0.29238016E-01 0.16743314E+04</pdfrwt>
<totfact> 0.13828476E+01</totfact>
</mgrwt>
</event>
<event>
 4    1  0.6346694E-005  0.7507547E+03  0.7818608E-02  0.9634167E-01
         -2   -1    0    0    0  501 -0.00000000000E+00  0.00000000000E+00  0.33383976685E+03  0.33383976686E+03  0.25500000000E-02 0. -1.
          2   -1    0    0  501    0  0.00000000000E+00 -0.00000000000E+00 -0.42208324793E+03  0.42208324794E+03  0.25500000000E-02 0.  1.
    5000001    1    1    2    0    0  0.19935227959E+03 -0.25465694822E+03 -0.75524265620E+02  0.38162731473E+03  0.18800000000E+03 0.  0.
   -5000001    1    1    2    0    0 -0.19935227959E+03  0.25465694822E+03 -0.12719215460E+02  0.37429570007E+03  0.18800000000E+03 0.  0.
<mgrwt>
<rscale>  0 0.75075475E+03</rscale>
<asrwt>0</asrwt>
<pdfrwt beam="1">  1        2 0.60297607E-01 0.75075475E+03</pdfrwt>
<pdfrwt beam="2">  1       -2 0.47691396E-01 0.75075475E+03</pdfrwt>
<totfact> 0.34158806E+02</totfact>
</mgrwt>
</event>
<event>
 4    1  0.6346694E-005  0.5687580E+03  0.7818608E-02  0.9972431E-01
         -2   -1    0    0    0  501 -0.00000000000E+00  0.00000000000E+00  0.16730508480E+03  0.16730508482E+03  0.25500000000E-02 0. -1.
          2   -1    0    0  501    0  0.00000000000E+00 -0.00000000000E+00 -0.48337695578E+03  0.48337695578E+03  0.25500000000E-02 0.  1.
    5000001    1    1    2    0    0  0.21288185837E+03 -0.12786469845E+02 -0.16573109656E+03  0.32907898110E+03  0.18800000000E+03 0.  0.
   -5000001    1    1    2    0    0 -0.21288185837E+03  0.12786469845E+02 -0.15034077441E+03  0.32160305951E+03  0.18800000000E+03 0.  0.
<mgrwt>
<rscale>  0 0.56875802E+03</rscale>
<asrwt>0</asrwt>
<pdfrwt beam="1">  1        2 0.69053851E-01 0.56875802E+03</pdfrwt>
<pdfrwt beam="2">  1       -2 0.23900726E-01 0.56875802E+03</pdfrwt>
<totfact> 0.10863325E+03</totfact>
</mgrwt>
</event>
<event>
 4    1  0.6346694E-005  0.5705097E+03  0.7818608E-02  0.9968551E-01
         -2   -1    0    0    0  501 -0.00000000000E+00  0.00000000000E+00  0.39106895094E+03  0.39106895095E+03  0.25500000000E-02 0. -1.
          2   -1    0    0  501    0  0.00000000000E+00 -0.00000000000E+00 -0.20807155982E+03  0.20807155984E+03  0.25500000000E-02 0.  1.
    5000001    1    1    2    0    0 -0.21434271416E+03  0.58362784195E+01  0.98884814360E+02  0.30182622114E+03  0.18800000000E+03 0.  0.
   -5000001    1    1    2    0    0  0.21434271416E+03 -0.58362784195E+01  0.84112576763E+02  0.29731428965E+03  0.18800000000E+03 0.  0.
<mgrwt>
<rscale>  0 0.57050969E+03</rscale>
<asrwt>0</asrwt>
<pdfrwt beam="1">  1        2 0.29724509E-01 0.57050969E+03</pdfrwt>
<pdfrwt beam="2">  1       -2 0.55866992E-01 0.57050969E+03</pdfrwt>
<totfact> 0.54533702E+02</totfact>
</mgrwt>
</event>
<event>
 4    1  0.6346694E-005  0.5190222E+03  0.7818608E-02  0.1008930E+00
          2   -1    0    0  501    0  0.00000000000E+00  0.00000000000E+00  0.10284416434E+04  0.10284416434E+04  0.25500000000E-02 0.  1.
         -2   -1    0    0    0  501 -0.00000000000E+00 -0.00000000000E+00 -0.65483540178E+02  0.65483540227E+02  0.25500000000E-02 0. -1.
    5000001    1    1    2    0    0 -0.15639997849E+03  0.48880729990E+02  0.33020031935E+03  0.41379527539E+03  0.18800000000E+03 0.  0.
   -5000001    1    1    2    0    0  0.15639997849E+03 -0.48880729990E+02  0.63275778387E+03  0.68012990824E+03  0.18800000000E+03 0.  0.
<mgrwt>
<rscale>  0 0.51902216E+03</rscale>
<asrwt>0</asrwt>
<pdfrwt beam="1">  1        2 0.14692022E+00 0.51902216E+03</pdfrwt>
<pdfrwt beam="2">  1       -2 0.93547921E-02 0.51902216E+03</pdfrwt>
<totfact> 0.20702723E+03</totfact>
</mgrwt>
</event>
<event>
 4    1  0.6346694E-005  0.6082739E+03  0.7818608E-02  0.9888388E-01
         -2   -1    0    0    0  501 -0.00000000000E+00  0.00000000000E+00  0.62046478882E+03  0.62046478882E+03  0.25500000000E-02 0. -1.
          2   -1    0    0  501    0  0.00000000000E+00 -0.00000000000E+00 -0.14908063088E+03  0.14908063091E+03  0.25500000000E-02 0.  1.
    5000001    1    1    2    0    0  0.18930398166E+03 -0.60404109648E+02  0.40386693933E+03  0.48778802632E+03  0.18800000000E+03 0.  0.
   -5000001    1    1    2    0    0 -0.18930398166E+03  0.60404109648E+02  0.67517218600E+02  0.28175739341E+03  0.18800000000E+03 0.  0.
<mgrwt>
<rscale>  0 0.60827389E+03</rscale>
<asrwt>0</asrwt>
<pdfrwt beam="1">  1        2 0.21297233E-01 0.60827389E+03</pdfrwt>
<pdfrwt beam="2">  1       -2 0.88637827E-01 0.60827389E+03</pdfrwt>
<totfact> 0.29204808E+02</totfact>
</mgrwt>
</event>
<event>
 4    1  0.6346694E-005  0.6243828E+03  0.7818608E-02  0.9856072E-01
          2   -1    0    0  501    0  0.00000000000E+00  0.00000000000E+00  0.11923327520E+04  0.11923327520E+04  0.25500000000E-02 0.  1.
         -2   -1    0    0    0  501 -0.00000000000E+00 -0.00000000000E+00 -0.81741826673E+02  0.81741826713E+02  0.25500000000E-02 0. -1.
    5000001    1    1    2    0    0  0.13999715261E+03 -0.61503299624E+02  0.15368011981E+03  0.28695546314E+03  0.18800000000E+03 0.  0.
   -5000001    1    1    2    0    0 -0.13999715261E+03  0.61503299624E+02  0.95691080551E+03  0.98711911556E+03  0.18800000000E+03 0.  0.
<mgrwt>
<rscale>  0 0.62438276E+03</rscale>
<asrwt>0</asrwt>
<pdfrwt beam="1">  1        2 0.17033324E+00 0.62438276E+03</pdfrwt>
<pdfrwt beam="2">  1       -2 0.11677404E-01 0.62438276E+03</pdfrwt>
<totfact> 0.11581732E+03</totfact>
</mgrwt>
</event>
<event>
 4    1  0.6346694E-005  0.4221826E+03  0.7818608E-02  0.1036358E+00
          2   -1    0    0  501    0  0.00000000000E+00  0.00000000000E+00  0.32697894565E+03  0.32697894566E+03  0.25500000000E-02 0.  1.
         -2   -1    0    0    0  501 -0.00000000000E+00 -0.00000000000E+00 -0.13627646027E+03  0.13627646029E+03  0.25500000000E-02 0. -1.
    5000001    1    1    2    0    0 -0.79495242804E+01 -0.45018059848E+02  0.18797754694E+03  0.26975800044E+03  0.18800000000E+03 0.  0.
   -5000001    1    1    2    0    0  0.79495242804E+01  0.45018059848E+02  0.27249384382E+01  0.19349740551E+03  0.18800000000E+03 0.  0.
<mgrwt>
<rscale>  0 0.42218258E+03</rscale>
<asrwt>0</asrwt>
<pdfrwt beam="1">  1        2 0.46711278E-01 0.42218258E+03</pdfrwt>
<pdfrwt beam="2">  1       -2 0.19468066E-01 0.42218258E+03</pdfrwt>
<totfact> 0.23947535E+03</totfact>
</mgrwt>
</event>
<event>
 4    1  0.6346694E-005  0.5521263E+03  0.7818608E-02  0.1001003E+00
         -2   -1    0    0    0  501 -0.00000000000E+00  0.00000000000E+00  0.25961087944E+02  0.25961088069E+02  0.25500000000E-02 0. -1.
          2   -1    0    0  501    0  0.00000000000E+00 -0.00000000000E+00 -0.29355806846E+04  0.29355806846E+04  0.25500000000E-02 0.  1.
    5000001    1    1    2    0    0 -0.16345878450E+03 -0.24365210918E+02 -0.20792919834E+04  0.20943045600E+04  0.18800000000E+03 0.  0.
   -5000001    1    1    2    0    0  0.16345878450E+03  0.24365210918E+02 -0.83032761322E+03  0.86723721265E+03  0.18800000000E+03 0.  0.
<mgrwt>
<rscale>  0 0.55212632E+03</rscale>
<asrwt>0</asrwt>
<pdfrwt beam="1">  1        2 0.41936846E+00 0.55212632E+03</pdfrwt>
<pdfrwt beam="2">  1       -2 0.37087287E-02 0.55212632E+03</pdfrwt>
<totfact> 0.89272972E+02</totfact>
</mgrwt>
</event>
<event>
 4    1  0.6346694E-005  0.5849394E+03  0.7818608E-02  0.9937154E-01
          2   -1    0    0  501    0  0.00000000000E+00  0.00000000000E+00  0.12800228984E+04  0.12800228984E+04  0.25500000000E-02 0.  1.
         -2   -1    0    0    0  501 -0.00000000000E+00 -0.00000000000E+00 -0.66825784250E+02  0.66825784299E+02  0.25500000000E-02 0. -1.
    5000001    1    1    2    0    0 -0.18052527143E+03 -0.13267258064E+03  0.60251402478E+03  0.66974512864E+03  0.18800000000E+03 0.  0.
   -5000001    1    1    2    0    0  0.18052527143E+03  0.13267258064E+03  0.61068308935E+03  0.67710355404E+03  0.18800000000E+03 0.  0.
<mgrwt>
<rscale>  0 0.58493943E+03</rscale>
<asrwt>0</asrwt>
<pdfrwt beam="1">  1        2 0.18286041E+00 0.58493943E+03</pdfrwt>
<pdfrwt beam="2">  1       -2 0.95465409E-02 0.58493943E+03</pdfrwt>
<totfact> 0.14392850E+03</totfact>
</mgrwt>
</event>
<event>
 4    1  0.6346694E-005  0.4427007E+03  0.7818608E-02  0.1029921E+00
          2   -1    0    0  501    0  0.00000000000E+00  0.00000000000E+00  0.18351264997E+04  0.18351264997E+04  0.25500000000E-02 0.  1.
         -2   -1    0    0    0  501 -0.00000000000E+00 -0.00000000000E+00 -0.26698961162E+02  0.26698961283E+02  0.25500000000E-02 0. -1.
    5000001    1    1    2    0    0  0.23072695391E+02  0.69326977968E+02  0.52075566902E+03  0.55845236678E+03  0.18800000000E+03 0.  0.
   -5000001    1    1    2    0    0 -0.23072695391E+02 -0.69326977968E+02  0.12876718695E+04  0.13033730942E+04  0.18800000000E+03 0.  0.
<mgrwt>
<rscale>  0 0.44270067E+03</rscale>
<asrwt>0</asrwt>
<pdfrwt beam="1">  1        2 0.26216095E+00 0.44270067E+03</pdfrwt>
<pdfrwt beam="2">  1       -2 0.38141370E-02 0.44270067E+03</pdfrwt>
<totfact> 0.31315691E+03</totfact>
</mgrwt>
</event>
<event>
 4    1  0.6346694E-005  0.7687683E+03  0.7818608E-02  0.9606357E-01
          2   -1    0    0  501    0  0.00000000000E+00  0.00000000000E+00  0.26641692860E+03  0.26641692861E+03  0.25500000000E-02 0.  1.
         -2   -1    0    0    0  501 -0.00000000000E+00 -0.00000000000E+00 -0.55458627461E+03  0.55458627461E+03  0.25500000000E-02 0. -1.
    5000001    1    1    2    0    0 -0.23509672032E+03 -0.21828267584E+03 -0.24811698485E+03  0.44701659102E+03  0.18800000000E+03 0.  0.
   -5000001    1    1    2    0    0  0.23509672032E+03  0.21828267584E+03 -0.40052361163E+02  0.37398661221E+03  0.18800000000E+03 0.  0.
<mgrwt>
<rscale>  0 0.76876829E+03</rscale>
<asrwt>0</asrwt>
<pdfrwt beam="1">  1        2 0.38059561E-01 0.76876829E+03</pdfrwt>
<pdfrwt beam="2">  1       -2 0.79226611E-01 0.76876829E+03</pdfrwt>
<totfact> 0.19393626E+02</totfact>
</mgrwt>
</event>
<event>
 4    1  0.6346694E-005  0.1411795E+04  0.7818608E-02  0.8945325E-01
          2   -1    0    0  501    0  0.00000000000E+00  0.00000000000E+00  0.22340337950E+04  0.22340337950E+04  0.25500000000E-02 0.  1.
         -2   -1    0    0    0  501 -0.00000000000E+00 -0.00000000000E+00 -0.22304557291E+03  0.22304557292E+03  0.25500000000E-02 0. -1.
    5000001    1    1    2    0    0 -0.28280951514E+03  0.57915614633E+03  0.62600731260E+03  0.91795000905E+03  0.18800000000E+03 0.  0.
   -5000001    1    1    2    0    0  0.28280951514E+03 -0.57915614633E+03  0.13849809095E+04  0.15391293589E+04  0.18800000000E+03 0.  0.
<mgrwt>
<rscale>  0 0.14117951E+04</rscale>
<asrwt>0</asrwt>
<pdfrwt beam="1">  1        2 0.31914767E+00 0.14117951E+04</pdfrwt>
<pdfrwt beam="2">  1       -2 0.31863654E-01 0.14117951E+04</pdfrwt>
<totfact> 0.54178530E+01</totfact>
</mgrwt>
</event>
<event>
 4    1  0.6346694E-005  0.6255546E+03  0.7818608E-02  0.9853762E-01
          2   -1    0    0  501    0  0.00000000000E+00  0.00000000000E+00  0.10662010784E+04  0.10662010784E+04  0.25500000000E-02 0.  1.
         -2   -1    0    0    0  501 -0.00000000000E+00 -0.00000000000E+00 -0.91755330337E+02  0.91755330372E+02  0.25500000000E-02 0. -1.
    5000001    1    1    2    0    0 -0.13680246240E+03 -0.19379307218E+03  0.34129229674E+03  0.45617441879E+03  0.18800000000E+03 0.  0.
   -5000001    1    1    2    0    0  0.13680246240E+03  0.19379307218E+03  0.63315345133E+03  0.70178198999E+03  0.18800000000E+03 0.  0.
<mgrwt>
<rscale>  0 0.62555458E+03</rscale>
<asrwt>0</asrwt>
<pdfrwt beam="1">  1        2 0.15231443E+00 0.62555458E+03</pdfrwt>
<pdfrwt beam="2">  1       -2 0.13107905E-01 0.62555458E+03</pdfrwt>
<totfact> 0.11311197E+03</totfact>
</mgrwt>
</event>
<event>
 4    1  0.6346694E-005  0.1450333E+04  0.7818608E-02  0.8918170E-01
          2   -1    0    0  501    0  0.00000000000E+00  0.00000000000E+00  0.10625549403E+04  0.10625549403E+04  0.25500000000E-02 0.  1.
         -2   -1    0    0    0  501 -0.00000000000E+00 -0.00000000000E+00 -0.49490728875E+03  0.49490728875E+03  0.25500000000E-02 0. -1.
    5000001    1    1    2    0    0  0.62672120777E+03 -0.21589970741E+03  0.52664576516E+03  0.86723233213E+03  0.18800000000E+03 0.  0.
   -5000001    1    1    2    0    0 -0.62672120777E+03  0.21589970741E+03  0.41001886400E+02  0.69022989693E+03  0.18800000000E+03 0.  0.
<mgrwt>
<rscale>  0 0.14503326E+04</rscale>
<asrwt>0</asrwt>
<pdfrwt beam="1">  1        2 0.15179356E+00 0.14503326E+04</pdfrwt>
<pdfrwt beam="2">  1       -2 0.70701043E-01 0.14503326E+04</pdfrwt>
<totfact> 0.45446840E+01</totfact>
</mgrwt>
</event>
<event>
 4    1  0.6346694E-005  0.4622651E+03  0.7818608E-02  0.1024126E+00
         -2   -1    0    0    0  501 -0.00000000000E+00  0.00000000000E+00  0.42374559961E+02  0.42374560038E+02  0.25500000000E-02 0. -1.
          2   -1    0    0  501    0  0.00000000000E+00 -0.00000000000E+00 -0.12607151223E+04  0.12607151223E+04  0.25500000000E-02 0.  1.
    5000001    1    1    2    0    0 -0.13252467183E+03 -0.15719706003E+02 -0.65534823360E+03  0.69471951541E+03  0.18800000000E+03 0.  0.
   -5000001    1    1    2    0    0  0.13252467183E+03  0.15719706003E+02 -0.56299232874E+03  0.60837016694E+03  0.18800000000E+03 0.  0.
<mgrwt>
<rscale>  0 0.46226507E+03</rscale>
<asrwt>0</asrwt>
<pdfrwt beam="1">  1        2 0.18010214E+00 0.46226507E+03</pdfrwt>
<pdfrwt beam="2">  1       -2 0.60535094E-02 0.46226507E+03</pdfrwt>
<totfact> 0.30401667E+03</totfact>
</mgrwt>
</event>
<event>
 4    1  0.6346694E-005  0.5464395E+03  0.7818608E-02  0.1002321E+00
         -2   -1    0    0    0  501 -0.00000000000E+00  0.00000000000E+00  0.22669345971E+02  0.22669346115E+02  0.25500000000E-02 0. -1.
          2   -1    0    0  501    0  0.00000000000E+00 -0.00000000000E+00 -0.32929502400E+04  0.32929502400E+04  0.25500000000E-02 0.  1.
    5000001    1    1    2    0    0  0.46931123773E+02 -0.16868999939E+03 -0.10709381981E+04  0.11013226005E+04  0.18800000000E+03 0.  0.
   -5000001    1    1    2    0    0 -0.46931123773E+02  0.16868999939E+03 -0.21993426960E+04  0.22142969856E+04  0.18800000000E+03 0.  0.
<mgrwt>
<rscale>  0 0.54643949E+03</rscale>
<asrwt>0</asrwt>
<pdfrwt beam="1">  1        2 0.47042116E+00 0.54643949E+03</pdfrwt>
<pdfrwt beam="2">  1       -2 0.32384801E-02 0.54643949E+03</pdfrwt>
<totfact> 0.69707097E+02</totfact>
</mgrwt>
</event>
<event>
 4    1  0.6346694E-005  0.6386969E+03  0.7818608E-02  0.9828223E-01
         -2   -1    0    0    0  501 -0.00000000000E+00  0.00000000000E+00  0.11865638414E+03  0.11865638416E+03  0.25500000000E-02 0. -1.
          2   -1    0    0  501    0  0.00000000000E+00 -0.00000000000E+00 -0.85948547309E+03  0.85948547309E+03  0.25500000000E-02 0.  1.
    5000001    1    1    2    0    0  0.12193326380E+03  0.22398536158E+03 -0.43171668116E+03  0.53550019217E+03  0.18800000000E+03 0.  0.
   -5000001    1    1    2    0    0 -0.12193326380E+03 -0.22398536158E+03 -0.30911240780E+03  0.44264166509E+03  0.18800000000E+03 0.  0.
<mgrwt>
<rscale>  0 0.63869692E+03</rscale>
<asrwt>0</asrwt>
<pdfrwt beam="1">  1        2 0.12278363E+00 0.63869692E+03</pdfrwt>
<pdfrwt beam="2">  1       -2 0.16950913E-01 0.63869692E+03</pdfrwt>
<totfact> 0.98715532E+02</totfact>
</mgrwt>
</event>
<event>
 4    1  0.6346694E-005  0.5813544E+03  0.7818608E-02  0.9944863E-01
         -2   -1    0    0    0  501 -0.00000000000E+00  0.00000000000E+00  0.76850543085E+02  0.76850543128E+02  0.25500000000E-02 0. -1.
          2   -1    0    0  501    0  0.00000000000E+00 -0.00000000000E+00 -0.10994487784E+04  0.10994487784E+04  0.25500000000E-02 0.  1.
    5000001    1    1    2    0    0 -0.10414699997E+03  0.17330507186E+03 -0.32731647329E+03  0.42820709852E+03  0.18800000000E+03 0.  0.
   -5000001    1    1    2    0    0  0.10414699997E+03 -0.17330507186E+03 -0.69528176205E+03  0.74809222304E+03  0.18800000000E+03 0.  0.
<mgrwt>
<rscale>  0 0.58135440E+03</rscale>
<asrwt>0</asrwt>
<pdfrwt beam="1">  1        2 0.15706410E+00 0.58135440E+03</pdfrwt>
<pdfrwt beam="2">  1       -2 0.10978650E-01 0.58135440E+03</pdfrwt>
<totfact> 0.14495290E+03</totfact>
</mgrwt>
</event>
<event>
 4    1  0.6346694E-005  0.6365486E+03  0.7818608E-02  0.9832352E-01
          2   -1    0    0  501    0  0.00000000000E+00  0.00000000000E+00  0.34236058882E+03  0.34236058883E+03  0.25500000000E-02 0.  1.
         -2   -1    0    0    0  501 -0.00000000000E+00 -0.00000000000E+00 -0.29588257073E+03  0.29588257074E+03  0.25500000000E-02 0. -1.
    5000001    1    1    2    0    0 -0.59061409990E+02 -0.23896865760E+03  0.96647719494E+02  0.32446733449E+03  0.18800000000E+03 0.  0.
   -5000001    1    1    2    0    0  0.59061409990E+02  0.23896865760E+03 -0.50169701401E+02  0.31377582508E+03  0.18800000000E+03 0.  0.
<mgrwt>
<rscale>  0 0.63654860E+03</rscale>
<asrwt>0</asrwt>
<pdfrwt beam="1">  1        2 0.48908656E-01 0.63654860E+03</pdfrwt>
<pdfrwt beam="2">  1       -2 0.42268938E-01 0.63654860E+03</pdfrwt>
<totfact> 0.54983770E+02</totfact>
</mgrwt>
</event>
<event>
 4    1  0.6346694E-005  0.6341589E+03  0.7818608E-02  0.9836967E-01
          2   -1    0    0  501    0  0.00000000000E+00  0.00000000000E+00  0.21397661331E+03  0.21397661332E+03  0.25500000000E-02 0.  1.
         -2   -1    0    0    0  501 -0.00000000000E+00 -0.00000000000E+00 -0.46986146918E+03  0.46986146919E+03  0.25500000000E-02 0. -1.
    5000001    1    1    2    0    0 -0.32880440680E+02  0.24670689386E+03 -0.66468123157E+02  0.31891601756E+03  0.18800000000E+03 0.  0.
   -5000001    1    1    2    0    0  0.32880440680E+02 -0.24670689386E+03 -0.18941673271E+03  0.36492206495E+03  0.18800000000E+03 0.  0.
<mgrwt>
<rscale>  0 0.63415886E+03</rscale>
<asrwt>0</asrwt>
<pdfrwt beam="1">  1        2 0.30568088E-01 0.63415886E+03</pdfrwt>
<pdfrwt beam="2">  1       -2 0.67123067E-01 0.63415886E+03</pdfrwt>
<totfact> 0.35821523E+02</totfact>
</mgrwt>
</event>
<event>
 4    1  0.6346694E-005  0.1060408E+04  0.7818608E-02  0.9244664E-01
          2   -1    0    0  501    0  0.00000000000E+00  0.00000000000E+00  0.56724239407E+03  0.56724239408E+03  0.25500000000E-02 0.  1.
         -2   -1    0    0    0  501 -0.00000000000E+00 -0.00000000000E+00 -0.49558380176E+03  0.49558380177E+03  0.25500000000E-02 0. -1.
    5000001    1    1    2    0    0  0.23634669836E+03 -0.10984368057E+03 -0.38685131261E+03  0.50291483778E+03  0.18800000000E+03 0.  0.
   -5000001    1    1    2    0    0 -0.23634669836E+03  0.10984368057E+03  0.45850990492E+03  0.55991135807E+03  0.18800000000E+03 0.  0.
<mgrwt>
<rscale>  0 0.10604077E+04</rscale>
<asrwt>0</asrwt>
<pdfrwt beam="1">  1        2 0.81034628E-01 0.10604077E+04</pdfrwt>
<pdfrwt beam="2">  1       -2 0.70797686E-01 0.10604077E+04</pdfrwt>
<totfact> 0.10474427E+02</totfact>
</mgrwt>
</event>
<event>
 4    1  0.6346694E-005  0.8459698E+03  0.7818608E-02  0.9495762E-01
         -2   -1    0    0    0  501 -0.00000000000E+00  0.00000000000E+00  0.53034467807E+03  0.53034467807E+03  0.25500000000E-02 0. -1.
          2   -1    0    0  501    0  0.00000000000E+00 -0.00000000000E+00 -0.33735837505E+03  0.33735837506E+03  0.25500000000E-02 0.  1.
    5000001    1    1    2    0    0  0.54332175548E+02 -0.36546064976E+03  0.18266791144E+03  0.45301770130E+03  0.18800000000E+03 0.  0.
   -5000001    1    1    2    0    0 -0.54332175548E+02  0.36546064976E+03  0.10318391586E+02  0.41468535183E+03  0.18800000000E+03 0.  0.
<mgrwt>
<rscale>  0 0.84596978E+03</rscale>
<asrwt>0</asrwt>
<pdfrwt beam="1">  1        2 0.48194054E-01 0.84596978E+03</pdfrwt>
<pdfrwt beam="2">  1       -2 0.75763525E-01 0.84596978E+03</pdfrwt>
<totfact> 0.16432973E+02</totfact>
</mgrwt>
</event>
<event>
 4    1  0.6346694E-005  0.6439301E+03  0.7818608E-02  0.9818236E-01
         -2   -1    0    0    0  501 -0.00000000000E+00  0.00000000000E+00  0.28893323016E+03  0.28893323017E+03  0.25500000000E-02 0. -1.
          2   -1    0    0  501    0  0.00000000000E+00 -0.00000000000E+00 -0.35877322109E+03  0.35877322110E+03  0.25500000000E-02 0.  1.
    5000001    1    1    2    0    0  0.84287150807E+02 -0.24733443699E+03 -0.28649807190E+02  0.32317713249E+03  0.18800000000E+03 0.  0.
   -5000001    1    1    2    0    0 -0.84287150807E+02  0.24733443699E+03 -0.41190183744E+02  0.32452931878E+03  0.18800000000E+03 0.  0.
<mgrwt>
<rscale>  0 0.64393014E+03</rscale>
<asrwt>0</asrwt>
<pdfrwt beam="1">  1        2 0.51253318E-01 0.64393014E+03</pdfrwt>
<pdfrwt beam="2">  1       -2 0.41276176E-01 0.64393014E+03</pdfrwt>
<totfact> 0.54685375E+02</totfact>
</mgrwt>
</event>
<event>
 4    1  0.6346694E-005  0.4769695E+03  0.7818608E-02  0.1019971E+00
          2   -1    0    0  501    0  0.00000000000E+00  0.00000000000E+00  0.32005196645E+04  0.32005196645E+04  0.25500000000E-02 0.  1.
         -2   -1    0    0    0  501 -0.00000000000E+00 -0.00000000000E+00 -0.17770546363E+02  0.17770546546E+02  0.25500000000E-02 0. -1.
    5000001    1    1    2    0    0  0.83745861556E+02 -0.74971087957E+02  0.22278111529E+04  0.22385532306E+04  0.18800000000E+03 0.  0.
   -5000001    1    1    2    0    0 -0.83745861556E+02  0.74971087957E+02  0.95493796532E+03  0.97973698050E+03  0.18800000000E+03 0.  0.
<mgrwt>
<rscale>  0 0.47696953E+03</rscale>
<asrwt>0</asrwt>
<pdfrwt beam="1">  1        2 0.45721723E+00 0.47696953E+03</pdfrwt>
<pdfrwt beam="2">  1       -2 0.25386488E-02 0.47696953E+03</pdfrwt>
<totfact> 0.11440357E+03</totfact>
</mgrwt>
</event>
<event>
 4    1  0.6346694E-005  0.4213037E+03  0.7818608E-02  0.1036643E+00
         -2   -1    0    0    0  501 -0.00000000000E+00  0.00000000000E+00  0.10809471284E+02  0.10809471584E+02  0.25500000000E-02 0. -1.
          2   -1    0    0  501    0  0.00000000000E+00 -0.00000000000E+00 -0.41051231963E+04  0.41051231963E+04  0.25500000000E-02 0.  1.
    5000001    1    1    2    0    0 -0.15377379410E+02 -0.39485397905E+02 -0.12161937477E+04  0.12313678542E+04  0.18800000000E+03 0.  0.
   -5000001    1    1    2    0    0  0.15377379410E+02  0.39485397905E+02 -0.28781199773E+04  0.28845648137E+04  0.18800000000E+03 0.  0.
<mgrwt>
<rscale>  0 0.42130375E+03</rscale>
<asrwt>0</asrwt>
<pdfrwt beam="1">  1        2 0.58644518E+00 0.42130375E+03</pdfrwt>
<pdfrwt beam="2">  1       -2 0.15442128E-02 0.42130375E+03</pdfrwt>
<totfact> 0.67688620E+02</totfact>
</mgrwt>
</event>
<event>
 4    1  0.6346694E-005  0.9569209E+03  0.7818608E-02  0.9357097E-01
          2   -1    0    0  501    0  0.00000000000E+00  0.00000000000E+00  0.22414514203E+04  0.22414514203E+04  0.25500000000E-02 0.  1.
         -2   -1    0    0    0  501 -0.00000000000E+00 -0.00000000000E+00 -0.10213222323E+03  0.10213222326E+03  0.25500000000E-02 0. -1.
    5000001    1    1    2    0    0  0.18851841071E+03 -0.31153959252E+03  0.16744619267E+04  0.17238801736E+04  0.18800000000E+03 0.  0.
   -5000001    1    1    2    0    0 -0.18851841071E+03  0.31153959252E+03  0.46485727033E+03  0.61970346994E+03  0.18800000000E+03 0.  0.
<mgrwt>
<rscale>  0 0.95692093E+03</rscale>
<asrwt>0</asrwt>
<pdfrwt beam="1">  1        2 0.32020727E+00 0.95692093E+03</pdfrwt>
<pdfrwt beam="2">  1       -2 0.14590321E-01 0.95692093E+03</pdfrwt>
<totfact> 0.22303979E+02</totfact>
</mgrwt>
</event>
<event>
 4    1  0.6346694E-005  0.7324420E+03  0.7818608E-02  0.9663306E-01
          2   -1    0    0  501    0  0.00000000000E+00  0.00000000000E+00  0.11987666590E+04  0.11987666590E+04  0.25500000000E-02 0.  1.
         -2   -1    0    0    0  501 -0.00000000000E+00 -0.00000000000E+00 -0.11187984985E+03  0.11187984988E+03  0.25500000000E-02 0. -1.
    5000001    1    1    2    0    0 -0.18226825751E+03 -0.35056964107E+02  0.99727620742E+03  0.10316755994E+04  0.18800000000E+03 0.  0.
   -5000001    1    1    2    0    0  0.18226825751E+03  0.35056964107E+02  0.89610601752E+02  0.27897090955E+03  0.18800000000E+03 0.  0.
<mgrwt>
<rscale>  0 0.73244204E+03</rscale>
<asrwt>0</asrwt>
<pdfrwt beam="1">  1        2 0.17125239E+00 0.73244204E+03</pdfrwt>
<pdfrwt beam="2">  1       -2 0.15982834E-01 0.73244204E+03</pdfrwt>
<totfact> 0.67710904E+02</totfact>
</mgrwt>
</event>
<event>
 4    1  0.6346694E-005  0.6838729E+03  0.7818608E-02  0.9745216E-01
          2   -1    0    0  501    0  0.00000000000E+00  0.00000000000E+00  0.38412876314E+03  0.38412876314E+03  0.25500000000E-02 0.  1.
         -2   -1    0    0    0  501 -0.00000000000E+00 -0.00000000000E+00 -0.30437847921E+03  0.30437847922E+03  0.25500000000E-02 0. -1.
    5000001    1    1    2    0    0  0.24328314708E+03 -0.11308512135E+03 -0.58776611881E+02  0.33282671832E+03  0.18800000000E+03 0.  0.
   -5000001    1    1    2    0    0 -0.24328314708E+03  0.11308512135E+03  0.13852689581E+03  0.35568052404E+03  0.18800000000E+03 0.  0.
<mgrwt>
<rscale>  0 0.68387288E+03</rscale>
<asrwt>0</asrwt>
<pdfrwt beam="1">  1        2 0.54875537E-01 0.68387288E+03</pdfrwt>
<pdfrwt beam="2">  1       -2 0.43482640E-01 0.68387288E+03</pdfrwt>
<totfact> 0.45718352E+02</totfact>
</mgrwt>
</event>
<event>
 4    1  0.6346694E-005  0.5702300E+03  0.7818608E-02  0.9969170E-01
         -2   -1    0    0    0  501 -0.00000000000E+00  0.00000000000E+00  0.38448932049E+03  0.38448932049E+03  0.25500000000E-02 0. -1.
          2   -1    0    0  501    0  0.00000000000E+00 -0.00000000000E+00 -0.21142476299E+03  0.21142476300E+03  0.25500000000E-02 0.  1.
    5000001    1    1    2    0    0 -0.19636772831E+03 -0.43665839122E+02  0.16389058541E+03  0.32042333594E+03  0.18800000000E+03 0.  0.
   -5000001    1    1    2    0    0  0.19636772831E+03  0.43665839122E+02  0.91739720858E+01  0.27549074756E+03  0.18800000000E+03 0.  0.
<mgrwt>
<rscale>  0 0.57023000E+03</rscale>
<asrwt>0</asrwt>
<pdfrwt beam="1">  1        2 0.30203537E-01 0.57023000E+03</pdfrwt>
<pdfrwt beam="2">  1       -2 0.54927046E-01 0.57023000E+03</pdfrwt>
<totfact> 0.55475874E+02</totfact>
</mgrwt>
</event>
<event>
 4    1  0.6346694E-005  0.7485962E+03  0.7818608E-02  0.9637555E-01
          2   -1    0    0  501    0  0.00000000000E+00  0.00000000000E+00  0.78294004339E+03  0.78294004340E+03  0.25500000000E-02 0.  1.
         -2   -1    0    0    0  501 -0.00000000000E+00 -0.00000000000E+00 -0.17893970104E+03  0.17893970106E+03  0.25500000000E-02 0. -1.
    5000001    1    1    2    0    0 -0.24414240300E+02 -0.27947451883E+03  0.94603391133E+02  0.35070766091E+03  0.18800000000E+03 0.  0.
   -5000001    1    1    2    0    0  0.24414240300E+02  0.27947451883E+03  0.50939695122E+03  0.61117208355E+03  0.18800000000E+03 0.  0.
<mgrwt>
<rscale>  0 0.74859617E+03</rscale>
<asrwt>0</asrwt>
<pdfrwt beam="1">  1        2 0.11184858E+00 0.74859617E+03</pdfrwt>
<pdfrwt beam="2">  1       -2 0.25562815E-01 0.74859617E+03</pdfrwt>
<totfact> 0.53974409E+02</totfact>
</mgrwt>
</event>
<event>
 4    1  0.6346694E-005  0.4885394E+03  0.7818608E-02  0.1016814E+00
          2   -1    0    0  501    0  0.00000000000E+00  0.00000000000E+00  0.13027234560E+04  0.13027234560E+04  0.25500000000E-02 0.  1.
         -2   -1    0    0    0  501 -0.00000000000E+00 -0.00000000000E+00 -0.45802271552E+02  0.45802271623E+02  0.25500000000E-02 0. -1.
    5000001    1    1    2    0    0 -0.15509035538E+03  0.12632890114E+01  0.58318128572E+03  0.63205935342E+03  0.18800000000E+03 0.  0.
   -5000001    1    1    2    0    0  0.15509035538E+03 -0.12632890114E+01  0.67373989876E+03  0.71646637424E+03  0.18800000000E+03 0.  0.
<mgrwt>
<rscale>  0 0.48853943E+03</rscale>
<asrwt>0</asrwt>
<pdfrwt beam="1">  1        2 0.18610331E+00 0.48853943E+03</pdfrwt>
<pdfrwt beam="2">  1       -2 0.65431832E-02 0.48853943E+03</pdfrwt>
<totfact> 0.25545888E+03</totfact>
</mgrwt>
</event>
<event>
 4    1  0.6346694E-005  0.1012163E+04  0.7818608E-02  0.9295304E-01
          2   -1    0    0  501    0  0.00000000000E+00  0.00000000000E+00  0.16238308331E+04  0.16238308331E+04  0.25500000000E-02 0.  1.
         -2   -1    0    0    0  501 -0.00000000000E+00 -0.00000000000E+00 -0.15772490638E+03  0.15772490641E+03  0.25500000000E-02 0. -1.
    5000001    1    1    2    0    0 -0.21094286507E+03  0.41983842161E+03  0.73948979930E+03  0.89607497223E+03  0.18800000000E+03 0.  0.
   -5000001    1    1    2    0    0  0.21094286507E+03 -0.41983842161E+03  0.72661612737E+03  0.88548076723E+03  0.18800000000E+03 0.  0.
<mgrwt>
<rscale>  0 0.10121632E+04</rscale>
<asrwt>0</asrwt>
<pdfrwt beam="1">  1        2 0.23197583E+00 0.10121632E+04</pdfrwt>
<pdfrwt beam="2">  1       -2 0.22532130E-01 0.10121632E+04</pdfrwt>
<totfact> 0.21664564E+02</totfact>
</mgrwt>
</event>
<event>
 4    1  0.6346694E-005  0.4622738E+03  0.7818608E-02  0.1024124E+00
         -2   -1    0    0    0  501 -0.00000000000E+00  0.00000000000E+00  0.57106808781E+02  0.57106808838E+02  0.25500000000E-02 0. -1.
          2   -1    0    0  501    0  0.00000000000E+00 -0.00000000000E+00 -0.93551467846E+03  0.93551467847E+03  0.25500000000E-02 0.  1.
    5000001    1    1    2    0    0 -0.11002678565E+03 -0.75677955023E+02 -0.40544266932E+03  0.46643413741E+03  0.18800000000E+03 0.  0.
   -5000001    1    1    2    0    0  0.11002678565E+03  0.75677955023E+02 -0.47296520037E+03  0.52618734990E+03  0.18800000000E+03 0.  0.
<mgrwt>
<rscale>  0 0.46227376E+03</rscale>
<asrwt>0</asrwt>
<pdfrwt beam="1">  1        2 0.13364494E+00 0.46227376E+03</pdfrwt>
<pdfrwt beam="2">  1       -2 0.81581161E-02 0.46227376E+03</pdfrwt>
<totfact> 0.29353703E+03</totfact>
</mgrwt>
</event>
<event>
 4    1  0.6346694E-005  0.6766365E+03  0.7818608E-02  0.9758043E-01
          2   -1    0    0  501    0  0.00000000000E+00  0.00000000000E+00  0.18693028144E+04  0.18693028144E+04  0.25500000000E-02 0. -1.
         -2   -1    0    0    0  501 -0.00000000000E+00 -0.00000000000E+00 -0.61230971633E+02  0.61230971686E+02  0.25500000000E-02 0.  1.
    5000001    1    1    2    0    0 -0.18269272693E+03 -0.20030421741E+03  0.69020668200E+03  0.76500174893E+03  0.18800000000E+03 0.  0.
   -5000001    1    1    2    0    0  0.18269272693E+03  0.20030421741E+03  0.11178651607E+04  0.11655320371E+04  0.18800000000E+03 0.  0.
<mgrwt>
<rscale>  0 0.67663647E+03</rscale>
<asrwt>0</asrwt>
<pdfrwt beam="1">  1        2 0.26704333E+00 0.67663647E+03</pdfrwt>
<pdfrwt beam="2">  1       -2 0.87472794E-02 0.67663647E+03</pdfrwt>
<totfact> 0.81556953E+02</totfact>
</mgrwt>
</event>
<event>
 4    1  0.6346694E-005  0.4799924E+03  0.7818608E-02  0.1019137E+00
         -2   -1    0    0    0  501 -0.00000000000E+00  0.00000000000E+00  0.43066070375E+02  0.43066070450E+02  0.25500000000E-02 0. -1.
          2   -1    0    0  501    0  0.00000000000E+00 -0.00000000000E+00 -0.13374375787E+04  0.13374375787E+04  0.25500000000E-02 0.  1.
    5000001    1    1    2    0    0  0.96881683992E+02 -0.49216421891E+02 -0.94113704004E+03  0.96586295354E+03  0.18800000000E+03 0.  0.
   -5000001    1    1    2    0    0 -0.96881683992E+02  0.49216421891E+02 -0.35323446828E+03  0.41464069561E+03  0.18800000000E+03 0.  0.
<mgrwt>
<rscale>  0 0.47999242E+03</rscale>
<asrwt>0</asrwt>
<pdfrwt beam="1">  1        2 0.19106248E+00 0.47999242E+03</pdfrwt>
<pdfrwt beam="2">  1       -2 0.61522966E-02 0.47999242E+03</pdfrwt>
<totfact> 0.26949098E+03</totfact>
</mgrwt>
</event>
<event>
 4    1  0.6346694E-005  0.7823786E+03  0.7818608E-02  0.9585880E-01
         -2   -1    0    0    0  501 -0.00000000000E+00  0.00000000000E+00  0.26692313732E+03  0.26692313733E+03  0.25500000000E-02 0. -1.
          2   -1    0    0  501    0  0.00000000000E+00 -0.00000000000E+00 -0.57330755241E+03  0.57330755241E+03  0.25500000000E-02 0.  1.
    5000001    1    1    2    0    0 -0.74354909179E+02  0.33442346783E+03 -0.13406086225E+03  0.41313922973E+03  0.18800000000E+03 0.  0.
   -5000001    1    1    2    0    0  0.74354909179E+02 -0.33442346783E+03 -0.17232355285E+03  0.42709146002E+03  0.18800000000E+03 0.  0.
<mgrwt>
<rscale>  0 0.78237855E+03</rscale>
<asrwt>0</asrwt>
<pdfrwt beam="1">  1        2 0.81901078E-01 0.78237855E+03</pdfrwt>
<pdfrwt beam="2">  1       -2 0.38131877E-01 0.78237855E+03</pdfrwt>
<totfact> 0.37362887E+02</totfact>
</mgrwt>
</event>
<event>
 4    1  0.6346694E-005  0.4961584E+03  0.7818608E-02  0.1014787E+00
          2   -1    0    0  501    0  0.00000000000E+00  0.00000000000E+00  0.32008506124E+03  0.32008506125E+03  0.25500000000E-02 0.  1.
         -2   -1    0    0    0  501 -0.00000000000E+00 -0.00000000000E+00 -0.19227169470E+03  0.19227169472E+03  0.25500000000E-02 0. -1.
    5000001    1    1    2    0    0  0.38600199181E+02 -0.15604920618E+03  0.44368974954E+02  0.25130446885E+03  0.18800000000E+03 0.  0.
   -5000001    1    1    2    0    0 -0.38600199181E+02  0.15604920618E+03  0.83444391582E+02  0.26105228712E+03  0.18800000000E+03 0.  0.
<mgrwt>
<rscale>  0 0.49615843E+03</rscale>
<asrwt>0</asrwt>
<pdfrwt beam="1">  1        2 0.45726437E-01 0.49615843E+03</pdfrwt>
<pdfrwt beam="2">  1       -2 0.27467385E-01 0.49615843E+03</pdfrwt>
<totfact> 0.13364025E+03</totfact>
</mgrwt>
</event>
<event>
 4    1  0.6346694E-005  0.4881856E+03  0.7818608E-02  0.1016909E+00
          2   -1    0    0  501    0  0.00000000000E+00  0.00000000000E+00  0.63331321874E+03  0.63331321875E+03  0.25500000000E-02 0.  1.
         -2   -1    0    0    0  501 -0.00000000000E+00 -0.00000000000E+00 -0.94078712109E+02  0.94078712143E+02  0.25500000000E-02 0. -1.
    5000001    1    1    2    0    0 -0.88690026895E+02 -0.12346971015E+03  0.31962862263E+03  0.40077069079E+03  0.18800000000E+03 0.  0.
   -5000001    1    1    2    0    0  0.88690026895E+02  0.12346971015E+03  0.21960588401E+03  0.32662124010E+03  0.18800000000E+03 0.  0.
<mgrwt>
<rscale>  0 0.48818559E+03</rscale>
<asrwt>0</asrwt>
<pdfrwt beam="1">  1        2 0.90473321E-01 0.48818559E+03</pdfrwt>
<pdfrwt beam="2">  1       -2 0.13439815E-01 0.48818559E+03</pdfrwt>
<totfact> 0.21348514E+03</totfact>
</mgrwt>
</event>
<event>
 4    1  0.6346694E-005  0.8708692E+03  0.7818608E-02  0.9462747E-01
         -2   -1    0    0    0  501 -0.00000000000E+00  0.00000000000E+00  0.16356097134E+03  0.16356097136E+03  0.25500000000E-02 0. -1.
          2   -1    0    0  501    0  0.00000000000E+00 -0.00000000000E+00 -0.11592208324E+04  0.11592208324E+04  0.25500000000E-02 0.  1.
    5000001    1    1    2    0    0 -0.33623068319E+03  0.20265519699E+03 -0.51574317002E+03  0.67487422428E+03  0.18800000000E+03 0.  0.
   -5000001    1    1    2    0    0  0.33623068319E+03 -0.20265519699E+03 -0.47991669101E+03  0.64790757944E+03  0.18800000000E+03 0.  0.
<mgrwt>
<rscale>  0 0.87086919E+03</rscale>
<asrwt>0</asrwt>
<pdfrwt beam="1">  1        2 0.16560297E+00 0.87086919E+03</pdfrwt>
<pdfrwt beam="2">  1       -2 0.23365854E-01 0.87086919E+03</pdfrwt>
<totfact> 0.36559523E+02</totfact>
</mgrwt>
</event>
<event>
 4    1  0.6346694E-005  0.4805935E+03  0.7818608E-02  0.1018972E+00
          2   -1    0    0  501    0  0.00000000000E+00  0.00000000000E+00  0.21466234295E+03  0.21466234297E+03  0.25500000000E-02 0.  1.
         -2   -1    0    0    0  501 -0.00000000000E+00 -0.00000000000E+00 -0.26899238143E+03  0.26899238144E+03  0.25500000000E-02 0. -1.
    5000001    1    1    2    0    0  0.11905512883E+03  0.89744758376E+02 -0.40297640814E+02  0.24330257954E+03  0.18800000000E+03 0.  0.
   -5000001    1    1    2    0    0 -0.11905512883E+03 -0.89744758376E+02 -0.14032397665E+02  0.24035214487E+03  0.18800000000E+03 0.  0.
<mgrwt>
<rscale>  0 0.48059353E+03</rscale>
<asrwt>0</asrwt>
<pdfrwt beam="1">  1        2 0.30666049E-01 0.48059353E+03</pdfrwt>
<pdfrwt beam="2">  1       -2 0.38427483E-01 0.48059353E+03</pdfrwt>
<totfact> 0.11102762E+03</totfact>
</mgrwt>
</event>
<event>
 4    1  0.6346694E-005  0.5621042E+03  0.7818608E-02  0.9987305E-01
         -2   -1    0    0    0  501 -0.00000000000E+00  0.00000000000E+00  0.29122995858E+02  0.29122995970E+02  0.25500000000E-02 0. -1.
          2   -1    0    0  501    0  0.00000000000E+00 -0.00000000000E+00 -0.27122990244E+04  0.27122990244E+04  0.25500000000E-02 0.  1.
    5000001    1    1    2    0    0 -0.19492848204E+03  0.61775237200E+02 -0.15503916225E+04  0.15750782445E+04  0.18800000000E+03 0.  0.
   -5000001    1    1    2    0    0  0.19492848204E+03 -0.61775237200E+02 -0.11327844061E+04  0.11663437760E+04  0.18800000000E+03 0.  0.
<mgrwt>
<rscale>  0 0.56210417E+03</rscale>
<asrwt>0</asrwt>
<pdfrwt beam="1">  1        2 0.38747113E+00 0.56210417E+03</pdfrwt>
<pdfrwt beam="2">  1       -2 0.41604297E-02 0.56210417E+03</pdfrwt>
<totfact> 0.98218454E+02</totfact>
</mgrwt>
</event>
<event>
 4    1  0.6346694E-005  0.1106955E+04  0.7818608E-02  0.9198440E-01
          2   -1    0    0  501    0  0.00000000000E+00  0.00000000000E+00  0.28661302257E+04  0.28661302257E+04  0.25500000000E-02 0.  1.
         -2   -1    0    0    0  501 -0.00000000000E+00 -0.00000000000E+00 -0.10688178678E+03  0.10688178681E+03  0.25500000000E-02 0. -1.
    5000001    1    1    2    0    0  0.22137774424E+03  0.40362960806E+03  0.72687921980E+03  0.88069425246E+03  0.18800000000E+03 0.  0.
   -5000001    1    1    2    0    0 -0.22137774424E+03 -0.40362960806E+03  0.20323692191E+04  0.20923177600E+04  0.18800000000E+03 0.  0.
<mgrwt>
<rscale>  0 0.11069546E+04</rscale>
<asrwt>0</asrwt>
<pdfrwt beam="1">  1        2 0.40944713E+00 0.11069546E+04</pdfrwt>
<pdfrwt beam="2">  1       -2 0.15268828E-01 0.11069546E+04</pdfrwt>
<totfact> 0.95849646E+01</totfact>
</mgrwt>
</event>
<event>
 4    1  0.6346694E-005  0.5139106E+03  0.7818608E-02  0.1010211E+00
         -2   -1    0    0    0  501 -0.00000000000E+00  0.00000000000E+00  0.54384633405E+03  0.54384633406E+03  0.25500000000E-02 0. -1.
          2   -1    0    0  501    0  0.00000000000E+00 -0.00000000000E+00 -0.12140565121E+03  0.12140565124E+03  0.25500000000E-02 0.  1.
    5000001    1    1    2    0    0 -0.72861314800E+02 -0.11623695140E+03  0.35220815816E+03  0.42215445839E+03  0.18800000000E+03 0.  0.
   -5000001    1    1    2    0    0  0.72861314800E+02  0.11623695140E+03  0.70232524677E+02  0.24309752690E+03  0.18800000000E+03 0.  0.
<mgrwt>
<rscale>  0 0.51391057E+03</rscale>
<asrwt>0</asrwt>
<pdfrwt beam="1">  1        2 0.17343664E-01 0.51391057E+03</pdfrwt>
<pdfrwt beam="2">  1       -2 0.77692335E-01 0.51391057E+03</pdfrwt>
<totfact> 0.50107905E+02</totfact>
</mgrwt>
</event>
<event>
 4    1  0.6346694E-005  0.1081375E+04  0.7818608E-02  0.9223538E-01
          2   -1    0    0  501    0  0.00000000000E+00  0.00000000000E+00  0.17114847550E+04  0.17114847550E+04  0.25500000000E-02 0.  1.
         -2   -1    0    0    0  501 -0.00000000000E+00 -0.00000000000E+00 -0.17081244259E+03  0.17081244261E+03  0.25500000000E-02 0. -1.
    5000001    1    1    2    0    0  0.86267987790E+02 -0.47844591253E+03  0.10204469066E+04  0.11458658500E+04  0.18800000000E+03 0.  0.
   -5000001    1    1    2    0    0 -0.86267987790E+02  0.47844591253E+03  0.52022540582E+03  0.73643134765E+03  0.18800000000E+03 0.  0.
<mgrwt>
<rscale>  0 0.10813748E+04</rscale>
<asrwt>0</asrwt>
<pdfrwt beam="1">  1        2 0.24449782E+00 0.10813748E+04</pdfrwt>
<pdfrwt beam="2">  1       -2 0.24401778E-01 0.10813748E+04</pdfrwt>
<totfact> 0.16836535E+02</totfact>
</mgrwt>
</event>
<event>
 4    1  0.6346694E-005  0.5832437E+03  0.7818608E-02  0.9940793E-01
          2   -1    0    0  501    0  0.00000000000E+00  0.00000000000E+00  0.16778559254E+04  0.16778559254E+04  0.25500000000E-02 0.  1.
         -2   -1    0    0    0  501 -0.00000000000E+00 -0.00000000000E+00 -0.50685702594E+02  0.50685702658E+02  0.25500000000E-02 0. -1.
    5000001    1    1    2    0    0 -0.11230613081E+03 -0.18297504497E+03  0.99157246542E+03  0.10318199883E+04  0.18800000000E+03 0.  0.
   -5000001    1    1    2    0    0  0.11230613081E+03  0.18297504497E+03  0.63559775738E+03  0.69672163974E+03  0.18800000000E+03 0.  0.
<mgrwt>
<rscale>  0 0.58324371E+03</rscale>
<asrwt>0</asrwt>
<pdfrwt beam="1">  1        2 0.23969370E+00 0.58324371E+03</pdfrwt>
<pdfrwt beam="2">  1       -2 0.72408146E-02 0.58324371E+03</pdfrwt>
<totfact> 0.13848240E+03</totfact>
</mgrwt>
</event>
<event>
 4    1  0.6346694E-005  0.8796110E+03  0.7818608E-02  0.9451434E-01
          2   -1    0    0  501    0  0.00000000000E+00  0.00000000000E+00  0.17038808714E+04  0.17038808714E+04  0.25500000000E-02 0.  1.
         -2   -1    0    0    0  501 -0.00000000000E+00 -0.00000000000E+00 -0.11352254766E+03  0.11352254769E+03  0.25500000000E-02 0. -1.
    5000001    1    1    2    0    0 -0.92140111025E+02  0.37682542702E+03  0.97527413591E+03  0.10662977270E+04  0.18800000000E+03 0.  0.
   -5000001    1    1    2    0    0  0.92140111025E+02 -0.37682542702E+03  0.61508418781E+03  0.75110569203E+03  0.18800000000E+03 0.  0.
<mgrwt>
<rscale>  0 0.87961104E+03</rscale>
<asrwt>0</asrwt>
<pdfrwt beam="1">  1        2 0.24341152E+00 0.87961104E+03</pdfrwt>
<pdfrwt beam="2">  1       -2 0.16217509E-01 0.87961104E+03</pdfrwt>
<totfact> 0.35235864E+02</totfact>
</mgrwt>
</event>
<event>
 4    1  0.6346694E-005  0.5301498E+03  0.7818608E-02  0.1006196E+00
         -2   -1    0    0    0  501 -0.00000000000E+00  0.00000000000E+00  0.42643260806E+02  0.42643260882E+02  0.25500000000E-02 0. -1.
          2   -1    0    0  501    0  0.00000000000E+00 -0.00000000000E+00 -0.16477330053E+04  0.16477330053E+04  0.25500000000E-02 0.  1.
    5000001    1    1    2    0    0  0.12966000829E+03 -0.95595476728E+02 -0.50055458075E+03  0.55843450934E+03  0.18800000000E+03 0.  0.
   -5000001    1    1    2    0    0 -0.12966000829E+03  0.95595476728E+02 -0.11045351637E+04  0.11319417568E+04  0.18800000000E+03 0.  0.
<mgrwt>
<rscale>  0 0.53014982E+03</rscale>
<asrwt>0</asrwt>
<pdfrwt beam="1">  1        2 0.23539039E+00 0.53014982E+03</pdfrwt>
<pdfrwt beam="2">  1       -2 0.60918954E-02 0.53014982E+03</pdfrwt>
<totfact> 0.18861375E+03</totfact>
</mgrwt>
</event>
<event>
 4    1  0.6346694E-005  0.7165702E+03  0.7818608E-02  0.9689307E-01
          2   -1    0    0  501    0  0.00000000000E+00  0.00000000000E+00  0.10908498284E+03  0.10908498287E+03  0.25500000000E-02 0.  1.
         -2   -1    0    0    0  501 -0.00000000000E+00 -0.00000000000E+00 -0.11767725905E+04  0.11767725905E+04  0.25500000000E-02 0. -1.
    5000001    1    1    2    0    0  0.26795479072E+03  0.49489983939E+02 -0.77972554496E+03  0.84709205748E+03  0.18800000000E+03 0.  0.
   -5000001    1    1    2    0    0 -0.26795479072E+03 -0.49489983939E+02 -0.28796206267E+03  0.43876551587E+03  0.18800000000E+03 0.  0.
<mgrwt>
<rscale>  0 0.71657021E+03</rscale>
<asrwt>0</asrwt>
<pdfrwt beam="1">  1        2 0.15583570E-01 0.71657021E+03</pdfrwt>
<pdfrwt beam="2">  1       -2 0.16811036E+00 0.71657021E+03</pdfrwt>
<totfact> 0.85404468E+01</totfact>
</mgrwt>
</event>
<event>
 4    1  0.6346694E-005  0.7340574E+03  0.7818608E-02  0.9660699E-01
          2   -1    0    0  501    0  0.00000000000E+00  0.00000000000E+00  0.11848626271E+04  0.11848626271E+04  0.25500000000E-02 0.  1.
         -2   -1    0    0    0  501 -0.00000000000E+00 -0.00000000000E+00 -0.11369255343E+03  0.11369255346E+03  0.25500000000E-02 0. -1.
    5000001    1    1    2    0    0 -0.31519999568E+03 -0.11949489330E+01  0.54210699656E+03  0.65465751420E+03  0.18800000000E+03 0.  0.
   -5000001    1    1    2    0    0  0.31519999568E+03  0.11949489330E+01  0.52906307707E+03  0.64389766632E+03  0.18800000000E+03 0.  0.
<mgrwt>
<rscale>  0 0.73405738E+03</rscale>
<asrwt>0</asrwt>
<pdfrwt beam="1">  1        2 0.16926608E+00 0.73405738E+03</pdfrwt>
<pdfrwt beam="2">  1       -2 0.16241794E-01 0.73405738E+03</pdfrwt>
<totfact> 0.67082963E+02</totfact>
</mgrwt>
</event>
<event>
 4    1  0.6346694E-005  0.5838901E+03  0.7818608E-02  0.9939404E-01
         -2   -1    0    0    0  501 -0.00000000000E+00  0.00000000000E+00  0.10592720089E+03  0.10592720092E+03  0.25500000000E-02 0. -1.
          2   -1    0    0  501    0  0.00000000000E+00 -0.00000000000E+00 -0.80462714696E+03  0.80462714696E+03  0.25500000000E-02 0.  1.
    5000001    1    1    2    0    0  0.21059800319E+03  0.13474291812E+01 -0.23333431425E+03  0.36625433338E+03  0.18800000000E+03 0.  0.
   -5000001    1    1    2    0    0 -0.21059800319E+03 -0.13474291812E+01 -0.46536563182E+03  0.54430001450E+03  0.18800000000E+03 0.  0.
<mgrwt>
<rscale>  0 0.58389006E+03</rscale>
<asrwt>0</asrwt>
<pdfrwt beam="1">  1        2 0.11494673E+00 0.58389006E+03</pdfrwt>
<pdfrwt beam="2">  1       -2 0.15132458E-01 0.58389006E+03</pdfrwt>
<totfact> 0.13048695E+03</totfact>
</mgrwt>
</event>
<event>
 4    1  0.6346694E-005  0.7311317E+03  0.7818608E-02  0.9665426E-01
          2   -1    0    0  501    0  0.00000000000E+00  0.00000000000E+00  0.16252863939E+04  0.16252863939E+04  0.25500000000E-02 0.  1.
         -2   -1    0    0    0  501 -0.00000000000E+00 -0.00000000000E+00 -0.82224528861E+02  0.82224528901E+02  0.25500000000E-02 0. -1.
    5000001    1    1    2    0    0  0.16499795696E+03  0.15130244671E+03  0.25891669696E+03  0.39051070683E+03  0.18800000000E+03 0.  0.
   -5000001    1    1    2    0    0 -0.16499795696E+03 -0.15130244671E+03  0.12841451681E+04  0.13170002160E+04  0.18800000000E+03 0.  0.
<mgrwt>
<rscale>  0 0.73113175E+03</rscale>
<asrwt>0</asrwt>
<pdfrwt beam="1">  1        2 0.23218376E+00 0.73113175E+03</pdfrwt>
<pdfrwt beam="2">  1       -2 0.11746362E-01 0.73113175E+03</pdfrwt>
<totfact> 0.67016416E+02</totfact>
</mgrwt>
</event>
<event>
 4    1  0.6346694E-005  0.8198464E+03  0.7818608E-02  0.9531726E-01
         -2   -1    0    0    0  501 -0.00000000000E+00  0.00000000000E+00  0.15652538167E+03  0.15652538169E+03  0.25500000000E-02 0. -1.
          2   -1    0    0  501    0  0.00000000000E+00 -0.00000000000E+00 -0.10735449800E+04  0.10735449800E+04  0.25500000000E-02 0.  1.
    5000001    1    1    2    0    0  0.35675767477E+03  0.51624184338E+02 -0.53721748689E+03  0.67371189921E+03  0.18800000000E+03 0.  0.
   -5000001    1    1    2    0    0 -0.35675767477E+03 -0.51624184338E+02 -0.37980211142E+03  0.55635846246E+03  0.18800000000E+03 0.  0.
<mgrwt>
<rscale>  0 0.81984642E+03</rscale>
<asrwt>0</asrwt>
<pdfrwt beam="1">  1        2 0.15336356E+00 0.81984642E+03</pdfrwt>
<pdfrwt beam="2">  1       -2 0.22360769E-01 0.81984642E+03</pdfrwt>
<totfact> 0.44476900E+02</totfact>
</mgrwt>
</event>
<event>
 4    1  0.6346694E-005  0.9068376E+03  0.7818608E-02  0.9417074E-01
          2   -1    0    0  501    0  0.00000000000E+00  0.00000000000E+00  0.22087959613E+03  0.22087959614E+03  0.25500000000E-02 0.  1.
         -2   -1    0    0    0  501 -0.00000000000E+00 -0.00000000000E+00 -0.93077232636E+03  0.93077232636E+03  0.25500000000E-02 0. -1.
    5000001    1    1    2    0    0  0.44222554274E+01  0.11114310745E+03 -0.85954333184E+03  0.88686587824E+03  0.18800000000E+03 0.  0.
   -5000001    1    1    2    0    0 -0.44222554274E+01 -0.11114310745E+03  0.14965060161E+03  0.26478604427E+03  0.18800000000E+03 0.  0.
<mgrwt>
<rscale>  0 0.90683762E+03</rscale>
<asrwt>0</asrwt>
<pdfrwt beam="1">  1        2 0.31554228E-01 0.90683762E+03</pdfrwt>
<pdfrwt beam="2">  1       -2 0.13296747E+00 0.90683762E+03</pdfrwt>
<totfact> 0.69133540E+01</totfact>
</mgrwt>
</event>
<event>
 4    1  0.6346694E-005  0.6506567E+03  0.7818608E-02  0.9805548E-01
         -2   -1    0    0    0  501 -0.00000000000E+00  0.00000000000E+00  0.20047890185E+03  0.20047890186E+03  0.25500000000E-02 0. -1.
          2   -1    0    0  501    0  0.00000000000E+00 -0.00000000000E+00 -0.52792851678E+03  0.52792851679E+03  0.25500000000E-02 0.  1.
    5000001    1    1    2    0    0 -0.14631356624E+03  0.81437804546E+02 -0.39439189330E+03  0.46789821669E+03  0.18800000000E+03 0.  0.
   -5000001    1    1    2    0    0  0.14631356624E+03 -0.81437804546E+02  0.66942278370E+02  0.26050920197E+03  0.18800000000E+03 0.  0.
<mgrwt>
<rscale>  0 0.65065668E+03</rscale>
<asrwt>0</asrwt>
<pdfrwt beam="1">  1        2 0.75418359E-01 0.65065668E+03</pdfrwt>
<pdfrwt beam="2">  1       -2 0.28639843E-01 0.65065668E+03</pdfrwt>
<totfact> 0.70749462E+02</totfact>
</mgrwt>
</event>
<event>
 4    1  0.6346694E-005  0.5710870E+03  0.7818608E-02  0.9967276E-01
          2   -1    0    0  501    0  0.00000000000E+00  0.00000000000E+00  0.94961824679E+03  0.94961824679E+03  0.25500000000E-02 0.  1.
         -2   -1    0    0    0  501 -0.00000000000E+00 -0.00000000000E+00 -0.85860906474E+02  0.85860906511E+02  0.25500000000E-02 0. -1.
    5000001    1    1    2    0    0  0.12958763296E+03  0.13936392846E+03  0.25078073426E+03  0.36667456395E+03  0.18800000000E+03 0.  0.
   -5000001    1    1    2    0    0 -0.12958763296E+03 -0.13936392846E+03  0.61297660605E+03  0.66880458935E+03  0.18800000000E+03 0.  0.
<mgrwt>
<rscale>  0 0.57108698E+03</rscale>
<asrwt>0</asrwt>
<pdfrwt beam="1">  1        2 0.13565974E+00 0.57108698E+03</pdfrwt>
<pdfrwt beam="2">  1       -2 0.12265845E-01 0.57108698E+03</pdfrwt>
<totfact> 0.14876954E+03</totfact>
</mgrwt>
</event>
<event>
 4    1  0.6346694E-005  0.6952011E+03  0.7818608E-02  0.9725474E-01
         -2   -1    0    0    0  501 -0.00000000000E+00  0.00000000000E+00  0.32808534208E+03  0.32808534209E+03  0.25500000000E-02 0. -1.
          2   -1    0    0  501    0  0.00000000000E+00 -0.00000000000E+00 -0.36827654006E+03  0.36827654007E+03  0.25500000000E-02 0.  1.
    5000001    1    1    2    0    0  0.67873211717E+01 -0.27882292741E+03 -0.10795660813E+03  0.35325192401E+03  0.18800000000E+03 0.  0.
   -5000001    1    1    2    0    0 -0.67873211717E+01  0.27882292741E+03  0.67765410150E+02  0.34310995816E+03  0.18800000000E+03 0.  0.
<mgrwt>
<rscale>  0 0.69520108E+03</rscale>
<asrwt>0</asrwt>
<pdfrwt beam="1">  1        2 0.52610934E-01 0.69520108E+03</pdfrwt>
<pdfrwt beam="2">  1       -2 0.46869335E-01 0.69520108E+03</pdfrwt>
<totfact> 0.41257248E+02</totfact>
</mgrwt>
</event>
<event>
 4    1  0.6346694E-005  0.9280914E+03  0.7818608E-02  0.9391131E-01
          2   -1    0    0  501    0  0.00000000000E+00  0.00000000000E+00  0.54762828918E+03  0.54762828919E+03  0.25500000000E-02 0.  1.
         -2   -1    0    0    0  501 -0.00000000000E+00 -0.00000000000E+00 -0.39321999558E+03  0.39321999558E+03  0.25500000000E-02 0. -1.
    5000001    1    1    2    0    0  0.29163615596E+03  0.30491422040E+03  0.32208649491E+02  0.46303965960E+03  0.18800000000E+03 0.  0.
   -5000001    1    1    2    0    0 -0.29163615596E+03 -0.30491422040E+03  0.12219964411E+03  0.47780862517E+03  0.18800000000E+03 0.  0.
<mgrwt>
<rscale>  0 0.92809136E+03</rscale>
<asrwt>0</asrwt>
<pdfrwt beam="1">  1        2 0.78232612E-01 0.92809136E+03</pdfrwt>
<pdfrwt beam="2">  1       -2 0.56174286E-01 0.92809136E+03</pdfrwt>
<totfact> 0.18014563E+02</totfact>
</mgrwt>
</event>
<event>
 4    1  0.6346694E-005  0.8921677E+03  0.7818608E-02  0.9435426E-01
         -2   -1    0    0    0  501 -0.00000000000E+00  0.00000000000E+00  0.18227979249E+03  0.18227979251E+03  0.25500000000E-02 0.  1.
          2   -1    0    0  501    0  0.00000000000E+00 -0.00000000000E+00 -0.10916776691E+04  0.10916776691E+04  0.25500000000E-02 0. -1.
    5000001    1    1    2    0    0  0.30250308080E+03  0.40894027513E+02 -0.83375140196E+03  0.90756037576E+03  0.18800000000E+03 0.  0.
   -5000001    1    1    2    0    0 -0.30250308080E+03 -0.40894027513E+02 -0.75646474625E+02  0.36639708582E+03  0.18800000000E+03 0.  0.
<mgrwt>
<rscale>  0 0.89216765E+03</rscale>
<asrwt>0</asrwt>
<pdfrwt beam="1">  1        2 0.15595395E+00 0.89216765E+03</pdfrwt>
<pdfrwt beam="2">  1       -2 0.26039971E-01 0.89216765E+03</pdfrwt>
<totfact> 0.32891560E+02</totfact>
</mgrwt>
</event>
<event>
 4    1  0.6346694E-005  0.7672582E+03  0.7818608E-02  0.9608657E-01
          2   -1    0    0  501    0  0.00000000000E+00  0.00000000000E+00  0.87404357016E+03  0.87404357017E+03  0.25500000000E-02 0.  1.
         -2   -1    0    0    0  501 -0.00000000000E+00 -0.00000000000E+00 -0.16837982136E+03  0.16837982138E+03  0.25500000000E-02 0. -1.
    5000001    1    1    2    0    0 -0.25656401193E+02 -0.23992328322E+03  0.66739568217E+03  0.73415422721E+03  0.18800000000E+03 0.  0.
   -5000001    1    1    2    0    0  0.25656401193E+02  0.23992328322E+03  0.38268066636E+02  0.30826916433E+03  0.18800000000E+03 0.  0.
<mgrwt>
<rscale>  0 0.76725824E+03</rscale>
<asrwt>0</asrwt>
<pdfrwt beam="1">  1        2 0.12486337E+00 0.76725824E+03</pdfrwt>
<pdfrwt beam="2">  1       -2 0.24054260E-01 0.76725824E+03</pdfrwt>
<totfact> 0.52138268E+02</totfact>
</mgrwt>
</event>
<event>
 4    1  0.6346694E-005  0.6202397E+03  0.7818608E-02  0.9864283E-01
         -2   -1    0    0    0  501 -0.00000000000E+00  0.00000000000E+00  0.91170390801E+03  0.91170390801E+03  0.25500000000E-02 0. -1.
          2   -1    0    0  501    0  0.00000000000E+00 -0.00000000000E+00 -0.10548853436E+03  0.10548853439E+03  0.25500000000E-02 0.  1.
    5000001    1    1    2    0    0  0.11078928824E+03 -0.11233845160E+03  0.92215968275E+02  0.26218691596E+03  0.18800000000E+03 0.  0.
   -5000001    1    1    2    0    0 -0.11078928824E+03  0.11233845160E+03  0.71399940537E+03  0.75500552645E+03  0.18800000000E+03 0.  0.
<mgrwt>
<rscale>  0 0.62023966E+03</rscale>
<asrwt>0</asrwt>
<pdfrwt beam="1">  1        2 0.15069791E-01 0.62023966E+03</pdfrwt>
<pdfrwt beam="2">  1       -2 0.13024341E+00 0.62023966E+03</pdfrwt>
<totfact> 0.17472044E+02</totfact>
</mgrwt>
</event>
<event>
 4    1  0.6346694E-005  0.6067269E+03  0.7818608E-02  0.9891547E-01
         -2   -1    0    0    0  501 -0.00000000000E+00  0.00000000000E+00  0.28647145370E+02  0.28647145483E+02  0.25500000000E-02 0. -1.
          2   -1    0    0  501    0  0.00000000000E+00 -0.00000000000E+00 -0.32125150045E+04  0.32125150045E+04  0.25500000000E-02 0.  1.
    5000001    1    1    2    0    0  0.16591712844E+03 -0.32650224049E+02 -0.69658983280E+03  0.74106404973E+03  0.18800000000E+03 0.  0.
   -5000001    1    1    2    0    0 -0.16591712844E+03  0.32650224049E+02 -0.24872780264E+04  0.25000981003E+04  0.18800000000E+03 0.  0.
<mgrwt>
<rscale>  0 0.60672691E+03</rscale>
<asrwt>0</asrwt>
<pdfrwt beam="1">  1        2 0.45893049E+00 0.60672691E+03</pdfrwt>
<pdfrwt beam="2">  1       -2 0.40924514E-02 0.60672691E+03</pdfrwt>
<totfact> 0.53770414E+02</totfact>
</mgrwt>
</event>
<event>
 4    1  0.6346694E-005  0.5835313E+03  0.7818608E-02  0.9940175E-01
          2   -1    0    0  501    0  0.00000000000E+00  0.00000000000E+00  0.51317823277E+03  0.51317823277E+03  0.25500000000E-02 0.  1.
         -2   -1    0    0    0  501 -0.00000000000E+00 -0.00000000000E+00 -0.16588230030E+03  0.16588230032E+03  0.25500000000E-02 0. -1.
    5000001    1    1    2    0    0 -0.20380211019E+03  0.59622349006E+02  0.93927017032E+02  0.29875811143E+03  0.18800000000E+03 0.  0.
   -5000001    1    1    2    0    0  0.20380211019E+03 -0.59622349006E+02  0.25336891543E+03  0.38030242167E+03  0.18800000000E+03 0.  0.
<mgrwt>
<rscale>  0 0.58353127E+03</rscale>
<asrwt>0</asrwt>
<pdfrwt beam="1">  1        2 0.73311177E-01 0.58353127E+03</pdfrwt>
<pdfrwt beam="2">  1       -2 0.23697471E-01 0.58353127E+03</pdfrwt>
<totfact> 0.10303947E+03</totfact>
</mgrwt>
</event>
<event>
 4    1  0.6346694E-005  0.7191215E+03  0.7818608E-02  0.9685079E-01
         -2   -1    0    0    0  501 -0.00000000000E+00  0.00000000000E+00  0.57830025536E+02  0.57830025592E+02  0.25500000000E-02 0. -1.
          2   -1    0    0  501    0  0.00000000000E+00 -0.00000000000E+00 -0.22355846605E+04  0.22355846605E+04  0.25500000000E-02 0.  1.
    5000001    1    1    2    0    0 -0.12794661976E+03  0.17058494498E+03 -0.38674582844E+03  0.47998530892E+03  0.18800000000E+03 0.  0.
   -5000001    1    1    2    0    0  0.12794661976E+03 -0.17058494498E+03 -0.17910088065E+04  0.18134293772E+04  0.18800000000E+03 0.  0.
<mgrwt>
<rscale>  0 0.71912146E+03</rscale>
<asrwt>0</asrwt>
<pdfrwt beam="1">  1        2 0.31936918E+00 0.71912146E+03</pdfrwt>
<pdfrwt beam="2">  1       -2 0.82614337E-02 0.71912146E+03</pdfrwt>
<totfact> 0.58217465E+02</totfact>
</mgrwt>
</event>
<event>
 4    1  0.6346694E-005  0.4158167E+03  0.7818608E-02  0.1038436E+00
          2   -1    0    0  501    0  0.00000000000E+00  0.00000000000E+00  0.34080603203E+03  0.34080603203E+03  0.25500000000E-02 0.  1.
         -2   -1    0    0    0  501 -0.00000000000E+00 -0.00000000000E+00 -0.12683425200E+03  0.12683425202E+03  0.25500000000E-02 0. -1.
    5000001    1    1    2    0    0 -0.12007656190E+02  0.38486157424E+02  0.19594206086E+03  0.27452260259E+03  0.18800000000E+03 0.  0.
   -5000001    1    1    2    0    0  0.12007656190E+02 -0.38486157424E+02  0.18029719169E+02  0.19311768146E+03  0.18800000000E+03 0.  0.
<mgrwt>
<rscale>  0 0.41581668E+03</rscale>
<asrwt>0</asrwt>
<pdfrwt beam="1">  1        2 0.48686577E-01 0.41581668E+03</pdfrwt>
<pdfrwt beam="2">  1       -2 0.18119179E-01 0.41581668E+03</pdfrwt>
<totfact> 0.25880807E+03</totfact>
</mgrwt>
</event>
<event>
 4    1  0.6346694E-005  0.8812852E+03  0.7818608E-02  0.9449283E-01
         -2   -1    0    0    0  501 -0.00000000000E+00  0.00000000000E+00  0.15181024855E+03  0.15181024857E+03  0.25500000000E-02 0. -1.
          2   -1    0    0  501    0  0.00000000000E+00 -0.00000000000E+00 -0.12790039375E+04  0.12790039376E+04  0.25500000000E-02 0.  1.
    5000001    1    1    2    0    0 -0.34023884845E+03  0.16834570556E+03 -0.36662316577E+03  0.56023146668E+03  0.18800000000E+03 0.  0.
   -5000001    1    1    2    0    0  0.34023884845E+03 -0.16834570556E+03 -0.76057052323E+03  0.87058271944E+03  0.18800000000E+03 0.  0.
<mgrwt>
<rscale>  0 0.88128521E+03</rscale>
<asrwt>0</asrwt>
<pdfrwt beam="1">  1        2 0.18271484E+00 0.88128521E+03</pdfrwt>
<pdfrwt beam="2">  1       -2 0.21687179E-01 0.88128521E+03</pdfrwt>
<totfact> 0.35715041E+02</totfact>
</mgrwt>
</event>
<event>
 4    1  0.6346694E-005  0.7974489E+03  0.7818608E-02  0.9563717E-01
          2   -1    0    0  501    0  0.00000000000E+00  0.00000000000E+00  0.12105121456E+04  0.12105121456E+04  0.25500000000E-02 0.  1.
         -2   -1    0    0    0  501 -0.00000000000E+00 -0.00000000000E+00 -0.13133380822E+03  0.13133380825E+03  0.25500000000E-02 0. -1.
    5000001    1    1    2    0    0  0.30552950344E+03  0.65236676387E+02  0.26809375209E+03  0.45257304529E+03  0.18800000000E+03 0.  0.
   -5000001    1    1    2    0    0 -0.30552950344E+03 -0.65236676387E+02  0.81108458532E+03  0.88927290860E+03  0.18800000000E+03 0.  0.
<mgrwt>
<rscale>  0 0.79744886E+03</rscale>
<asrwt>0</asrwt>
<pdfrwt beam="1">  1        2 0.17293030E+00 0.79744886E+03</pdfrwt>
<pdfrwt beam="2">  1       -2 0.18761974E-01 0.79744886E+03</pdfrwt>
<totfact> 0.50490267E+02</totfact>
</mgrwt>
</event>
<event>
 4    1  0.6346694E-005  0.4469906E+03  0.7818608E-02  0.1028623E+00
         -2   -1    0    0    0  501 -0.00000000000E+00  0.00000000000E+00  0.17479421789E+03  0.17479421791E+03  0.25500000000E-02 0. -1.
          2   -1    0    0  501    0  0.00000000000E+00 -0.00000000000E+00 -0.28576545188E+03  0.28576545189E+03  0.25500000000E-02 0.  1.
    5000001    1    1    2    0    0  0.70005359279E+02  0.13280356301E+02  0.45094439406E+02  0.20604520537E+03  0.18800000000E+03 0.  0.
   -5000001    1    1    2    0    0 -0.70005359279E+02 -0.13280356301E+02 -0.15606567340E+03  0.25451446443E+03  0.18800000000E+03 0.  0.
<mgrwt>
<rscale>  0 0.44699060E+03</rscale>
<asrwt>0</asrwt>
<pdfrwt beam="1">  1        2 0.40823636E-01 0.44699060E+03</pdfrwt>
<pdfrwt beam="2">  1       -2 0.24970603E-01 0.44699060E+03</pdfrwt>
<totfact> 0.17949539E+03</totfact>
</mgrwt>
</event>
<event>
 4    1  0.6346694E-005  0.1072473E+04  0.7818608E-02  0.9232445E-01
          2   -1    0    0  501    0  0.00000000000E+00  0.00000000000E+00  0.32179639237E+04  0.32179639237E+04  0.25500000000E-02 0.  1.
         -2   -1    0    0    0  501 -0.00000000000E+00 -0.00000000000E+00 -0.89357650483E+02  0.89357650520E+02  0.25500000000E-02 0. -1.
    5000001    1    1    2    0    0  0.12419176148E+03 -0.44186631290E+03  0.21928008256E+04  0.22481968092E+04  0.18800000000E+03 0.  0.
   -5000001    1    1    2    0    0 -0.12419176148E+03  0.44186631290E+03  0.93580544756E+03  0.10591247650E+04  0.18800000000E+03 0.  0.
<mgrwt>
<rscale>  0 0.10724732E+04</rscale>
<asrwt>0</asrwt>
<pdfrwt beam="1">  1        2 0.45970912E+00 0.10724732E+04</pdfrwt>
<pdfrwt beam="2">  1       -2 0.12765379E-01 0.10724732E+04</pdfrwt>
<totfact> 0.82833817E+01</totfact>
</mgrwt>
</event>
<event>
 4    1  0.6346694E-005  0.7370425E+03  0.7818608E-02  0.9655901E-01
          2   -1    0    0  501    0  0.00000000000E+00  0.00000000000E+00  0.15101431778E+04  0.15101431778E+04  0.25500000000E-02 0.  1.
         -2   -1    0    0    0  501 -0.00000000000E+00 -0.00000000000E+00 -0.89930488395E+02  0.89930488431E+02  0.25500000000E-02 0. -1.
    5000001    1    1    2    0    0  0.31233087818E+03 -0.46084735344E+02  0.64910594817E+03  0.74589336520E+03  0.18800000000E+03 0.  0.
   -5000001    1    1    2    0    0 -0.31233087818E+03  0.46084735344E+02  0.77110674120E+03  0.85418030100E+03  0.18800000000E+03 0.  0.
<mgrwt>
<rscale>  0 0.73704251E+03</rscale>
<asrwt>0</asrwt>
<pdfrwt beam="1">  1        2 0.21573474E+00 0.73704251E+03</pdfrwt>
<pdfrwt beam="2">  1       -2 0.12847212E-01 0.73704251E+03</pdfrwt>
<totfact> 0.66293231E+02</totfact>
</mgrwt>
</event>
<event>
 4    1  0.6346694E-005  0.6680196E+03  0.7818608E-02  0.9773542E-01
         -2   -1    0    0    0  501 -0.00000000000E+00  0.00000000000E+00  0.21339408067E+03  0.21339408068E+03  0.25500000000E-02 0. -1.
          2   -1    0    0  501    0  0.00000000000E+00 -0.00000000000E+00 -0.52280055865E+03  0.52280055866E+03  0.25500000000E-02 0.  1.
    5000001    1    1    2    0    0 -0.13547639308E+03  0.21862155587E+03 -0.44116452914E+02  0.32162011627E+03  0.18800000000E+03 0.  0.
   -5000001    1    1    2    0    0  0.13547639308E+03 -0.21862155587E+03 -0.26529002507E+03  0.41457452307E+03  0.18800000000E+03 0.  0.
<mgrwt>
<rscale>  0 0.66801959E+03</rscale>
<asrwt>0</asrwt>
<pdfrwt beam="1">  1        2 0.74685794E-01 0.66801959E+03</pdfrwt>
<pdfrwt beam="2">  1       -2 0.30484869E-01 0.66801959E+03</pdfrwt>
<totfact> 0.63736964E+02</totfact>
</mgrwt>
</event>
<event>
 4    1  0.6346694E-005  0.5771812E+03  0.7818608E-02  0.9953912E-01
          2   -1    0    0  501    0  0.00000000000E+00  0.00000000000E+00  0.69872585922E+03  0.69872585922E+03  0.25500000000E-02 0.  1.
         -2   -1    0    0    0  501 -0.00000000000E+00 -0.00000000000E+00 -0.11919485339E+03  0.11919485342E+03  0.25500000000E-02 0. -1.
    5000001    1    1    2    0    0 -0.16624747438E+01 -0.19253105355E+03  0.43750783560E+03  0.51364197319E+03  0.18800000000E+03 0.  0.
   -5000001    1    1    2    0    0  0.16624747438E+01  0.19253105355E+03  0.14202317022E+03  0.30427873945E+03  0.18800000000E+03 0.  0.
<mgrwt>
<rscale>  0 0.57718117E+03</rscale>
<asrwt>0</asrwt>
<pdfrwt beam="1">  1        2 0.99817980E-01 0.57718117E+03</pdfrwt>
<pdfrwt beam="2">  1       -2 0.17027836E-01 0.57718117E+03</pdfrwt>
<totfact> 0.12743746E+03</totfact>
</mgrwt>
</event>
<event>
 4    1  0.6346694E-005  0.5674179E+03  0.7818608E-02  0.9975409E-01
         -2   -1    0    0    0  501 -0.00000000000E+00  0.00000000000E+00  0.19380437391E+02  0.19380437559E+02  0.25500000000E-02 0. -1.
          2   -1    0    0  501    0  0.00000000000E+00 -0.00000000000E+00 -0.41531968842E+04  0.41531968842E+04  0.25500000000E-02 0.  1.
    5000001    1    1    2    0    0  0.53861863889E+02 -0.20220992832E+03 -0.23377789018E+04  0.23546431044E+04  0.18800000000E+03 0.  0.
   -5000001    1    1    2    0    0 -0.53861863889E+02  0.20220992832E+03 -0.17960375450E+04  0.18179342174E+04  0.18800000000E+03 0.  0.
<mgrwt>
<rscale>  0 0.56741791E+03</rscale>
<asrwt>0</asrwt>
<pdfrwt beam="1">  1        2 0.59331327E+00 0.56741791E+03</pdfrwt>
<pdfrwt beam="2">  1       -2 0.27686366E-02 0.56741791E+03</pdfrwt>
<totfact> 0.25564778E+02</totfact>
</mgrwt>
</event>
<event>
 4    1  0.6346694E-005  0.5424531E+03  0.7818608E-02  0.1003256E+00
          2   -1    0    0  501    0  0.00000000000E+00  0.00000000000E+00  0.24726341078E+04  0.24726341078E+04  0.25500000000E-02 0.  1.
         -2   -1    0    0    0  501 -0.00000000000E+00 -0.00000000000E+00 -0.29751202429E+02  0.29751202538E+02  0.25500000000E-02 0. -1.
    5000001    1    1    2    0    0 -0.12662484705E+03 -0.12254740194E+03  0.16120076402E+04  0.16324718526E+04  0.18800000000E+03 0.  0.
   -5000001    1    1    2    0    0  0.12662484705E+03  0.12254740194E+03  0.83087526525E+03  0.86991345777E+03  0.18800000000E+03 0.  0.
<mgrwt>
<rscale>  0 0.54245309E+03</rscale>
<asrwt>0</asrwt>
<pdfrwt beam="1">  1        2 0.35323336E+00 0.54245309E+03</pdfrwt>
<pdfrwt beam="2">  1       -2 0.42501727E-02 0.54245309E+03</pdfrwt>
<totfact> 0.12656848E+03</totfact>
</mgrwt>
</event>
<event>
 4    1  0.6346694E-005  0.4272607E+03  0.7818608E-02  0.1034729E+00
         -2   -1    0    0    0  501 -0.00000000000E+00  0.00000000000E+00  0.25452181239E+02  0.25452181367E+02  0.25500000000E-02 0. -1.
          2   -1    0    0  501    0  0.00000000000E+00 -0.00000000000E+00 -0.17930846629E+04  0.17930846629E+04  0.25500000000E-02 0.  1.
    5000001    1    1    2    0    0  0.70178059115E+02  0.56606184178E+02 -0.68578776233E+03  0.71678314365E+03  0.18800000000E+03 0.  0.
   -5000001    1    1    2    0    0 -0.70178059115E+02 -0.56606184178E+02 -0.10818447193E+04  0.11017537006E+04  0.18800000000E+03 0.  0.
<mgrwt>
<rscale>  0 0.42726065E+03</rscale>
<asrwt>0</asrwt>
<pdfrwt beam="1">  1        2 0.25615487E+00 0.42726065E+03</pdfrwt>
<pdfrwt beam="2">  1       -2 0.36360270E-02 0.42726065E+03</pdfrwt>
<totfact> 0.35352145E+03</totfact>
</mgrwt>
</event>
<event>
 4    1  0.6346694E-005  0.5844595E+03  0.7818608E-02  0.9938183E-01
         -2   -1    0    0    0  501 -0.00000000000E+00  0.00000000000E+00  0.68919458463E+02  0.68919458510E+02  0.25500000000E-02 0. -1.
          2   -1    0    0  501    0  0.00000000000E+00 -0.00000000000E+00 -0.12391017835E+04  0.12391017835E+04  0.25500000000E-02 0.  1.
    5000001    1    1    2    0    0 -0.20218912046E+03  0.35528892145E+02 -0.78415358531E+03  0.83209590071E+03  0.18800000000E+03 0.  0.
   -5000001    1    1    2    0    0  0.20218912046E+03 -0.35528892145E+02 -0.38602873975E+03  0.47592534134E+03  0.18800000000E+03 0.  0.
<mgrwt>
<rscale>  0 0.58445949E+03</rscale>
<asrwt>0</asrwt>
<pdfrwt beam="1">  1        2 0.17701453E+00 0.58445949E+03</pdfrwt>
<pdfrwt beam="2">  1       -2 0.98456377E-02 0.58445949E+03</pdfrwt>
<totfact> 0.14420818E+03</totfact>
</mgrwt>
</event>
<event>
 4    1  0.6346694E-005  0.7573205E+03  0.7818608E-02  0.9623935E-01
         -2   -1    0    0    0  501 -0.00000000000E+00  0.00000000000E+00  0.65860148473E+02  0.65860148523E+02  0.25500000000E-02 0. -1.
          2   -1    0    0  501    0  0.00000000000E+00 -0.00000000000E+00 -0.21770916280E+04  0.21770916280E+04  0.25500000000E-02 0.  1.
    5000001    1    1    2    0    0  0.19808269916E+02 -0.32219193077E+03 -0.87209652815E+03  0.94873408404E+03  0.18800000000E+03 0.  0.
   -5000001    1    1    2    0    0 -0.19808269916E+02  0.32219193077E+03 -0.12391349514E+04  0.12942176925E+04  0.18800000000E+03 0.  0.
<mgrwt>
<rscale>  0 0.75732048E+03</rscale>
<asrwt>0</asrwt>
<pdfrwt beam="1">  1        2 0.31101304E+00 0.75732048E+03</pdfrwt>
<pdfrwt beam="2">  1       -2 0.94085940E-02 0.75732048E+03</pdfrwt>
<totfact> 0.50417835E+02</totfact>
</mgrwt>
</event>
<event>
 4    1  0.6346694E-005  0.4619737E+03  0.7818608E-02  0.1024210E+00
          2   -1    0    0  501    0  0.00000000000E+00  0.00000000000E+00  0.12827766362E+04  0.12827766362E+04  0.25500000000E-02 0.  1.
         -2   -1    0    0    0  501 -0.00000000000E+00 -0.00000000000E+00 -0.41593314411E+02  0.41593314489E+02  0.25500000000E-02 0. -1.
    5000001    1    1    2    0    0  0.55726185114E+02  0.90296290060E+02  0.38502620292E+03  0.44141590892E+03  0.18800000000E+03 0.  0.
   -5000001    1    1    2    0    0 -0.55726185114E+02 -0.90296290060E+02  0.85615711887E+03  0.88295404178E+03  0.18800000000E+03 0.  0.
<mgrwt>
<rscale>  0 0.46197373E+03</rscale>
<asrwt>0</asrwt>
<pdfrwt beam="1">  1        2 0.18325381E+00 0.46197373E+03</pdfrwt>
<pdfrwt beam="2">  1       -2 0.59419018E-02 0.46197373E+03</pdfrwt>
<totfact> 0.30443946E+03</totfact>
</mgrwt>
</event>
<event>
 4    1  0.6346694E-005  0.1085568E+04  0.7818608E-02  0.9219374E-01
          2   -1    0    0  501    0  0.00000000000E+00  0.00000000000E+00  0.10595343316E+04  0.10595343316E+04  0.25500000000E-02 0. -1.
         -2   -1    0    0    0  501 -0.00000000000E+00 -0.00000000000E+00 -0.27806014357E+03  0.27806014358E+03  0.25500000000E-02 0.  1.
    5000001    1    1    2    0    0 -0.41884709825E+03  0.11891214032E+02  0.74720453695E+03  0.87705924129E+03  0.18800000000E+03 0.  0.
   -5000001    1    1    2    0    0  0.41884709825E+03 -0.11891214032E+02  0.34269651087E+02  0.46053523391E+03  0.18800000000E+03 0.  0.
<mgrwt>
<rscale>  0 0.10855676E+04</rscale>
<asrwt>0</asrwt>
<pdfrwt beam="1">  1        2 0.15136204E+00 0.10855676E+04</pdfrwt>
<pdfrwt beam="2">  1       -2 0.39722879E-01 0.10855676E+04</pdfrwt>
<totfact> 0.15368305E+02</totfact>
</mgrwt>
</event>
<event>
 4    1  0.6346694E-005  0.6213395E+03  0.7818608E-02  0.9862096E-01
          2   -1    0    0  501    0  0.00000000000E+00  0.00000000000E+00  0.44446152195E+03  0.44446152196E+03  0.25500000000E-02 0.  1.
         -2   -1    0    0    0  501 -0.00000000000E+00 -0.00000000000E+00 -0.21715198469E+03  0.21715198471E+03  0.25500000000E-02 0. -1.
    5000001    1    1    2    0    0 -0.16115075014E+03  0.18325755732E+03  0.70812480864E+02  0.31608749427E+03  0.18800000000E+03 0.  0.
   -5000001    1    1    2    0    0  0.16115075014E+03 -0.18325755732E+03  0.15649705640E+03  0.34552601240E+03  0.18800000000E+03 0.  0.
<mgrwt>
<rscale>  0 0.62133953E+03</rscale>
<asrwt>0</asrwt>
<pdfrwt beam="1">  1        2 0.63494503E-01 0.62133953E+03</pdfrwt>
<pdfrwt beam="2">  1       -2 0.31021712E-01 0.62133953E+03</pdfrwt>
<totfact> 0.74255127E+02</totfact>
</mgrwt>
</event>
<event>
 4    1  0.6346694E-005  0.8744706E+03  0.7818608E-02  0.9458069E-01
          2   -1    0    0  501    0  0.00000000000E+00  0.00000000000E+00  0.84135584703E+03  0.84135584703E+03  0.25500000000E-02 0.  1.
         -2   -1    0    0    0  501 -0.00000000000E+00 -0.00000000000E+00 -0.22722219090E+03  0.22722219091E+03  0.25500000000E-02 0. -1.
    5000001    1    1    2    0    0 -0.39009996690E+03  0.40895010384E+02  0.25268796619E+03  0.50303637473E+03  0.18800000000E+03 0.  0.
   -5000001    1    1    2    0    0  0.39009996690E+03 -0.40895010384E+02  0.36144568995E+03  0.56554166321E+03  0.18800000000E+03 0.  0.
<mgrwt>
<rscale>  0 0.87447063E+03</rscale>
<asrwt>0</asrwt>
<pdfrwt beam="1">  1        2 0.12019369E+00 0.87447063E+03</pdfrwt>
<pdfrwt beam="2">  1       -2 0.32460313E-01 0.87447063E+03</pdfrwt>
<totfact> 0.31494310E+02</totfact>
</mgrwt>
</event>
<event>
 4    1  0.6346694E-005  0.5996694E+03  0.7818608E-02  0.9906092E-01
          2   -1    0    0  501    0  0.00000000000E+00  0.00000000000E+00  0.24823923544E+04  0.24823923544E+04  0.25500000000E-02 0.  1.
         -2   -1    0    0    0  501 -0.00000000000E+00 -0.00000000000E+00 -0.36215409881E+02  0.36215409971E+02  0.25500000000E-02 0. -1.
    5000001    1    1    2    0    0 -0.23290876254E+03  0.15656864544E+02  0.11891677990E+04  0.12263587091E+04  0.18800000000E+03 0.  0.
   -5000001    1    1    2    0    0  0.23290876254E+03 -0.15656864544E+02  0.12570091455E+04  0.12922490553E+04  0.18800000000E+03 0.  0.
<mgrwt>
<rscale>  0 0.59966943E+03</rscale>
<asrwt>0</asrwt>
<pdfrwt beam="1">  1        2 0.35462760E+00 0.59966943E+03</pdfrwt>
<pdfrwt beam="2">  1       -2 0.51736282E-02 0.59966943E+03</pdfrwt>
<totfact> 0.91961647E+02</totfact>
</mgrwt>
</event>
<event>
 4    1  0.6346694E-005  0.5811036E+03  0.7818608E-02  0.9945405E-01
         -2   -1    0    0    0  501 -0.00000000000E+00  0.00000000000E+00  0.71595196342E+02  0.71595196387E+02  0.25500000000E-02 0. -1.
          2   -1    0    0  501    0  0.00000000000E+00 -0.00000000000E+00 -0.11791342562E+04  0.11791342562E+04  0.25500000000E-02 0.  1.
    5000001    1    1    2    0    0 -0.83779726300E+02 -0.13913505426E+03 -0.87804247215E+03  0.91251311704E+03  0.18800000000E+03 0.  0.
   -5000001    1    1    2    0    0  0.83779726300E+02  0.13913505426E+03 -0.22949658770E+03  0.33821633554E+03  0.18800000000E+03 0.  0.
<mgrwt>
<rscale>  0 0.58110360E+03</rscale>
<asrwt>0</asrwt>
<pdfrwt beam="1">  1        2 0.16844774E+00 0.58110360E+03</pdfrwt>
<pdfrwt beam="2">  1       -2 0.10227886E-01 0.58110360E+03</pdfrwt>
<totfact> 0.14645235E+03</totfact>
</mgrwt>
</event>
<event>
 4    1  0.6346694E-005  0.4934201E+03  0.7818608E-02  0.1015511E+00
          2   -1    0    0  501    0  0.00000000000E+00  0.00000000000E+00  0.32334346897E+03  0.32334346898E+03  0.25500000000E-02 0.  1.
         -2   -1    0    0    0  501 -0.00000000000E+00 -0.00000000000E+00 -0.18823900486E+03  0.18823900487E+03  0.25500000000E-02 0. -1.
    5000001    1    1    2    0    0 -0.79354818163E+02  0.11840314680E+03  0.14235612708E+03  0.27554629240E+03  0.18800000000E+03 0.  0.
   -5000001    1    1    2    0    0  0.79354818163E+02 -0.11840314680E+03 -0.72516629720E+01  0.23603618145E+03  0.18800000000E+03 0.  0.
<mgrwt>
<rscale>  0 0.49342012E+03</rscale>
<asrwt>0</asrwt>
<pdfrwt beam="1">  1        2 0.46191924E-01 0.49342012E+03</pdfrwt>
<pdfrwt beam="2">  1       -2 0.26891286E-01 0.49342012E+03</pdfrwt>
<totfact> 0.13733347E+03</totfact>
</mgrwt>
</event>
<event>
 4    1  0.6346694E-005  0.1078093E+04  0.7818608E-02  0.9226811E-01
          2   -1    0    0  501    0  0.00000000000E+00  0.00000000000E+00  0.13127827098E+04  0.13127827098E+04  0.25500000000E-02 0.  1.
         -2   -1    0    0    0  501 -0.00000000000E+00 -0.00000000000E+00 -0.22133965196E+03  0.22133965197E+03  0.25500000000E-02 0. -1.
    5000001    1    1    2    0    0  0.26842064021E+02 -0.42641933723E+03  0.92933184352E+03  0.10399786647E+04  0.18800000000E+03 0.  0.
   -5000001    1    1    2    0    0 -0.26842064021E+02  0.42641933723E+03  0.16211121428E+03  0.49414369707E+03  0.18800000000E+03 0.  0.
<mgrwt>
<rscale>  0 0.10780925E+04</rscale>
<asrwt>0</asrwt>
<pdfrwt beam="1">  1        2 0.18754039E+00 0.10780925E+04</pdfrwt>
<pdfrwt beam="2">  1       -2 0.31619951E-01 0.10780925E+04</pdfrwt>
<totfact> 0.17024566E+02</totfact>
</mgrwt>
</event>
<event>
 4    1  0.6346694E-005  0.4791843E+03  0.7818608E-02  0.1019360E+00
          2   -1    0    0  501    0  0.00000000000E+00  0.00000000000E+00  0.71569150960E+02  0.71569151005E+02  0.25500000000E-02 0.  1.
         -2   -1    0    0    0  501 -0.00000000000E+00 -0.00000000000E+00 -0.80208289784E+03  0.80208289784E+03  0.25500000000E-02 0. -1.
    5000001    1    1    2    0    0  0.13456973976E+03  0.25906439150E+02 -0.26083575807E+03  0.34951316304E+03  0.18800000000E+03 0.  0.
   -5000001    1    1    2    0    0 -0.13456973976E+03 -0.25906439150E+02 -0.46967798880E+03  0.52413888581E+03  0.18800000000E+03 0.  0.
<mgrwt>
<rscale>  0 0.47918427E+03</rscale>
<asrwt>0</asrwt>
<pdfrwt beam="1">  1        2 0.10224165E-01 0.47918427E+03</pdfrwt>
<pdfrwt beam="2">  1       -2 0.11458327E+00 0.47918427E+03</pdfrwt>
<totfact> 0.38873407E+02</totfact>
</mgrwt>
</event>
<event>
 4    1  0.6346694E-005  0.6736871E+03  0.7818608E-02  0.9763320E-01
          2   -1    0    0  501    0  0.00000000000E+00  0.00000000000E+00  0.67399229377E+03  0.67399229378E+03  0.25500000000E-02 0.  1.
         -2   -1    0    0    0  501 -0.00000000000E+00 -0.00000000000E+00 -0.16834553484E+03  0.16834553486E+03  0.25500000000E-02 0. -1.
    5000001    1    1    2    0    0  0.18276976381E+03  0.55341388978E+02  0.50800341199E+03  0.57435087054E+03  0.18800000000E+03 0.  0.
   -5000001    1    1    2    0    0 -0.18276976381E+03 -0.55341388978E+02 -0.23566530630E+01  0.26798695810E+03  0.18800000000E+03 0.  0.
<mgrwt>
<rscale>  0 0.67368715E+03</rscale>
<asrwt>0</asrwt>
<pdfrwt beam="1">  1        2 0.96284616E-01 0.67368715E+03</pdfrwt>
<pdfrwt beam="2">  1       -2 0.24049361E-01 0.67368715E+03</pdfrwt>
<totfact> 0.72743573E+02</totfact>
</mgrwt>
</event>
<event>
 4    1  0.6346694E-005  0.8730515E+03  0.7818608E-02  0.9459910E-01
          2   -1    0    0  501    0  0.00000000000E+00  0.00000000000E+00  0.14257549194E+04  0.14257549194E+04  0.25500000000E-02 0.  1.
         -2   -1    0    0    0  501 -0.00000000000E+00 -0.00000000000E+00 -0.13365181594E+03  0.13365181596E+03  0.25500000000E-02 0. -1.
    5000001    1    1    2    0    0 -0.19681117303E+03 -0.19414304143E+03  0.11474005355E+04  0.11951142821E+04  0.18800000000E+03 0.  0.
   -5000001    1    1    2    0    0  0.19681117303E+03  0.19414304143E+03  0.14470256800E+03  0.36429245332E+03  0.18800000000E+03 0.  0.
<mgrwt>
<rscale>  0 0.87305151E+03</rscale>
<asrwt>0</asrwt>
<pdfrwt beam="1">  1        2 0.20367928E+00 0.87305151E+03</pdfrwt>
<pdfrwt beam="2">  1       -2 0.19093116E-01 0.87305151E+03</pdfrwt>
<totfact> 0.37190786E+02</totfact>
</mgrwt>
</event>
<event>
 4    1  0.6346694E-005  0.5359478E+03  0.7818608E-02  0.1004800E+00
         -2   -1    0    0    0  501 -0.00000000000E+00  0.00000000000E+00  0.55833779952E+02  0.55833780010E+02  0.25500000000E-02 0. -1.
          2   -1    0    0  501    0  0.00000000000E+00 -0.00000000000E+00 -0.12861392287E+04  0.12861392287E+04  0.25500000000E-02 0.  1.
    5000001    1    1    2    0    0  0.15255410669E+03  0.20564552015E+02 -0.89811127436E+03  0.93039965466E+03  0.18800000000E+03 0.  0.
   -5000001    1    1    2    0    0 -0.15255410669E+03 -0.20564552015E+02 -0.33219417439E+03  0.41157335405E+03  0.18800000000E+03 0.  0.
<mgrwt>
<rscale>  0 0.53594781E+03</rscale>
<asrwt>0</asrwt>
<pdfrwt beam="1">  1        2 0.18373416E+00 0.53594781E+03</pdfrwt>
<pdfrwt beam="2">  1       -2 0.79762551E-02 0.53594781E+03</pdfrwt>
<totfact> 0.19067505E+03</totfact>
</mgrwt>
</event>
<event>
 4    1  0.6346694E-005  0.4366443E+03  0.7818608E-02  0.1031781E+00
          2   -1    0    0  501    0  0.00000000000E+00  0.00000000000E+00  0.11460407292E+04  0.11460407292E+04  0.25500000000E-02 0.  1.
         -2   -1    0    0    0  501 -0.00000000000E+00 -0.00000000000E+00 -0.41590631656E+02  0.41590631735E+02  0.25500000000E-02 0. -1.
    5000001    1    1    2    0    0 -0.55252047172E+02 -0.90992081023E+02  0.63772750224E+03  0.67332957356E+03  0.18800000000E+03 0.  0.
   -5000001    1    1    2    0    0  0.55252047172E+02  0.90992081023E+02  0.46672259530E+03  0.51430178736E+03  0.18800000000E+03 0.  0.
<mgrwt>
<rscale>  0 0.43664428E+03</rscale>
<asrwt>0</asrwt>
<pdfrwt beam="1">  1        2 0.16372012E+00 0.43664428E+03</pdfrwt>
<pdfrwt beam="2">  1       -2 0.59415182E-02 0.43664428E+03</pdfrwt>
<totfact> 0.36221149E+03</totfact>
</mgrwt>
</event>
<event>
 4    1  0.6346694E-005  0.8296966E+03  0.7818608E-02  0.9518000E-01
         -2   -1    0    0    0  501 -0.00000000000E+00  0.00000000000E+00  0.24890257039E+03  0.24890257040E+03  0.25500000000E-02 0.  1.
          2   -1    0    0  501    0  0.00000000000E+00 -0.00000000000E+00 -0.69143155588E+03  0.69143155588E+03  0.25500000000E-02 0. -1.
    5000001    1    1    2    0    0 -0.10607190653E+03  0.30730396630E+03 -0.42102993512E+03  0.56417832582E+03  0.18800000000E+03 0.  0.
   -5000001    1    1    2    0    0  0.10607190653E+03 -0.30730396630E+03 -0.21499050371E+02  0.37615580047E+03  0.18800000000E+03 0.  0.
<mgrwt>
<rscale>  0 0.82969655E+03</rscale>
<asrwt>0</asrwt>
<pdfrwt beam="1">  1        2 0.98775936E-01 0.82969655E+03</pdfrwt>
<pdfrwt beam="2">  1       -2 0.35557510E-01 0.82969655E+03</pdfrwt>
<totfact> 0.34066118E+02</totfact>
</mgrwt>
</event>
<event>
 4    1  0.6346694E-005  0.9082318E+03  0.7818608E-02  0.9415349E-01
          2   -1    0    0  501    0  0.00000000000E+00  0.00000000000E+00  0.45849046351E+03  0.45849046351E+03  0.25500000000E-02 0. -1.
         -2   -1    0    0    0  501 -0.00000000000E+00 -0.00000000000E+00 -0.44978307738E+03  0.44978307738E+03  0.25500000000E-02 0.  1.
    5000001    1    1    2    0    0 -0.16580266654E+03 -0.32195252159E+03  0.20369499157E+03  0.45604780449E+03  0.18800000000E+03 0.  0.
   -5000001    1    1    2    0    0  0.16580266654E+03  0.32195252159E+03 -0.19498760544E+03  0.45222573640E+03  0.18800000000E+03 0.  0.
<mgrwt>
<rscale>  0 0.90823180E+03</rscale>
<asrwt>0</asrwt>
<pdfrwt beam="1">  1        2 0.65498638E-01 0.90823180E+03</pdfrwt>
<pdfrwt beam="2">  1       -2 0.64254725E-01 0.90823180E+03</pdfrwt>
<totfact> 0.16647204E+02</totfact>
</mgrwt>
</event>
<event>
 4    1  0.6346694E-005  0.7322598E+03  0.7818608E-02  0.9663600E-01
          2   -1    0    0  501    0  0.00000000000E+00  0.00000000000E+00  0.19606042878E+04  0.19606042878E+04  0.25500000000E-02 0.  1.
         -2   -1    0    0    0  501 -0.00000000000E+00 -0.00000000000E+00 -0.68372345381E+02  0.68372345429E+02  0.25500000000E-02 0. -1.
    5000001    1    1    2    0    0 -0.12959330479E+03  0.23571284175E+03  0.13959163573E+04  0.14339740043E+04  0.18800000000E+03 0.  0.
   -5000001    1    1    2    0    0  0.12959330479E+03 -0.23571284175E+03  0.49631558515E+03  0.59500262896E+03  0.18800000000E+03 0.  0.
<mgrwt>
<rscale>  0 0.73225983E+03</rscale>
<asrwt>0</asrwt>
<pdfrwt beam="1">  1        2 0.28008633E+00 0.73225983E+03</pdfrwt>
<pdfrwt beam="2">  1       -2 0.97674780E-02 0.73225983E+03</pdfrwt>
<totfact> 0.61159307E+02</totfact>
</mgrwt>
</event>
<event>
 4    1  0.6346694E-005  0.6537210E+03  0.7818608E-02  0.9799822E-01
          2   -1    0    0  501    0  0.00000000000E+00  0.00000000000E+00  0.14187581596E+04  0.14187581596E+04  0.25500000000E-02 0.  1.
         -2   -1    0    0    0  501 -0.00000000000E+00 -0.00000000000E+00 -0.75303734005E+02  0.75303734048E+02  0.25500000000E-02 0. -1.
    5000001    1    1    2    0    0  0.22306850229E+03  0.11659819389E+03  0.46553886492E+03  0.56162721648E+03  0.18800000000E+03 0.  0.
   -5000001    1    1    2    0    0 -0.22306850229E+03 -0.11659819389E+03  0.87791556070E+03  0.93243467720E+03  0.18800000000E+03 0.  0.
<mgrwt>
<rscale>  0 0.65372100E+03</rscale>
<asrwt>0</asrwt>
<pdfrwt beam="1">  1        2 0.20267976E+00 0.65372100E+03</pdfrwt>
<pdfrwt beam="2">  1       -2 0.10757675E-01 0.65372100E+03</pdfrwt>
<totfact> 0.99606590E+02</totfact>
</mgrwt>
</event>
<event>
 4    1  0.6346694E-005  0.4400054E+03  0.7818608E-02  0.1030745E+00
         -2   -1    0    0    0  501 -0.00000000000E+00  0.00000000000E+00  0.23465561937E+02  0.23465562076E+02  0.25500000000E-02 0. -1.
          2   -1    0    0  501    0  0.00000000000E+00 -0.00000000000E+00 -0.20626477674E+04  0.20626477674E+04  0.25500000000E-02 0.  1.
    5000001    1    1    2    0    0 -0.74824472724E+02 -0.48271354991E+02 -0.13591141762E+04  0.13749415149E+04  0.18800000000E+03 0.  0.
   -5000001    1    1    2    0    0  0.74824472724E+02  0.48271354991E+02 -0.68006802925E+03  0.71117181457E+03  0.18800000000E+03 0.  0.
<mgrwt>
<rscale>  0 0.44000540E+03</rscale>
<asrwt>0</asrwt>
<pdfrwt beam="1">  1        2 0.29466385E+00 0.44000540E+03</pdfrwt>
<pdfrwt beam="2">  1       -2 0.33522245E-02 0.44000540E+03</pdfrwt>
<totfact> 0.29363958E+03</totfact>
</mgrwt>
</event>
<event>
 4    1  0.6346694E-005  0.1163652E+04  0.7818608E-02  0.9145280E-01
          2   -1    0    0  501    0  0.00000000000E+00  0.00000000000E+00  0.31016161744E+04  0.31016161744E+04  0.25500000000E-02 0.  1.
         -2   -1    0    0    0  501 -0.00000000000E+00 -0.00000000000E+00 -0.10914364404E+03  0.10914364407E+03  0.25500000000E-02 0. -1.
    5000001    1    1    2    0    0  0.45277287715E+03 -0.31300395060E+03  0.14569293668E+04  0.15687453366E+04  0.18800000000E+03 0.  0.
   -5000001    1    1    2    0    0 -0.45277287715E+03  0.31300395060E+03  0.15355431636E+04  0.16420144818E+04  0.18800000000E+03 0.  0.
<mgrwt>
<rscale>  0 0.11636523E+04</rscale>
<asrwt>0</asrwt>
<pdfrwt beam="1">  1        2 0.44308805E+00 0.11636523E+04</pdfrwt>
<pdfrwt beam="2">  1       -2 0.15591948E-01 0.11636523E+04</pdfrwt>
<totfact> 0.68197612E+01</totfact>
</mgrwt>
</event>
<event>
 4    1  0.6346694E-005  0.6032197E+03  0.7818608E-02  0.9898749E-01
          2   -1    0    0  501    0  0.00000000000E+00  0.00000000000E+00  0.40419598711E+04  0.40419598711E+04  0.25500000000E-02 0.  1.
         -2   -1    0    0    0  501 -0.00000000000E+00 -0.00000000000E+00 -0.22506034390E+02  0.22506034535E+02  0.25500000000E-02 0. -1.
    5000001    1    1    2    0    0  0.80323158066E+02 -0.21698169232E+03  0.23178823102E+04  0.23369756671E+04  0.18800000000E+03 0.  0.
   -5000001    1    1    2    0    0 -0.80323158066E+02  0.21698169232E+03  0.17015715265E+04  0.17274902386E+04  0.18800000000E+03 0.  0.
<mgrwt>
<rscale>  0 0.60321966E+03</rscale>
<asrwt>0</asrwt>
<pdfrwt beam="1">  1        2 0.57742378E+00 0.60321966E+03</pdfrwt>
<pdfrwt beam="2">  1       -2 0.32151426E-02 0.60321966E+03</pdfrwt>
<totfact> 0.24139196E+02</totfact>
</mgrwt>
</event>
<event>
 4    1  0.6346694E-005  0.6337866E+03  0.7818608E-02  0.9837687E-01
         -2   -1    0    0    0  501 -0.00000000000E+00  0.00000000000E+00  0.16098771160E+03  0.16098771162E+03  0.25500000000E-02 0. -1.
          2   -1    0    0  501    0  0.00000000000E+00 -0.00000000000E+00 -0.62378269492E+03  0.62378269492E+03  0.25500000000E-02 0.  1.
    5000001    1    1    2    0    0 -0.11563093613E+03 -0.22082596707E+03 -0.16422760438E+03  0.35277376201E+03  0.18800000000E+03 0.  0.
   -5000001    1    1    2    0    0  0.11563093613E+03  0.22082596707E+03 -0.29856737894E+03  0.43199664453E+03  0.18800000000E+03 0.  0.
<mgrwt>
<rscale>  0 0.63378655E+03</rscale>
<asrwt>0</asrwt>
<pdfrwt beam="1">  1        2 0.89111812E-01 0.63378655E+03</pdfrwt>
<pdfrwt beam="2">  1       -2 0.22998245E-01 0.63378655E+03</pdfrwt>
<totfact> 0.86531603E+02</totfact>
</mgrwt>
</event>
<event>
 4    1  0.6346694E-005  0.4802323E+03  0.7818608E-02  0.1019071E+00
         -2   -1    0    0    0  501 -0.00000000000E+00  0.00000000000E+00  0.50067273150E+02  0.50067273215E+02  0.25500000000E-02 0. -1.
          2   -1    0    0  501    0  0.00000000000E+00 -0.00000000000E+00 -0.11515656817E+04  0.11515656817E+04  0.25500000000E-02 0.  1.
    5000001    1    1    2    0    0  0.10488444587E+03  0.51329246338E+02 -0.31767824408E+03  0.38716779989E+03  0.18800000000E+03 0.  0.
   -5000001    1    1    2    0    0 -0.10488444587E+03 -0.51329246338E+02 -0.78382016448E+03  0.81446515503E+03  0.18800000000E+03 0.  0.
<mgrwt>
<rscale>  0 0.48023225E+03</rscale>
<asrwt>0</asrwt>
<pdfrwt beam="1">  1        2 0.16450937E+00 0.48023225E+03</pdfrwt>
<pdfrwt beam="2">  1       -2 0.71524683E-02 0.48023225E+03</pdfrwt>
<totfact> 0.26913921E+03</totfact>
</mgrwt>
</event>
<event>
 4    1  0.6346694E-005  0.9632000E+03  0.7818608E-02  0.9349853E-01
         -2   -1    0    0    0  501 -0.00000000000E+00  0.00000000000E+00  0.81071750909E+03  0.81071750910E+03  0.25500000000E-02 0. -1.
          2   -1    0    0  501    0  0.00000000000E+00 -0.00000000000E+00 -0.28609049781E+03  0.28609049782E+03  0.25500000000E-02 0.  1.
    5000001    1    1    2    0    0  0.12867648340E+03 -0.40723357217E+03  0.12663096128E+03  0.48350410550E+03  0.18800000000E+03 0.  0.
   -5000001    1    1    2    0    0 -0.12867648340E+03  0.40723357217E+03  0.39799605000E+03  0.61330390142E+03  0.18800000000E+03 0.  0.
<mgrwt>
<rscale>  0 0.96320003E+03</rscale>
<asrwt>0</asrwt>
<pdfrwt beam="1">  1        2 0.40870071E-01 0.96320003E+03</pdfrwt>
<pdfrwt beam="2">  1       -2 0.11581679E+00 0.96320003E+03</pdfrwt>
<totfact> 0.72901269E+01</totfact>
</mgrwt>
</event>
<event>
 4    1  0.6346694E-005  0.5741181E+03  0.7818608E-02  0.9960607E-01
          2   -1    0    0  501    0  0.00000000000E+00  0.00000000000E+00  0.28763388040E+04  0.28763388040E+04  0.25500000000E-02 0.  1.
         -2   -1    0    0    0  501 -0.00000000000E+00 -0.00000000000E+00 -0.28648539230E+02  0.28648539343E+02  0.25500000000E-02 0. -1.
    5000001    1    1    2    0    0  0.10102200783E+03  0.13555907620E+03  0.73604695567E+03  0.77826141505E+03  0.18800000000E+03 0.  0.
   -5000001    1    1    2    0    0 -0.10102200783E+03 -0.13555907620E+03  0.21116433091E+04  0.21267259283E+04  0.18800000000E+03 0.  0.
<mgrwt>
<rscale>  0 0.57411812E+03</rscale>
<asrwt>0</asrwt>
<pdfrwt beam="1">  1        2 0.41090517E+00 0.57411812E+03</pdfrwt>
<pdfrwt beam="2">  1       -2 0.40926521E-02 0.57411812E+03</pdfrwt>
<totfact> 0.82421253E+02</totfact>
</mgrwt>
</event>
<event>
 4    1  0.6346694E-005  0.1701000E+04  0.7818608E-02  0.8760794E-01
         -2   -1    0    0    0  501 -0.00000000000E+00  0.00000000000E+00  0.10865760104E+04  0.10865760104E+04  0.25500000000E-02 0. -1.
          2   -1    0    0  501    0  0.00000000000E+00 -0.00000000000E+00 -0.66571492807E+03  0.66571492807E+03  0.25500000000E-02 0.  1.
    5000001    1    1    2    0    0 -0.36186745156E+02  0.76849430653E+03  0.52979959791E+03  0.95285077197E+03  0.18800000000E+03 0.  0.
   -5000001    1    1    2    0    0  0.36186745156E+02 -0.76849430653E+03 -0.10893851556E+03  0.79944016653E+03  0.18800000000E+03 0.  0.
<mgrwt>
<rscale>  0 0.17009996E+04</rscale>
<asrwt>0</asrwt>
<pdfrwt beam="1">  1        2 0.95102132E-01 0.17009996E+04</pdfrwt>
<pdfrwt beam="2">  1       -2 0.15522515E+00 0.17009996E+04</pdfrwt>
<totfact> 0.12482694E+01</totfact>
</mgrwt>
</event>
<event>
 4    1  0.6346694E-005  0.5854917E+03  0.7818608E-02  0.9935972E-01
         -2   -1    0    0    0  501 -0.00000000000E+00  0.00000000000E+00  0.98147747851E+02  0.98147747884E+02  0.25500000000E-02 0.  1.
          2   -1    0    0  501    0  0.00000000000E+00 -0.00000000000E+00 -0.87317473068E+03  0.87317473068E+03  0.25500000000E-02 0. -1.
    5000001    1    1    2    0    0  0.11612045879E+03 -0.18701431063E+03 -0.31524146987E+03  0.42799474022E+03  0.18800000000E+03 0.  0.
   -5000001    1    1    2    0    0 -0.11612045879E+03  0.18701431063E+03 -0.45978551296E+03  0.54332773835E+03  0.18800000000E+03 0.  0.
<mgrwt>
<rscale>  0 0.58549170E+03</rscale>
<asrwt>0</asrwt>
<pdfrwt beam="1">  1        2 0.12473924E+00 0.58549170E+03</pdfrwt>
<pdfrwt beam="2">  1       -2 0.14021107E-01 0.58549170E+03</pdfrwt>
<totfact> 0.13335210E+03</totfact>
</mgrwt>
</event>
<event>
 4    1  0.6346694E-005  0.8891967E+03  0.7818608E-02  0.9439188E-01
          2   -1    0    0  501    0  0.00000000000E+00  0.00000000000E+00  0.91097798867E+03  0.91097798868E+03  0.25500000000E-02 0.  1.
         -2   -1    0    0    0  501 -0.00000000000E+00 -0.00000000000E+00 -0.21698404683E+03  0.21698404684E+03  0.25500000000E-02 0. -1.
    5000001    1    1    2    0    0 -0.25059991114E+03 -0.32291672079E+02  0.74507850884E+03  0.80890608347E+03  0.18800000000E+03 0.  0.
   -5000001    1    1    2    0    0  0.25059991114E+03  0.32291672079E+02 -0.51084566988E+02  0.31905595204E+03  0.18800000000E+03 0.  0.
<mgrwt>
<rscale>  0 0.88919669E+03</rscale>
<asrwt>0</asrwt>
<pdfrwt beam="1">  1        2 0.13013972E+00 0.88919669E+03</pdfrwt>
<pdfrwt beam="2">  1       -2 0.30997720E-01 0.88919669E+03</pdfrwt>
<totfact> 0.30852228E+02</totfact>
</mgrwt>
</event>
<event>
 4    1  0.6346694E-005  0.8206066E+03  0.7818608E-02  0.9530660E-01
          2   -1    0    0  501    0  0.00000000000E+00  0.00000000000E+00  0.65540297168E+03  0.65540297168E+03  0.25500000000E-02 0.  1.
         -2   -1    0    0    0  501 -0.00000000000E+00 -0.00000000000E+00 -0.25686304325E+03  0.25686304326E+03  0.25500000000E-02 0. -1.
    5000001    1    1    2    0    0 -0.64913843425E+02 -0.28497239035E+03 -0.43227167873E+02  0.35019374405E+03  0.18800000000E+03 0.  0.
   -5000001    1    1    2    0    0  0.64913843425E+02  0.28497239035E+03  0.44176709630E+03  0.56207227089E+03  0.18800000000E+03 0.  0.
<mgrwt>
<rscale>  0 0.82060661E+03</rscale>
<asrwt>0</asrwt>
<pdfrwt beam="1">  1        2 0.93628996E-01 0.82060661E+03</pdfrwt>
<pdfrwt beam="2">  1       -2 0.36694721E-01 0.82060661E+03</pdfrwt>
<totfact> 0.34251516E+02</totfact>
</mgrwt>
</event>
<event>
 4    1  0.6346694E-005  0.7538514E+03  0.7818608E-02  0.9629327E-01
         -2   -1    0    0    0  501 -0.00000000000E+00  0.00000000000E+00  0.33017044881E+03  0.33017044882E+03  0.25500000000E-02 0. -1.
          2   -1    0    0  501    0  0.00000000000E+00 -0.00000000000E+00 -0.43030196893E+03  0.43030196894E+03  0.25500000000E-02 0.  1.
    5000001    1    1    2    0    0 -0.27948462263E+03 -0.14104526659E+03 -0.14428614991E+03  0.39264222209E+03  0.18800000000E+03 0.  0.
   -5000001    1    1    2    0    0  0.27948462263E+03  0.14104526659E+03  0.44154629793E+02  0.36783019567E+03  0.18800000000E+03 0.  0.
<mgrwt>
<rscale>  0 0.75385143E+03</rscale>
<asrwt>0</asrwt>
<pdfrwt beam="1">  1        2 0.61471709E-01 0.75385143E+03</pdfrwt>
<pdfrwt beam="2">  1       -2 0.47167208E-01 0.75385143E+03</pdfrwt>
<totfact> 0.34175163E+02</totfact>
</mgrwt>
</event>
<event>
 4    1  0.6346694E-005  0.4416562E+03  0.7818608E-02  0.1030240E+00
         -2   -1    0    0    0  501 -0.00000000000E+00  0.00000000000E+00  0.33326512987E+02  0.33326513085E+02  0.25500000000E-02 0.  1.
          2   -1    0    0  501    0  0.00000000000E+00 -0.00000000000E+00 -0.14632510652E+04  0.14632510652E+04  0.25500000000E-02 0. -1.
    5000001    1    1    2    0    0  0.10270640960E+02 -0.10046770020E+03 -0.90730018787E+03  0.93206055370E+03  0.18800000000E+03 0.  0.
   -5000001    1    1    2    0    0 -0.10270640960E+02  0.10046770020E+03 -0.52262436437E+03  0.56451702462E+03  0.18800000000E+03 0.  0.
<mgrwt>
<rscale>  0 0.44165623E+03</rscale>
<asrwt>0</asrwt>
<pdfrwt beam="1">  1        2 0.20903583E+00 0.44165623E+03</pdfrwt>
<pdfrwt beam="2">  1       -2 0.47609314E-02 0.44165623E+03</pdfrwt>
<totfact> 0.34420721E+03</totfact>
</mgrwt>
</event>
<event>
 4    1  0.6346694E-005  0.1259142E+04  0.7818608E-02  0.9062609E-01
          2   -1    0    0  501    0  0.00000000000E+00  0.00000000000E+00  0.18947009095E+04  0.18947009095E+04  0.25500000000E-02 0. -1.
         -2   -1    0    0    0  501 -0.00000000000E+00 -0.00000000000E+00 -0.20919369044E+03  0.20919369046E+03  0.25500000000E-02 0.  1.
    5000001    1    1    2    0    0 -0.40323845220E+03 -0.23286709779E+03  0.14772258506E+04  0.15602463102E+04  0.18800000000E+03 0.  0.
   -5000001    1    1    2    0    0  0.40323845220E+03  0.23286709779E+03  0.20828136840E+03  0.54364828979E+03  0.18800000000E+03 0.  0.
<mgrwt>
<rscale>  0 0.12591417E+04</rscale>
<asrwt>0</asrwt>
<pdfrwt beam="1">  1        2 0.27067156E+00 0.12591417E+04</pdfrwt>
<pdfrwt beam="2">  1       -2 0.29884812E-01 0.12591417E+04</pdfrwt>
<totfact> 0.92314939E+01</totfact>
</mgrwt>
</event>
<event>
 4    1  0.6346694E-005  0.8319781E+03  0.7818608E-02  0.9514850E-01
         -2   -1    0    0    0  501 -0.00000000000E+00  0.00000000000E+00  0.16411641212E+04  0.16411641212E+04  0.25500000000E-02 0. -1.
          2   -1    0    0  501    0  0.00000000000E+00 -0.00000000000E+00 -0.10544155271E+03  0.10544155274E+03  0.25500000000E-02 0.  1.
    5000001    1    1    2    0    0  0.14131917297E+03 -0.30763521125E+03  0.44884185024E+03  0.59280143250E+03  0.18800000000E+03 0.  0.
   -5000001    1    1    2    0    0 -0.14131917297E+03  0.30763521125E+03  0.10868807182E+04  0.11538042414E+04  0.18800000000E+03 0.  0.
<mgrwt>
<rscale>  0 0.83197811E+03</rscale>
<asrwt>0</asrwt>
<pdfrwt beam="1">  1        2 0.15063078E-01 0.83197811E+03</pdfrwt>
<pdfrwt beam="2">  1       -2 0.23445203E+00 0.83197811E+03</pdfrwt>
<totfact> 0.32583912E+01</totfact>
</mgrwt>
</event>
<event>
 4    1  0.6346694E-005  0.5959200E+03  0.7818608E-02  0.9913907E-01
          2   -1    0    0  501    0  0.00000000000E+00  0.00000000000E+00  0.18714884790E+04  0.18714884790E+04  0.25500000000E-02 0.  1.
         -2   -1    0    0    0  501 -0.00000000000E+00 -0.00000000000E+00 -0.47438259387E+02  0.47438259455E+02  0.25500000000E-02 0. -1.
    5000001    1    1    2    0    0 -0.20323946438E+03  0.34509142037E+02  0.12488150904E+04  0.12796016141E+04  0.18800000000E+03 0.  0.
   -5000001    1    1    2    0    0  0.20323946438E+03 -0.34509142037E+02  0.57523512918E+03  0.63932512434E+03  0.18800000000E+03 0.  0.
<mgrwt>
<rscale>  0 0.59591998E+03</rscale>
<asrwt>0</asrwt>
<pdfrwt beam="1">  1        2 0.26735547E+00 0.59591998E+03</pdfrwt>
<pdfrwt beam="2">  1       -2 0.67768949E-02 0.59591998E+03</pdfrwt>
<totfact> 0.12264403E+03</totfact>
</mgrwt>
</event>
<event>
 4    1  0.6346694E-005  0.7115061E+03  0.7818608E-02  0.9697755E-01
         -2   -1    0    0    0  501 -0.00000000000E+00  0.00000000000E+00  0.12241994685E+03  0.12241994688E+03  0.25500000000E-02 0.  1.
          2   -1    0    0  501    0  0.00000000000E+00 -0.00000000000E+00 -0.10338202352E+04  0.10338202352E+04  0.25500000000E-02 0. -1.
    5000001    1    1    2    0    0 -0.12933586696E+03 -0.24664677765E+03 -0.64558770821E+03  0.72779797224E+03  0.18800000000E+03 0.  0.
   -5000001    1    1    2    0    0  0.12933586696E+03  0.24664677765E+03 -0.26581258011E+03  0.42844220981E+03  0.18800000000E+03 0.  0.
<mgrwt>
<rscale>  0 0.71150606E+03</rscale>
<asrwt>0</asrwt>
<pdfrwt beam="1">  1        2 0.14768860E+00 0.71150606E+03</pdfrwt>
<pdfrwt beam="2">  1       -2 0.17488564E-01 0.71150606E+03</pdfrwt>
<totfact> 0.72476928E+02</totfact>
</mgrwt>
</event>
<event>
 4    1  0.6346694E-005  0.1162504E+04  0.7818608E-02  0.9146325E-01
          2   -1    0    0  501    0  0.00000000000E+00  0.00000000000E+00  0.12916997465E+04  0.12916997465E+04  0.25500000000E-02 0.  1.
         -2   -1    0    0    0  501 -0.00000000000E+00 -0.00000000000E+00 -0.26155765668E+03  0.26155765669E+03  0.25500000000E-02 0. -1.
    5000001    1    1    2    0    0 -0.28942519160E+02 -0.42941406108E+03  0.57505586907E+02  0.47316487380E+03  0.18800000000E+03 0.  0.
   -5000001    1    1    2    0    0  0.28942519160E+02  0.42941406108E+03  0.97263650296E+03  0.10800925294E+04  0.18800000000E+03 0.  0.
<mgrwt>
<rscale>  0 0.11625041E+04</rscale>
<asrwt>0</asrwt>
<pdfrwt beam="1">  1        2 0.18452854E+00 0.11625041E+04</pdfrwt>
<pdfrwt beam="2">  1       -2 0.37365378E-01 0.11625041E+04</pdfrwt>
<totfact> 0.12661124E+02</totfact>
</mgrwt>
</event>
<event>
 4    1  0.6346694E-005  0.4664747E+03  0.7818608E-02  0.1022920E+00
         -2   -1    0    0    0  501 -0.00000000000E+00  0.00000000000E+00  0.47099889671E+02  0.47099889740E+02  0.25500000000E-02 0. -1.
          2   -1    0    0  501    0  0.00000000000E+00 -0.00000000000E+00 -0.11549850365E+04  0.11549850365E+04  0.25500000000E-02 0.  1.
    5000001    1    1    2    0    0  0.82517944107E+02  0.10175266036E+03 -0.44182712519E+03  0.49771279222E+03  0.18800000000E+03 0.  0.
   -5000001    1    1    2    0    0 -0.82517944107E+02 -0.10175266036E+03 -0.66605802165E+03  0.70437213403E+03  0.18800000000E+03 0.  0.
<mgrwt>
<rscale>  0 0.46647473E+03</rscale>
<asrwt>0</asrwt>
<pdfrwt beam="1">  1        2 0.16499784E+00 0.46647473E+03</pdfrwt>
<pdfrwt beam="2">  1       -2 0.67285564E-02 0.46647473E+03</pdfrwt>
<totfact> 0.29493035E+03</totfact>
</mgrwt>
</event>
<event>
 4    1  0.6346694E-005  0.7560736E+03  0.7818608E-02  0.9625870E-01
         -2   -1    0    0    0  501 -0.00000000000E+00  0.00000000000E+00  0.40208395463E+02  0.40208395544E+02  0.25500000000E-02 0. -1.
          2   -1    0    0  501    0  0.00000000000E+00 -0.00000000000E+00 -0.35542780701E+04  0.35542780701E+04  0.25500000000E-02 0.  1.
    5000001    1    1    2    0    0  0.32269914592E+03 -0.49395874240E+02 -0.19068567108E+04  0.19437132521E+04  0.18800000000E+03 0.  0.
   -5000001    1    1    2    0    0 -0.32269914592E+03  0.49395874240E+02 -0.16072129639E+04  0.16507732135E+04  0.18800000000E+03 0.  0.
<mgrwt>
<rscale>  0 0.75607359E+03</rscale>
<asrwt>0</asrwt>
<pdfrwt beam="1">  1        2 0.50775381E+00 0.75607359E+03</pdfrwt>
<pdfrwt beam="2">  1       -2 0.57440587E-02 0.75607359E+03</pdfrwt>
<totfact> 0.19744864E+02</totfact>
</mgrwt>
</event>
<event>
 4    1  0.6346694E-005  0.7118547E+03  0.7818608E-02  0.9697171E-01
          2   -1    0    0  501    0  0.00000000000E+00  0.00000000000E+00  0.94111009876E+03  0.94111009876E+03  0.25500000000E-02 0.  1.
         -2   -1    0    0    0  501 -0.00000000000E+00 -0.00000000000E+00 -0.13461152095E+03  0.13461152097E+03  0.25500000000E-02 0. -1.
    5000001    1    1    2    0    0  0.11280549730E+03  0.26201771779E+03  0.55407646341E+03  0.65094016004E+03  0.18800000000E+03 0.  0.
   -5000001    1    1    2    0    0 -0.11280549730E+03 -0.26201771779E+03  0.25242211440E+03  0.42478145969E+03  0.18800000000E+03 0.  0.
<mgrwt>
<rscale>  0 0.71185465E+03</rscale>
<asrwt>0</asrwt>
<pdfrwt beam="1">  1        2 0.13444430E+00 0.71185465E+03</pdfrwt>
<pdfrwt beam="2">  1       -2 0.19230217E-01 0.71185465E+03</pdfrwt>
<totfact> 0.70175148E+02</totfact>
</mgrwt>
</event>
<event>
 4    1  0.6346694E-005  0.7542373E+03  0.7818608E-02  0.9628726E-01
         -2   -1    0    0    0  501 -0.00000000000E+00  0.00000000000E+00  0.96247885434E+02  0.96247885467E+02  0.25500000000E-02 0. -1.
          2   -1    0    0  501    0  0.00000000000E+00 -0.00000000000E+00 -0.14776270559E+04  0.14776270559E+04  0.25500000000E-02 0.  1.
    5000001    1    1    2    0    0 -0.17392555336E+03 -0.22819578742E+03 -0.36372751879E+03  0.49996512222E+03  0.18800000000E+03 0.  0.
   -5000001    1    1    2    0    0  0.17392555336E+03  0.22819578742E+03 -0.10176516516E+04  0.10739098191E+04  0.18800000000E+03 0.  0.
<mgrwt>
<rscale>  0 0.75423731E+03</rscale>
<asrwt>0</asrwt>
<pdfrwt beam="1">  1        2 0.21108957E+00 0.75423731E+03</pdfrwt>
<pdfrwt beam="2">  1       -2 0.13749699E-01 0.75423731E+03</pdfrwt>
<totfact> 0.61513689E+02</totfact>
</mgrwt>
</event>
<event>
 4    1  0.6346694E-005  0.7999017E+03  0.7818608E-02  0.9560159E-01
         -2   -1    0    0    0  501 -0.00000000000E+00  0.00000000000E+00  0.41604431400E+03  0.41604431401E+03  0.25500000000E-02 0. -1.
          2   -1    0    0  501    0  0.00000000000E+00 -0.00000000000E+00 -0.38447989934E+03  0.38447989935E+03  0.25500000000E-02 0.  1.
    5000001    1    1    2    0    0  0.18589188643E+03  0.26184586614E+03 -0.13095258511E+03  0.39447640057E+03  0.18800000000E+03 0.  0.
   -5000001    1    1    2    0    0 -0.18589188643E+03 -0.26184586614E+03  0.16251699977E+03  0.40604781279E+03  0.18800000000E+03 0.  0.
<mgrwt>
<rscale>  0 0.79990168E+03</rscale>
<asrwt>0</asrwt>
<pdfrwt beam="1">  1        2 0.54925699E-01 0.79990168E+03</pdfrwt>
<pdfrwt beam="2">  1       -2 0.59434902E-01 0.79990168E+03</pdfrwt>
<totfact> 0.24055513E+02</totfact>
</mgrwt>
</event>
<event>
 4    1  0.6346694E-005  0.1167771E+04  0.7818608E-02  0.9141544E-01
          2   -1    0    0  501    0  0.00000000000E+00  0.00000000000E+00  0.15597816558E+04  0.15597816558E+04  0.25500000000E-02 0.  1.
         -2   -1    0    0    0  501 -0.00000000000E+00 -0.00000000000E+00 -0.21857051790E+03  0.21857051792E+03  0.25500000000E-02 0. -1.
    5000001    1    1    2    0    0  0.24971994988E+03  0.73931214606E+02 -0.71939024517E+02  0.32915817035E+03  0.18800000000E+03 0.  0.
   -5000001    1    1    2    0    0 -0.24971994988E+03 -0.73931214606E+02  0.14131501625E+04  0.14491940034E+04  0.18800000000E+03 0.  0.
<mgrwt>
<rscale>  0 0.11677710E+04</rscale>
<asrwt>0</asrwt>
<pdfrwt beam="1">  1        2 0.22282595E+00 0.11677710E+04</pdfrwt>
<pdfrwt beam="2">  1       -2 0.31224360E-01 0.11677710E+04</pdfrwt>
<totfact> 0.12767820E+02</totfact>
</mgrwt>
</event>
<event>
 4    1  0.6346694E-005  0.3976306E+03  0.7818608E-02  0.1044603E+00
         -2   -1    0    0    0  501 -0.00000000000E+00  0.00000000000E+00  0.13767046024E+02  0.13767046261E+02  0.25500000000E-02 0. -1.
          2   -1    0    0  501    0  0.00000000000E+00 -0.00000000000E+00 -0.28711690310E+04  0.28711690310E+04  0.25500000000E-02 0.  1.
    5000001    1    1    2    0    0 -0.23489601375E+02 -0.38314912436E+02 -0.10912138514E+04  0.11082019055E+04  0.18800000000E+03 0.  0.
   -5000001    1    1    2    0    0  0.23489601375E+02  0.38314912436E+02 -0.17661881335E+04  0.17767341717E+04  0.18800000000E+03 0.  0.
<mgrwt>
<rscale>  0 0.39763056E+03</rscale>
<asrwt>0</asrwt>
<pdfrwt beam="1">  1        2 0.41016662E+00 0.39763056E+03</pdfrwt>
<pdfrwt beam="2">  1       -2 0.19667227E-02 0.39763056E+03</pdfrwt>
<totfact> 0.25451029E+03</totfact>
</mgrwt>
</event>
<event>
 4    1  0.6346694E-005  0.7324846E+03  0.7818608E-02  0.9663237E-01
          2   -1    0    0  501    0  0.00000000000E+00  0.00000000000E+00  0.18889749829E+04  0.18889749829E+04  0.25500000000E-02 0.  1.
         -2   -1    0    0    0  501 -0.00000000000E+00 -0.00000000000E+00 -0.71008582337E+02  0.71008582383E+02  0.25500000000E-02 0. -1.
    5000001    1    1    2    0    0 -0.17120560242E+03 -0.21941807001E+03  0.51815319693E+03  0.61748067438E+03  0.18800000000E+03 0.  0.
   -5000001    1    1    2    0    0  0.17120560242E+03  0.21941807001E+03  0.12998132036E+04  0.13425028909E+04  0.18800000000E+03 0.  0.
<mgrwt>
<rscale>  0 0.73248464E+03</rscale>
<asrwt>0</asrwt>
<pdfrwt beam="1">  1        2 0.26985356E+00 0.73248464E+03</pdfrwt>
<pdfrwt beam="2">  1       -2 0.10144083E-01 0.73248464E+03</pdfrwt>
<totfact> 0.62514127E+02</totfact>
</mgrwt>
</event>
<event>
 4    1  0.6346694E-005  0.1185880E+04  0.7818608E-02  0.9125307E-01
          2   -1    0    0  501    0  0.00000000000E+00  0.00000000000E+00  0.14068459186E+04  0.14068459186E+04  0.25500000000E-02 0.  1.
         -2   -1    0    0    0  501 -0.00000000000E+00 -0.00000000000E+00 -0.24990485784E+03  0.24990485785E+03  0.25500000000E-02 0. -1.
    5000001    1    1    2    0    0 -0.42558473989E+03 -0.32600176522E+03  0.34124041096E+03  0.66271301468E+03  0.18800000000E+03 0.  0.
   -5000001    1    1    2    0    0  0.42558473989E+03  0.32600176522E+03  0.81570064982E+03  0.99403776179E+03  0.18800000000E+03 0.  0.
<mgrwt>
<rscale>  0 0.11858796E+04</rscale>
<asrwt>0</asrwt>
<pdfrwt beam="1">  1        2 0.20097799E+00 0.11858796E+04</pdfrwt>
<pdfrwt beam="2">  1       -2 0.35700693E-01 0.11858796E+04</pdfrwt>
<totfact> 0.11936411E+02</totfact>
</mgrwt>
</event>
<event>
 4    1  0.6346694E-005  0.5215095E+03  0.7818608E-02  0.1008312E+00
          2   -1    0    0  501    0  0.00000000000E+00  0.00000000000E+00  0.11429451369E+04  0.11429451369E+04  0.25500000000E-02 0.  1.
         -2   -1    0    0    0  501 -0.00000000000E+00 -0.00000000000E+00 -0.59489320744E+02  0.59489320799E+02  0.25500000000E-02 0. -1.
    5000001    1    1    2    0    0 -0.15938101626E+03  0.51091876518E+02  0.38473250446E+03  0.45975622690E+03  0.18800000000E+03 0.  0.
   -5000001    1    1    2    0    0  0.15938101626E+03 -0.51091876518E+02  0.69872331168E+03  0.74267823078E+03  0.18800000000E+03 0.  0.
<mgrwt>
<rscale>  0 0.52150946E+03</rscale>
<asrwt>0</asrwt>
<pdfrwt beam="1">  1        2 0.16327787E+00 0.52150946E+03</pdfrwt>
<pdfrwt beam="2">  1       -2 0.84984748E-02 0.52150946E+03</pdfrwt>
<totfact> 0.20705057E+03</totfact>
</mgrwt>
</event>
<event>
 4    1  0.6346694E-005  0.4521981E+03  0.7818608E-02  0.1027069E+00
         -2   -1    0    0    0  501 -0.00000000000E+00  0.00000000000E+00  0.61604353055E+02  0.61604353108E+02  0.25500000000E-02 0. -1.
          2   -1    0    0  501    0  0.00000000000E+00 -0.00000000000E+00 -0.82982430000E+03  0.82982430001E+03  0.25500000000E-02 0.  1.
    5000001    1    1    2    0    0  0.98863137430E+02 -0.52962118914E+02 -0.49558796032E+03  0.54178439660E+03  0.18800000000E+03 0.  0.
   -5000001    1    1    2    0    0 -0.98863137430E+02  0.52962118914E+02 -0.27263198663E+03  0.34964425652E+03  0.18800000000E+03 0.  0.
<mgrwt>
<rscale>  0 0.45219814E+03</rscale>
<asrwt>0</asrwt>
<pdfrwt beam="1">  1        2 0.11854632E+00 0.45219814E+03</pdfrwt>
<pdfrwt beam="2">  1       -2 0.88006224E-02 0.45219814E+03</pdfrwt>
<totfact> 0.30452177E+03</totfact>
</mgrwt>
</event>
<event>
 4    1  0.6346694E-005  0.8438588E+03  0.7818608E-02  0.9498617E-01
          2   -1    0    0  501    0  0.00000000000E+00  0.00000000000E+00  0.25383044514E+04  0.25383044514E+04  0.25500000000E-02 0.  1.
         -2   -1    0    0    0  501 -0.00000000000E+00 -0.00000000000E+00 -0.70135178865E+02  0.70135178911E+02  0.25500000000E-02 0. -1.
    5000001    1    1    2    0    0  0.14685800032E+03 -0.28842727979E+03  0.63213303274E+03  0.73463850911E+03  0.18800000000E+03 0.  0.
   -5000001    1    1    2    0    0 -0.14685800032E+03  0.28842727979E+03  0.18360362398E+04  0.18738011212E+04  0.18800000000E+03 0.  0.
<mgrwt>
<rscale>  0 0.84385884E+03</rscale>
<asrwt>0</asrwt>
<pdfrwt beam="1">  1        2 0.36261489E+00 0.84385884E+03</pdfrwt>
<pdfrwt beam="2">  1       -2 0.10019312E-01 0.84385884E+03</pdfrwt>
<totfact> 0.29518850E+02</totfact>
</mgrwt>
</event>
<event>
 4    1  0.6346694E-005  0.7460980E+03  0.7818608E-02  0.9641492E-01
         -2   -1    0    0    0  501 -0.00000000000E+00  0.00000000000E+00  0.22030343459E+03  0.22030343461E+03  0.25500000000E-02 0. -1.
          2   -1    0    0  501    0  0.00000000000E+00 -0.00000000000E+00 -0.63169938954E+03  0.63169938955E+03  0.25500000000E-02 0.  1.
    5000001    1    1    2    0    0  0.52244187498E+02  0.25174565742E+03 -0.42747125849E+03  0.53308630445E+03  0.18800000000E+03 0.  0.
   -5000001    1    1    2    0    0 -0.52244187498E+02 -0.25174565742E+03  0.16075303535E+02  0.31891651971E+03  0.18800000000E+03 0.  0.
<mgrwt>
<rscale>  0 0.74609797E+03</rscale>
<asrwt>0</asrwt>
<pdfrwt beam="1">  1        2 0.90242769E-01 0.74609797E+03</pdfrwt>
<pdfrwt beam="2">  1       -2 0.31471919E-01 0.74609797E+03</pdfrwt>
<totfact> 0.48014313E+02</totfact>
</mgrwt>
</event>
<event>
 4    1  0.6346694E-005  0.4382082E+03  0.7818608E-02  0.1031298E+00
         -2   -1    0    0    0  501 -0.00000000000E+00  0.00000000000E+00  0.20118155589E+02  0.20118155751E+02  0.25500000000E-02 0. -1.
          2   -1    0    0  501    0  0.00000000000E+00 -0.00000000000E+00 -0.23862325350E+04  0.23862325350E+04  0.25500000000E-02 0.  1.
    5000001    1    1    2    0    0  0.47528420472E+02 -0.10199555087E+03 -0.11789682377E+04  0.11991547642E+04  0.18800000000E+03 0.  0.
   -5000001    1    1    2    0    0 -0.47528420472E+02  0.10199555087E+03 -0.11871461417E+04  0.12071959265E+04  0.18800000000E+03 0.  0.
<mgrwt>
<rscale>  0 0.43820816E+03</rscale>
<asrwt>0</asrwt>
<pdfrwt beam="1">  1        2 0.34089018E+00 0.43820816E+03</pdfrwt>
<pdfrwt beam="2">  1       -2 0.28740238E-02 0.43820816E+03</pdfrwt>
<totfact> 0.25544382E+03</totfact>
</mgrwt>
</event>
<event>
 4    1  0.6346694E-005  0.5189381E+03  0.7818608E-02  0.1008951E+00
         -2   -1    0    0    0  501 -0.00000000000E+00  0.00000000000E+00  0.94357101021E+02  0.94357101055E+02  0.25500000000E-02 0. -1.
          2   -1    0    0  501    0  0.00000000000E+00 -0.00000000000E+00 -0.71350411734E+03  0.71350411735E+03  0.25500000000E-02 0.  1.
    5000001    1    1    2    0    0 -0.37946960484E+02 -0.13044971126E+03 -0.49060705263E+03  0.54267520587E+03  0.18800000000E+03 0.  0.
   -5000001    1    1    2    0    0  0.37946960484E+02  0.13044971126E+03 -0.12853996369E+03  0.26518601253E+03  0.18800000000E+03 0.  0.
<mgrwt>
<rscale>  0 0.51893807E+03</rscale>
<asrwt>0</asrwt>
<pdfrwt beam="1">  1        2 0.10192916E+00 0.51893807E+03</pdfrwt>
<pdfrwt beam="2">  1       -2 0.13479586E-01 0.51893807E+03</pdfrwt>
<totfact> 0.18408621E+03</totfact>
</mgrwt>
</event>
<event>
 4    1  0.6346694E-005  0.1156693E+04  0.7818608E-02  0.9151631E-01
         -2   -1    0    0    0  501 -0.00000000000E+00  0.00000000000E+00  0.31040839166E+03  0.31040839167E+03  0.25500000000E-02 0. -1.
          2   -1    0    0  501    0  0.00000000000E+00 -0.00000000000E+00 -0.10775628217E+04  0.10775628217E+04  0.25500000000E-02 0.  1.
    5000001    1    1    2    0    0  0.49442670693E+03  0.70171570850E+02 -0.11590884345E+03  0.54604091226E+03  0.18800000000E+03 0.  0.
   -5000001    1    1    2    0    0 -0.49442670693E+03 -0.70171570850E+02 -0.65124558663E+03  0.84193030114E+03  0.18800000000E+03 0.  0.
<mgrwt>
<rscale>  0 0.11566928E+04</rscale>
<asrwt>0</asrwt>
<pdfrwt beam="1">  1        2 0.15393754E+00 0.11566928E+04</pdfrwt>
<pdfrwt beam="2">  1       -2 0.44344056E-01 0.11566928E+04</pdfrwt>
<totfact> 0.12015727E+02</totfact>
</mgrwt>
</event>
<event>
 4    1  0.6346694E-005  0.4471265E+03  0.7818608E-02  0.1028582E+00
         -2   -1    0    0    0  501 -0.00000000000E+00  0.00000000000E+00  0.40321467622E+02  0.40321467703E+02  0.25500000000E-02 0. -1.
          2   -1    0    0  501    0  0.00000000000E+00 -0.00000000000E+00 -0.12395510487E+04  0.12395510487E+04  0.25500000000E-02 0.  1.
    5000001    1    1    2    0    0  0.70428165648E+02 -0.39721304343E+02 -0.34201734089E+03  0.39856965515E+03  0.18800000000E+03 0.  0.
   -5000001    1    1    2    0    0 -0.70428165648E+02  0.39721304343E+02 -0.85721224022E+03  0.88130286129E+03  0.18800000000E+03 0.  0.
<mgrwt>
<rscale>  0 0.44712646E+03</rscale>
<asrwt>0</asrwt>
<pdfrwt beam="1">  1        2 0.17707870E+00 0.44712646E+03</pdfrwt>
<pdfrwt beam="2">  1       -2 0.57602104E-02 0.44712646E+03</pdfrwt>
<totfact> 0.33725348E+03</totfact>
</mgrwt>
</event>
<event>
 4    1  0.6346694E-005  0.4224939E+03  0.7818608E-02  0.1036258E+00
         -2   -1    0    0    0  501 -0.00000000000E+00  0.00000000000E+00  0.13884903608E+02  0.13884903842E+02  0.25500000000E-02 0. -1.
          2   -1    0    0  501    0  0.00000000000E+00 -0.00000000000E+00 -0.32139415792E+04  0.32139415792E+04  0.25500000000E-02 0.  1.
    5000001    1    1    2    0    0 -0.48755738565E+01  0.96144907962E+02 -0.16282598034E+04  0.16419018247E+04  0.18800000000E+03 0.  0.
   -5000001    1    1    2    0    0  0.48755738565E+01 -0.96144907962E+02 -0.15717968722E+04  0.15859246584E+04  0.18800000000E+03 0.  0.
<mgrwt>
<rscale>  0 0.42249388E+03</rscale>
<asrwt>0</asrwt>
<pdfrwt beam="1">  1        2 0.45913404E+00 0.42249388E+03</pdfrwt>
<pdfrwt beam="2">  1       -2 0.19835597E-02 0.42249388E+03</pdfrwt>
<totfact> 0.16358112E+03</totfact>
</mgrwt>
</event>
<event>
 4    1  0.6346694E-005  0.8029774E+03  0.7818608E-02  0.9555717E-01
         -2   -1    0    0    0  501 -0.00000000000E+00  0.00000000000E+00  0.47150664562E+03  0.47150664563E+03  0.25500000000E-02 0. -1.
          2   -1    0    0  501    0  0.00000000000E+00 -0.00000000000E+00 -0.34186832970E+03  0.34186832971E+03  0.25500000000E-02 0.  1.
    5000001    1    1    2    0    0  0.32903630789E+03 -0.82890485634E+02  0.16966529686E+03  0.42339820202E+03  0.18800000000E+03 0.  0.
   -5000001    1    1    2    0    0 -0.32903630789E+03  0.82890485634E+02 -0.40026980938E+02  0.38997677331E+03  0.18800000000E+03 0.  0.
<mgrwt>
<rscale>  0 0.80297743E+03</rscale>
<asrwt>0</asrwt>
<pdfrwt beam="1">  1        2 0.48838333E-01 0.80297743E+03</pdfrwt>
<pdfrwt beam="2">  1       -2 0.67358092E-01 0.80297743E+03</pdfrwt>
<totfact> 0.20988959E+02</totfact>
</mgrwt>
</event>
<event>
 4    1  0.6346694E-005  0.5561928E+03  0.7818608E-02  0.1000071E+00
          2   -1    0    0  501    0  0.00000000000E+00  0.00000000000E+00  0.93062880106E+03  0.93062880107E+03  0.25500000000E-02 0.  1.
         -2   -1    0    0    0  501 -0.00000000000E+00 -0.00000000000E+00 -0.83102530142E+02  0.83102530181E+02  0.25500000000E-02 0. -1.
    5000001    1    1    2    0    0  0.15966287267E+03 -0.10942307416E+02  0.19048383290E+03  0.31183338115E+03  0.18800000000E+03 0.  0.
   -5000001    1    1    2    0    0 -0.15966287267E+03  0.10942307416E+02  0.65704243802E+03  0.70189795010E+03  0.18800000000E+03 0.  0.
<mgrwt>
<rscale>  0 0.55619280E+03</rscale>
<asrwt>0</asrwt>
<pdfrwt beam="1">  1        2 0.13294697E+00 0.55619280E+03</pdfrwt>
<pdfrwt beam="2">  1       -2 0.11871790E-01 0.55619280E+03</pdfrwt>
<totfact> 0.16138241E+03</totfact>
</mgrwt>
</event>
<event>
 4    1  0.6346694E-005  0.5418283E+03  0.7818608E-02  0.1003403E+00
          2   -1    0    0  501    0  0.00000000000E+00  0.00000000000E+00  0.55881856719E+03  0.55881856720E+03  0.25500000000E-02 0.  1.
         -2   -1    0    0    0  501 -0.00000000000E+00 -0.00000000000E+00 -0.13133864811E+03  0.13133864814E+03  0.25500000000E-02 0. -1.
    5000001    1    1    2    0    0  0.12709811693E+03  0.14743258341E+03  0.19761915605E+03  0.33509346280E+03  0.18800000000E+03 0.  0.
   -5000001    1    1    2    0    0 -0.12709811693E+03 -0.14743258341E+03  0.22986076304E+03  0.35506375253E+03  0.18800000000E+03 0.  0.
<mgrwt>
<rscale>  0 0.54182829E+03</rscale>
<asrwt>0</asrwt>
<pdfrwt beam="1">  1        2 0.79831224E-01 0.54182829E+03</pdfrwt>
<pdfrwt beam="2">  1       -2 0.18762664E-01 0.54182829E+03</pdfrwt>
<totfact> 0.14068463E+03</totfact>
</mgrwt>
</event>
<event>
 4    1  0.6346694E-005  0.5882089E+03  0.7818608E-02  0.9930175E-01
         -2   -1    0    0    0  501 -0.00000000000E+00  0.00000000000E+00  0.91405257382E+02  0.91405257418E+02  0.25500000000E-02 0. -1.
          2   -1    0    0  501    0  0.00000000000E+00 -0.00000000000E+00 -0.94630677197E+03  0.94630677197E+03  0.25500000000E-02 0.  1.
    5000001    1    1    2    0    0 -0.12099015486E+01 -0.80607000375E+02 -0.54649195787E+02  0.21172974985E+03  0.18800000000E+03 0.  0.
   -5000001    1    1    2    0    0  0.12099015486E+01  0.80607000375E+02 -0.80025231880E+03  0.82598227954E+03  0.18800000000E+03 0.  0.
<mgrwt>
<rscale>  0 0.58820885E+03</rscale>
<asrwt>0</asrwt>
<pdfrwt beam="1">  1        2 0.13518668E+00 0.58820885E+03</pdfrwt>
<pdfrwt beam="2">  1       -2 0.13057894E-01 0.58820885E+03</pdfrwt>
<totfact> 0.13475475E+03</totfact>
</mgrwt>
</event>
<event>
 4    1  0.6346694E-005  0.4777256E+03  0.7818608E-02  0.1019762E+00
          2   -1    0    0  501    0  0.00000000000E+00  0.00000000000E+00  0.12308782311E+04  0.12308782311E+04  0.25500000000E-02 0.  1.
         -2   -1    0    0    0  501 -0.00000000000E+00 -0.00000000000E+00 -0.46353446909E+02  0.46353446980E+02  0.25500000000E-02 0. -1.
    5000001    1    1    2    0    0 -0.11293038697E+03  0.43956623965E+02  0.36816080160E+03  0.43078049274E+03  0.18800000000E+03 0.  0.
   -5000001    1    1    2    0    0  0.11293038697E+03 -0.43956623965E+02  0.81636398257E+03  0.84645118532E+03  0.18800000000E+03 0.  0.
<mgrwt>
<rscale>  0 0.47772565E+03</rscale>
<asrwt>0</asrwt>
<pdfrwt beam="1">  1        2 0.17583972E+00 0.47772565E+03</pdfrwt>
<pdfrwt beam="2">  1       -2 0.66219220E-02 0.47772565E+03</pdfrwt>
<totfact> 0.27436709E+03</totfact>
</mgrwt>
</event>
<event>
 4    1  0.6346694E-005  0.7965205E+03  0.7818608E-02  0.9565067E-01
          2   -1    0    0  501    0  0.00000000000E+00  0.00000000000E+00  0.33689410283E+03  0.33689410284E+03  0.25500000000E-02 0.  1.
         -2   -1    0    0    0  501 -0.00000000000E+00 -0.00000000000E+00 -0.47080434377E+03  0.47080434378E+03  0.25500000000E-02 0. -1.
    5000001    1    1    2    0    0 -0.31191326349E+03 -0.16116272051E+03 -0.64952413835E+02  0.40351718983E+03  0.18800000000E+03 0.  0.
   -5000001    1    1    2    0    0  0.31191326349E+03  0.16116272051E+03 -0.68957827109E+02  0.40418125679E+03  0.18800000000E+03 0.  0.
<mgrwt>
<rscale>  0 0.79652045E+03</rscale>
<asrwt>0</asrwt>
<pdfrwt beam="1">  1        2 0.48127729E-01 0.79652045E+03</pdfrwt>
<pdfrwt beam="2">  1       -2 0.67257763E-01 0.79652045E+03</pdfrwt>
<totfact> 0.21407730E+02</totfact>
</mgrwt>
</event>
<event>
 4    1  0.6346694E-005  0.6731628E+03  0.7818608E-02  0.9764261E-01
         -2   -1    0    0    0  501 -0.00000000000E+00  0.00000000000E+00  0.53171065918E+03  0.53171065918E+03  0.25500000000E-02 0. -1.
          2   -1    0    0  501    0  0.00000000000E+00 -0.00000000000E+00 -0.21306145847E+03  0.21306145848E+03  0.25500000000E-02 0.  1.
    5000001    1    1    2    0    0 -0.92016106513E+02 -0.21493562958E+03 -0.94795818636E+01  0.30016354075E+03  0.18800000000E+03 0.  0.
   -5000001    1    1    2    0    0  0.92016106513E+02  0.21493562958E+03  0.32812878257E+03  0.44460857692E+03  0.18800000000E+03 0.  0.
<mgrwt>
<rscale>  0 0.67316283E+03</rscale>
<asrwt>0</asrwt>
<pdfrwt beam="1">  1        2 0.30437351E-01 0.67316283E+03</pdfrwt>
<pdfrwt beam="2">  1       -2 0.75958665E-01 0.67316283E+03</pdfrwt>
<totfact> 0.27441981E+02</totfact>
</mgrwt>
</event>
<event>
 4    1  0.6346694E-005  0.5674665E+03  0.7818608E-02  0.9975301E-01
          2   -1    0    0  501    0  0.00000000000E+00  0.00000000000E+00  0.20193174327E+04  0.20193174327E+04  0.25500000000E-02 0.  1.
         -2   -1    0    0    0  501 -0.00000000000E+00 -0.00000000000E+00 -0.39867213166E+02  0.39867213248E+02  0.25500000000E-02 0. -1.
    5000001    1    1    2    0    0 -0.29825372289E+02 -0.19030934150E+03  0.13153695176E+04  0.13426273371E+04  0.18800000000E+03 0.  0.
   -5000001    1    1    2    0    0  0.29825372289E+02  0.19030934150E+03  0.66408070193E+03  0.71655730892E+03  0.18800000000E+03 0.  0.
<mgrwt>
<rscale>  0 0.56746651E+03</rscale>
<asrwt>0</asrwt>
<pdfrwt beam="1">  1        2 0.28847388E+00 0.56746651E+03</pdfrwt>
<pdfrwt beam="2">  1       -2 0.56953170E-02 0.56746651E+03</pdfrwt>
<totfact> 0.13598063E+03</totfact>
</mgrwt>
</event>
<event>
 4    1  0.6346694E-005  0.9032409E+03  0.7818608E-02  0.9421539E-01
          2   -1    0    0  501    0  0.00000000000E+00  0.00000000000E+00  0.54896834567E+03  0.54896834568E+03  0.25500000000E-02 0.  1.
         -2   -1    0    0    0  501 -0.00000000000E+00 -0.00000000000E+00 -0.37153513598E+03  0.37153513599E+03  0.25500000000E-02 0. -1.
    5000001    1    1    2    0    0  0.11932689482E+03  0.32037948570E+03  0.32051718335E+03  0.50493285445E+03  0.18800000000E+03 0.  0.
   -5000001    1    1    2    0    0 -0.11932689482E+03 -0.32037948570E+03 -0.14308397366E+03  0.41557062722E+03  0.18800000000E+03 0.  0.
<mgrwt>
<rscale>  0 0.90324090E+03</rscale>
<asrwt>0</asrwt>
<pdfrwt beam="1">  1        2 0.78424049E-01 0.90324090E+03</pdfrwt>
<pdfrwt beam="2">  1       -2 0.53076448E-01 0.90324090E+03</pdfrwt>
<totfact> 0.20227927E+02</totfact>
</mgrwt>
</event>
<event>
 4    1  0.6346694E-005  0.1151622E+04  0.7818608E-02  0.9156289E-01
         -2   -1    0    0    0  501 -0.00000000000E+00  0.00000000000E+00  0.19659459127E+03  0.19659459128E+03  0.25500000000E-02 0. -1.
          2   -1    0    0  501    0  0.00000000000E+00 -0.00000000000E+00 -0.16865071990E+04  0.16865071990E+04  0.25500000000E-02 0.  1.
    5000001    1    1    2    0    0  0.17421176026E+03 -0.17709823605E+03  0.46881009576E+02  0.31504817359E+03  0.18800000000E+03 0.  0.
   -5000001    1    1    2    0    0 -0.17421176026E+03  0.17709823605E+03 -0.15367936173E+04  0.15680536167E+04  0.18800000000E+03 0.  0.
<mgrwt>
<rscale>  0 0.11516218E+04</rscale>
<asrwt>0</asrwt>
<pdfrwt beam="1">  1        2 0.24092959E+00 0.11516218E+04</pdfrwt>
<pdfrwt beam="2">  1       -2 0.28084943E-01 0.11516218E+04</pdfrwt>
<totfact> 0.13362463E+02</totfact>
</mgrwt>
</event>
<event>
 4    1  0.6346694E-005  0.6722968E+03  0.7818608E-02  0.9765818E-01
          2   -1    0    0  501    0  0.00000000000E+00  0.00000000000E+00  0.28346296664E+03  0.28346296666E+03  0.25500000000E-02 0.  1.
         -2   -1    0    0    0  501 -0.00000000000E+00 -0.00000000000E+00 -0.39862609016E+03  0.39862609017E+03  0.25500000000E-02 0. -1.
    5000001    1    1    2    0    0  0.24347454874E+03  0.57551651814E+02 -0.18208691214E+03  0.36206586705E+03  0.18800000000E+03 0.  0.
   -5000001    1    1    2    0    0 -0.24347454874E+03 -0.57551651814E+02  0.66923788614E+02  0.32002318978E+03  0.18800000000E+03 0.  0.
<mgrwt>
<rscale>  0 0.67229676E+03</rscale>
<asrwt>0</asrwt>
<pdfrwt beam="1">  1        2 0.40494709E-01 0.67229676E+03</pdfrwt>
<pdfrwt beam="2">  1       -2 0.56946584E-01 0.67229676E+03</pdfrwt>
<totfact> 0.37053843E+02</totfact>
</mgrwt>
</event>
<event>
 4    1  0.6346694E-005  0.5085444E+03  0.7818608E-02  0.1011572E+00
         -2   -1    0    0    0  501 -0.00000000000E+00  0.00000000000E+00  0.42686785402E+02  0.42686785479E+02  0.25500000000E-02 0. -1.
          2   -1    0    0  501    0  0.00000000000E+00 -0.00000000000E+00 -0.15146219926E+04  0.15146219926E+04  0.25500000000E-02 0.  1.
    5000001    1    1    2    0    0 -0.10482722418E+03  0.13386060149E+03 -0.67449746846E+03  0.72055412186E+03  0.18800000000E+03 0.  0.
   -5000001    1    1    2    0    0  0.10482722418E+03 -0.13386060149E+03 -0.79743773877E+03  0.83675465627E+03  0.18800000000E+03 0.  0.
<mgrwt>
<rscale>  0 0.50854437E+03</rscale>
<asrwt>0</asrwt>
<pdfrwt beam="1">  1        2 0.21637454E+00 0.50854437E+03</pdfrwt>
<pdfrwt beam="2">  1       -2 0.60981131E-02 0.50854437E+03</pdfrwt>
<totfact> 0.22047676E+03</totfact>
</mgrwt>
</event>
<event>
 4    1  0.6346694E-005  0.6626820E+03  0.7818608E-02  0.9783269E-01
          2   -1    0    0  501    0  0.00000000000E+00  0.00000000000E+00  0.16254305656E+04  0.16254305656E+04  0.25500000000E-02 0.  1.
         -2   -1    0    0    0  501 -0.00000000000E+00 -0.00000000000E+00 -0.67543243431E+02  0.67543243479E+02  0.25500000000E-02 0. -1.
    5000001    1    1    2    0    0  0.24696635198E+03 -0.37427889609E+02  0.49850888456E+03  0.58842869910E+03  0.18800000000E+03 0.  0.
   -5000001    1    1    2    0    0 -0.24696635198E+03  0.37427889609E+02  0.10593784376E+04  0.11045451100E+04  0.18800000000E+03 0.  0.
<mgrwt>
<rscale>  0 0.66268198E+03</rscale>
<asrwt>0</asrwt>
<pdfrwt beam="1">  1        2 0.23220435E+00 0.66268198E+03</pdfrwt>
<pdfrwt beam="2">  1       -2 0.96490354E-02 0.66268198E+03</pdfrwt>
<totfact> 0.92715398E+02</totfact>
</mgrwt>
</event>
<event>
 4    1  0.6346694E-005  0.4366357E+03  0.7818608E-02  0.1031784E+00
         -2   -1    0    0    0  501 -0.00000000000E+00  0.00000000000E+00  0.61128539054E+02  0.61128539107E+02  0.25500000000E-02 0. -1.
          2   -1    0    0  501    0  0.00000000000E+00 -0.00000000000E+00 -0.77971238498E+03  0.77971238499E+03  0.25500000000E-02 0.  1.
    5000001    1    1    2    0    0 -0.79679272324E+02  0.65439861544E+02 -0.28018423176E+03  0.35281491698E+03  0.18800000000E+03 0.  0.
   -5000001    1    1    2    0    0  0.79679272324E+02 -0.65439861544E+02 -0.43839961417E+03  0.48802600711E+03  0.18800000000E+03 0.  0.
<mgrwt>
<rscale>  0 0.43663568E+03</rscale>
<asrwt>0</asrwt>
<pdfrwt beam="1">  1        2 0.11138748E+00 0.43663568E+03</pdfrwt>
<pdfrwt beam="2">  1       -2 0.87326489E-02 0.43663568E+03</pdfrwt>
<totfact> 0.33349517E+03</totfact>
</mgrwt>
</event>
<event>
 4    1  0.6346694E-005  0.4643612E+03  0.7818608E-02  0.1023524E+00
          2   -1    0    0  501    0  0.00000000000E+00  0.00000000000E+00  0.87286555859E+03  0.87286555860E+03  0.25500000000E-02 0.  1.
         -2   -1    0    0    0  501 -0.00000000000E+00 -0.00000000000E+00 -0.61759612169E+02  0.61759612222E+02  0.25500000000E-02 0. -1.
    5000001    1    1    2    0    0 -0.72186935992E+02 -0.11315935143E+03  0.45266271340E+03  0.50819634458E+03  0.18800000000E+03 0.  0.
   -5000001    1    1    2    0    0  0.72186935992E+02  0.11315935143E+03  0.35844323303E+03  0.42642882624E+03  0.18800000000E+03 0.  0.
<mgrwt>
<rscale>  0 0.46436123E+03</rscale>
<asrwt>0</asrwt>
<pdfrwt beam="1">  1        2 0.12469508E+00 0.46436123E+03</pdfrwt>
<pdfrwt beam="2">  1       -2 0.88228020E-02 0.46436123E+03</pdfrwt>
<totfact> 0.28413140E+03</totfact>
</mgrwt>
</event>
<event>
 4    1  0.6346694E-005  0.5529215E+03  0.7818608E-02  0.1000820E+00
         -2   -1    0    0    0  501 -0.00000000000E+00  0.00000000000E+00  0.15172204854E+03  0.15172204857E+03  0.25500000000E-02 0. -1.
          2   -1    0    0  501    0  0.00000000000E+00 -0.00000000000E+00 -0.50375370767E+03  0.50375370768E+03  0.25500000000E-02 0.  1.
    5000001    1    1    2    0    0  0.10005542953E+03  0.16405856343E+03 -0.99552619767E+02  0.28667233092E+03  0.18800000000E+03 0.  0.
   -5000001    1    1    2    0    0 -0.10005542953E+03 -0.16405856343E+03 -0.25247903936E+03  0.36880342532E+03  0.18800000000E+03 0.  0.
<mgrwt>
<rscale>  0 0.55292149E+03</rscale>
<asrwt>0</asrwt>
<pdfrwt beam="1">  1        2 0.71964815E-01 0.55292149E+03</pdfrwt>
<pdfrwt beam="2">  1       -2 0.21674579E-01 0.55292149E+03</pdfrwt>
<totfact> 0.12325502E+03</totfact>
</mgrwt>
</event>
<event>
 4    1  0.6346694E-005  0.7368103E+03  0.7818608E-02  0.9656273E-01
          2   -1    0    0  501    0  0.00000000000E+00  0.00000000000E+00  0.31571339065E+03  0.31571339066E+03  0.25500000000E-02 0.  1.
         -2   -1    0    0    0  501 -0.00000000000E+00 -0.00000000000E+00 -0.42989102324E+03  0.42989102325E+03  0.25500000000E-02 0. -1.
    5000001    1    1    2    0    0  0.11153911560E+03  0.72261636703E+02 -0.34812473194E+03  0.41736979699E+03  0.18800000000E+03 0.  0.
   -5000001    1    1    2    0    0 -0.11153911560E+03 -0.72261636703E+02  0.23394709935E+03  0.32823461692E+03  0.18800000000E+03 0.  0.
<mgrwt>
<rscale>  0 0.73681029E+03</rscale>
<asrwt>0</asrwt>
<pdfrwt beam="1">  1        2 0.45101913E-01 0.73681029E+03</pdfrwt>
<pdfrwt beam="2">  1       -2 0.61413003E-01 0.73681029E+03</pdfrwt>
<totfact> 0.28008229E+02</totfact>
</mgrwt>
</event>
<event>
 4    1  0.6346694E-005  0.4842525E+03  0.7818608E-02  0.1017973E+00
          2   -1    0    0  501    0  0.00000000000E+00  0.00000000000E+00  0.50709107974E+02  0.50709108038E+02  0.25500000000E-02 0.  1.
         -2   -1    0    0    0  501 -0.00000000000E+00 -0.00000000000E+00 -0.11561063159E+04  0.11561063159E+04  0.25500000000E-02 0. -1.
    5000001    1    1    2    0    0 -0.79817376881E+02  0.75237842546E+02 -0.28837435216E+03  0.36129671129E+03  0.18800000000E+03 0.  0.
   -5000001    1    1    2    0    0  0.79817376881E+02 -0.75237842546E+02 -0.81702285575E+03  0.84551871264E+03  0.18800000000E+03 0.  0.
<mgrwt>
<rscale>  0 0.48425250E+03</rscale>
<asrwt>0</asrwt>
<pdfrwt beam="1">  1        2 0.72441590E-02 0.48425250E+03</pdfrwt>
<pdfrwt beam="2">  1       -2 0.16515803E+00 0.48425250E+03</pdfrwt>
<totfact> 0.23752634E+02</totfact>
</mgrwt>
</event>
<event>
 4    1  0.6346694E-005  0.4834807E+03  0.7818608E-02  0.1018183E+00
          2   -1    0    0  501    0  0.00000000000E+00  0.00000000000E+00  0.79757265252E+02  0.79757265293E+02  0.25500000000E-02 0.  1.
         -2   -1    0    0    0  501 -0.00000000000E+00 -0.00000000000E+00 -0.73270312466E+03  0.73270312466E+03  0.25500000000E-02 0. -1.
    5000001    1    1    2    0    0  0.10190936516E+03 -0.53592352039E+02 -0.49313954551E+03  0.54017429618E+03  0.18800000000E+03 0.  0.
   -5000001    1    1    2    0    0 -0.10190936516E+03  0.53592352039E+02 -0.15980631389E+03  0.27228609378E+03  0.18800000000E+03 0.  0.
<mgrwt>
<rscale>  0 0.48348070E+03</rscale>
<asrwt>0</asrwt>
<pdfrwt beam="1">  1        2 0.11393895E-01 0.48348070E+03</pdfrwt>
<pdfrwt beam="2">  1       -2 0.10467187E+00 0.48348070E+03</pdfrwt>
<totfact> 0.42165679E+02</totfact>
</mgrwt>
</event>
<event>
 4    1  0.6346694E-005  0.6393959E+03  0.7818608E-02  0.9826883E-01
         -2   -1    0    0    0  501 -0.00000000000E+00  0.00000000000E+00  0.19862098316E+03  0.19862098318E+03  0.25500000000E-02 0. -1.
          2   -1    0    0  501    0  0.00000000000E+00 -0.00000000000E+00 -0.51458194175E+03  0.51458194176E+03  0.25500000000E-02 0.  1.
    5000001    1    1    2    0    0  0.22450578061E+03  0.12554253288E+03 -0.18747092156E+03  0.36966622718E+03  0.18800000000E+03 0.  0.
   -5000001    1    1    2    0    0 -0.22450578061E+03 -0.12554253288E+03 -0.12849003703E+03  0.34353669775E+03  0.18800000000E+03 0.  0.
<mgrwt>
<rscale>  0 0.63939587E+03</rscale>
<asrwt>0</asrwt>
<pdfrwt beam="1">  1        2 0.73511705E-01 0.63939587E+03</pdfrwt>
<pdfrwt beam="2">  1       -2 0.28374426E-01 0.63939587E+03</pdfrwt>
<totfact> 0.74131594E+02</totfact>
</mgrwt>
</event>
<event>
 4    1  0.6346694E-005  0.1113354E+04  0.7818608E-02  0.9192273E-01
         -2   -1    0    0    0  501 -0.00000000000E+00  0.00000000000E+00  0.14206081546E+03  0.14206081548E+03  0.25500000000E-02 0. -1.
          2   -1    0    0  501    0  0.00000000000E+00 -0.00000000000E+00 -0.21813839336E+04  0.21813839336E+04  0.25500000000E-02 0.  1.
    5000001    1    1    2    0    0  0.15259835307E+03  0.42248567729E+03 -0.45672462397E+03  0.66762398625E+03  0.18800000000E+03 0.  0.
   -5000001    1    1    2    0    0 -0.15259835307E+03 -0.42248567729E+03 -0.15825984941E+04  0.16558207628E+04  0.18800000000E+03 0.  0.
<mgrwt>
<rscale>  0 0.11133538E+04</rscale>
<asrwt>0</asrwt>
<pdfrwt beam="1">  1        2 0.31162626E+00 0.11133538E+04</pdfrwt>
<pdfrwt beam="2">  1       -2 0.20294404E-01 0.11133538E+04</pdfrwt>
<totfact> 0.13396034E+02</totfact>
</mgrwt>
</event>
<event>
 4    1  0.6346694E-005  0.9869941E+03  0.7818608E-02  0.9322926E-01
         -2   -1    0    0    0  501 -0.00000000000E+00  0.00000000000E+00  0.19992281514E+03  0.19992281516E+03  0.25500000000E-02 0. -1.
          2   -1    0    0  501    0  0.00000000000E+00 -0.00000000000E+00 -0.12181667256E+04  0.12181667256E+04  0.25500000000E-02 0.  1.
    5000001    1    1    2    0    0 -0.22499681250E+03 -0.37768923207E+03 -0.68463578933E+03  0.83507058725E+03  0.18800000000E+03 0.  0.
   -5000001    1    1    2    0    0  0.22499681250E+03  0.37768923207E+03 -0.33360812112E+03  0.58301895350E+03  0.18800000000E+03 0.  0.
<mgrwt>
<rscale>  0 0.98699407E+03</rscale>
<asrwt>0</asrwt>
<pdfrwt beam="1">  1        2 0.17402381E+00 0.98699407E+03</pdfrwt>
<pdfrwt beam="2">  1       -2 0.28560403E-01 0.98699407E+03</pdfrwt>
<totfact> 0.23356843E+02</totfact>
</mgrwt>
</event>
<event>
 4    1  0.6346694E-005  0.4999336E+03  0.7818608E-02  0.1013796E+00
         -2   -1    0    0    0  501 -0.00000000000E+00  0.00000000000E+00  0.25965770125E+03  0.25965770126E+03  0.25500000000E-02 0. -1.
          2   -1    0    0  501    0  0.00000000000E+00 -0.00000000000E+00 -0.24063756822E+03  0.24063756823E+03  0.25500000000E-02 0.  1.
    5000001    1    1    2    0    0  0.13634905896E+03  0.91260075432E+02 -0.53307183039E+01  0.24958342053E+03  0.18800000000E+03 0.  0.
   -5000001    1    1    2    0    0 -0.13634905896E+03 -0.91260075432E+02  0.24350851334E+02  0.25071184896E+03  0.18800000000E+03 0.  0.
<mgrwt>
<rscale>  0 0.49993359E+03</rscale>
<asrwt>0</asrwt>
<pdfrwt beam="1">  1        2 0.34376795E-01 0.49993359E+03</pdfrwt>
<pdfrwt beam="2">  1       -2 0.37093958E-01 0.49993359E+03</pdfrwt>
<totfact> 0.10463698E+03</totfact>
</mgrwt>
</event>
<event>
 4    1  0.6346694E-005  0.9533093E+03  0.7818608E-02  0.9361291E-01
          2   -1    0    0  501    0  0.00000000000E+00  0.00000000000E+00  0.29927850148E+03  0.29927850149E+03  0.25500000000E-02 0.  1.
         -2   -1    0    0    0  501 -0.00000000000E+00 -0.00000000000E+00 -0.75915801647E+03  0.75915801647E+03  0.25500000000E-02 0. -1.
    5000001    1    1    2    0    0  0.27799571026E+03  0.17655717858E+03 -0.55058013776E+03  0.66853312582E+03  0.18800000000E+03 0.  0.
   -5000001    1    1    2    0    0 -0.27799571026E+03 -0.17655717858E+03  0.90700622767E+02  0.38990339214E+03  0.18800000000E+03 0.  0.
<mgrwt>
<rscale>  0 0.95330934E+03</rscale>
<asrwt>0</asrwt>
<pdfrwt beam="1">  1        2 0.42754072E-01 0.95330934E+03</pdfrwt>
<pdfrwt beam="2">  1       -2 0.10845114E+00 0.95330934E+03</pdfrwt>
<totfact> 0.81395642E+01</totfact>
</mgrwt>
</event>
<event>
 4    1  0.6346694E-005  0.6683346E+03  0.7818608E-02  0.9772971E-01
          2   -1    0    0  501    0  0.00000000000E+00  0.00000000000E+00  0.16080330434E+03  0.16080330436E+03  0.25500000000E-02 0.  1.
         -2   -1    0    0    0  501 -0.00000000000E+00 -0.00000000000E+00 -0.69443720434E+03  0.69443720434E+03  0.25500000000E-02 0. -1.
    5000001    1    1    2    0    0  0.25939110557E+03  0.70490421220E+02 -0.34846634128E+03  0.47856602067E+03  0.18800000000E+03 0.  0.
   -5000001    1    1    2    0    0 -0.25939110557E+03 -0.70490421220E+02 -0.18516755872E+03  0.37667448804E+03  0.18800000000E+03 0.  0.
<mgrwt>
<rscale>  0 0.66833464E+03</rscale>
<asrwt>0</asrwt>
<pdfrwt beam="1">  1        2 0.22971901E-01 0.66833464E+03</pdfrwt>
<pdfrwt beam="2">  1       -2 0.99205314E-01 0.66833464E+03</pdfrwt>
<totfact> 0.20560144E+02</totfact>
</mgrwt>
</event>
<event>
 4    1  0.6346694E-005  0.5357271E+03  0.7818608E-02  0.1004853E+00
         -2   -1    0    0    0  501 -0.00000000000E+00  0.00000000000E+00  0.95936259814E+02  0.95936259848E+02  0.25500000000E-02 0. -1.
          2   -1    0    0  501    0  0.00000000000E+00 -0.00000000000E+00 -0.74790155034E+03  0.74790155034E+03  0.25500000000E-02 0.  1.
    5000001    1    1    2    0    0  0.11158943752E+03  0.14736451904E+03 -0.40050415549E+03  0.47949565441E+03  0.18800000000E+03 0.  0.
   -5000001    1    1    2    0    0 -0.11158943752E+03 -0.14736451904E+03 -0.25146113503E+03  0.36434215577E+03  0.18800000000E+03 0.  0.
<mgrwt>
<rscale>  0 0.53572709E+03</rscale>
<asrwt>0</asrwt>
<pdfrwt beam="1">  1        2 0.10684307E+00 0.53572709E+03</pdfrwt>
<pdfrwt beam="2">  1       -2 0.13705180E-01 0.53572709E+03</pdfrwt>
<totfact> 0.16896502E+03</totfact>
</mgrwt>
</event>
<event>
 4    1  0.6346694E-005  0.4675533E+03  0.7818608E-02  0.1022613E+00
         -2   -1    0    0    0  501 -0.00000000000E+00  0.00000000000E+00  0.52672773002E+02  0.52672773063E+02  0.25500000000E-02 0.  1.
          2   -1    0    0  501    0  0.00000000000E+00 -0.00000000000E+00 -0.10375667145E+04  0.10375667145E+04  0.25500000000E-02 0. -1.
    5000001    1    1    2    0    0 -0.96283893474E+01  0.13837546966E+03 -0.51153919097E+03  0.56236715799E+03  0.18800000000E+03 0.  0.
   -5000001    1    1    2    0    0  0.96283893474E+01 -0.13837546966E+03 -0.47335475049E+03  0.52787232954E+03  0.18800000000E+03 0.  0.
<mgrwt>
<rscale>  0 0.46755327E+03</rscale>
<asrwt>0</asrwt>
<pdfrwt beam="1">  1        2 0.14822380E+00 0.46755327E+03</pdfrwt>
<pdfrwt beam="2">  1       -2 0.75246825E-02 0.46755327E+03</pdfrwt>
<totfact> 0.28917030E+03</totfact>
</mgrwt>
</event>
<event>
 4    1  0.6346694E-005  0.6584891E+03  0.7818608E-02  0.9790979E-01
         -2   -1    0    0    0  501 -0.00000000000E+00  0.00000000000E+00  0.83833060790E+02  0.83833060829E+02  0.25500000000E-02 0.  1.
          2   -1    0    0  501    0  0.00000000000E+00 -0.00000000000E+00 -0.12930694523E+04  0.12930694523E+04  0.25500000000E-02 0. -1.
    5000001    1    1    2    0    0 -0.17035977501E+03  0.20462258654E+03 -0.50732219040E+03  0.60300303543E+03  0.18800000000E+03 0.  0.
   -5000001    1    1    2    0    0  0.17035977501E+03 -0.20462258654E+03 -0.70191420107E+03  0.77389947766E+03  0.18800000000E+03 0.  0.
<mgrwt>
<rscale>  0 0.65848909E+03</rscale>
<asrwt>0</asrwt>
<pdfrwt beam="1">  1        2 0.18472420E+00 0.65848909E+03</pdfrwt>
<pdfrwt beam="2">  1       -2 0.11976152E-01 0.65848909E+03</pdfrwt>
<totfact> 0.97585601E+02</totfact>
</mgrwt>
</event>
<event>
 4    1  0.6346694E-005  0.4380038E+03  0.7818608E-02  0.1031361E+00
         -2   -1    0    0    0  501 -0.00000000000E+00  0.00000000000E+00  0.25404733735E+02  0.25404733863E+02  0.25500000000E-02 0. -1.
          2   -1    0    0  501    0  0.00000000000E+00 -0.00000000000E+00 -0.18879094053E+04  0.18879094053E+04  0.25500000000E-02 0.  1.
    5000001    1    1    2    0    0 -0.36925733974E+02  0.10607255281E+03 -0.93874182111E+03  0.96394766611E+03  0.18800000000E+03 0.  0.
   -5000001    1    1    2    0    0  0.36925733974E+02 -0.10607255281E+03 -0.92376285045E+03  0.94936647306E+03  0.18800000000E+03 0.  0.
<mgrwt>
<rscale>  0 0.43800382E+03</rscale>
<asrwt>0</asrwt>
<pdfrwt beam="1">  1        2 0.26970125E+00 0.43800382E+03</pdfrwt>
<pdfrwt beam="2">  1       -2 0.36292489E-02 0.43800382E+03</pdfrwt>
<totfact> 0.31793151E+03</totfact>
</mgrwt>
</event>
<event>
 4    1  0.6346694E-005  0.6330702E+03  0.7818608E-02  0.9839076E-01
         -2   -1    0    0    0  501 -0.00000000000E+00  0.00000000000E+00  0.30789346629E+03  0.30789346630E+03  0.25500000000E-02 0. -1.
          2   -1    0    0  501    0  0.00000000000E+00 -0.00000000000E+00 -0.32541930248E+03  0.32541930249E+03  0.25500000000E-02 0.  1.
    5000001    1    1    2    0    0 -0.15408081276E+03  0.18879439901E+03  0.65199534584E+02  0.31460960136E+03  0.18800000000E+03 0.  0.
   -5000001    1    1    2    0    0  0.15408081276E+03 -0.18879439901E+03 -0.82725370776E+02  0.31870316743E+03  0.18800000000E+03 0.  0.
<mgrwt>
<rscale>  0 0.63307022E+03</rscale>
<asrwt>0</asrwt>
<pdfrwt beam="1">  1        2 0.46488471E-01 0.63307022E+03</pdfrwt>
<pdfrwt beam="2">  1       -2 0.43984781E-01 0.63307022E+03</pdfrwt>
<totfact> 0.53775580E+02</totfact>
</mgrwt>
</event>
<event>
 4    1  0.6346694E-005  0.5309155E+03  0.7818608E-02  0.1006010E+00
         -2   -1    0    0    0  501 -0.00000000000E+00  0.00000000000E+00  0.25011476300E+03  0.25011476301E+03  0.25500000000E-02 0. -1.
          2   -1    0    0  501    0  0.00000000000E+00 -0.00000000000E+00 -0.28174196878E+03  0.28174196879E+03  0.25500000000E-02 0.  1.
    5000001    1    1    2    0    0  0.67945186189E+02  0.17454858008E+03 -0.94722449704E+01  0.26555127294E+03  0.18800000000E+03 0.  0.
   -5000001    1    1    2    0    0 -0.67945186189E+02 -0.17454858008E+03 -0.22154960805E+02  0.26630545887E+03  0.18800000000E+03 0.  0.
<mgrwt>
<rscale>  0 0.53091553E+03</rscale>
<asrwt>0</asrwt>
<pdfrwt beam="1">  1        2 0.40248853E-01 0.53091553E+03</pdfrwt>
<pdfrwt beam="2">  1       -2 0.35730680E-01 0.53091553E+03</pdfrwt>
<totfact> 0.94395020E+02</totfact>
</mgrwt>
</event>
<event>
 4    1  0.6346694E-005  0.4085055E+03  0.7818608E-02  0.1040874E+00
         -2   -1    0    0    0  501 -0.00000000000E+00  0.00000000000E+00  0.15945459385E+02  0.15945459589E+02  0.25500000000E-02 0. -1.
          2   -1    0    0  501    0  0.00000000000E+00 -0.00000000000E+00 -0.26163671487E+04  0.26163671487E+04  0.25500000000E-02 0.  1.
    5000001    1    1    2    0    0  0.45442488645E+02  0.60058480024E+02 -0.11293434716E+04  0.11473590186E+04  0.18800000000E+03 0.  0.
   -5000001    1    1    2    0    0 -0.45442488645E+02 -0.60058480024E+02 -0.14710782177E+04  0.14849535897E+04  0.18800000000E+03 0.  0.
<mgrwt>
<rscale>  0 0.40850545E+03</rscale>
<asrwt>0</asrwt>
<pdfrwt beam="1">  1        2 0.37376646E+00 0.40850545E+03</pdfrwt>
<pdfrwt beam="2">  1       -2 0.22779245E-02 0.40850545E+03</pdfrwt>
<totfact> 0.27709302E+03</totfact>
</mgrwt>
</event>
<event>
 4    1  0.6346694E-005  0.6065924E+03  0.7818608E-02  0.9891822E-01
         -2   -1    0    0    0  501 -0.00000000000E+00  0.00000000000E+00  0.24904739833E+02  0.24904739964E+02  0.25500000000E-02 0. -1.
          2   -1    0    0  501    0  0.00000000000E+00 -0.00000000000E+00 -0.36936181591E+04  0.36936181591E+04  0.25500000000E-02 0.  1.
    5000001    1    1    2    0    0  0.20487118457E+03  0.11603948587E+03 -0.20473516900E+04  0.20694033699E+04  0.18800000000E+03 0.  0.
   -5000001    1    1    2    0    0 -0.20487118457E+03 -0.11603948587E+03 -0.16213617293E+04  0.16491195293E+04  0.18800000000E+03 0.  0.
<mgrwt>
<rscale>  0 0.60659245E+03</rscale>
<asrwt>0</asrwt>
<pdfrwt beam="1">  1        2 0.52765939E+00 0.60659245E+03</pdfrwt>
<pdfrwt beam="2">  1       -2 0.35578223E-02 0.60659245E+03</pdfrwt>
<totfact> 0.34696097E+02</totfact>
</mgrwt>
</event>
<event>
 4    1  0.6346694E-005  0.6634825E+03  0.7818608E-02  0.9781804E-01
          2   -1    0    0  501    0  0.00000000000E+00  0.00000000000E+00  0.12206143569E+04  0.12206143570E+04  0.25500000000E-02 0.  1.
         -2   -1    0    0    0  501 -0.00000000000E+00 -0.00000000000E+00 -0.90161363993E+02  0.90161364029E+02  0.25500000000E-02 0. -1.
    5000001    1    1    2    0    0 -0.11597553343E+03  0.22948712969E+03  0.74836775378E+03  0.81333447114E+03  0.18800000000E+03 0.  0.
   -5000001    1    1    2    0    0  0.11597553343E+03 -0.22948712969E+03  0.38208523918E+03  0.49744124984E+03  0.18800000000E+03 0.  0.
<mgrwt>
<rscale>  0 0.66348250E+03</rscale>
<asrwt>0</asrwt>
<pdfrwt beam="1">  1        2 0.17437346E+00 0.66348250E+03</pdfrwt>
<pdfrwt beam="2">  1       -2 0.12880196E-01 0.66348250E+03</pdfrwt>
<totfact> 0.94851701E+02</totfact>
</mgrwt>
</event>
<event>
 4    1  0.6346694E-005  0.6949680E+03  0.7818608E-02  0.9725876E-01
          2   -1    0    0  501    0  0.00000000000E+00  0.00000000000E+00  0.74576491000E+03  0.74576491001E+03  0.25500000000E-02 0.  1.
         -2   -1    0    0    0  501 -0.00000000000E+00 -0.00000000000E+00 -0.16190778463E+03  0.16190778465E+03  0.25500000000E-02 0. -1.
    5000001    1    1    2    0    0  0.21157583166E+03  0.17607043504E+03  0.42013597786E+03  0.53630529601E+03  0.18800000000E+03 0.  0.
   -5000001    1    1    2    0    0 -0.21157583166E+03 -0.17607043504E+03  0.16372114751E+03  0.37136739865E+03  0.18800000000E+03 0.  0.
<mgrwt>
<rscale>  0 0.69496804E+03</rscale>
<asrwt>0</asrwt>
<pdfrwt beam="1">  1        2 0.10653785E+00 0.69496804E+03</pdfrwt>
<pdfrwt beam="2">  1       -2 0.23129683E-01 0.69496804E+03</pdfrwt>
<totfact> 0.68795524E+02</totfact>
</mgrwt>
</event>
<event>
 4    1  0.6346694E-005  0.6102228E+03  0.7818608E-02  0.9884421E-01
          2   -1    0    0  501    0  0.00000000000E+00  0.00000000000E+00  0.12349052268E+04  0.12349052268E+04  0.25500000000E-02 0.  1.
         -2   -1    0    0    0  501 -0.00000000000E+00 -0.00000000000E+00 -0.75384713318E+02  0.75384713361E+02  0.25500000000E-02 0. -1.
    5000001    1    1    2    0    0  0.13867987398E+03  0.19612725032E+03  0.56443034985E+03  0.64157900963E+03  0.18800000000E+03 0.  0.
   -5000001    1    1    2    0    0 -0.13867987398E+03 -0.19612725032E+03  0.59509016360E+03  0.66871093051E+03  0.18800000000E+03 0.  0.
<mgrwt>
<rscale>  0 0.61022283E+03</rscale>
<asrwt>0</asrwt>
<pdfrwt beam="1">  1        2 0.17641504E+00 0.61022283E+03</pdfrwt>
<pdfrwt beam="2">  1       -2 0.10769244E-01 0.61022283E+03</pdfrwt>
<totfact> 0.12524096E+03</totfact>
</mgrwt>
</event>
<event>
 4    1  0.6346694E-005  0.5153735E+03  0.7818608E-02  0.1009842E+00
          2   -1    0    0  501    0  0.00000000000E+00  0.00000000000E+00  0.11629888188E+03  0.11629888191E+03  0.25500000000E-02 0.  1.
         -2   -1    0    0    0  501 -0.00000000000E+00 -0.00000000000E+00 -0.57096380532E+03  0.57096380532E+03  0.25500000000E-02 0. -1.
    5000001    1    1    2    0    0 -0.10580039846E+03  0.13597396053E+03 -0.27679540188E+03  0.37635400457E+03  0.18800000000E+03 0.  0.
   -5000001    1    1    2    0    0  0.10580039846E+03 -0.13597396053E+03 -0.17786952155E+03  0.31090868266E+03  0.18800000000E+03 0.  0.
<mgrwt>
<rscale>  0 0.51537347E+03</rscale>
<asrwt>0</asrwt>
<pdfrwt beam="1">  1        2 0.16614126E-01 0.51537347E+03</pdfrwt>
<pdfrwt beam="2">  1       -2 0.81566256E-01 0.51537347E+03</pdfrwt>
<totfact> 0.47312146E+02</totfact>
</mgrwt>
</event>
<event>
 4    1  0.6346694E-005  0.7665839E+03  0.7818608E-02  0.9609686E-01
          2   -1    0    0  501    0  0.00000000000E+00  0.00000000000E+00  0.16783910950E+04  0.16783910950E+04  0.25500000000E-02 0.  1.
         -2   -1    0    0    0  501 -0.00000000000E+00 -0.00000000000E+00 -0.87531885473E+02  0.87531885511E+02  0.25500000000E-02 0. -1.
    5000001    1    1    2    0    0 -0.89089929289E+02  0.27210464993E+03  0.39916046485E+03  0.52597626631E+03  0.18800000000E+03 0.  0.
   -5000001    1    1    2    0    0  0.89089929289E+02 -0.27210464993E+03  0.11916987447E+04  0.12399467142E+04  0.18800000000E+03 0.  0.
<mgrwt>
<rscale>  0 0.76658395E+03</rscale>
<asrwt>0</asrwt>
<pdfrwt beam="1">  1        2 0.23977014E+00 0.76658395E+03</pdfrwt>
<pdfrwt beam="2">  1       -2 0.12504556E-01 0.76658395E+03</pdfrwt>
<totfact> 0.56634250E+02</totfact>
</mgrwt>
</event>
<event>
 4    1  0.6346694E-005  0.5780678E+03  0.7818608E-02  0.9951983E-01
         -2   -1    0    0    0  501 -0.00000000000E+00  0.00000000000E+00  0.11644444548E+03  0.11644444551E+03  0.25500000000E-02 0. -1.
          2   -1    0    0  501    0  0.00000000000E+00 -0.00000000000E+00 -0.71742866635E+03  0.71742866636E+03  0.25500000000E-02 0.  1.
    5000001    1    1    2    0    0  0.19344399130E+03  0.99774551661E+02 -0.25915838777E+03  0.38714675368E+03  0.18800000000E+03 0.  0.
   -5000001    1    1    2    0    0 -0.19344399130E+03 -0.99774551661E+02 -0.34182583310E+03  0.44672635819E+03  0.18800000000E+03 0.  0.
<mgrwt>
<rscale>  0 0.57806776E+03</rscale>
<asrwt>0</asrwt>
<pdfrwt beam="1">  1        2 0.10248981E+00 0.57806776E+03</pdfrwt>
<pdfrwt beam="2">  1       -2 0.16634921E-01 0.57806776E+03</pdfrwt>
<totfact> 0.12837936E+03</totfact>
</mgrwt>
</event>
<event>
 4    1  0.6346694E-005  0.6461105E+03  0.7818608E-02  0.9814105E-01
         -2   -1    0    0    0  501 -0.00000000000E+00  0.00000000000E+00  0.24808488055E+03  0.24808488057E+03  0.25500000000E-02 0.  1.
          2   -1    0    0  501    0  0.00000000000E+00 -0.00000000000E+00 -0.42068139205E+03  0.42068139206E+03  0.25500000000E-02 0. -1.
    5000001    1    1    2    0    0  0.21284408109E+03 -0.15360499905E+03 -0.97805380477E+02  0.33735291763E+03  0.18800000000E+03 0.  0.
   -5000001    1    1    2    0    0 -0.21284408109E+03  0.15360499905E+03 -0.74791131020E+02  0.33141335499E+03  0.18800000000E+03 0.  0.
<mgrwt>
<rscale>  0 0.64611049E+03</rscale>
<asrwt>0</asrwt>
<pdfrwt beam="1">  1        2 0.60097341E-01 0.64611049E+03</pdfrwt>
<pdfrwt beam="2">  1       -2 0.35440698E-01 0.64611049E+03</pdfrwt>
<totfact> 0.61453994E+02</totfact>
</mgrwt>
</event>
<event>
 4    1  0.6346694E-005  0.8484798E+03  0.7818608E-02  0.9492380E-01
         -2   -1    0    0    0  501 -0.00000000000E+00  0.00000000000E+00  0.34068783633E+03  0.34068783634E+03  0.25500000000E-02 0. -1.
          2   -1    0    0  501    0  0.00000000000E+00 -0.00000000000E+00 -0.52828266353E+03  0.52828266354E+03  0.25500000000E-02 0.  1.
    5000001    1    1    2    0    0  0.26813955863E+03  0.21685135101E+03 -0.25801993246E+03  0.46993788619E+03  0.18800000000E+03 0.  0.
   -5000001    1    1    2    0    0 -0.26813955863E+03 -0.21685135101E+03  0.70425105250E+02  0.39903261369E+03  0.18800000000E+03 0.  0.
<mgrwt>
<rscale>  0 0.84847976E+03</rscale>
<asrwt>0</asrwt>
<pdfrwt beam="1">  1        2 0.75468953E-01 0.84847976E+03</pdfrwt>
<pdfrwt beam="2">  1       -2 0.48669690E-01 0.84847976E+03</pdfrwt>
<totfact> 0.25307178E+02</totfact>
</mgrwt>
</event>
<event>
 4    1  0.6346694E-005  0.4862307E+03  0.7818608E-02  0.1017437E+00
         -2   -1    0    0    0  501 -0.00000000000E+00  0.00000000000E+00  0.26184416220E+03  0.26184416221E+03  0.25500000000E-02 0. -1.
          2   -1    0    0  501    0  0.00000000000E+00 -0.00000000000E+00 -0.22572613713E+03  0.22572613714E+03  0.25500000000E-02 0.  1.
    5000001    1    1    2    0    0 -0.10581356331E+03 -0.11194663309E+03  0.12341336209E+02  0.24336159808E+03  0.18800000000E+03 0.  0.
   -5000001    1    1    2    0    0  0.10581356331E+03  0.11194663309E+03  0.23776688862E+02  0.24420870127E+03  0.18800000000E+03 0.  0.
<mgrwt>
<rscale>  0 0.48623069E+03</rscale>
<asrwt>0</asrwt>
<pdfrwt beam="1">  1        2 0.32246591E-01 0.48623069E+03</pdfrwt>
<pdfrwt beam="2">  1       -2 0.37406309E-01 0.48623069E+03</pdfrwt>
<totfact> 0.11054497E+03</totfact>
</mgrwt>
</event>
<event>
 4    1  0.6346694E-005  0.6328986E+03  0.7818608E-02  0.9839409E-01
         -2   -1    0    0    0  501 -0.00000000000E+00  0.00000000000E+00  0.19076235544E+03  0.19076235546E+03  0.25500000000E-02 0. -1.
          2   -1    0    0  501    0  0.00000000000E+00 -0.00000000000E+00 -0.52494724247E+03  0.52494724247E+03  0.25500000000E-02 0.  1.
    5000001    1    1    2    0    0 -0.25227433154E+03  0.12089392249E+02 -0.20298993900E+03  0.37461634654E+03  0.18800000000E+03 0.  0.
   -5000001    1    1    2    0    0  0.25227433154E+03 -0.12089392249E+02 -0.13119494802E+03  0.34109325139E+03  0.18800000000E+03 0.  0.
<mgrwt>
<rscale>  0 0.63289864E+03</rscale>
<asrwt>0</asrwt>
<pdfrwt beam="1">  1        2 0.74992463E-01 0.63289864E+03</pdfrwt>
<pdfrwt beam="2">  1       -2 0.27251765E-01 0.63289864E+03</pdfrwt>
<totfact> 0.78011104E+02</totfact>
</mgrwt>
</event>
<event>
 4    1  0.6346694E-005  0.5632761E+03  0.7818608E-02  0.9984669E-01
         -2   -1    0    0    0  501 -0.00000000000E+00  0.00000000000E+00  0.93393242124E+02  0.93393242159E+02  0.25500000000E-02 0. -1.
          2   -1    0    0  501    0  0.00000000000E+00 -0.00000000000E+00 -0.84931189778E+03  0.84931189779E+03  0.25500000000E-02 0.  1.
    5000001    1    1    2    0    0 -0.86739844552E+02  0.14500193967E+03 -0.58582848777E+03  0.63803477980E+03  0.18800000000E+03 0.  0.
   -5000001    1    1    2    0    0  0.86739844552E+02 -0.14500193967E+03 -0.17009016788E+03  0.30467036015E+03  0.18800000000E+03 0.  0.
<mgrwt>
<rscale>  0 0.56327610E+03</rscale>
<asrwt>0</asrwt>
<pdfrwt beam="1">  1        2 0.12133027E+00 0.56327610E+03</pdfrwt>
<pdfrwt beam="2">  1       -2 0.13341892E-01 0.56327610E+03</pdfrwt>
<totfact> 0.15025771E+03</totfact>
</mgrwt>
</event>
<event>
 4    1  0.6346694E-005  0.4361126E+03  0.7818608E-02  0.1031946E+00
          2   -1    0    0  501    0  0.00000000000E+00  0.00000000000E+00  0.71781029894E+02  0.71781029939E+02  0.25500000000E-02 0.  1.
         -2   -1    0    0    0  501 -0.00000000000E+00 -0.00000000000E+00 -0.66241097360E+03  0.66241097361E+03  0.25500000000E-02 0. -1.
    5000001    1    1    2    0    0  0.51967500618E+02  0.91857639158E+02 -0.35028285223E+03  0.41131560092E+03  0.18800000000E+03 0.  0.
   -5000001    1    1    2    0    0 -0.51967500618E+02 -0.91857639158E+02 -0.24034709148E+03  0.32287640263E+03  0.18800000000E+03 0.  0.
<mgrwt>
<rscale>  0 0.43611256E+03</rscale>
<asrwt>0</asrwt>
<pdfrwt beam="1">  1        2 0.10254433E-01 0.43611256E+03</pdfrwt>
<pdfrwt beam="2">  1       -2 0.94630135E-01 0.43611256E+03</pdfrwt>
<totfact> 0.60943726E+02</totfact>
</mgrwt>
</event>
<event>
 4    1  0.6346694E-005  0.7638603E+03  0.7818608E-02  0.9613853E-01
         -2   -1    0    0    0  501 -0.00000000000E+00  0.00000000000E+00  0.41099366666E+03  0.41099366667E+03  0.25500000000E-02 0. -1.
          2   -1    0    0  501    0  0.00000000000E+00 -0.00000000000E+00 -0.35492191014E+03  0.35492191015E+03  0.25500000000E-02 0.  1.
    5000001    1    1    2    0    0 -0.24833566123E+03 -0.19895152248E+03 -0.68526652048E+02  0.37588856191E+03  0.18800000000E+03 0.  0.
   -5000001    1    1    2    0    0  0.24833566123E+03  0.19895152248E+03  0.12459840857E+03  0.39002701490E+03  0.18800000000E+03 0.  0.
<mgrwt>
<rscale>  0 0.76386035E+03</rscale>
<asrwt>0</asrwt>
<pdfrwt beam="1">  1        2 0.50703130E-01 0.76386035E+03</pdfrwt>
<pdfrwt beam="2">  1       -2 0.58713381E-01 0.76386035E+03</pdfrwt>
<totfact> 0.27017296E+02</totfact>
</mgrwt>
</event>
<event>
 4    1  0.6346694E-005  0.4989370E+03  0.7818608E-02  0.1014057E+00
          2   -1    0    0  501    0  0.00000000000E+00  0.00000000000E+00  0.11085839202E+04  0.11085839202E+04  0.25500000000E-02 0.  1.
         -2   -1    0    0    0  501 -0.00000000000E+00 -0.00000000000E+00 -0.56138760743E+02  0.56138760801E+02  0.25500000000E-02 0. -1.
    5000001    1    1    2    0    0 -0.14956955757E+03  0.57966497146E+02  0.60570773429E+03  0.65418424524E+03  0.18800000000E+03 0.  0.
   -5000001    1    1    2    0    0  0.14956955757E+03 -0.57966497146E+02  0.44673742513E+03  0.51053843573E+03  0.18800000000E+03 0.  0.
<mgrwt>
<rscale>  0 0.49893698E+03</rscale>
<asrwt>0</asrwt>
<pdfrwt beam="1">  1        2 0.15836913E+00 0.49893698E+03</pdfrwt>
<pdfrwt beam="2">  1       -2 0.80198230E-02 0.49893698E+03</pdfrwt>
<totfact> 0.23762574E+03</totfact>
</mgrwt>
</event>
<event>
 4    1  0.6346694E-005  0.5335623E+03  0.7818608E-02  0.1005372E+00
         -2   -1    0    0    0  501 -0.00000000000E+00  0.00000000000E+00  0.28609210293E+02  0.28609210407E+02  0.25500000000E-02 0. -1.
          2   -1    0    0  501    0  0.00000000000E+00 -0.00000000000E+00 -0.24877363196E+04  0.24877363196E+04  0.25500000000E-02 0.  1.
    5000001    1    1    2    0    0  0.16724383708E+03 -0.74649591810E+02 -0.14550075321E+04  0.14784904400E+04  0.18800000000E+03 0.  0.
   -5000001    1    1    2    0    0 -0.16724383708E+03  0.74649591810E+02 -0.10041195772E+04  0.10378550900E+04  0.18800000000E+03 0.  0.
<mgrwt>
<rscale>  0 0.53356226E+03</rscale>
<asrwt>0</asrwt>
<pdfrwt beam="1">  1        2 0.35539077E+00 0.53356226E+03</pdfrwt>
<pdfrwt beam="2">  1       -2 0.40870316E-02 0.53356226E+03</pdfrwt>
<totfact> 0.13212094E+03</totfact>
</mgrwt>
</event>
<event>
 4    1  0.6346694E-005  0.5656584E+03  0.7818608E-02  0.9979332E-01
         -2   -1    0    0    0  501 -0.00000000000E+00  0.00000000000E+00  0.46705588612E+02  0.46705588681E+02  0.25500000000E-02 0. -1.
          2   -1    0    0  501    0  0.00000000000E+00 -0.00000000000E+00 -0.17126937491E+04  0.17126937491E+04  0.25500000000E-02 0.  1.
    5000001    1    1    2    0    0 -0.18407719400E+03  0.94928083322E+02 -0.96320681350E+03  0.10029990628E+04  0.18800000000E+03 0.  0.
   -5000001    1    1    2    0    0  0.18407719400E+03 -0.94928083322E+02 -0.70278134697E+03  0.75640027499E+03  0.18800000000E+03 0.  0.
<mgrwt>
<rscale>  0 0.56565845E+03</rscale>
<asrwt>0</asrwt>
<pdfrwt beam="1">  1        2 0.24467050E+00 0.56565845E+03</pdfrwt>
<pdfrwt beam="2">  1       -2 0.66722280E-02 0.56565845E+03</pdfrwt>
<totfact> 0.15137367E+03</totfact>
</mgrwt>
</event>
<event>
 4    1  0.6346694E-005  0.6748860E+03  0.7818608E-02  0.9761171E-01
          2   -1    0    0  501    0  0.00000000000E+00  0.00000000000E+00  0.10052443868E+04  0.10052443868E+04  0.25500000000E-02 0. -1.
         -2   -1    0    0    0  501 -0.00000000000E+00 -0.00000000000E+00 -0.11327374145E+03  0.11327374148E+03  0.25500000000E-02 0.  1.
    5000001    1    1    2    0    0  0.12207290718E+03 -0.19799639418E+03  0.70497371879E+03  0.76579129726E+03  0.18800000000E+03 0.  0.
   -5000001    1    1    2    0    0 -0.12207290718E+03  0.19799639418E+03  0.18699692654E+03  0.35272683101E+03  0.18800000000E+03 0.  0.
<mgrwt>
<rscale>  0 0.67488604E+03</rscale>
<asrwt>0</asrwt>
<pdfrwt beam="1">  1        2 0.14360635E+00 0.67488604E+03</pdfrwt>
<pdfrwt beam="2">  1       -2 0.16181962E-01 0.67488604E+03</pdfrwt>
<totfact> 0.86235709E+02</totfact>
</mgrwt>
</event>
<event>
 4    1  0.6346694E-005  0.5374783E+03  0.7818608E-02  0.1004434E+00
          2   -1    0    0  501    0  0.00000000000E+00  0.00000000000E+00  0.66302987467E+03  0.66302987467E+03  0.25500000000E-02 0.  1.
         -2   -1    0    0    0  501 -0.00000000000E+00 -0.00000000000E+00 -0.10892532014E+03  0.10892532017E+03  0.25500000000E-02 0. -1.
    5000001    1    1    2    0    0  0.79704604424E+00  0.18115757422E+03  0.36854556984E+03  0.45165090394E+03  0.18800000000E+03 0.  0.
   -5000001    1    1    2    0    0 -0.79704604424E+00 -0.18115757422E+03  0.18555898468E+03  0.32030429091E+03  0.18800000000E+03 0.  0.
<mgrwt>
<rscale>  0 0.53747834E+03</rscale>
<asrwt>0</asrwt>
<pdfrwt beam="1">  1        2 0.94718550E-01 0.53747834E+03</pdfrwt>
<pdfrwt beam="2">  1       -2 0.15560761E-01 0.53747834E+03</pdfrwt>
<totfact> 0.15824873E+03</totfact>
</mgrwt>
</event>
<event>
 4    1  0.6346694E-005  0.5450457E+03  0.7818608E-02  0.1002647E+00
          2   -1    0    0  501    0  0.00000000000E+00  0.00000000000E+00  0.91499836533E+03  0.91499836533E+03  0.25500000000E-02 0.  1.
         -2   -1    0    0    0  501 -0.00000000000E+00 -0.00000000000E+00 -0.81168123084E+02  0.81168123124E+02  0.25500000000E-02 0. -1.
    5000001    1    1    2    0    0 -0.15694665378E+03  0.11865184734E+03  0.44366338048E+03  0.52047258159E+03  0.18800000000E+03 0.  0.
   -5000001    1    1    2    0    0  0.15694665378E+03 -0.11865184734E+03  0.39016686176E+03  0.47569390686E+03  0.18800000000E+03 0.  0.
<mgrwt>
<rscale>  0 0.54504569E+03</rscale>
<asrwt>0</asrwt>
<pdfrwt beam="1">  1        2 0.13071405E+00 0.54504569E+03</pdfrwt>
<pdfrwt beam="2">  1       -2 0.11595446E-01 0.54504569E+03</pdfrwt>
<totfact> 0.17163088E+03</totfact>
</mgrwt>
</event>
<event>
 4    1  0.6346694E-005  0.8081819E+03  0.7818608E-02  0.9548249E-01
         -2   -1    0    0    0  501 -0.00000000000E+00  0.00000000000E+00  0.25846922936E+03  0.25846922937E+03  0.25500000000E-02 0. -1.
          2   -1    0    0  501    0  0.00000000000E+00 -0.00000000000E+00 -0.63175609766E+03  0.63175609767E+03  0.25500000000E-02 0.  1.
    5000001    1    1    2    0    0  0.29784802123E+03  0.19804780955E+03 -0.18997232699E+03  0.44650852583E+03  0.18800000000E+03 0.  0.
   -5000001    1    1    2    0    0 -0.29784802123E+03 -0.19804780955E+03 -0.18331454131E+03  0.44371680121E+03  0.18800000000E+03 0.  0.
<mgrwt>
<rscale>  0 0.80818194E+03</rscale>
<asrwt>0</asrwt>
<pdfrwt beam="1">  1        2 0.90250870E-01 0.80818194E+03</pdfrwt>
<pdfrwt beam="2">  1       -2 0.36924176E-01 0.80818194E+03</pdfrwt>
<totfact> 0.35394422E+02</totfact>
</mgrwt>
</event>
<event>
 4    1  0.6346694E-005  0.6279161E+03  0.7818608E-02  0.9849124E-01
         -2   -1    0    0    0  501 -0.00000000000E+00  0.00000000000E+00  0.13033411154E+03  0.13033411156E+03  0.25500000000E-02 0. -1.
          2   -1    0    0  501    0  0.00000000000E+00 -0.00000000000E+00 -0.75628435646E+03  0.75628435646E+03  0.25500000000E-02 0.  1.
    5000001    1    1    2    0    0  0.25126976198E+03 -0.23665887864E+01 -0.32588205657E+03  0.45242149466E+03  0.18800000000E+03 0.  0.
   -5000001    1    1    2    0    0 -0.25126976198E+03  0.23665887864E+01 -0.30006818835E+03  0.43419697337E+03  0.18800000000E+03 0.  0.
<mgrwt>
<rscale>  0 0.62791608E+03</rscale>
<asrwt>0</asrwt>
<pdfrwt beam="1">  1        2 0.10804062E+00 0.62791608E+03</pdfrwt>
<pdfrwt beam="2">  1       -2 0.18619159E-01 0.62791608E+03</pdfrwt>
<totfact> 0.99040015E+02</totfact>
</mgrwt>
</event>
<event>
 4    1  0.6346694E-005  0.4929033E+03  0.7818608E-02  0.1015648E+00
          2   -1    0    0  501    0  0.00000000000E+00  0.00000000000E+00  0.10874365271E+04  0.10874365271E+04  0.25500000000E-02 0.  1.
         -2   -1    0    0    0  501 -0.00000000000E+00 -0.00000000000E+00 -0.55854682009E+02  0.55854682067E+02  0.25500000000E-02 0. -1.
    5000001    1    1    2    0    0 -0.61138120938E+02  0.14600468051E+03  0.55850916472E+03  0.61018990785E+03  0.18800000000E+03 0.  0.
   -5000001    1    1    2    0    0  0.61138120938E+02 -0.14600468051E+03  0.47307268039E+03  0.53310130134E+03  0.18800000000E+03 0.  0.
<mgrwt>
<rscale>  0 0.49290332E+03</rscale>
<asrwt>0</asrwt>
<pdfrwt beam="1">  1        2 0.15534806E+00 0.49290332E+03</pdfrwt>
<pdfrwt beam="2">  1       -2 0.79792409E-02 0.49290332E+03</pdfrwt>
<totfact> 0.24639225E+03</totfact>
</mgrwt>
</event>
<event>
 4    1  0.6346694E-005  0.6445373E+03  0.7818608E-02  0.9817084E-01
          2   -1    0    0  501    0  0.00000000000E+00  0.00000000000E+00  0.56529316649E+03  0.56529316649E+03  0.25500000000E-02 0.  1.
         -2   -1    0    0    0  501 -0.00000000000E+00 -0.00000000000E+00 -0.18372251196E+03  0.18372251198E+03  0.25500000000E-02 0. -1.
    5000001    1    1    2    0    0  0.77070024209E+01  0.24124901364E+03  0.73116945291E+02  0.31456409865E+03  0.18800000000E+03 0.  0.
   -5000001    1    1    2    0    0 -0.77070024209E+01 -0.24124901364E+03  0.30845370923E+03  0.43445157982E+03  0.18800000000E+03 0.  0.
<mgrwt>
<rscale>  0 0.64453729E+03</rscale>
<asrwt>0</asrwt>
<pdfrwt beam="1">  1        2 0.80756165E-01 0.64453729E+03</pdfrwt>
<pdfrwt beam="2">  1       -2 0.26246074E-01 0.64453729E+03</pdfrwt>
<totfact> 0.76650938E+02</totfact>
</mgrwt>
</event>
<event>
 4    1  0.6346694E-005  0.5638188E+03  0.7818608E-02  0.9983451E-01
         -2   -1    0    0    0  501 -0.00000000000E+00  0.00000000000E+00  0.11966185585E+03  0.11966185588E+03  0.25500000000E-02 0. -1.
          2   -1    0    0  501    0  0.00000000000E+00 -0.00000000000E+00 -0.66414571384E+03  0.66414571385E+03  0.25500000000E-02 0.  1.
    5000001    1    1    2    0    0  0.16119111359E+03  0.10698760450E+03 -0.15845120690E+03  0.31285732784E+03  0.18800000000E+03 0.  0.
   -5000001    1    1    2    0    0 -0.16119111359E+03 -0.10698760450E+03 -0.38603265110E+03  0.47095024188E+03  0.18800000000E+03 0.  0.
<mgrwt>
<rscale>  0 0.56381880E+03</rscale>
<asrwt>0</asrwt>
<pdfrwt beam="1">  1        2 0.94877957E-01 0.56381880E+03</pdfrwt>
<pdfrwt beam="2">  1       -2 0.17094551E-01 0.56381880E+03</pdfrwt>
<totfact> 0.13464008E+03</totfact>
</mgrwt>
</event>
<event>
 4    1  0.6346694E-005  0.4371139E+03  0.7818608E-02  0.1031636E+00
          2   -1    0    0  501    0  0.00000000000E+00  0.00000000000E+00  0.25155609481E+04  0.25155609481E+04  0.25500000000E-02 0.  1.
         -2   -1    0    0    0  501 -0.00000000000E+00 -0.00000000000E+00 -0.18988663453E+02  0.18988663624E+02  0.25500000000E-02 0. -1.
    5000001    1    1    2    0    0  0.10519058548E+03  0.20053798674E+01  0.10349202113E+04  0.10571059193E+04  0.18800000000E+03 0.  0.
   -5000001    1    1    2    0    0 -0.10519058548E+03 -0.20053798674E+01  0.14616520733E+04  0.14774436924E+04  0.18800000000E+03 0.  0.
<mgrwt>
<rscale>  0 0.43711390E+03</rscale>
<asrwt>0</asrwt>
<pdfrwt beam="1">  1        2 0.35936584E+00 0.43711390E+03</pdfrwt>
<pdfrwt beam="2">  1       -2 0.27126663E-02 0.43711390E+03</pdfrwt>
<totfact> 0.23970974E+03</totfact>
</mgrwt>
</event>
<event>
 4    1  0.6346694E-005  0.6286982E+03  0.7818608E-02  0.9847592E-01
          2   -1    0    0  501    0  0.00000000000E+00  0.00000000000E+00  0.21218763198E+03  0.21218763199E+03  0.25500000000E-02 0.  1.
         -2   -1    0    0    0  501 -0.00000000000E+00 -0.00000000000E+00 -0.46569803679E+03  0.46569803680E+03  0.25500000000E-02 0. -1.
    5000001    1    1    2    0    0  0.31034911703E+00  0.19125755967E+03  0.50061897534E+02  0.27281815195E+03  0.18800000000E+03 0.  0.
   -5000001    1    1    2    0    0 -0.31034911703E+00 -0.19125755967E+03 -0.30357230234E+03  0.40506751684E+03  0.18800000000E+03 0.  0.
<mgrwt>
<rscale>  0 0.62869822E+03</rscale>
<asrwt>0</asrwt>
<pdfrwt beam="1">  1        2 0.30312519E-01 0.62869822E+03</pdfrwt>
<pdfrwt beam="2">  1       -2 0.66528291E-01 0.62869822E+03</pdfrwt>
<totfact> 0.36865481E+02</totfact>
</mgrwt>
</event>
<event>
 4    1  0.6346694E-005  0.6132538E+03  0.7818608E-02  0.9878284E-01
         -2   -1    0    0    0  501 -0.00000000000E+00  0.00000000000E+00  0.10279027817E+03  0.10279027820E+03  0.25500000000E-02 0. -1.
          2   -1    0    0  501    0  0.00000000000E+00 -0.00000000000E+00 -0.91467861720E+03  0.91467861720E+03  0.25500000000E-02 0.  1.
    5000001    1    1    2    0    0 -0.19654374838E+03  0.12981777296E+03 -0.49971036587E+03  0.58355509505E+03  0.18800000000E+03 0.  0.
   -5000001    1    1    2    0    0  0.19654374838E+03 -0.12981777296E+03 -0.31217797316E+03  0.43391380035E+03  0.18800000000E+03 0.  0.
<mgrwt>
<rscale>  0 0.61325384E+03</rscale>
<asrwt>0</asrwt>
<pdfrwt beam="1">  1        2 0.13066837E+00 0.61325384E+03</pdfrwt>
<pdfrwt beam="2">  1       -2 0.14684326E-01 0.61325384E+03</pdfrwt>
<totfact> 0.11594361E+03</totfact>
</mgrwt>
</event>
<event>
 4    1  0.6346694E-005  0.5591711E+03  0.7818608E-02  0.9993932E-01
         -2   -1    0    0    0  501 -0.00000000000E+00  0.00000000000E+00  0.13348000911E+03  0.13348000914E+03  0.25500000000E-02 0. -1.
          2   -1    0    0  501    0  0.00000000000E+00 -0.00000000000E+00 -0.58561628093E+03  0.58561628093E+03  0.25500000000E-02 0.  1.
    5000001    1    1    2    0    0  0.70811310484E+02  0.17704218566E+03 -0.32947669842E+03  0.42456692287E+03  0.18800000000E+03 0.  0.
   -5000001    1    1    2    0    0 -0.70811310484E+02 -0.17704218566E+03 -0.12265957340E+03  0.29452936720E+03  0.18800000000E+03 0.  0.
<mgrwt>
<rscale>  0 0.55917105E+03</rscale>
<asrwt>0</asrwt>
<pdfrwt beam="1">  1        2 0.83659467E-01 0.55917105E+03</pdfrwt>
<pdfrwt beam="2">  1       -2 0.19068573E-01 0.55917105E+03</pdfrwt>
<totfact> 0.12955643E+03</totfact>
</mgrwt>
</event>
<event>
 4    1  0.6346694E-005  0.1026224E+04  0.7818608E-02  0.9280241E-01
         -2   -1    0    0    0  501 -0.00000000000E+00  0.00000000000E+00  0.81946585957E+02  0.81946585997E+02  0.25500000000E-02 0.  1.
          2   -1    0    0  501    0  0.00000000000E+00 -0.00000000000E+00 -0.32128724875E+04  0.32128724875E+04  0.25500000000E-02 0. -1.
    5000001    1    1    2    0    0 -0.57251091865E+02 -0.42878196685E+03 -0.22140428498E+04  0.22637273253E+04  0.18800000000E+03 0.  0.
   -5000001    1    1    2    0    0  0.57251091865E+02  0.42878196685E+03 -0.91688305177E+03  0.10310917482E+04  0.18800000000E+03 0.  0.
<mgrwt>
<rscale>  0 0.10262240E+04</rscale>
<asrwt>0</asrwt>
<pdfrwt beam="1">  1        2 0.45898171E+00 0.10262240E+04</pdfrwt>
<pdfrwt beam="2">  1       -2 0.11706657E-01 0.10262240E+04</pdfrwt>
<totfact> 0.96746106E+01</totfact>
</mgrwt>
</event>
<event>
 4    1  0.6346694E-005  0.1041518E+04  0.7818608E-02  0.9264146E-01
          2   -1    0    0  501    0  0.00000000000E+00  0.00000000000E+00  0.24876013025E+04  0.24876013025E+04  0.25500000000E-02 0.  1.
         -2   -1    0    0    0  501 -0.00000000000E+00 -0.00000000000E+00 -0.10901654871E+03  0.10901654874E+03  0.25500000000E-02 0. -1.
    5000001    1    1    2    0    0  0.76293511499E+02 -0.41730383012E+03  0.17786507253E+04  0.18381799664E+04  0.18800000000E+03 0.  0.
   -5000001    1    1    2    0    0 -0.76293511499E+02  0.41730383012E+03  0.59993402853E+03  0.75843788481E+03  0.18800000000E+03 0.  0.
<mgrwt>
<rscale>  0 0.10415176E+04</rscale>
<asrwt>0</asrwt>
<pdfrwt beam="1">  1        2 0.35537166E+00 0.10415176E+04</pdfrwt>
<pdfrwt beam="2">  1       -2 0.15573791E-01 0.10415176E+04</pdfrwt>
<totfact> 0.14804701E+02</totfact>
</mgrwt>
</event>
<event>
 4    1  0.6346694E-005  0.6087965E+03  0.7818608E-02  0.9887322E-01
         -2   -1    0    0    0  501 -0.00000000000E+00  0.00000000000E+00  0.10012340919E+03  0.10012340922E+03  0.25500000000E-02 0. -1.
          2   -1    0    0  501    0  0.00000000000E+00 -0.00000000000E+00 -0.92544088034E+03  0.92544088034E+03  0.25500000000E-02 0.  1.
    5000001    1    1    2    0    0  0.21058940978E+03 -0.10923503153E+03 -0.46683049231E+03  0.55637658126E+03  0.18800000000E+03 0.  0.
   -5000001    1    1    2    0    0 -0.21058940978E+03  0.10923503153E+03 -0.35848697883E+03  0.46918770830E+03  0.18800000000E+03 0.  0.
<mgrwt>
<rscale>  0 0.60879650E+03</rscale>
<asrwt>0</asrwt>
<pdfrwt beam="1">  1        2 0.13220583E+00 0.60879650E+03</pdfrwt>
<pdfrwt beam="2">  1       -2 0.14303345E-01 0.60879650E+03</pdfrwt>
<totfact> 0.11928318E+03</totfact>
</mgrwt>
</event>
<event>
 4    1  0.6346694E-005  0.6252253E+03  0.7818608E-02  0.9854411E-01
          2   -1    0    0  501    0  0.00000000000E+00  0.00000000000E+00  0.15203736396E+04  0.15203736396E+04  0.25500000000E-02 0.  1.
         -2   -1    0    0    0  501 -0.00000000000E+00 -0.00000000000E+00 -0.64278059456E+02  0.64278059507E+02  0.25500000000E-02 0. -1.
    5000001    1    1    2    0    0 -0.74351354498E+02  0.18087769771E+03  0.11218209758E+04  0.11541538750E+04  0.18800000000E+03 0.  0.
   -5000001    1    1    2    0    0  0.74351354498E+02 -0.18087769771E+03  0.33427460433E+03  0.43049782408E+03  0.18800000000E+03 0.  0.
<mgrwt>
<rscale>  0 0.62522529E+03</rscale>
<asrwt>0</asrwt>
<pdfrwt beam="1">  1        2 0.21719621E+00 0.62522529E+03</pdfrwt>
<pdfrwt beam="2">  1       -2 0.91825811E-02 0.62522529E+03</pdfrwt>
<totfact> 0.11400985E+03</totfact>
</mgrwt>
</event>
<event>
 4    1  0.6346694E-005  0.3973406E+03  0.7818608E-02  0.1044704E+00
          2   -1    0    0  501    0  0.00000000000E+00  0.00000000000E+00  0.36176066812E+03  0.36176066813E+03  0.25500000000E-02 0.  1.
         -2   -1    0    0    0  501 -0.00000000000E+00 -0.00000000000E+00 -0.10910496924E+03  0.10910496927E+03  0.25500000000E-02 0. -1.
    5000001    1    1    2    0    0  0.38159592903E+02  0.42288018126E+02  0.91144735411E+02  0.21655436685E+03  0.18800000000E+03 0.  0.
   -5000001    1    1    2    0    0 -0.38159592903E+02 -0.42288018126E+02  0.16151096347E+03  0.25431127055E+03  0.18800000000E+03 0.  0.
<mgrwt>
<rscale>  0 0.39734059E+03</rscale>
<asrwt>0</asrwt>
<pdfrwt beam="1">  1        2 0.51680095E-01 0.39734059E+03</pdfrwt>
<pdfrwt beam="2">  1       -2 0.15586424E-01 0.39734059E+03</pdfrwt>
<totfact> 0.31249372E+03</totfact>
</mgrwt>
</event>
<event>
 4    1  0.6346694E-005  0.6208005E+03  0.7818608E-02  0.9863167E-01
          2   -1    0    0  501    0  0.00000000000E+00  0.00000000000E+00  0.34699499228E+04  0.34699499228E+04  0.25500000000E-02 0.  1.
         -2   -1    0    0    0  501 -0.00000000000E+00 -0.00000000000E+00 -0.27766483696E+02  0.27766483813E+02  0.25500000000E-02 0. -1.
    5000001    1    1    2    0    0 -0.18143601403E+03  0.80250103908E+02  0.89217028189E+03  0.93309748594E+03  0.18800000000E+03 0.  0.
   -5000001    1    1    2    0    0  0.18143601403E+03 -0.80250103908E+02  0.25500131572E+04  0.25646189207E+04  0.18800000000E+03 0.  0.
<mgrwt>
<rscale>  0 0.62080048E+03</rscale>
<asrwt>0</asrwt>
<pdfrwt beam="1">  1        2 0.49570733E+00 0.62080048E+03</pdfrwt>
<pdfrwt beam="2">  1       -2 0.39666389E-02 0.62080048E+03</pdfrwt>
<totfact> 0.40025698E+02</totfact>
</mgrwt>
</event>
<event>
 4    1  0.6346694E-005  0.6523448E+03  0.7818608E-02  0.9802389E-01
         -2   -1    0    0    0  501 -0.00000000000E+00  0.00000000000E+00  0.37261899069E+02  0.37261899156E+02  0.25500000000E-02 0. -1.
          2   -1    0    0  501    0  0.00000000000E+00 -0.00000000000E+00 -0.28551536872E+04  0.28551536872E+04  0.25500000000E-02 0.  1.
    5000001    1    1    2    0    0 -0.85207159446E+02 -0.25172652577E+03 -0.14995907055E+04  0.15345171188E+04  0.18800000000E+03 0.  0.
   -5000001    1    1    2    0    0  0.85207159446E+02  0.25172652577E+03 -0.13183010827E+04  0.13578984676E+04  0.18800000000E+03 0.  0.
<mgrwt>
<rscale>  0 0.65234484E+03</rscale>
<asrwt>0</asrwt>
<pdfrwt beam="1">  1        2 0.40787896E+00 0.65234484E+03</pdfrwt>
<pdfrwt beam="2">  1       -2 0.53231303E-02 0.65234484E+03</pdfrwt>
<totfact> 0.55933742E+02</totfact>
</mgrwt>
</event>
<event>
 4    1  0.6346694E-005  0.8916096E+03  0.7818608E-02  0.9436131E-01
         -2   -1    0    0    0  501 -0.00000000000E+00  0.00000000000E+00  0.73650132911E+03  0.73650132912E+03  0.25500000000E-02 0. -1.
          2   -1    0    0  501    0  0.00000000000E+00 -0.00000000000E+00 -0.26984596718E+03  0.26984596719E+03  0.25500000000E-02 0.  1.
    5000001    1    1    2    0    0 -0.37202900289E+03 -0.15553001639E+03  0.26530653576E+03  0.51800262828E+03  0.18800000000E+03 0.  0.
   -5000001    1    1    2    0    0  0.37202900289E+03  0.15553001639E+03  0.20134882617E+03  0.48834466803E+03  0.18800000000E+03 0.  0.
<mgrwt>
<rscale>  0 0.89160959E+03</rscale>
<asrwt>0</asrwt>
<pdfrwt beam="1">  1        2 0.38549424E-01 0.89160959E+03</pdfrwt>
<pdfrwt beam="2">  1       -2 0.10521447E+00 0.89160959E+03</pdfrwt>
<totfact> 0.98558936E+01</totfact>
</mgrwt>
</event>
<event>
 4    1  0.6346694E-005  0.5218718E+03  0.7818608E-02  0.1008223E+00
          2   -1    0    0  501    0  0.00000000000E+00  0.00000000000E+00  0.46084391947E+03  0.46084391948E+03  0.25500000000E-02 0.  1.
         -2   -1    0    0    0  501 -0.00000000000E+00 -0.00000000000E+00 -0.14774537262E+03  0.14774537264E+03  0.25500000000E-02 0. -1.
    5000001    1    1    2    0    0  0.11371777624E+03 -0.10705052532E+03  0.26312441385E+03  0.35912394067E+03  0.18800000000E+03 0.  0.
   -5000001    1    1    2    0    0 -0.11371777624E+03  0.10705052532E+03  0.49974133003E+02  0.24946535145E+03  0.18800000000E+03 0.  0.
<mgrwt>
<rscale>  0 0.52187185E+03</rscale>
<asrwt>0</asrwt>
<pdfrwt beam="1">  1        2 0.65834845E-01 0.52187185E+03</pdfrwt>
<pdfrwt beam="2">  1       -2 0.21106482E-01 0.52187185E+03</pdfrwt>
<totfact> 0.14277873E+03</totfact>
</mgrwt>
</event>
<event>
 4    1  0.6346694E-005  0.6593725E+03  0.7818608E-02  0.9789350E-01
         -2   -1    0    0    0  501 -0.00000000000E+00  0.00000000000E+00  0.54102469272E+03  0.54102469272E+03  0.25500000000E-02 0. -1.
          2   -1    0    0  501    0  0.00000000000E+00 -0.00000000000E+00 -0.20090216450E+03  0.20090216452E+03  0.25500000000E-02 0.  1.
    5000001    1    1    2    0    0 -0.14252914722E+03  0.63573233052E+02  0.41911720115E+03  0.48513847721E+03  0.18800000000E+03 0.  0.
   -5000001    1    1    2    0    0  0.14252914722E+03 -0.63573233052E+02 -0.78994672933E+02  0.25678838003E+03  0.18800000000E+03 0.  0.
<mgrwt>
<rscale>  0 0.65937253E+03</rscale>
<asrwt>0</asrwt>
<pdfrwt beam="1">  1        2 0.28700309E-01 0.65937253E+03</pdfrwt>
<pdfrwt beam="2">  1       -2 0.77289241E-01 0.65937253E+03</pdfrwt>
<totfact> 0.28224030E+02</totfact>
</mgrwt>
</event>
<event>
 4    1  0.6346694E-005  0.8868814E+03  0.7818608E-02  0.9442130E-01
          2   -1    0    0  501    0  0.00000000000E+00  0.00000000000E+00  0.32054109745E+03  0.32054109746E+03  0.25500000000E-02 0.  1.
         -2   -1    0    0    0  501 -0.00000000000E+00 -0.00000000000E+00 -0.61346166691E+03  0.61346166692E+03  0.25500000000E-02 0. -1.
    5000001    1    1    2    0    0 -0.13779381308E+03 -0.27935673634E+03 -0.41344179327E+03  0.55073172914E+03  0.18800000000E+03 0.  0.
   -5000001    1    1    2    0    0  0.13779381308E+03  0.27935673634E+03  0.12052122381E+03  0.38327103524E+03  0.18800000000E+03 0.  0.
<mgrwt>
<rscale>  0 0.88688145E+03</rscale>
<asrwt>0</asrwt>
<pdfrwt beam="1">  1        2 0.45791585E-01 0.88688145E+03</pdfrwt>
<pdfrwt beam="2">  1       -2 0.87637381E-01 0.88688145E+03</pdfrwt>
<totfact> 0.12499777E+02</totfact>
</mgrwt>
</event>
<event>
 4    1  0.6346694E-005  0.4866138E+03  0.7818608E-02  0.1017333E+00
          2   -1    0    0  501    0  0.00000000000E+00  0.00000000000E+00  0.17053627283E+04  0.17053627283E+04  0.25500000000E-02 0.  1.
         -2   -1    0    0    0  501 -0.00000000000E+00 -0.00000000000E+00 -0.34712999682E+02  0.34712999775E+02  0.25500000000E-02 0. -1.
    5000001    1    1    2    0    0  0.11462097580E+03 -0.82625719527E+02  0.61231801176E+03  0.65592859760E+03  0.18800000000E+03 0.  0.
   -5000001    1    1    2    0    0 -0.11462097580E+03  0.82625719527E+02  0.10583317169E+04  0.10841471305E+04  0.18800000000E+03 0.  0.
<mgrwt>
<rscale>  0 0.48661383E+03</rscale>
<asrwt>0</asrwt>
<pdfrwt beam="1">  1        2 0.24362328E+00 0.48661383E+03</pdfrwt>
<pdfrwt beam="2">  1       -2 0.49589994E-02 0.48661383E+03</pdfrwt>
<totfact> 0.24303801E+03</totfact>
</mgrwt>
</event>
<event>
 4    1  0.6346694E-005  0.9622837E+03  0.7818608E-02  0.9350907E-01
         -2   -1    0    0    0  501 -0.00000000000E+00  0.00000000000E+00  0.47559937424E+02  0.47559937492E+02  0.25500000000E-02 0. -1.
          2   -1    0    0  501    0  0.00000000000E+00 -0.00000000000E+00 -0.48674886525E+04  0.48674886525E+04  0.25500000000E-02 0.  1.
    5000001    1    1    2    0    0 -0.10611048354E+03  0.15372052200E+03 -0.35883310167E+03  0.44608813978E+03  0.18800000000E+03 0.  0.
   -5000001    1    1    2    0    0  0.10611048354E+03 -0.15372052200E+03 -0.44610956134E+04  0.44689604502E+04  0.18800000000E+03 0.  0.
<mgrwt>
<rscale>  0 0.96228365E+03</rscale>
<asrwt>0</asrwt>
<pdfrwt beam="1">  1        2 0.69535520E+00 0.96228365E+03</pdfrwt>
<pdfrwt beam="2">  1       -2 0.67942799E-02 0.96228365E+03</pdfrwt>
<totfact> 0.16400750E+01</totfact>
</mgrwt>
</event>
<event>
 4    1  0.6346694E-005  0.5538766E+03  0.7818608E-02  0.1000601E+00
          2   -1    0    0  501    0  0.00000000000E+00  0.00000000000E+00  0.11413946731E+04  0.11413946731E+04  0.25500000000E-02 0.  1.
         -2   -1    0    0    0  501 -0.00000000000E+00 -0.00000000000E+00 -0.67193962436E+02  0.67193962485E+02  0.25500000000E-02 0. -1.
    5000001    1    1    2    0    0 -0.16839090847E+03  0.92742764140E+02  0.68174456330E+03  0.73285494332E+03  0.18800000000E+03 0.  0.
   -5000001    1    1    2    0    0  0.16839090847E+03 -0.92742764140E+02  0.39245614735E+03  0.47573369225E+03  0.18800000000E+03 0.  0.
<mgrwt>
<rscale>  0 0.55387663E+03</rscale>
<asrwt>0</asrwt>
<pdfrwt beam="1">  1        2 0.16305636E+00 0.55387663E+03</pdfrwt>
<pdfrwt beam="2">  1       -2 0.95991389E-02 0.55387663E+03</pdfrwt>
<totfact> 0.17057341E+03</totfact>
</mgrwt>
</event>
<event>
 4    1  0.6346694E-005  0.9288547E+03  0.7818608E-02  0.9390213E-01
          2   -1    0    0  501    0  0.00000000000E+00  0.00000000000E+00  0.10102475140E+04  0.10102475140E+04  0.25500000000E-02 0. -1.
         -2   -1    0    0    0  501 -0.00000000000E+00 -0.00000000000E+00 -0.21350487801E+03  0.21350487803E+03  0.25500000000E-02 0.  1.
    5000001    1    1    2    0    0  0.29283096741E+03  0.16091653181E+03  0.53037683057E+02  0.38704147259E+03  0.18800000000E+03 0.  0.
   -5000001    1    1    2    0    0 -0.29283096741E+03 -0.16091653181E+03  0.74370495290E+03  0.83671091940E+03  0.18800000000E+03 0.  0.
<mgrwt>
<rscale>  0 0.92885472E+03</rscale>
<asrwt>0</asrwt>
<pdfrwt beam="1">  1        2 0.14432108E+00 0.92885472E+03</pdfrwt>
<pdfrwt beam="2">  1       -2 0.30500696E-01 0.92885472E+03</pdfrwt>
<totfact> 0.27477049E+02</totfact>
</mgrwt>
</event>
<event>
 4    1  0.6346694E-005  0.4675504E+03  0.7818608E-02  0.1022614E+00
         -2   -1    0    0    0  501 -0.00000000000E+00  0.00000000000E+00  0.20451716093E+02  0.20451716252E+02  0.25500000000E-02 0. -1.
          2   -1    0    0  501    0  0.00000000000E+00 -0.00000000000E+00 -0.26721882691E+04  0.26721882691E+04  0.25500000000E-02 0.  1.
    5000001    1    1    2    0    0  0.23106511231E+02  0.12970333881E+03 -0.10715580921E+04  0.10958729907E+04  0.18800000000E+03 0.  0.
   -5000001    1    1    2    0    0 -0.23106511231E+02 -0.12970333881E+03 -0.15801784609E+04  0.15967669946E+04  0.18800000000E+03 0.  0.
<mgrwt>
<rscale>  0 0.46755037E+03</rscale>
<asrwt>0</asrwt>
<pdfrwt beam="1">  1        2 0.38174096E+00 0.46755037E+03</pdfrwt>
<pdfrwt beam="2">  1       -2 0.29216754E-02 0.46755037E+03</pdfrwt>
<totfact> 0.17781026E+03</totfact>
</mgrwt>
</event>
<event>
 4    1  0.6346694E-005  0.7545912E+03  0.7818608E-02  0.9628175E-01
          2   -1    0    0  501    0  0.00000000000E+00  0.00000000000E+00  0.71220891072E+03  0.71220891072E+03  0.25500000000E-02 0.  1.
         -2   -1    0    0    0  501 -0.00000000000E+00 -0.00000000000E+00 -0.19987389157E+03  0.19987389159E+03  0.25500000000E-02 0. -1.
    5000001    1    1    2    0    0  0.16943608439E+03 -0.23756755781E+03  0.77453787764E+02  0.35565435532E+03  0.18800000000E+03 0.  0.
   -5000001    1    1    2    0    0 -0.16943608439E+03  0.23756755781E+03  0.43488123138E+03  0.55642844699E+03  0.18800000000E+03 0.  0.
<mgrwt>
<rscale>  0 0.75459119E+03</rscale>
<asrwt>0</asrwt>
<pdfrwt beam="1">  1        2 0.10174413E+00 0.75459119E+03</pdfrwt>
<pdfrwt beam="2">  1       -2 0.28553413E-01 0.75459119E+03</pdfrwt>
<totfact> 0.49678478E+02</totfact>
</mgrwt>
</event>
<event>
 4    1  0.6346694E-005  0.4939811E+03  0.7818608E-02  0.1015362E+00
          2   -1    0    0  501    0  0.00000000000E+00  0.00000000000E+00  0.14694705359E+04  0.14694705359E+04  0.25500000000E-02 0.  1.
         -2   -1    0    0    0  501 -0.00000000000E+00 -0.00000000000E+00 -0.41514493975E+02  0.41514494054E+02  0.25500000000E-02 0. -1.
    5000001    1    1    2    0    0  0.12740523049E+03  0.96680034983E+02  0.68641427995E+03  0.72944340811E+03  0.18800000000E+03 0.  0.
   -5000001    1    1    2    0    0 -0.12740523049E+03 -0.96680034983E+02  0.74154176197E+03  0.78154162183E+03  0.18800000000E+03 0.  0.
<mgrwt>
<rscale>  0 0.49398108E+03</rscale>
<asrwt>0</asrwt>
<pdfrwt beam="1">  1        2 0.20992434E+00 0.49398108E+03</pdfrwt>
<pdfrwt beam="2">  1       -2 0.59306425E-02 0.49398108E+03</pdfrwt>
<totfact> 0.24308617E+03</totfact>
</mgrwt>
</event>
<event>
 4    1  0.6346694E-005  0.5649186E+03  0.7818608E-02  0.9980986E-01
          2   -1    0    0  501    0  0.00000000000E+00  0.00000000000E+00  0.32381080506E+03  0.32381080507E+03  0.25500000000E-02 0.  1.
         -2   -1    0    0    0  501 -0.00000000000E+00 -0.00000000000E+00 -0.24638849274E+03  0.24638849276E+03  0.25500000000E-02 0. -1.
    5000001    1    1    2    0    0  0.13206113279E+03  0.16431397732E+03  0.38886748042E+02  0.28512349098E+03  0.18800000000E+03 0.  0.
   -5000001    1    1    2    0    0 -0.13206113279E+03 -0.16431397732E+03  0.38535564277E+02  0.28507580685E+03  0.18800000000E+03 0.  0.
<mgrwt>
<rscale>  0 0.56491860E+03</rscale>
<asrwt>0</asrwt>
<pdfrwt beam="1">  1        2 0.46258687E-01 0.56491860E+03</pdfrwt>
<pdfrwt beam="2">  1       -2 0.35198356E-01 0.56491860E+03</pdfrwt>
<totfact> 0.83308522E+02</totfact>
</mgrwt>
</event>
<event>
 4    1  0.6346694E-005  0.8390221E+03  0.7818608E-02  0.9505191E-01
         -2   -1    0    0    0  501 -0.00000000000E+00  0.00000000000E+00  0.25137848196E+03  0.25137848197E+03  0.25500000000E-02 0. -1.
          2   -1    0    0  501    0  0.00000000000E+00 -0.00000000000E+00 -0.70009771622E+03  0.70009771622E+03  0.25500000000E-02 0.  1.
    5000001    1    1    2    0    0 -0.36012072007E+03 -0.82080018931E+01 -0.10601122664E+03  0.41992461763E+03  0.18800000000E+03 0.  0.
   -5000001    1    1    2    0    0  0.36012072007E+03  0.82080018931E+01 -0.34270800761E+03  0.53155158056E+03  0.18800000000E+03 0.  0.
<mgrwt>
<rscale>  0 0.83902205E+03</rscale>
<asrwt>0</asrwt>
<pdfrwt beam="1">  1        2 0.10001396E+00 0.83902205E+03</pdfrwt>
<pdfrwt beam="2">  1       -2 0.35911212E-01 0.83902205E+03</pdfrwt>
<totfact> 0.32906136E+02</totfact>
</mgrwt>
</event>
<event>
 4    1  0.6346694E-005  0.6483150E+03  0.7818608E-02  0.9809946E-01
         -2   -1    0    0    0  501 -0.00000000000E+00  0.00000000000E+00  0.67074803949E+02  0.67074803997E+02  0.25500000000E-02 0. -1.
          2   -1    0    0  501    0  0.00000000000E+00 -0.00000000000E+00 -0.15665803434E+04  0.15665803434E+04  0.25500000000E-02 0.  1.
    5000001    1    1    2    0    0  0.15087873038E+03  0.21350092806E+03 -0.65590638026E+03  0.73068749629E+03  0.18800000000E+03 0.  0.
   -5000001    1    1    2    0    0 -0.15087873038E+03 -0.21350092806E+03 -0.84359915920E+03  0.90296765112E+03  0.18800000000E+03 0.  0.
<mgrwt>
<rscale>  0 0.64831495E+03</rscale>
<asrwt>0</asrwt>
<pdfrwt beam="1">  1        2 0.22379717E+00 0.64831495E+03</pdfrwt>
<pdfrwt beam="2">  1       -2 0.95821158E-02 0.64831495E+03</pdfrwt>
<totfact> 0.10061911E+03</totfact>
</mgrwt>
</event>
<event>
 4    1  0.6346694E-005  0.5931908E+03  0.7818608E-02  0.9919635E-01
          2   -1    0    0  501    0  0.00000000000E+00  0.00000000000E+00  0.81016191912E+03  0.81016191912E+03  0.25500000000E-02 0.  1.
         -2   -1    0    0    0  501 -0.00000000000E+00 -0.00000000000E+00 -0.10858178238E+03  0.10858178241E+03  0.25500000000E-02 0. -1.
    5000001    1    1    2    0    0  0.59314540558E+02 -0.17598466235E+03  0.55936919547E+03  0.61864910324E+03  0.18800000000E+03 0.  0.
   -5000001    1    1    2    0    0 -0.59314540558E+02  0.17598466235E+03  0.14221094128E+03  0.30009459829E+03  0.18800000000E+03 0.  0.
<mgrwt>
<rscale>  0 0.59319078E+03</rscale>
<asrwt>0</asrwt>
<pdfrwt beam="1">  1        2 0.11573742E+00 0.59319078E+03</pdfrwt>
<pdfrwt beam="2">  1       -2 0.15511683E-01 0.59319078E+03</pdfrwt>
<totfact> 0.12404209E+03</totfact>
</mgrwt>
</event>
<event>
 4    1  0.6346694E-005  0.4252745E+03  0.7818608E-02  0.1035363E+00
          2   -1    0    0  501    0  0.00000000000E+00  0.00000000000E+00  0.62128556068E+02  0.62128556120E+02  0.25500000000E-02 0.  1.
         -2   -1    0    0    0  501 -0.00000000000E+00 -0.00000000000E+00 -0.72775860151E+03  0.72775860151E+03  0.25500000000E-02 0. -1.
    5000001    1    1    2    0    0  0.74847879700E+02 -0.64649376250E+02 -0.31530808511E+03  0.38019065675E+03  0.18800000000E+03 0.  0.
   -5000001    1    1    2    0    0 -0.74847879700E+02  0.64649376250E+02 -0.35032196034E+03  0.40969650089E+03  0.18800000000E+03 0.  0.
<mgrwt>
<rscale>  0 0.42527446E+03</rscale>
<asrwt>0</asrwt>
<pdfrwt beam="1">  1        2 0.88755084E-02 0.42527446E+03</pdfrwt>
<pdfrwt beam="2">  1       -2 0.10396551E+00 0.42527446E+03</pdfrwt>
<totfact> 0.58702534E+02</totfact>
</mgrwt>
</event>
<event>
 4    1  0.6346694E-005  0.8944214E+03  0.7818608E-02  0.9432582E-01
          2   -1    0    0  501    0  0.00000000000E+00  0.00000000000E+00  0.78236230402E+03  0.78236230402E+03  0.25500000000E-02 0.  1.
         -2   -1    0    0    0  501 -0.00000000000E+00 -0.00000000000E+00 -0.25563271149E+03  0.25563271150E+03  0.25500000000E-02 0. -1.
    5000001    1    1    2    0    0 -0.32173865294E+03  0.23016399253E+01  0.55030315263E+03  0.66460410632E+03  0.18800000000E+03 0.  0.
   -5000001    1    1    2    0    0  0.32173865294E+03 -0.23016399253E+01 -0.23573560104E+02  0.37339090920E+03  0.18800000000E+03 0.  0.
<mgrwt>
<rscale>  0 0.89442137E+03</rscale>
<asrwt>0</asrwt>
<pdfrwt beam="1">  1        2 0.11176605E+00 0.89442137E+03</pdfrwt>
<pdfrwt beam="2">  1       -2 0.36518957E-01 0.89442137E+03</pdfrwt>
<totfact> 0.27643930E+02</totfact>
</mgrwt>
</event>
<event>
 4    1  0.6346694E-005  0.6698755E+03  0.7818608E-02  0.9770183E-01
          2   -1    0    0  501    0  0.00000000000E+00  0.00000000000E+00  0.37019630693E+03  0.37019630694E+03  0.25500000000E-02 0.  1.
         -2   -1    0    0    0  501 -0.00000000000E+00 -0.00000000000E+00 -0.30303734791E+03  0.30303734792E+03  0.25500000000E-02 0. -1.
    5000001    1    1    2    0    0  0.45948468054E+02 -0.25350964930E+03 -0.69211804738E+02  0.32636280106E+03  0.18800000000E+03 0.  0.
   -5000001    1    1    2    0    0 -0.45948468054E+02  0.25350964930E+03  0.13637076376E+03  0.34687085379E+03  0.18800000000E+03 0.  0.
<mgrwt>
<rscale>  0 0.66987553E+03</rscale>
<asrwt>0</asrwt>
<pdfrwt beam="1">  1        2 0.52885187E-01 0.66987553E+03</pdfrwt>
<pdfrwt beam="2">  1       -2 0.43291050E-01 0.66987553E+03</pdfrwt>
<totfact> 0.48069305E+02</totfact>
</mgrwt>
</event>
<event>
 4    1  0.6346694E-005  0.4655813E+03  0.7818608E-02  0.1023175E+00
         -2   -1    0    0    0  501 -0.00000000000E+00  0.00000000000E+00  0.60066032502E+02  0.60066032557E+02  0.25500000000E-02 0. -1.
          2   -1    0    0  501    0  0.00000000000E+00 -0.00000000000E+00 -0.90219839723E+03  0.90219839724E+03  0.25500000000E-02 0.  1.
    5000001    1    1    2    0    0  0.63922678706E+02 -0.77135501464E+02 -0.61507589041E+03  0.65092115145E+03  0.18800000000E+03 0.  0.
   -5000001    1    1    2    0    0 -0.63922678706E+02  0.77135501464E+02 -0.22705647432E+03  0.31134327834E+03  0.18800000000E+03 0.  0.
<mgrwt>
<rscale>  0 0.46558126E+03</rscale>
<asrwt>0</asrwt>
<pdfrwt beam="1">  1        2 0.12888548E+00 0.46558126E+03</pdfrwt>
<pdfrwt beam="2">  1       -2 0.85808623E-02 0.46558126E+03</pdfrwt>
<totfact> 0.28435489E+03</totfact>
</mgrwt>
</event>
<event>
 4    1  0.6346694E-005  0.6908844E+03  0.7818608E-02  0.9732949E-01
          2   -1    0    0  501    0  0.00000000000E+00  0.00000000000E+00  0.76866034182E+03  0.76866034182E+03  0.25500000000E-02 0.  1.
         -2   -1    0    0    0  501 -0.00000000000E+00 -0.00000000000E+00 -0.15524454748E+03  0.15524454750E+03  0.25500000000E-02 0. -1.
    5000001    1    1    2    0    0 -0.26514706591E+03  0.11260495561E+03  0.34906996556E+03  0.49007824216E+03  0.18800000000E+03 0.  0.
   -5000001    1    1    2    0    0  0.26514706591E+03 -0.11260495561E+03  0.26434582878E+03  0.43382664715E+03  0.18800000000E+03 0.  0.
<mgrwt>
<rscale>  0 0.69088444E+03</rscale>
<asrwt>0</asrwt>
<pdfrwt beam="1">  1        2 0.10980862E+00 0.69088444E+03</pdfrwt>
<pdfrwt beam="2">  1       -2 0.22177793E-01 0.69088444E+03</pdfrwt>
<totfact> 0.71362078E+02</totfact>
</mgrwt>
</event>
<event>
 4    1  0.6346694E-005  0.5661718E+03  0.7818608E-02  0.9978186E-01
         -2   -1    0    0    0  501 -0.00000000000E+00  0.00000000000E+00  0.12252321336E+03  0.12252321339E+03  0.25500000000E-02 0. -1.
          2   -1    0    0  501    0  0.00000000000E+00 -0.00000000000E+00 -0.65406075553E+03  0.65406075553E+03  0.25500000000E-02 0.  1.
    5000001    1    1    2    0    0 -0.15076940828E+03 -0.48179420019E+02 -0.73049890457E+02  0.25638439399E+03  0.18800000000E+03 0.  0.
   -5000001    1    1    2    0    0  0.15076940828E+03  0.48179420019E+02 -0.45848765171E+03  0.52019957493E+03  0.18800000000E+03 0.  0.
<mgrwt>
<rscale>  0 0.56617180E+03</rscale>
<asrwt>0</asrwt>
<pdfrwt beam="1">  1        2 0.93437249E-01 0.56617180E+03</pdfrwt>
<pdfrwt beam="2">  1       -2 0.17503317E-01 0.56617180E+03</pdfrwt>
<totfact> 0.13171028E+03</totfact>
</mgrwt>
</event>
<event>
 4    1  0.6346694E-005  0.4754144E+03  0.7818608E-02  0.1020403E+00
          2   -1    0    0  501    0  0.00000000000E+00  0.00000000000E+00  0.12793142152E+04  0.12793142152E+04  0.25500000000E-02 0.  1.
         -2   -1    0    0    0  501 -0.00000000000E+00 -0.00000000000E+00 -0.44167972442E+02  0.44167972515E+02  0.25500000000E-02 0. -1.
    5000001    1    1    2    0    0  0.83823021213E+02  0.87069014839E+02  0.39221189761E+03  0.45142162649E+03  0.18800000000E+03 0.  0.
   -5000001    1    1    2    0    0 -0.83823021213E+02 -0.87069014839E+02  0.84293434516E+03  0.87206056124E+03  0.18800000000E+03 0.  0.
<mgrwt>
<rscale>  0 0.47541441E+03</rscale>
<asrwt>0</asrwt>
<pdfrwt beam="1">  1        2 0.18275916E+00 0.47541441E+03</pdfrwt>
<pdfrwt beam="2">  1       -2 0.63097108E-02 0.47541441E+03</pdfrwt>
<totfact> 0.27842063E+03</totfact>
</mgrwt>
</event>
<event>
 4    1  0.6346694E-005  0.8225807E+03  0.7818608E-02  0.9527896E-01
         -2   -1    0    0    0  501 -0.00000000000E+00  0.00000000000E+00  0.20904093150E+03  0.20904093151E+03  0.25500000000E-02 0. -1.
          2   -1    0    0  501    0  0.00000000000E+00 -0.00000000000E+00 -0.80921822581E+03  0.80921822582E+03  0.25500000000E-02 0.  1.
    5000001    1    1    2    0    0 -0.19467790559E+03  0.29965807421E+03 -0.39693897086E+03  0.56621461916E+03  0.18800000000E+03 0.  0.
   -5000001    1    1    2    0    0  0.19467790559E+03 -0.29965807421E+03 -0.20323832346E+03  0.45204453817E+03  0.18800000000E+03 0.  0.
<mgrwt>
<rscale>  0 0.82258065E+03</rscale>
<asrwt>0</asrwt>
<pdfrwt beam="1">  1        2 0.11560260E+00 0.82258065E+03</pdfrwt>
<pdfrwt beam="2">  1       -2 0.29862991E-01 0.82258065E+03</pdfrwt>
<totfact> 0.38807639E+02</totfact>
</mgrwt>
</event>
<event>
 4    1  0.6346694E-005  0.8033370E+03  0.7818608E-02  0.9555199E-01
          2   -1    0    0  501    0  0.00000000000E+00  0.00000000000E+00  0.58610467490E+03  0.58610467491E+03  0.25500000000E-02 0.  1.
         -2   -1    0    0    0  501 -0.00000000000E+00 -0.00000000000E+00 -0.27527097080E+03  0.27527097081E+03  0.25500000000E-02 0. -1.
    5000001    1    1    2    0    0 -0.24737631911E+03 -0.19947412954E+03  0.32498323423E+03  0.49187709252E+03  0.18800000000E+03 0.  0.
   -5000001    1    1    2    0    0  0.24737631911E+03  0.19947412954E+03 -0.14149530131E+02  0.36949855320E+03  0.18800000000E+03 0.  0.
<mgrwt>
<rscale>  0 0.80333705E+03</rscale>
<asrwt>0</asrwt>
<pdfrwt beam="1">  1        2 0.83729240E-01 0.80333705E+03</pdfrwt>
<pdfrwt beam="2">  1       -2 0.39324424E-01 0.80333705E+03</pdfrwt>
<totfact> 0.34270506E+02</totfact>
</mgrwt>
</event>
<event>
 4    1  0.6346694E-005  0.4068988E+03  0.7818608E-02  0.1041417E+00
         -2   -1    0    0    0  501 -0.00000000000E+00  0.00000000000E+00  0.44523902841E+03  0.44523902842E+03  0.25500000000E-02 0. -1.
          2   -1    0    0  501    0  0.00000000000E+00 -0.00000000000E+00 -0.92965031412E+02  0.92965031447E+02  0.25500000000E-02 0.  1.
    5000001    1    1    2    0    0 -0.23176970576E+02  0.74119430481E+02  0.17071582076E+03  0.26555367329E+03  0.18800000000E+03 0.  0.
   -5000001    1    1    2    0    0  0.23176970576E+02 -0.74119430481E+02  0.18155817623E+03  0.27265038657E+03  0.18800000000E+03 0.  0.
<mgrwt>
<rscale>  0 0.40689881E+03</rscale>
<asrwt>0</asrwt>
<pdfrwt beam="1">  1        2 0.13280719E-01 0.40689881E+03</pdfrwt>
<pdfrwt beam="2">  1       -2 0.63605576E-01 0.40689881E+03</pdfrwt>
<totfact> 0.10645190E+03</totfact>
</mgrwt>
</event>
<event>
 4    1  0.6346694E-005  0.4601759E+03  0.7818608E-02  0.1024730E+00
         -2   -1    0    0    0  501 -0.00000000000E+00  0.00000000000E+00  0.10930586802E+03  0.10930586805E+03  0.25500000000E-02 0. -1.
          2   -1    0    0  501    0  0.00000000000E+00 -0.00000000000E+00 -0.48433329060E+03  0.48433329060E+03  0.25500000000E-02 0.  1.
    5000001    1    1    2    0    0 -0.11774519323E+03  0.40015469243E+01 -0.10886939498E+03  0.24713657776E+03  0.18800000000E+03 0.  0.
   -5000001    1    1    2    0    0  0.11774519323E+03 -0.40015469243E+01 -0.26615802760E+03  0.34650258089E+03  0.18800000000E+03 0.  0.
<mgrwt>
<rscale>  0 0.46017593E+03</rscale>
<asrwt>0</asrwt>
<pdfrwt beam="1">  1        2 0.69190469E-01 0.46017593E+03</pdfrwt>
<pdfrwt beam="2">  1       -2 0.15615124E-01 0.46017593E+03</pdfrwt>
<totfact> 0.22614780E+03</totfact>
</mgrwt>
</event>
<event>
 4    1  0.6346694E-005  0.9064613E+03  0.7818608E-02  0.9417540E-01
         -2   -1    0    0    0  501 -0.00000000000E+00  0.00000000000E+00  0.11697253398E+03  0.11697253401E+03  0.25500000000E-02 0. -1.
          2   -1    0    0  501    0  0.00000000000E+00 -0.00000000000E+00 -0.17561220235E+04  0.17561220235E+04  0.25500000000E-02 0.  1.
    5000001    1    1    2    0    0 -0.33985164986E+03 -0.21332537131E+03 -0.62281028646E+03  0.76435823465E+03  0.18800000000E+03 0.  0.
   -5000001    1    1    2    0    0  0.33985164986E+03  0.21332537131E+03 -0.10163392031E+04  0.11087363229E+04  0.18800000000E+03 0.  0.
<mgrwt>
<rscale>  0 0.90646135E+03</rscale>
<asrwt>0</asrwt>
<pdfrwt beam="1">  1        2 0.25087456E+00 0.90646135E+03</pdfrwt>
<pdfrwt beam="2">  1       -2 0.16710363E-01 0.90646135E+03</pdfrwt>
<totfact> 0.31417139E+02</totfact>
</mgrwt>
</event>
<event>
 4    1  0.6346694E-005  0.5040055E+03  0.7818608E-02  0.1012739E+00
         -2   -1    0    0    0  501 -0.00000000000E+00  0.00000000000E+00  0.87142389899E+02  0.87142389937E+02  0.25500000000E-02 0. -1.
          2   -1    0    0  501    0  0.00000000000E+00 -0.00000000000E+00 -0.72875417718E+03  0.72875417718E+03  0.25500000000E-02 0.  1.
    5000001    1    1    2    0    0  0.88227052073E+02 -0.14267207392E+03 -0.31320477931E+03  0.40197085364E+03  0.18800000000E+03 0.  0.
   -5000001    1    1    2    0    0 -0.88227052073E+02  0.14267207392E+03 -0.32840700797E+03  0.41392571348E+03  0.18800000000E+03 0.  0.
<mgrwt>
<rscale>  0 0.50400548E+03</rscale>
<asrwt>0</asrwt>
<pdfrwt beam="1">  1        2 0.10410774E+00 0.50400548E+03</pdfrwt>
<pdfrwt beam="2">  1       -2 0.12448913E-01 0.50400548E+03</pdfrwt>
<totfact> 0.20456053E+03</totfact>
</mgrwt>
</event>
<event>
 4    1  0.6346694E-005  0.5332039E+03  0.7818608E-02  0.1005458E+00
          2   -1    0    0  501    0  0.00000000000E+00  0.00000000000E+00  0.19734250049E+03  0.19734250050E+03  0.25500000000E-02 0.  1.
         -2   -1    0    0    0  501 -0.00000000000E+00 -0.00000000000E+00 -0.36016869670E+03  0.36016869671E+03  0.25500000000E-02 0. -1.
    5000001    1    1    2    0    0 -0.16470713327E+03  0.24785789597E+02 -0.17487372605E+03  0.30605162175E+03  0.18800000000E+03 0.  0.
   -5000001    1    1    2    0    0  0.16470713327E+03 -0.24785789597E+02  0.12047529831E+02  0.25145957546E+03  0.18800000000E+03 0.  0.
<mgrwt>
<rscale>  0 0.53320387E+03</rscale>
<asrwt>0</asrwt>
<pdfrwt beam="1">  1        2 0.28191786E-01 0.53320387E+03</pdfrwt>
<pdfrwt beam="2">  1       -2 0.51452671E-01 0.53320387E+03</pdfrwt>
<totfact> 0.68555353E+02</totfact>
</mgrwt>
</event>
<event>
 4    1  0.6346694E-005  0.1137681E+04  0.7818608E-02  0.9169224E-01
         -2   -1    0    0    0  501 -0.00000000000E+00  0.00000000000E+00  0.31709114805E+03  0.31709114806E+03  0.25500000000E-02 0.  1.
          2   -1    0    0  501    0  0.00000000000E+00 -0.00000000000E+00 -0.10204624731E+04  0.10204624731E+04  0.25500000000E-02 0. -1.
    5000001    1    1    2    0    0  0.23077828989E+03 -0.48044642922E+03 -0.42740762640E+03  0.70859626695E+03  0.18800000000E+03 0.  0.
   -5000001    1    1    2    0    0 -0.23077828989E+03  0.48044642922E+03 -0.27596369865E+03  0.62895735420E+03  0.18800000000E+03 0.  0.
<mgrwt>
<rscale>  0 0.11376812E+04</rscale>
<asrwt>0</asrwt>
<pdfrwt beam="1">  1        2 0.14578035E+00 0.11376812E+04</pdfrwt>
<pdfrwt beam="2">  1       -2 0.45298736E-01 0.11376812E+04</pdfrwt>
<totfact> 0.12483043E+02</totfact>
</mgrwt>
</event>
<event>
 4    1  0.6346694E-005  0.1364914E+04  0.7818608E-02  0.8979615E-01
         -2   -1    0    0    0  501 -0.00000000000E+00  0.00000000000E+00  0.10820926546E+03  0.10820926549E+03  0.25500000000E-02 0. -1.
          2   -1    0    0  501    0  0.00000000000E+00 -0.00000000000E+00 -0.43041368092E+04  0.43041368092E+04  0.25500000000E-02 0.  1.
    5000001    1    1    2    0    0 -0.40909508987E+03 -0.44358227546E+03 -0.29302137236E+04  0.29976024576E+04  0.18800000000E+03 0.  0.
   -5000001    1    1    2    0    0  0.40909508987E+03  0.44358227546E+03 -0.12657138201E+04  0.14147436171E+04  0.18800000000E+03 0.  0.
<mgrwt>
<rscale>  0 0.13649139E+04</rscale>
<asrwt>0</asrwt>
<pdfrwt beam="1">  1        2 0.61487658E+00 0.13649139E+04</pdfrwt>
<pdfrwt beam="2">  1       -2 0.15458469E-01 0.13649139E+04</pdfrwt>
<totfact> 0.11567745E+01</totfact>
</mgrwt>
</event>
<event>
 4    1  0.6346694E-005  0.7311689E+03  0.7818608E-02  0.9665365E-01
          2   -1    0    0  501    0  0.00000000000E+00  0.00000000000E+00  0.17203475755E+03  0.17203475757E+03  0.25500000000E-02 0.  1.
         -2   -1    0    0    0  501 -0.00000000000E+00 -0.00000000000E+00 -0.77688946716E+03  0.77688946716E+03  0.25500000000E-02 0. -1.
    5000001    1    1    2    0    0 -0.24802770936E+03  0.18930106785E+03 -0.34254131911E+03  0.50003119322E+03  0.18800000000E+03 0.  0.
   -5000001    1    1    2    0    0  0.24802770936E+03 -0.18930106785E+03 -0.26231339050E+03  0.44889303150E+03  0.18800000000E+03 0.  0.
<mgrwt>
<rscale>  0 0.73116890E+03</rscale>
<asrwt>0</asrwt>
<pdfrwt beam="1">  1        2 0.24576394E-01 0.73116890E+03</pdfrwt>
<pdfrwt beam="2">  1       -2 0.11098421E+00 0.73116890E+03</pdfrwt>
<totfact> 0.14509608E+02</totfact>
</mgrwt>
</event>
<event>
 4    1  0.6346694E-005  0.1775723E+04  0.7818608E-02  0.8719317E-01
          2   -1    0    0  501    0  0.00000000000E+00  0.00000000000E+00  0.11726025598E+04  0.11726025598E+04  0.25500000000E-02 0.  1.
         -2   -1    0    0    0  501 -0.00000000000E+00 -0.00000000000E+00 -0.67226366973E+03  0.67226366974E+03  0.25500000000E-02 0. -1.
    5000001    1    1    2    0    0 -0.10559973486E+03  0.73114272101E+03  0.72312379663E+03  0.10507011981E+04  0.18800000000E+03 0.  0.
   -5000001    1    1    2    0    0  0.10559973486E+03 -0.73114272101E+03 -0.22278490658E+03  0.79416503139E+03  0.18800000000E+03 0.  0.
<mgrwt>
<rscale>  0 0.17757231E+04</rscale>
<asrwt>0</asrwt>
<pdfrwt beam="1">  1        2 0.16751465E+00 0.17757231E+04</pdfrwt>
<pdfrwt beam="2">  1       -2 0.96037668E-01 0.17757231E+04</pdfrwt>
<totfact> 0.19105145E+01</totfact>
</mgrwt>
</event>
<event>
 4    1  0.6346694E-005  0.5218033E+03  0.7818608E-02  0.1008240E+00
          2   -1    0    0  501    0  0.00000000000E+00  0.00000000000E+00  0.41541907653E+03  0.41541907654E+03  0.25500000000E-02 0.  1.
         -2   -1    0    0    0  501 -0.00000000000E+00 -0.00000000000E+00 -0.16385785278E+03  0.16385785280E+03  0.25500000000E-02 0. -1.
    5000001    1    1    2    0    0 -0.15177257737E+03  0.91631700908E+02  0.16572103315E+03  0.30698329707E+03  0.18800000000E+03 0.  0.
   -5000001    1    1    2    0    0  0.15177257737E+03 -0.91631700908E+02  0.85840190600E+02  0.27229363227E+03  0.18800000000E+03 0.  0.
<mgrwt>
<rscale>  0 0.52180333E+03</rscale>
<asrwt>0</asrwt>
<pdfrwt beam="1">  1        2 0.59345582E-01 0.52180333E+03</pdfrwt>
<pdfrwt beam="2">  1       -2 0.23408265E-01 0.52180333E+03</pdfrwt>
<totfact> 0.13357714E+03</totfact>
</mgrwt>
</event>
<event>
 4    1  0.6346694E-005  0.6150437E+03  0.7818608E-02  0.9874677E-01
         -2   -1    0    0    0  501 -0.00000000000E+00  0.00000000000E+00  0.49093932659E+02  0.49093932725E+02  0.25500000000E-02 0. -1.
          2   -1    0    0  501    0  0.00000000000E+00 -0.00000000000E+00 -0.19263012261E+04  0.19263012261E+04  0.25500000000E-02 0.  1.
    5000001    1    1    2    0    0 -0.17638468139E+03 -0.11796621617E+03 -0.55589931344E+03  0.62401572950E+03  0.18800000000E+03 0.  0.
   -5000001    1    1    2    0    0  0.17638468139E+03  0.11796621617E+03 -0.13213079800E+04  0.13513794294E+04  0.18800000000E+03 0.  0.
<mgrwt>
<rscale>  0 0.61504375E+03</rscale>
<asrwt>0</asrwt>
<pdfrwt beam="1">  1        2 0.27518584E+00 0.61504375E+03</pdfrwt>
<pdfrwt beam="2">  1       -2 0.70134201E-02 0.61504375E+03</pdfrwt>
<totfact> 0.10892320E+03</totfact>
</mgrwt>
</event>
<event>
 4    1  0.6346694E-005  0.4617886E+03  0.7818608E-02  0.1024264E+00
         -2   -1    0    0    0  501 -0.00000000000E+00  0.00000000000E+00  0.59418442616E+03  0.59418442617E+03  0.25500000000E-02 0. -1.
          2   -1    0    0  501    0  0.00000000000E+00 -0.00000000000E+00 -0.89723273394E+02  0.89723273430E+02  0.25500000000E-02 0.  1.
    5000001    1    1    2    0    0  0.19847720892E+02  0.11485784085E+03  0.15419440571E+03  0.26964081735E+03  0.18800000000E+03 0.  0.
   -5000001    1    1    2    0    0 -0.19847720892E+02 -0.11485784085E+03  0.35026674706E+03  0.41426688225E+03  0.18800000000E+03 0.  0.
<mgrwt>
<rscale>  0 0.46178857E+03</rscale>
<asrwt>0</asrwt>
<pdfrwt beam="1">  1        2 0.12817611E-01 0.46178857E+03</pdfrwt>
<pdfrwt beam="2">  1       -2 0.84883488E-01 0.46178857E+03</pdfrwt>
<totfact> 0.59216323E+02</totfact>
</mgrwt>
</event>
<event>
 4    1  0.6346694E-005  0.8855296E+03  0.7818608E-02  0.9443853E-01
          2   -1    0    0  501    0  0.00000000000E+00  0.00000000000E+00  0.87152194946E+03  0.87152194947E+03  0.25500000000E-02 0.  1.
         -2   -1    0    0    0  501 -0.00000000000E+00 -0.00000000000E+00 -0.22494060979E+03  0.22494060981E+03  0.25500000000E-02 0. -1.
    5000001    1    1    2    0    0  0.36856627769E+03  0.54340184768E+01  0.51838494138E+03  0.66327790334E+03  0.18800000000E+03 0.  0.
   -5000001    1    1    2    0    0 -0.36856627769E+03 -0.54340184768E+01  0.12819639829E+03  0.43318465594E+03  0.18800000000E+03 0.  0.
<mgrwt>
<rscale>  0 0.88552962E+03</rscale>
<asrwt>0</asrwt>
<pdfrwt beam="1">  1        2 0.12450314E+00 0.88552962E+03</pdfrwt>
<pdfrwt beam="2">  1       -2 0.32134372E-01 0.88552962E+03</pdfrwt>
<totfact> 0.30618005E+02</totfact>
</mgrwt>
</event>
<event>
 4    1  0.6346694E-005  0.4256215E+03  0.7818608E-02  0.1035252E+00
         -2   -1    0    0    0  501 -0.00000000000E+00  0.00000000000E+00  0.36266618062E+03  0.36266618063E+03  0.25500000000E-02 0. -1.
          2   -1    0    0  501    0  0.00000000000E+00 -0.00000000000E+00 -0.12487633141E+03  0.12487633143E+03  0.25500000000E-02 0.  1.
    5000001    1    1    2    0    0 -0.74784407035E+02 -0.65967469214E+02  0.11899504290E+03  0.24382008688E+03  0.18800000000E+03 0.  0.
   -5000001    1    1    2    0    0  0.74784407035E+02  0.65967469214E+02  0.11879480631E+03  0.24372242518E+03  0.18800000000E+03 0.  0.
<mgrwt>
<rscale>  0 0.42562153E+03</rscale>
<asrwt>0</asrwt>
<pdfrwt beam="1">  1        2 0.17839476E-01 0.42562153E+03</pdfrwt>
<pdfrwt beam="2">  1       -2 0.51809455E-01 0.42562153E+03</pdfrwt>
<totfact> 0.11437642E+03</totfact>
</mgrwt>
</event>
<event>
 4    1  0.6346694E-005  0.5698541E+03  0.7818608E-02  0.9970002E-01
         -2   -1    0    0    0  501 -0.00000000000E+00  0.00000000000E+00  0.12360964799E+03  0.12360964802E+03  0.25500000000E-02 0. -1.
          2   -1    0    0  501    0  0.00000000000E+00 -0.00000000000E+00 -0.65677254269E+03  0.65677254269E+03  0.25500000000E-02 0.  1.
    5000001    1    1    2    0    0 -0.21003061680E+03 -0.40190940349E+02 -0.25213716657E+03  0.38032265571E+03  0.18800000000E+03 0.  0.
   -5000001    1    1    2    0    0  0.21003061680E+03  0.40190940349E+02 -0.28102572812E+03  0.40005953500E+03  0.18800000000E+03 0.  0.
<mgrwt>
<rscale>  0 0.56985410E+03</rscale>
<asrwt>0</asrwt>
<pdfrwt beam="1">  1        2 0.93824647E-01 0.56985410E+03</pdfrwt>
<pdfrwt beam="2">  1       -2 0.17658522E-01 0.56985410E+03</pdfrwt>
<totfact> 0.12908922E+03</totfact>
</mgrwt>
</event>
<event>
 4    1  0.6346694E-005  0.4794003E+03  0.7818608E-02  0.1019300E+00
         -2   -1    0    0    0  501 -0.00000000000E+00  0.00000000000E+00  0.16930161949E+02  0.16930162141E+02  0.25500000000E-02 0. -1.
          2   -1    0    0  501    0  0.00000000000E+00 -0.00000000000E+00 -0.33937158648E+04  0.33937158648E+04  0.25500000000E-02 0.  1.
    5000001    1    1    2    0    0 -0.84845405559E+02 -0.98268022451E+02 -0.22042145384E+04  0.22160237089E+04  0.18800000000E+03 0.  0.
   -5000001    1    1    2    0    0  0.84845405559E+02  0.98268022451E+02 -0.11725711645E+04  0.11946223181E+04  0.18800000000E+03 0.  0.
<mgrwt>
<rscale>  0 0.47940029E+03</rscale>
<asrwt>0</asrwt>
<pdfrwt beam="1">  1        2 0.48481612E+00 0.47940029E+03</pdfrwt>
<pdfrwt beam="2">  1       -2 0.24185967E-02 0.47940029E+03</pdfrwt>
<totfact> 0.95572244E+02</totfact>
</mgrwt>
</event>
<event>
 4    1  0.6346694E-005  0.5504136E+03  0.7818608E-02  0.1001398E+00
         -2   -1    0    0    0  501 -0.00000000000E+00  0.00000000000E+00  0.66151191515E+02  0.66151191564E+02  0.25500000000E-02 0.  1.
          2   -1    0    0  501    0  0.00000000000E+00 -0.00000000000E+00 -0.11449346233E+04  0.11449346233E+04  0.25500000000E-02 0. -1.
    5000001    1    1    2    0    0  0.71086309951E+02  0.17140121638E+03 -0.70930353017E+03  0.75689308251E+03  0.18800000000E+03 0.  0.
   -5000001    1    1    2    0    0 -0.71086309951E+02 -0.17140121638E+03 -0.36947990166E+03  0.45419273240E+03  0.18800000000E+03 0.  0.
<mgrwt>
<rscale>  0 0.55041362E+03</rscale>
<asrwt>0</asrwt>
<pdfrwt beam="1">  1        2 0.16356208E+00 0.55041362E+03</pdfrwt>
<pdfrwt beam="2">  1       -2 0.94501709E-02 0.55041362E+03</pdfrwt>
<totfact> 0.17412725E+03</totfact>
</mgrwt>
</event>
<event>
 4    1  0.6346694E-005  0.6227706E+03  0.7818608E-02  0.9859259E-01
         -2   -1    0    0    0  501 -0.00000000000E+00  0.00000000000E+00  0.21950803518E+04  0.21950803518E+04  0.25500000000E-02 0. -1.
          2   -1    0    0  501    0  0.00000000000E+00 -0.00000000000E+00 -0.44171874277E+02  0.44171874350E+02  0.25500000000E-02 0.  1.
    5000001    1    1    2    0    0 -0.20356713605E+03 -0.13824981682E+03  0.95815609238E+03  0.10069556535E+04  0.18800000000E+03 0.  0.
   -5000001    1    1    2    0    0  0.20356713605E+03  0.13824981682E+03  0.11927523852E+04  0.12322965727E+04  0.18800000000E+03 0.  0.
<mgrwt>
<rscale>  0 0.62277063E+03</rscale>
<asrwt>0</asrwt>
<pdfrwt beam="1">  1        2 0.63102665E-02 0.62277063E+03</pdfrwt>
<pdfrwt beam="2">  1       -2 0.31358297E+00 0.62277063E+03</pdfrwt>
<totfact> 0.33621325E+01</totfact>
</mgrwt>
</event>
<event>
 4    1  0.6346694E-005  0.4323729E+03  0.7818608E-02  0.1033113E+00
          2   -1    0    0  501    0  0.00000000000E+00  0.00000000000E+00  0.81341920135E+03  0.81341920136E+03  0.25500000000E-02 0.  1.
         -2   -1    0    0    0  501 -0.00000000000E+00 -0.00000000000E+00 -0.57456944739E+02  0.57456944796E+02  0.25500000000E-02 0. -1.
    5000001    1    1    2    0    0 -0.21153350394E+02 -0.98992443258E+02  0.44615486438E+03  0.49461614517E+03  0.18800000000E+03 0.  0.
   -5000001    1    1    2    0    0  0.21153350394E+02  0.98992443258E+02  0.30980739224E+03  0.37626000098E+03  0.18800000000E+03 0.  0.
<mgrwt>
<rscale>  0 0.43237290E+03</rscale>
<asrwt>0</asrwt>
<pdfrwt beam="1">  1        2 0.11620274E+00 0.43237290E+03</pdfrwt>
<pdfrwt beam="2">  1       -2 0.82081352E-02 0.43237290E+03</pdfrwt>
<totfact> 0.34881797E+03</totfact>
</mgrwt>
</event>
<event>
 4    1  0.6346694E-005  0.5636814E+03  0.7818608E-02  0.9983759E-01
         -2   -1    0    0    0  501 -0.00000000000E+00  0.00000000000E+00  0.35623330982E+03  0.35623330983E+03  0.25500000000E-02 0. -1.
          2   -1    0    0  501    0  0.00000000000E+00 -0.00000000000E+00 -0.22298356404E+03  0.22298356406E+03  0.25500000000E-02 0.  1.
    5000001    1    1    2    0    0 -0.58423661791E+01 -0.18210530793E+03 -0.40624598158E+02  0.26493552875E+03  0.18800000000E+03 0.  0.
   -5000001    1    1    2    0    0  0.58423661791E+01  0.18210530793E+03  0.17387434393E+03  0.31428134513E+03  0.18800000000E+03 0.  0.
<mgrwt>
<rscale>  0 0.56368137E+03</rscale>
<asrwt>0</asrwt>
<pdfrwt beam="1">  1        2 0.31854795E-01 0.56368137E+03</pdfrwt>
<pdfrwt beam="2">  1       -2 0.50890472E-01 0.56368137E+03</pdfrwt>
<totfact> 0.61111093E+02</totfact>
</mgrwt>
</event>
<event>
 4    1  0.6346694E-005  0.4868625E+03  0.7818608E-02  0.1017266E+00
         -2   -1    0    0    0  501 -0.00000000000E+00  0.00000000000E+00  0.14783545452E+03  0.14783545454E+03  0.25500000000E-02 0. -1.
          2   -1    0    0  501    0  0.00000000000E+00 -0.00000000000E+00 -0.40084275710E+03  0.40084275711E+03  0.25500000000E-02 0.  1.
    5000001    1    1    2    0    0 -0.14142088214E+03 -0.51673592151E+02 -0.16626413154E+03  0.29267351685E+03  0.18800000000E+03 0.  0.
   -5000001    1    1    2    0    0  0.14142088214E+03  0.51673592151E+02 -0.86743171044E+02  0.25600469479E+03  0.18800000000E+03 0.  0.
<mgrwt>
<rscale>  0 0.48686249E+03</rscale>
<asrwt>0</asrwt>
<pdfrwt beam="1">  1        2 0.57263250E-01 0.48686249E+03</pdfrwt>
<pdfrwt beam="2">  1       -2 0.21119351E-01 0.48686249E+03</pdfrwt>
<totfact> 0.16651390E+03</totfact>
</mgrwt>
</event>
<event>
 4    1  0.6346694E-005  0.4226960E+03  0.7818608E-02  0.1036192E+00
          2   -1    0    0  501    0  0.00000000000E+00  0.00000000000E+00  0.44146525696E+04  0.44146525696E+04  0.25500000000E-02 0.  1.
         -2   -1    0    0    0  501 -0.00000000000E+00 -0.00000000000E+00 -0.10118118694E+02  0.10118119016E+02  0.25500000000E-02 0. -1.
    5000001    1    1    2    0    0 -0.31189109676E+02 -0.47193280462E+02  0.30214497435E+04  0.30278214146E+04  0.18800000000E+03 0.  0.
   -5000001    1    1    2    0    0  0.31189109676E+02  0.47193280462E+02  0.13830847074E+04  0.13969492740E+04  0.18800000000E+03 0.  0.
<mgrwt>
<rscale>  0 0.42269601E+03</rscale>
<asrwt>0</asrwt>
<pdfrwt beam="1">  1        2 0.63066541E+00 0.42269601E+03</pdfrwt>
<pdfrwt beam="2">  1       -2 0.14454438E-02 0.42269601E+03</pdfrwt>
<totfact> 0.44950160E+02</totfact>
</mgrwt>
</event>
<event>
 4    1  0.6346694E-005  0.4143948E+03  0.7818608E-02  0.1038906E+00
          2   -1    0    0  501    0  0.00000000000E+00  0.00000000000E+00  0.76842351902E+03  0.76842351903E+03  0.25500000000E-02 0.  1.
         -2   -1    0    0    0  501 -0.00000000000E+00 -0.00000000000E+00 -0.55868630616E+02  0.55868630674E+02  0.25500000000E-02 0. -1.
    5000001    1    1    2    0    0 -0.60648811614E+02 -0.62048338287E+02  0.34106402986E+03  0.39899492114E+03  0.18800000000E+03 0.  0.
   -5000001    1    1    2    0    0  0.60648811614E+02  0.62048338287E+02  0.37149085855E+03  0.42529722856E+03  0.18800000000E+03 0.  0.
<mgrwt>
<rscale>  0 0.41439483E+03</rscale>
<asrwt>0</asrwt>
<pdfrwt beam="1">  1        2 0.10977479E+00 0.41439483E+03</pdfrwt>
<pdfrwt beam="2">  1       -2 0.79812329E-02 0.41439483E+03</pdfrwt>
<totfact> 0.39144831E+03</totfact>
</mgrwt>
</event>
<event>
 4    1  0.6346694E-005  0.5065098E+03  0.7818608E-02  0.1012094E+00
         -2   -1    0    0    0  501 -0.00000000000E+00  0.00000000000E+00  0.37322085424E+02  0.37322085511E+02  0.25500000000E-02 0.  1.
          2   -1    0    0  501    0  0.00000000000E+00 -0.00000000000E+00 -0.17185010008E+04  0.17185010008E+04  0.25500000000E-02 0. -1.
    5000001    1    1    2    0    0 -0.74369982182E+02  0.15065310066E+03 -0.75806093034E+03  0.79889149770E+03  0.18800000000E+03 0.  0.
   -5000001    1    1    2    0    0  0.74369982182E+02 -0.15065310066E+03 -0.92311798503E+03  0.95693158861E+03  0.18800000000E+03 0.  0.
<mgrwt>
<rscale>  0 0.50650979E+03</rscale>
<asrwt>0</asrwt>
<pdfrwt beam="1">  1        2 0.24550009E+00 0.50650979E+03</pdfrwt>
<pdfrwt beam="2">  1       -2 0.53317276E-02 0.50650979E+03</pdfrwt>
<totfact> 0.21385569E+03</totfact>
</mgrwt>
</event>
<event>
 4    1  0.6346694E-005  0.6013181E+03  0.7818608E-02  0.9902675E-01
          2   -1    0    0  501    0  0.00000000000E+00  0.00000000000E+00  0.18396960533E+04  0.18396960533E+04  0.25500000000E-02 0.  1.
         -2   -1    0    0    0  501 -0.00000000000E+00 -0.00000000000E+00 -0.49136299027E+02  0.49136299093E+02  0.25500000000E-02 0. -1.
    5000001    1    1    2    0    0 -0.14644325615E+03  0.12473974808E+03  0.13172506029E+04  0.13444325133E+04  0.18800000000E+03 0.  0.
   -5000001    1    1    2    0    0  0.14644325615E+03 -0.12473974808E+03  0.47330915143E+03  0.54439983913E+03  0.18800000000E+03 0.  0.
<mgrwt>
<rscale>  0 0.60131807E+03</rscale>
<asrwt>0</asrwt>
<pdfrwt beam="1">  1        2 0.26281376E+00 0.60131807E+03</pdfrwt>
<pdfrwt beam="2">  1       -2 0.70194702E-02 0.60131807E+03</pdfrwt>
<totfact> 0.12034627E+03</totfact>
</mgrwt>
</event>
<event>
 4    1  0.6346694E-005  0.6140206E+03  0.7818608E-02  0.9876737E-01
         -2   -1    0    0    0  501 -0.00000000000E+00  0.00000000000E+00  0.41786185029E+03  0.41786185030E+03  0.25500000000E-02 0. -1.
          2   -1    0    0  501    0  0.00000000000E+00 -0.00000000000E+00 -0.22556578656E+03  0.22556578658E+03  0.25500000000E-02 0.  1.
    5000001    1    1    2    0    0  0.20505534214E+03 -0.48625887409E+02  0.22232737477E+03  0.35942402790E+03  0.18800000000E+03 0.  0.
   -5000001    1    1    2    0    0 -0.20505534214E+03  0.48625887409E+02 -0.30031311038E+02  0.28400360897E+03  0.18800000000E+03 0.  0.
<mgrwt>
<rscale>  0 0.61402064E+03</rscale>
<asrwt>0</asrwt>
<pdfrwt beam="1">  1        2 0.32223684E-01 0.61402064E+03</pdfrwt>
<pdfrwt beam="2">  1       -2 0.59694550E-01 0.61402064E+03</pdfrwt>
<totfact> 0.43354334E+02</totfact>
</mgrwt>
</event>
<event>
 4    1  0.6346694E-005  0.6202592E+03  0.7818608E-02  0.9864244E-01
          2   -1    0    0  501    0  0.00000000000E+00  0.00000000000E+00  0.13736702336E+03  0.13736702338E+03  0.25500000000E-02 0.  1.
         -2   -1    0    0    0  501 -0.00000000000E+00 -0.00000000000E+00 -0.70017072780E+03  0.70017072780E+03  0.25500000000E-02 0. -1.
    5000001    1    1    2    0    0  0.44994158652E+02 -0.22900516846E+03 -0.17364356439E+03  0.34635809352E+03  0.18800000000E+03 0.  0.
   -5000001    1    1    2    0    0 -0.44994158652E+02  0.22900516846E+03 -0.38916014005E+03  0.49117965766E+03  0.18800000000E+03 0.  0.
<mgrwt>
<rscale>  0 0.62025920E+03</rscale>
<asrwt>0</asrwt>
<pdfrwt beam="1">  1        2 0.19623861E-01 0.62025920E+03</pdfrwt>
<pdfrwt beam="2">  1       -2 0.10002439E+00 0.62025920E+03</pdfrwt>
<totfact> 0.24263050E+02</totfact>
</mgrwt>
</event>
<event>
 4    1  0.6346694E-005  0.4604598E+03  0.7818608E-02  0.1024648E+00
          2   -1    0    0  501    0  0.00000000000E+00  0.00000000000E+00  0.11250518191E+04  0.11250518191E+04  0.25500000000E-02 0.  1.
         -2   -1    0    0    0  501 -0.00000000000E+00 -0.00000000000E+00 -0.47114097920E+02  0.47114097989E+02  0.25500000000E-02 0. -1.
    5000001    1    1    2    0    0 -0.20012257020E+02 -0.81166025767E+02  0.27597323342E+03  0.34422905126E+03  0.18800000000E+03 0.  0.
   -5000001    1    1    2    0    0  0.20012257020E+02  0.81166025767E+02  0.80196448778E+03  0.82793686584E+03  0.18800000000E+03 0.  0.
<mgrwt>
<rscale>  0 0.46045978E+03</rscale>
<asrwt>0</asrwt>
<pdfrwt beam="1">  1        2 0.16072167E+00 0.46045978E+03</pdfrwt>
<pdfrwt beam="2">  1       -2 0.67305860E-02 0.46045978E+03</pdfrwt>
<totfact> 0.30653196E+03</totfact>
</mgrwt>
</event>
<event>
 4    1  0.6346694E-005  0.5219734E+03  0.7818608E-02  0.1008198E+00
         -2   -1    0    0    0  501 -0.00000000000E+00  0.00000000000E+00  0.23840964154E+02  0.23840964291E+02  0.25500000000E-02 0. -1.
          2   -1    0    0  501    0  0.00000000000E+00 -0.00000000000E+00 -0.28570177878E+04  0.28570177878E+04  0.25500000000E-02 0.  1.
    5000001    1    1    2    0    0 -0.14119195369E+03  0.97271168206E+02 -0.10960387390E+04  0.11251852138E+04  0.18800000000E+03 0.  0.
   -5000001    1    1    2    0    0  0.14119195369E+03 -0.97271168206E+02 -0.17371380847E+04  0.17556735383E+04  0.18800000000E+03 0.  0.
<mgrwt>
<rscale>  0 0.52197340E+03</rscale>
<asrwt>0</asrwt>
<pdfrwt beam="1">  1        2 0.40814518E+00 0.52197340E+03</pdfrwt>
<pdfrwt beam="2">  1       -2 0.34058539E-02 0.52197340E+03</pdfrwt>
<totfact> 0.11227544E+03</totfact>
</mgrwt>
</event>
<event>
 4    1  0.6346694E-005  0.4532730E+03  0.7818608E-02  0.1026750E+00
          2   -1    0    0  501    0  0.00000000000E+00  0.00000000000E+00  0.85893271915E+03  0.85893271915E+03  0.25500000000E-02 0.  1.
         -2   -1    0    0    0  501 -0.00000000000E+00 -0.00000000000E+00 -0.59799923854E+02  0.59799923909E+02  0.25500000000E-02 0. -1.
    5000001    1    1    2    0    0 -0.98845287110E+02  0.68209099096E+02  0.48057184952E+03  0.52982655137E+03  0.18800000000E+03 0.  0.
   -5000001    1    1    2    0    0  0.98845287110E+02 -0.68209099096E+02  0.31856094578E+03  0.38890609169E+03  0.18800000000E+03 0.  0.
<mgrwt>
<rscale>  0 0.45327304E+03</rscale>
<asrwt>0</asrwt>
<pdfrwt beam="1">  1        2 0.12270467E+00 0.45327304E+03</pdfrwt>
<pdfrwt beam="2">  1       -2 0.85428464E-02 0.45327304E+03</pdfrwt>
<totfact> 0.30539886E+03</totfact>
</mgrwt>
</event>
<event>
 4    1  0.6346694E-005  0.7973622E+03  0.7818608E-02  0.9563843E-01
          2   -1    0    0  501    0  0.00000000000E+00  0.00000000000E+00  0.73996294631E+03  0.73996294631E+03  0.25500000000E-02 0.  1.
         -2   -1    0    0    0  501 -0.00000000000E+00 -0.00000000000E+00 -0.21480346897E+03  0.21480346898E+03  0.25500000000E-02 0. -1.
    5000001    1    1    2    0    0  0.31906721691E+03 -0.11834138233E+03  0.15686812237E+03  0.41923761698E+03  0.18800000000E+03 0.  0.
   -5000001    1    1    2    0    0 -0.31906721691E+03  0.11834138233E+03  0.36829135497E+03  0.53552879831E+03  0.18800000000E+03 0.  0.
<mgrwt>
<rscale>  0 0.79736217E+03</rscale>
<asrwt>0</asrwt>
<pdfrwt beam="1">  1        2 0.10570899E+00 0.79736217E+03</pdfrwt>
<pdfrwt beam="2">  1       -2 0.30686210E-01 0.79736217E+03</pdfrwt>
<totfact> 0.41390963E+02</totfact>
</mgrwt>
</event>
<event>
 4    1  0.6346694E-005  0.4294353E+03  0.7818608E-02  0.1034038E+00
          2   -1    0    0  501    0  0.00000000000E+00  0.00000000000E+00  0.85807895190E+03  0.85807895191E+03  0.25500000000E-02 0.  1.
         -2   -1    0    0    0  501 -0.00000000000E+00 -0.00000000000E+00 -0.53728941497E+02  0.53728941558E+02  0.25500000000E-02 0. -1.
    5000001    1    1    2    0    0 -0.44587860281E+02 -0.51686199272E+02  0.56800964411E+03  0.60219473286E+03  0.18800000000E+03 0.  0.
   -5000001    1    1    2    0    0  0.44587860281E+02  0.51686199272E+02  0.23634036629E+03  0.30961316060E+03  0.18800000000E+03 0.  0.
<mgrwt>
<rscale>  0 0.42943532E+03</rscale>
<asrwt>0</asrwt>
<pdfrwt beam="1">  1        2 0.12258271E+00 0.42943532E+03</pdfrwt>
<pdfrwt beam="2">  1       -2 0.76755631E-02 0.42943532E+03</pdfrwt>
<totfact> 0.36211623E+03</totfact>
</mgrwt>
</event>
<event>
 4    1  0.6346694E-005  0.4586553E+03  0.7818608E-02  0.1025172E+00
         -2   -1    0    0    0  501 -0.00000000000E+00  0.00000000000E+00  0.11216904884E+03  0.11216904887E+03  0.25500000000E-02 0. -1.
          2   -1    0    0  501    0  0.00000000000E+00 -0.00000000000E+00 -0.46885643742E+03  0.46885643743E+03  0.25500000000E-02 0.  1.
    5000001    1    1    2    0    0 -0.11050116167E+03 -0.52661153531E+02 -0.11807431032E+03  0.25351379958E+03  0.18800000000E+03 0.  0.
   -5000001    1    1    2    0    0  0.11050116167E+03  0.52661153531E+02 -0.23861307826E+03  0.32751168672E+03  0.18800000000E+03 0.  0.
<mgrwt>
<rscale>  0 0.45865534E+03</rscale>
<asrwt>0</asrwt>
<pdfrwt beam="1">  1        2 0.66979490E-01 0.45865534E+03</pdfrwt>
<pdfrwt beam="2">  1       -2 0.16024150E-01 0.45865534E+03</pdfrwt>
<totfact> 0.22453456E+03</totfact>
</mgrwt>
</event>
<event>
 4    1  0.6346694E-005  0.9276228E+03  0.7818608E-02  0.9391695E-01
          2   -1    0    0  501    0  0.00000000000E+00  0.00000000000E+00  0.15960724935E+04  0.15960724935E+04  0.25500000000E-02 0.  1.
         -2   -1    0    0    0  501 -0.00000000000E+00 -0.00000000000E+00 -0.13478147555E+03  0.13478147558E+03  0.25500000000E-02 0. -1.
    5000001    1    1    2    0    0 -0.39765594479E+03  0.13835839349E+03  0.63728116252E+03  0.78660318813E+03  0.18800000000E+03 0.  0.
   -5000001    1    1    2    0    0  0.39765594479E+03 -0.13835839349E+03  0.82400985541E+03  0.94425078093E+03  0.18800000000E+03 0.  0.
<mgrwt>
<rscale>  0 0.92762278E+03</rscale>
<asrwt>0</asrwt>
<pdfrwt beam="1">  1        2 0.22801035E+00 0.92762278E+03</pdfrwt>
<pdfrwt beam="2">  1       -2 0.19254497E-01 0.92762278E+03</pdfrwt>
<totfact> 0.29708445E+02</totfact>
</mgrwt>
</event>
<event>
 4    1  0.6346694E-005  0.1340526E+04  0.7818608E-02  0.8998031E-01
          2   -1    0    0  501    0  0.00000000000E+00  0.00000000000E+00  0.33264324250E+04  0.33264324250E+04  0.25500000000E-02 0.  1.
         -2   -1    0    0    0  501 -0.00000000000E+00 -0.00000000000E+00 -0.13505535950E+03  0.13505535952E+03  0.25500000000E-02 0. -1.
    5000001    1    1    2    0    0  0.61140505849E+03  0.13399189548E+03  0.19798927816E+04  0.20849674818E+04  0.18800000000E+03 0.  0.
   -5000001    1    1    2    0    0 -0.61140505849E+03 -0.13399189548E+03  0.12114842839E+04  0.13765203027E+04  0.18800000000E+03 0.  0.
<mgrwt>
<rscale>  0 0.13405261E+04</rscale>
<asrwt>0</asrwt>
<pdfrwt beam="1">  1        2 0.47520465E+00 0.13405261E+04</pdfrwt>
<pdfrwt beam="2">  1       -2 0.19293622E-01 0.13405261E+04</pdfrwt>
<totfact> 0.34484642E+01</totfact>
</mgrwt>
</event>
<event>
 4    1  0.6346694E-005  0.5748791E+03  0.7818608E-02  0.9958940E-01
         -2   -1    0    0    0  501 -0.00000000000E+00  0.00000000000E+00  0.14051268757E+03  0.14051268759E+03  0.25500000000E-02 0. -1.
          2   -1    0    0  501    0  0.00000000000E+00 -0.00000000000E+00 -0.58800014929E+03  0.58800014930E+03  0.25500000000E-02 0.  1.
    5000001    1    1    2    0    0  0.18589630226E+03 -0.60842431399E+02 -0.10340048241E+03  0.29033583385E+03  0.18800000000E+03 0.  0.
   -5000001    1    1    2    0    0 -0.18589630226E+03  0.60842431399E+02 -0.34408697932E+03  0.43817700304E+03  0.18800000000E+03 0.  0.
<mgrwt>
<rscale>  0 0.57487905E+03</rscale>
<asrwt>0</asrwt>
<pdfrwt beam="1">  1        2 0.84000020E-01 0.57487905E+03</pdfrwt>
<pdfrwt beam="2">  1       -2 0.20073241E-01 0.57487905E+03</pdfrwt>
<totfact> 0.11794119E+03</totfact>
</mgrwt>
</event>
<event>
 4    1  0.6346694E-005  0.4995087E+03  0.7818608E-02  0.1013907E+00
         -2   -1    0    0    0  501 -0.00000000000E+00  0.00000000000E+00  0.43848056378E+02  0.43848056452E+02  0.25500000000E-02 0. -1.
          2   -1    0    0  501    0  0.00000000000E+00 -0.00000000000E+00 -0.14225771518E+04  0.14225771518E+04  0.25500000000E-02 0.  1.
    5000001    1    1    2    0    0  0.10761761585E+03 -0.12135856589E+03 -0.76834566250E+03  0.80747043899E+03  0.18800000000E+03 0.  0.
   -5000001    1    1    2    0    0 -0.10761761585E+03  0.12135856589E+03 -0.61038343295E+03  0.65895476929E+03  0.18800000000E+03 0.  0.
<mgrwt>
<rscale>  0 0.49950873E+03</rscale>
<asrwt>0</asrwt>
<pdfrwt beam="1">  1        2 0.20322528E+00 0.49950873E+03</pdfrwt>
<pdfrwt beam="2">  1       -2 0.62640089E-02 0.49950873E+03</pdfrwt>
<totfact> 0.23613469E+03</totfact>
</mgrwt>
</event>
<event>
 4    1  0.6346694E-005  0.1122056E+04  0.7818608E-02  0.9183957E-01
          2   -1    0    0  501    0  0.00000000000E+00  0.00000000000E+00  0.21823137777E+04  0.21823137777E+04  0.25500000000E-02 0.  1.
         -2   -1    0    0    0  501 -0.00000000000E+00 -0.00000000000E+00 -0.14422878136E+03  0.14422878138E+03  0.25500000000E-02 0. -1.
    5000001    1    1    2    0    0 -0.39196273833E+03  0.21020275629E+03  0.16113003612E+04  0.16820977501E+04  0.18800000000E+03 0.  0.
   -5000001    1    1    2    0    0  0.39196273833E+03 -0.21020275629E+03  0.42678463514E+03  0.64444480894E+03  0.18800000000E+03 0.  0.
<mgrwt>
<rscale>  0 0.11220561E+04</rscale>
<asrwt>0</asrwt>
<pdfrwt beam="1">  1        2 0.31175912E+00 0.11220561E+04</pdfrwt>
<pdfrwt beam="2">  1       -2 0.20604111E-01 0.11220561E+04</pdfrwt>
<totfact> 0.13020508E+02</totfact>
</mgrwt>
</event>
<event>
 4    1  0.6346694E-005  0.6408733E+03  0.7818608E-02  0.9824057E-01
          2   -1    0    0  501    0  0.00000000000E+00  0.00000000000E+00  0.11358786620E+04  0.11358786620E+04  0.25500000000E-02 0.  1.
         -2   -1    0    0    0  501 -0.00000000000E+00 -0.00000000000E+00 -0.90396666021E+02  0.90396666057E+02  0.25500000000E-02 0. -1.
    5000001    1    1    2    0    0 -0.97502019476E+02  0.21773026753E+03  0.32739594713E+03  0.44659290120E+03  0.18800000000E+03 0.  0.
   -5000001    1    1    2    0    0  0.97502019476E+02 -0.21773026753E+03  0.71808604881E+03  0.77968242682E+03  0.18800000000E+03 0.  0.
<mgrwt>
<rscale>  0 0.64087329E+03</rscale>
<asrwt>0</asrwt>
<pdfrwt beam="1">  1        2 0.16226836E+00 0.64087329E+03</pdfrwt>
<pdfrwt beam="2">  1       -2 0.12913811E-01 0.64087329E+03</pdfrwt>
<totfact> 0.10555519E+03</totfact>
</mgrwt>
</event>
<event>
 4    1  0.6346694E-005  0.6165349E+03  0.7818608E-02  0.9871683E-01
          2   -1    0    0  501    0  0.00000000000E+00  0.00000000000E+00  0.29886314398E+03  0.29886314399E+03  0.25500000000E-02 0. -1.
         -2   -1    0    0    0  501 -0.00000000000E+00 -0.00000000000E+00 -0.31796768853E+03  0.31796768854E+03  0.25500000000E-02 0.  1.
    5000001    1    1    2    0    0  0.18545966466E+03 -0.76266651706E+02 -0.14916470530E+03  0.31273950612E+03  0.18800000000E+03 0.  0.
   -5000001    1    1    2    0    0 -0.18545966466E+03  0.76266651706E+02  0.13006016076E+03  0.30409132641E+03  0.18800000000E+03 0.  0.
<mgrwt>
<rscale>  0 0.61653491E+03</rscale>
<asrwt>0</asrwt>
<pdfrwt beam="1">  1        2 0.42694735E-01 0.61653491E+03</pdfrwt>
<pdfrwt beam="2">  1       -2 0.45423956E-01 0.61653491E+03</pdfrwt>
<totfact> 0.55440668E+02</totfact>
</mgrwt>
</event>
<event>
 4    1  0.6346694E-005  0.5420959E+03  0.7818608E-02  0.1003340E+00
         -2   -1    0    0    0  501 -0.00000000000E+00  0.00000000000E+00  0.33696926888E+03  0.33696926889E+03  0.25500000000E-02 0. -1.
          2   -1    0    0  501    0  0.00000000000E+00 -0.00000000000E+00 -0.21802285058E+03  0.21802285060E+03  0.25500000000E-02 0.  1.
    5000001    1    1    2    0    0 -0.16388432680E+03 -0.48080291986E+02  0.15634562646E+03  0.29825784476E+03  0.18800000000E+03 0.  0.
   -5000001    1    1    2    0    0  0.16388432680E+03  0.48080291986E+02 -0.37399208160E+02  0.25673427473E+03  0.18800000000E+03 0.  0.
<mgrwt>
<rscale>  0 0.54209593E+03</rscale>
<asrwt>0</asrwt>
<pdfrwt beam="1">  1        2 0.31146122E-01 0.54209593E+03</pdfrwt>
<pdfrwt beam="2">  1       -2 0.48138467E-01 0.54209593E+03</pdfrwt>
<totfact> 0.70125637E+02</totfact>
</mgrwt>
</event>
<event>
 4    1  0.6346694E-005  0.7930315E+03  0.7818608E-02  0.9570159E-01
         -2   -1    0    0    0  501 -0.00000000000E+00  0.00000000000E+00  0.23722846832E+03  0.23722846834E+03  0.25500000000E-02 0. -1.
          2   -1    0    0  501    0  0.00000000000E+00 -0.00000000000E+00 -0.66275666541E+03  0.66275666542E+03  0.25500000000E-02 0.  1.
    5000001    1    1    2    0    0  0.23748742077E+03 -0.24532102169E+03 -0.13015959453E+03  0.41093575988E+03  0.18800000000E+03 0.  0.
   -5000001    1    1    2    0    0 -0.23748742077E+03  0.24532102169E+03 -0.29536860256E+03  0.48904937387E+03  0.18800000000E+03 0.  0.
<mgrwt>
<rscale>  0 0.79303152E+03</rscale>
<asrwt>0</asrwt>
<pdfrwt beam="1">  1        2 0.94679523E-01 0.79303152E+03</pdfrwt>
<pdfrwt beam="2">  1       -2 0.33889781E-01 0.79303152E+03</pdfrwt>
<totfact> 0.39362014E+02</totfact>
</mgrwt>
</event>
<event>
 4    1  0.6346694E-005  0.9665099E+03  0.7818608E-02  0.9346058E-01
         -2   -1    0    0    0  501 -0.00000000000E+00  0.00000000000E+00  0.11498447593E+03  0.11498447595E+03  0.25500000000E-02 0. -1.
          2   -1    0    0  501    0  0.00000000000E+00 -0.00000000000E+00 -0.20310164777E+04  0.20310164777E+04  0.25500000000E-02 0.  1.
    5000001    1    1    2    0    0  0.17334008101E+03  0.23010264215E+03 -0.17116228581E+04  0.17458495977E+04  0.18800000000E+03 0.  0.
   -5000001    1    1    2    0    0 -0.17334008101E+03 -0.23010264215E+03 -0.20440914367E+03  0.40015135589E+03  0.18800000000E+03 0.  0.
<mgrwt>
<rscale>  0 0.96650994E+03</rscale>
<asrwt>0</asrwt>
<pdfrwt beam="1">  1        2 0.29014519E+00 0.96650994E+03</pdfrwt>
<pdfrwt beam="2">  1       -2 0.16426355E-01 0.96650994E+03</pdfrwt>
<totfact> 0.23326904E+02</totfact>
</mgrwt>
</event>
<event>
 4    1  0.6346694E-005  0.5862073E+03  0.7818608E-02  0.9934442E-01
         -2   -1    0    0    0  501 -0.00000000000E+00  0.00000000000E+00  0.61723489504E+02  0.61723489556E+02  0.25500000000E-02 0. -1.
          2   -1    0    0  501    0  0.00000000000E+00 -0.00000000000E+00 -0.13918486041E+04  0.13918486041E+04  0.25500000000E-02 0.  1.
    5000001    1    1    2    0    0 -0.11595313115E+03 -0.12297139516E+03 -0.10328386217E+04  0.10633281296E+04  0.18800000000E+03 0.  0.
   -5000001    1    1    2    0    0  0.11595313115E+03  0.12297139516E+03 -0.29728649289E+03  0.39024396409E+03  0.18800000000E+03 0.  0.
<mgrwt>
<rscale>  0 0.58620731E+03</rscale>
<asrwt>0</asrwt>
<pdfrwt beam="1">  1        2 0.19883550E+00 0.58620731E+03</pdfrwt>
<pdfrwt beam="2">  1       -2 0.88176422E-02 0.58620731E+03</pdfrwt>
<totfact> 0.14236765E+03</totfact>
</mgrwt>
</event>
<event>
 4    1  0.6346694E-005  0.6175471E+03  0.7818608E-02  0.9869656E-01
          2   -1    0    0  501    0  0.00000000000E+00  0.00000000000E+00  0.19570419919E+04  0.19570419919E+04  0.25500000000E-02 0.  1.
         -2   -1    0    0    0  501 -0.00000000000E+00 -0.00000000000E+00 -0.48716940414E+02  0.48716940481E+02  0.25500000000E-02 0. -1.
    5000001    1    1    2    0    0  0.69529104849E+02 -0.14919230050E+03  0.36499874133E+03  0.44233552889E+03  0.18800000000E+03 0.  0.
   -5000001    1    1    2    0    0 -0.69529104849E+02  0.14919230050E+03  0.15433263101E+04  0.15634234035E+04  0.18800000000E+03 0.  0.
<mgrwt>
<rscale>  0 0.61754708E+03</rscale>
<asrwt>0</asrwt>
<pdfrwt beam="1">  1        2 0.27957735E+00 0.61754708E+03</pdfrwt>
<pdfrwt beam="2">  1       -2 0.69595649E-02 0.61754708E+03</pdfrwt>
<totfact> 0.10638850E+03</totfact>
</mgrwt>
</event>
<event>
 4    1  0.6346694E-005  0.4536104E+03  0.7818608E-02  0.1026651E+00
          2   -1    0    0  501    0  0.00000000000E+00  0.00000000000E+00  0.69282638606E+03  0.69282638606E+03  0.25500000000E-02 0.  1.
         -2   -1    0    0    0  501 -0.00000000000E+00 -0.00000000000E+00 -0.74247450328E+02  0.74247450372E+02  0.25500000000E-02 0. -1.
    5000001    1    1    2    0    0  0.10983883351E+03  0.30666227849E+02  0.40331509762E+03  0.45936048463E+03  0.18800000000E+03 0.  0.
   -5000001    1    1    2    0    0 -0.10983883351E+03 -0.30666227849E+02  0.21526383811E+03  0.30771335180E+03  0.18800000000E+03 0.  0.
<mgrwt>
<rscale>  0 0.45361037E+03</rscale>
<asrwt>0</asrwt>
<pdfrwt beam="1">  1        2 0.98975203E-01 0.45361037E+03</pdfrwt>
<pdfrwt beam="2">  1       -2 0.10606778E-01 0.45361037E+03</pdfrwt>
<totfact> 0.28235362E+03</totfact>
</mgrwt>
</event>
<event>
 4    1  0.6346694E-005  0.6130333E+03  0.7818608E-02  0.9878729E-01
          2   -1    0    0  501    0  0.00000000000E+00  0.00000000000E+00  0.20392803965E+04  0.20392803965E+04  0.25500000000E-02 0. -1.
         -2   -1    0    0    0  501 -0.00000000000E+00 -0.00000000000E+00 -0.46071382255E+02  0.46071382326E+02  0.25500000000E-02 0.  1.
    5000001    1    1    2    0    0  0.17102094522E+03 -0.11151804358E+03  0.14391389908E+04  0.14656566695E+04  0.18800000000E+03 0.  0.
   -5000001    1    1    2    0    0 -0.17102094522E+03  0.11151804358E+03  0.55407002337E+03  0.61969510935E+03  0.18800000000E+03 0.  0.
<mgrwt>
<rscale>  0 0.61303333E+03</rscale>
<asrwt>0</asrwt>
<pdfrwt beam="1">  1        2 0.29132589E+00 0.61303333E+03</pdfrwt>
<pdfrwt beam="2">  1       -2 0.65816235E-02 0.61303333E+03</pdfrwt>
<totfact> 0.10566525E+03</totfact>
</mgrwt>
</event>
<event>
 4    1  0.6346694E-005  0.5014071E+03  0.7818608E-02  0.1013412E+00
          2   -1    0    0  501    0  0.00000000000E+00  0.00000000000E+00  0.57387007166E+03  0.57387007167E+03  0.25500000000E-02 0.  1.
         -2   -1    0    0    0  501 -0.00000000000E+00 -0.00000000000E+00 -0.10952349807E+03  0.10952349810E+03  0.25500000000E-02 0. -1.
    5000001    1    1    2    0    0 -0.37466323331E+02  0.13943770006E+03  0.12093054442E+03  0.26611049238E+03  0.18800000000E+03 0.  0.
   -5000001    1    1    2    0    0  0.37466323331E+02 -0.13943770006E+03  0.34341602917E+03  0.41728307739E+03  0.18800000000E+03 0.  0.
<mgrwt>
<rscale>  0 0.50140705E+03</rscale>
<asrwt>0</asrwt>
<pdfrwt beam="1">  1        2 0.81981440E-01 0.50140705E+03</pdfrwt>
<pdfrwt beam="2">  1       -2 0.15646214E-01 0.50140705E+03</pdfrwt>
<totfact> 0.18587855E+03</totfact>
</mgrwt>
</event>
<event>
 4    1  0.6346694E-005  0.5691817E+03  0.7818608E-02  0.9971491E-01
          2   -1    0    0  501    0  0.00000000000E+00  0.00000000000E+00  0.96109744824E+03  0.96109744825E+03  0.25500000000E-02 0.  1.
         -2   -1    0    0    0  501 -0.00000000000E+00 -0.00000000000E+00 -0.84270275981E+02  0.84270276019E+02  0.25500000000E-02 0. -1.
    5000001    1    1    2    0    0 -0.17639140799E+03 -0.33068840413E+02  0.65133797161E+03  0.70127928123E+03  0.18800000000E+03 0.  0.
   -5000001    1    1    2    0    0  0.17639140799E+03  0.33068840413E+02  0.22548920065E+03  0.34408844304E+03  0.18800000000E+03 0.  0.
<mgrwt>
<rscale>  0 0.56918168E+03</rscale>
<asrwt>0</asrwt>
<pdfrwt beam="1">  1        2 0.13729964E+00 0.56918168E+03</pdfrwt>
<pdfrwt beam="2">  1       -2 0.12038611E-01 0.56918168E+03</pdfrwt>
<totfact> 0.15091823E+03</totfact>
</mgrwt>
</event>
<event>
 4    1  0.6346694E-005  0.1544607E+04  0.7818608E-02  0.8855320E-01
          2   -1    0    0  501    0  0.00000000000E+00  0.00000000000E+00  0.20827074880E+04  0.20827074880E+04  0.25500000000E-02 0.  1.
         -2   -1    0    0    0  501 -0.00000000000E+00 -0.00000000000E+00 -0.28638319080E+03  0.28638319081E+03  0.25500000000E-02 0. -1.
    5000001    1    1    2    0    0  0.68343770641E+03 -0.42131061746E+02  0.43232057515E+03  0.83132857801E+03  0.18800000000E+03 0.  0.
   -5000001    1    1    2    0    0 -0.68343770641E+03  0.42131061746E+02  0.13640037221E+04  0.15377621008E+04  0.18800000000E+03 0.  0.
<mgrwt>
<rscale>  0 0.15446066E+04</rscale>
<asrwt>0</asrwt>
<pdfrwt beam="1">  1        2 0.29752964E+00 0.15446066E+04</pdfrwt>
<pdfrwt beam="2">  1       -2 0.40911885E-01 0.15446066E+04</pdfrwt>
<totfact> 0.39690913E+01</totfact>
</mgrwt>
</event>
<event>
 4    1  0.6346694E-005  0.6229293E+03  0.7818608E-02  0.9858945E-01
         -2   -1    0    0    0  501 -0.00000000000E+00  0.00000000000E+00  0.47120894101E+02  0.47120894170E+02  0.25500000000E-02 0. -1.
          2   -1    0    0  501    0  0.00000000000E+00 -0.00000000000E+00 -0.20587520267E+04  0.20587520267E+04  0.25500000000E-02 0.  1.
    5000001    1    1    2    0    0 -0.48654614490E+02  0.21359724133E+03 -0.61048539453E+03  0.67529806008E+03  0.18800000000E+03 0.  0.
   -5000001    1    1    2    0    0  0.48654614490E+02 -0.21359724133E+03 -0.14011457381E+04  0.14305748608E+04  0.18800000000E+03 0.  0.
<mgrwt>
<rscale>  0 0.62292933E+03</rscale>
<asrwt>0</asrwt>
<pdfrwt beam="1">  1        2 0.29410738E+00 0.62292933E+03</pdfrwt>
<pdfrwt beam="2">  1       -2 0.67315576E-02 0.62292933E+03</pdfrwt>
<totfact> 0.99649960E+02</totfact>
</mgrwt>
</event>
<event>
 4    1  0.6346694E-005  0.7807011E+03  0.7818608E-02  0.9588379E-01
         -2   -1    0    0    0  501 -0.00000000000E+00  0.00000000000E+00  0.62208515074E+03  0.62208515075E+03  0.25500000000E-02 0. -1.
          2   -1    0    0  501    0  0.00000000000E+00 -0.00000000000E+00 -0.24494001462E+03  0.24494001463E+03  0.25500000000E-02 0.  1.
    5000001    1    1    2    0    0  0.14876725351E+03  0.30378453239E+03  0.13180494943E+03  0.40881937642E+03  0.18800000000E+03 0.  0.
   -5000001    1    1    2    0    0 -0.14876725351E+03 -0.30378453239E+03  0.24534018668E+03  0.45820578896E+03  0.18800000000E+03 0.  0.
<mgrwt>
<rscale>  0 0.78070108E+03</rscale>
<asrwt>0</asrwt>
<pdfrwt beam="1">  1        2 0.34991431E-01 0.78070108E+03</pdfrwt>
<pdfrwt beam="2">  1       -2 0.88869306E-01 0.78070108E+03</pdfrwt>
<totfact> 0.16406475E+02</totfact>
</mgrwt>
</event>
<event>
 4    1  0.6346694E-005  0.5321703E+03  0.7818608E-02  0.1005707E+00
          2   -1    0    0  501    0  0.00000000000E+00  0.00000000000E+00  0.92045991500E+02  0.92045991535E+02  0.25500000000E-02 0.  1.
         -2   -1    0    0    0  501 -0.00000000000E+00 -0.00000000000E+00 -0.76919479387E+03  0.76919479387E+03  0.25500000000E-02 0. -1.
    5000001    1    1    2    0    0 -0.14013464065E+03  0.57659349880E+02 -0.15767307297E+03  0.28838709416E+03  0.18800000000E+03 0.  0.
   -5000001    1    1    2    0    0  0.14013464065E+03 -0.57659349880E+02 -0.51947572940E+03  0.57285369125E+03  0.18800000000E+03 0.  0.
<mgrwt>
<rscale>  0 0.53217026E+03</rscale>
<asrwt>0</asrwt>
<pdfrwt beam="1">  1        2 0.13149428E-01 0.53217026E+03</pdfrwt>
<pdfrwt beam="2">  1       -2 0.10988497E+00 0.53217026E+03</pdfrwt>
<totfact> 0.31421783E+02</totfact>
</mgrwt>
</event>
<event>
 4    1  0.6346694E-005  0.5883865E+03  0.7818608E-02  0.9929798E-01
         -2   -1    0    0    0  501 -0.00000000000E+00  0.00000000000E+00  0.43884864955E+02  0.43884865029E+02  0.25500000000E-02 0. -1.
          2   -1    0    0  501    0  0.00000000000E+00 -0.00000000000E+00 -0.19721984838E+04  0.19721984838E+04  0.25500000000E-02 0.  1.
    5000001    1    1    2    0    0 -0.13930650569E+03 -0.13815162405E+03 -0.57780923146E+03  0.63851365037E+03  0.18800000000E+03 0.  0.
   -5000001    1    1    2    0    0  0.13930650569E+03  0.13815162405E+03 -0.13505043874E+04  0.13775696985E+04  0.18800000000E+03 0.  0.
<mgrwt>
<rscale>  0 0.58838649E+03</rscale>
<asrwt>0</asrwt>
<pdfrwt beam="1">  1        2 0.28174258E+00 0.58838649E+03</pdfrwt>
<pdfrwt beam="2">  1       -2 0.62692677E-02 0.58838649E+03</pdfrwt>
<totfact> 0.12342457E+03</totfact>
</mgrwt>
</event>
<event>
 4    1  0.6346694E-005  0.1460072E+04  0.7818608E-02  0.8911447E-01
          2   -1    0    0  501    0  0.00000000000E+00  0.00000000000E+00  0.26402879951E+04  0.26402879951E+04  0.25500000000E-02 0.  1.
         -2   -1    0    0    0  501 -0.00000000000E+00 -0.00000000000E+00 -0.20185403368E+03  0.20185403370E+03  0.25500000000E-02 0. -1.
    5000001    1    1    2    0    0 -0.38049879676E+03 -0.51115701513E+03  0.18081904533E+04  0.19263845784E+04  0.18800000000E+03 0.  0.
   -5000001    1    1    2    0    0  0.38049879676E+03  0.51115701513E+03  0.63024350809E+03  0.91575745039E+03  0.18800000000E+03 0.  0.
<mgrwt>
<rscale>  0 0.14600723E+04</rscale>
<asrwt>0</asrwt>
<pdfrwt beam="1">  1        2 0.37718399E+00 0.14600723E+04</pdfrwt>
<pdfrwt beam="2">  1       -2 0.28836291E-01 0.14600723E+04</pdfrwt>
<totfact> 0.39865681E+01</totfact>
</mgrwt>
</event>
<event>
 4    1  0.6346694E-005  0.1073488E+04  0.7818608E-02  0.9231425E-01
          2   -1    0    0  501    0  0.00000000000E+00  0.00000000000E+00  0.10874531612E+04  0.10874531612E+04  0.25500000000E-02 0.  1.
         -2   -1    0    0    0  501 -0.00000000000E+00 -0.00000000000E+00 -0.26492535094E+03  0.26492535095E+03  0.25500000000E-02 0. -1.
    5000001    1    1    2    0    0 -0.36484731267E+03 -0.33453373432E+03  0.30054822580E+03  0.60885106306E+03  0.18800000000E+03 0.  0.
   -5000001    1    1    2    0    0  0.36484731267E+03  0.33453373432E+03  0.52197958446E+03  0.74352744909E+03  0.18800000000E+03 0.  0.
<mgrwt>
<rscale>  0 0.10734876E+04</rscale>
<asrwt>0</asrwt>
<pdfrwt beam="1">  1        2 0.15535045E+00 0.10734876E+04</pdfrwt>
<pdfrwt beam="2">  1       -2 0.37846478E-01 0.10734876E+04</pdfrwt>
<totfact> 0.16258105E+02</totfact>
</mgrwt>
</event>
<event>
 4    1  0.6346694E-005  0.4712086E+03  0.7818608E-02  0.1021580E+00
         -2   -1    0    0    0  501 -0.00000000000E+00  0.00000000000E+00  0.10951384419E+04  0.10951384419E+04  0.25500000000E-02 0. -1.
          2   -1    0    0  501    0  0.00000000000E+00 -0.00000000000E+00 -0.50687104098E+02  0.50687104162E+02  0.25500000000E-02 0.  1.
    5000001    1    1    2    0    0 -0.77300229803E+02  0.86707603647E+02  0.72084832556E+03  0.75396275937E+03  0.18800000000E+03 0.  0.
   -5000001    1    1    2    0    0  0.77300229803E+02 -0.86707603647E+02  0.32360301221E+03  0.39186278666E+03  0.18800000000E+03 0.  0.
<mgrwt>
<rscale>  0 0.47120864E+03</rscale>
<asrwt>0</asrwt>
<pdfrwt beam="1">  1        2 0.72410147E-02 0.47120864E+03</pdfrwt>
<pdfrwt beam="2">  1       -2 0.15644835E+00 0.47120864E+03</pdfrwt>
<totfact> 0.27498730E+02</totfact>
</mgrwt>
</event>
<event>
 4    1  0.6346694E-005  0.8430426E+03  0.7818608E-02  0.9499723E-01
         -2   -1    0    0    0  501 -0.00000000000E+00  0.00000000000E+00  0.41704816709E+03  0.41704816710E+03  0.25500000000E-02 0. -1.
          2   -1    0    0  501    0  0.00000000000E+00 -0.00000000000E+00 -0.42604242976E+03  0.42604242976E+03  0.25500000000E-02 0.  1.
    5000001    1    1    2    0    0 -0.58669771653E+02  0.24163102878E+03 -0.28825350928E+03  0.42457246942E+03  0.18800000000E+03 0.  0.
   -5000001    1    1    2    0    0  0.58669771653E+02 -0.24163102878E+03  0.27925924662E+03  0.41851812744E+03  0.18800000000E+03 0.  0.
<mgrwt>
<rscale>  0 0.84304262E+03</rscale>
<asrwt>0</asrwt>
<pdfrwt beam="1">  1        2 0.60863204E-01 0.84304262E+03</pdfrwt>
<pdfrwt beam="2">  1       -2 0.59578310E-01 0.84304262E+03</pdfrwt>
<totfact> 0.21297732E+02</totfact>
</mgrwt>
</event>
<event>
 4    1  0.6346694E-005  0.4134913E+03  0.7818608E-02  0.1039206E+00
         -2   -1    0    0    0  501 -0.00000000000E+00  0.00000000000E+00  0.18395172262E+03  0.18395172264E+03  0.25500000000E-02 0. -1.
          2   -1    0    0  501    0  0.00000000000E+00 -0.00000000000E+00 -0.23236401860E+03  0.23236401861E+03  0.25500000000E-02 0.  1.
    5000001    1    1    2    0    0  0.53959694043E+02  0.66460238553E+02 -0.32698788474E+02  0.20914545813E+03  0.18800000000E+03 0.  0.
   -5000001    1    1    2    0    0 -0.53959694043E+02 -0.66460238553E+02 -0.15713507500E+02  0.20717028312E+03  0.18800000000E+03 0.  0.
<mgrwt>
<rscale>  0 0.41349129E+03</rscale>
<asrwt>0</asrwt>
<pdfrwt beam="1">  1        2 0.33194860E-01 0.41349129E+03</pdfrwt>
<pdfrwt beam="2">  1       -2 0.26278818E-01 0.41349129E+03</pdfrwt>
<totfact> 0.20548216E+03</totfact>
</mgrwt>
</event>
<event>
 4    1  0.6346694E-005  0.4989832E+03  0.7818608E-02  0.1014045E+00
         -2   -1    0    0    0  501 -0.00000000000E+00  0.00000000000E+00  0.95718819409E+02  0.95718819443E+02  0.25500000000E-02 0. -1.
          2   -1    0    0  501    0  0.00000000000E+00 -0.00000000000E+00 -0.65030106192E+03  0.65030106192E+03  0.25500000000E-02 0.  1.
    5000001    1    1    2    0    0  0.93624341938E+02 -0.99594404882E+02 -0.41282067904E+03  0.47376099030E+03  0.18800000000E+03 0.  0.
   -5000001    1    1    2    0    0 -0.93624341938E+02  0.99594404882E+02 -0.14176156347E+03  0.27225889107E+03  0.18800000000E+03 0.  0.
<mgrwt>
<rscale>  0 0.49898317E+03</rscale>
<asrwt>0</asrwt>
<pdfrwt beam="1">  1        2 0.92900149E-01 0.49898317E+03</pdfrwt>
<pdfrwt beam="2">  1       -2 0.13674117E-01 0.49898317E+03</pdfrwt>
<totfact> 0.20105222E+03</totfact>
</mgrwt>
</event>
<event>
 4    1  0.6346694E-005  0.7833308E+03  0.7818608E-02  0.9584463E-01
         -2   -1    0    0    0  501 -0.00000000000E+00  0.00000000000E+00  0.76023979907E+02  0.76023979950E+02  0.25500000000E-02 0. -1.
          2   -1    0    0  501    0  0.00000000000E+00 -0.00000000000E+00 -0.20178079443E+04  0.20178079443E+04  0.25500000000E-02 0.  1.
    5000001    1    1    2    0    0  0.25507671386E+03  0.18661991596E+03 -0.13311670782E+04  0.13810289328E+04  0.18800000000E+03 0.  0.
   -5000001    1    1    2    0    0 -0.25507671386E+03 -0.18661991596E+03 -0.61061688611E+03  0.71280299143E+03  0.18800000000E+03 0.  0.
<mgrwt>
<rscale>  0 0.78333081E+03</rscale>
<asrwt>0</asrwt>
<pdfrwt beam="1">  1        2 0.28825824E+00 0.78333081E+03</pdfrwt>
<pdfrwt beam="2">  1       -2 0.10860570E-01 0.78333081E+03</pdfrwt>
<totfact> 0.47965494E+02</totfact>
</mgrwt>
</event>
<event>
 4    1  0.6346694E-005  0.7788155E+03  0.7818608E-02  0.9591197E-01
          2   -1    0    0  501    0  0.00000000000E+00  0.00000000000E+00  0.43834302280E+03  0.43834302281E+03  0.25500000000E-02 0.  1.
         -2   -1    0    0    0  501 -0.00000000000E+00 -0.00000000000E+00 -0.34593549178E+03  0.34593549179E+03  0.25500000000E-02 0. -1.
    5000001    1    1    2    0    0  0.99391671291E+02  0.30405314347E+03  0.16521647822E+03  0.40616191728E+03  0.18800000000E+03 0.  0.
   -5000001    1    1    2    0    0 -0.99391671291E+02 -0.30405314347E+03 -0.72808947197E+02  0.37811659732E+03  0.18800000000E+03 0.  0.
<mgrwt>
<rscale>  0 0.77881553E+03</rscale>
<asrwt>0</asrwt>
<pdfrwt beam="1">  1        2 0.62620432E-01 0.77881553E+03</pdfrwt>
<pdfrwt beam="2">  1       -2 0.49419356E-01 0.77881553E+03</pdfrwt>
<totfact> 0.30436485E+02</totfact>
</mgrwt>
</event>
<event>
 4    1  0.6346694E-005  0.9975089E+03  0.7818608E-02  0.9311281E-01
         -2   -1    0    0    0  501 -0.00000000000E+00  0.00000000000E+00  0.31125579470E+03  0.31125579471E+03  0.25500000000E-02 0. -1.
          2   -1    0    0  501    0  0.00000000000E+00 -0.00000000000E+00 -0.79920115523E+03  0.79920115523E+03  0.25500000000E-02 0.  1.
    5000001    1    1    2    0    0  0.46170038054E+03 -0.45248968471E+01 -0.22730116702E+03  0.54790285326E+03  0.18800000000E+03 0.  0.
   -5000001    1    1    2    0    0 -0.46170038054E+03  0.45248968471E+01 -0.26064419350E+03  0.56255409668E+03  0.18800000000E+03 0.  0.
<mgrwt>
<rscale>  0 0.99750888E+03</rscale>
<asrwt>0</asrwt>
<pdfrwt beam="1">  1        2 0.11417159E+00 0.99750888E+03</pdfrwt>
<pdfrwt beam="2">  1       -2 0.44465114E-01 0.99750888E+03</pdfrwt>
<totfact> 0.18211753E+02</totfact>
</mgrwt>
</event>
<event>
 4    1  0.6346694E-005  0.4312433E+03  0.7818608E-02  0.1033468E+00
         -2   -1    0    0    0  501 -0.00000000000E+00  0.00000000000E+00  0.19527751281E+02  0.19527751448E+02  0.25500000000E-02 0. -1.
          2   -1    0    0  501    0  0.00000000000E+00 -0.00000000000E+00 -0.23808525924E+04  0.23808525924E+04  0.25500000000E-02 0.  1.
    5000001    1    1    2    0    0 -0.40046872167E+02  0.51247400228E+02 -0.16436489523E+04  0.16556436593E+04  0.18800000000E+03 0.  0.
   -5000001    1    1    2    0    0  0.40046872167E+02 -0.51247400228E+02 -0.71767588875E+03  0.74473668454E+03  0.18800000000E+03 0.  0.
<mgrwt>
<rscale>  0 0.43124331E+03</rscale>
<asrwt>0</asrwt>
<pdfrwt beam="1">  1        2 0.34012161E+00 0.43124331E+03</pdfrwt>
<pdfrwt beam="2">  1       -2 0.27896803E-02 0.43124331E+03</pdfrwt>
<totfact> 0.26891834E+03</totfact>
</mgrwt>
</event>
<event>
 4    1  0.6346694E-005  0.5851900E+03  0.7818608E-02  0.9936617E-01
         -2   -1    0    0    0  501 -0.00000000000E+00  0.00000000000E+00  0.36563838702E+03  0.36563838703E+03  0.25500000000E-02 0. -1.
          2   -1    0    0  501    0  0.00000000000E+00 -0.00000000000E+00 -0.23414349019E+03  0.23414349020E+03  0.25500000000E-02 0.  1.
    5000001    1    1    2    0    0  0.17314269545E+03  0.87158107540E+02 -0.49724679325E+02  0.27457507613E+03  0.18800000000E+03 0.  0.
   -5000001    1    1    2    0    0 -0.17314269545E+03 -0.87158107540E+02  0.18121957616E+03  0.32520680110E+03  0.18800000000E+03 0.  0.
<mgrwt>
<rscale>  0 0.58519005E+03</rscale>
<asrwt>0</asrwt>
<pdfrwt beam="1">  1        2 0.33449070E-01 0.58519005E+03</pdfrwt>
<pdfrwt beam="2">  1       -2 0.52234055E-01 0.58519005E+03</pdfrwt>
<totfact> 0.54863140E+02</totfact>
</mgrwt>
</event>
<event>
 4    1  0.6346694E-005  0.1476855E+04  0.7818608E-02  0.8899991E-01
          2   -1    0    0  501    0  0.00000000000E+00  0.00000000000E+00  0.10629931860E+04  0.10629931860E+04  0.25500000000E-02 0.  1.
         -2   -1    0    0    0  501 -0.00000000000E+00 -0.00000000000E+00 -0.51296226881E+03  0.51296226881E+03  0.25500000000E-02 0. -1.
    5000001    1    1    2    0    0  0.46438041608E+03  0.36747893168E+03  0.70084331357E+03  0.93659771847E+03  0.18800000000E+03 0.  0.
   -5000001    1    1    2    0    0 -0.46438041608E+03 -0.36747893168E+03 -0.15081239642E+03  0.63935773631E+03  0.18800000000E+03 0.  0.
<mgrwt>
<rscale>  0 0.14768553E+04</rscale>
<asrwt>0</asrwt>
<pdfrwt beam="1">  1        2 0.15185617E+00 0.14768553E+04</pdfrwt>
<pdfrwt beam="2">  1       -2 0.73280325E-01 0.14768553E+04</pdfrwt>
<totfact> 0.41900605E+01</totfact>
</mgrwt>
</event>
<event>
 4    1  0.6346694E-005  0.7698312E+03  0.7818608E-02  0.9604742E-01
         -2   -1    0    0    0  501 -0.00000000000E+00  0.00000000000E+00  0.79657605492E+02  0.79657605533E+02  0.25500000000E-02 0. -1.
          2   -1    0    0  501    0  0.00000000000E+00 -0.00000000000E+00 -0.18599609153E+04  0.18599609153E+04  0.25500000000E-02 0.  1.
    5000001    1    1    2    0    0 -0.24431160831E+03 -0.22972718701E+03 -0.84279437524E+03  0.92634178431E+03  0.18800000000E+03 0.  0.
   -5000001    1    1    2    0    0  0.24431160831E+03  0.22972718701E+03 -0.93750893460E+03  0.10132767366E+04  0.18800000000E+03 0.  0.
<mgrwt>
<rscale>  0 0.76983124E+03</rscale>
<asrwt>0</asrwt>
<pdfrwt beam="1">  1        2 0.26570868E+00 0.76983124E+03</pdfrwt>
<pdfrwt beam="2">  1       -2 0.11379659E-01 0.76983124E+03</pdfrwt>
<totfact> 0.53455547E+02</totfact>
</mgrwt>
</event>
<event>
 4    1  0.6346694E-005  0.9528943E+03  0.7818608E-02  0.9361774E-01
          2   -1    0    0  501    0  0.00000000000E+00  0.00000000000E+00  0.92706178120E+03  0.92706178120E+03  0.25500000000E-02 0.  1.
         -2   -1    0    0    0  501 -0.00000000000E+00 -0.00000000000E+00 -0.24486165877E+03  0.24486165878E+03  0.25500000000E-02 0. -1.
    5000001    1    1    2    0    0 -0.30939658518E+03 -0.49660987809E+02  0.71709327384E+03  0.80483490482E+03  0.18800000000E+03 0.  0.
   -5000001    1    1    2    0    0  0.30939658518E+03  0.49660987809E+02 -0.34893151408E+02  0.36708853516E+03  0.18800000000E+03 0.  0.
<mgrwt>
<rscale>  0 0.95289430E+03</rscale>
<asrwt>0</asrwt>
<pdfrwt beam="1">  1        2 0.13243740E+00 0.95289430E+03</pdfrwt>
<pdfrwt beam="2">  1       -2 0.34980237E-01 0.95289430E+03</pdfrwt>
<totfact> 0.23906644E+02</totfact>
</mgrwt>
</event>
<event>
 4    1  0.6346694E-005  0.9336836E+03  0.7818608E-02  0.9384428E-01
         -2   -1    0    0    0  501 -0.00000000000E+00  0.00000000000E+00  0.67693334086E+03  0.67693334087E+03  0.25500000000E-02 0. -1.
          2   -1    0    0  501    0  0.00000000000E+00 -0.00000000000E+00 -0.32195382590E+03  0.32195382591E+03  0.25500000000E-02 0.  1.
    5000001    1    1    2    0    0 -0.27278705389E+03  0.29477227157E+03  0.33360430650E+03  0.55492278938E+03  0.18800000000E+03 0.  0.
   -5000001    1    1    2    0    0  0.27278705389E+03 -0.29477227157E+03  0.21375208467E+02  0.44396437740E+03  0.18800000000E+03 0.  0.
<mgrwt>
<rscale>  0 0.93368363E+03</rscale>
<asrwt>0</asrwt>
<pdfrwt beam="1">  1        2 0.45993404E-01 0.93368363E+03</pdfrwt>
<pdfrwt beam="2">  1       -2 0.96704762E-01 0.93368363E+03</pdfrwt>
<totfact> 0.98757623E+01</totfact>
</mgrwt>
</event>
<event>
 4    1  0.6346694E-005  0.6431169E+03  0.7818608E-02  0.9819781E-01
         -2   -1    0    0    0  501 -0.00000000000E+00  0.00000000000E+00  0.37697336728E+02  0.37697336814E+02  0.25500000000E-02 0. -1.
          2   -1    0    0  501    0  0.00000000000E+00 -0.00000000000E+00 -0.27428947113E+04  0.27428947113E+04  0.25500000000E-02 0.  1.
    5000001    1    1    2    0    0  0.16115895974E+03  0.20470163579E+03 -0.12944535453E+04  0.13337274650E+04  0.18800000000E+03 0.  0.
   -5000001    1    1    2    0    0 -0.16115895974E+03 -0.20470163579E+03 -0.14107438293E+04  0.14468645831E+04  0.18800000000E+03 0.  0.
<mgrwt>
<rscale>  0 0.64311687E+03</rscale>
<asrwt>0</asrwt>
<pdfrwt beam="1">  1        2 0.39184198E+00 0.64311687E+03</pdfrwt>
<pdfrwt beam="2">  1       -2 0.53853355E-02 0.64311687E+03</pdfrwt>
<totfact> 0.63057232E+02</totfact>
</mgrwt>
</event>
<event>
 4    1  0.6346694E-005  0.1471912E+04  0.7818608E-02  0.8903349E-01
          2   -1    0    0  501    0  0.00000000000E+00  0.00000000000E+00  0.19832733069E+04  0.19832733069E+04  0.25500000000E-02 0.  1.
         -2   -1    0    0    0  501 -0.00000000000E+00 -0.00000000000E+00 -0.27309974124E+03  0.27309974125E+03  0.25500000000E-02 0. -1.
    5000001    1    1    2    0    0 -0.19712215959E+03  0.27311220839E+03  0.18158952749E+04  0.18564124201E+04  0.18800000000E+03 0.  0.
   -5000001    1    1    2    0    0  0.19712215959E+03 -0.27311220839E+03 -0.10572170924E+03  0.39996062803E+03  0.18800000000E+03 0.  0.
<mgrwt>
<rscale>  0 0.14719123E+04</rscale>
<asrwt>0</asrwt>
<pdfrwt beam="1">  1        2 0.28332476E+00 0.14719123E+04</pdfrwt>
<pdfrwt beam="2">  1       -2 0.39014249E-01 0.14719123E+04</pdfrwt>
<totfact> 0.49269934E+01</totfact>
</mgrwt>
</event>
<event>
 4    1  0.6346694E-005  0.6464002E+03  0.7818608E-02  0.9813558E-01
          2   -1    0    0  501    0  0.00000000000E+00  0.00000000000E+00  0.17179907990E+04  0.17179907990E+04  0.25500000000E-02 0.  1.
         -2   -1    0    0    0  501 -0.00000000000E+00 -0.00000000000E+00 -0.60802595497E+02  0.60802595550E+02  0.25500000000E-02 0. -1.
    5000001    1    1    2    0    0  0.15971505227E+03  0.20276517385E+03  0.96595739474E+03  0.10173693047E+04  0.18800000000E+03 0.  0.
   -5000001    1    1    2    0    0 -0.15971505227E+03 -0.20276517385E+03  0.69123080872E+03  0.76142408983E+03  0.18800000000E+03 0.  0.
<mgrwt>
<rscale>  0 0.64640018E+03</rscale>
<asrwt>0</asrwt>
<pdfrwt beam="1">  1        2 0.24542729E+00 0.64640018E+03</pdfrwt>
<pdfrwt beam="2">  1       -2 0.86860840E-02 0.64640018E+03</pdfrwt>
<totfact> 0.98575430E+02</totfact>
</mgrwt>
</event>
<event>
 4    1  0.6346694E-005  0.4637639E+03  0.7818608E-02  0.1023695E+00
          2   -1    0    0  501    0  0.00000000000E+00  0.00000000000E+00  0.30297628476E+04  0.30297628476E+04  0.25500000000E-02 0.  1.
         -2   -1    0    0    0  501 -0.00000000000E+00 -0.00000000000E+00 -0.17747009024E+02  0.17747009208E+02  0.25500000000E-02 0. -1.
    5000001    1    1    2    0    0  0.26847351428E+02 -0.11172230126E+03  0.10311205665E+04  0.10543985373E+04  0.18800000000E+03 0.  0.
   -5000001    1    1    2    0    0 -0.26847351428E+02  0.11172230126E+03  0.19808952721E+04  0.19931113195E+04  0.18800000000E+03 0.  0.
<mgrwt>
<rscale>  0 0.46376386E+03</rscale>
<asrwt>0</asrwt>
<pdfrwt beam="1">  1        2 0.43282331E+00 0.46376386E+03</pdfrwt>
<pdfrwt beam="2">  1       -2 0.25352868E-02 0.46376386E+03</pdfrwt>
<totfact> 0.14247213E+03</totfact>
</mgrwt>
</event>
<event>
 4    1  0.6346694E-005  0.1127106E+04  0.7818608E-02  0.9179168E-01
         -2   -1    0    0    0  501 -0.00000000000E+00  0.00000000000E+00  0.41974213473E+03  0.41974213474E+03  0.25500000000E-02 0. -1.
          2   -1    0    0  501    0  0.00000000000E+00 -0.00000000000E+00 -0.75663594297E+03  0.75663594297E+03  0.25500000000E-02 0.  1.
    5000001    1    1    2    0    0  0.46535873367E+03 -0.23697838986E+03 -0.27033876484E+03  0.61736905983E+03  0.18800000000E+03 0.  0.
   -5000001    1    1    2    0    0 -0.46535873367E+03  0.23697838986E+03 -0.66555043402E+02  0.55900901788E+03  0.18800000000E+03 0.  0.
<mgrwt>
<rscale>  0 0.11271060E+04</rscale>
<asrwt>0</asrwt>
<pdfrwt beam="1">  1        2 0.10809085E+00 0.11271060E+04</pdfrwt>
<pdfrwt beam="2">  1       -2 0.59963162E-01 0.11271060E+04</pdfrwt>
<totfact> 0.10501586E+02</totfact>
</mgrwt>
</event>
<event>
 4    1  0.6346694E-005  0.6266943E+03  0.7818608E-02  0.9851521E-01
          2   -1    0    0  501    0  0.00000000000E+00  0.00000000000E+00  0.16379510333E+04  0.16379510333E+04  0.25500000000E-02 0.  1.
         -2   -1    0    0    0  501 -0.00000000000E+00 -0.00000000000E+00 -0.59944668614E+02  0.59944668669E+02  0.25500000000E-02 0. -1.
    5000001    1    1    2    0    0 -0.18572420878E+03  0.41960240053E+02  0.34722886422E+03  0.43836745730E+03  0.18800000000E+03 0.  0.
   -5000001    1    1    2    0    0  0.18572420878E+03 -0.41960240053E+02  0.12307775005E+04  0.12595282447E+04  0.18800000000E+03 0.  0.
<mgrwt>
<rscale>  0 0.62669429E+03</rscale>
<asrwt>0</asrwt>
<pdfrwt beam="1">  1        2 0.23399300E+00 0.62669429E+03</pdfrwt>
<pdfrwt beam="2">  1       -2 0.85635243E-02 0.62669429E+03</pdfrwt>
<totfact> 0.11090270E+03</totfact>
</mgrwt>
</event>
<event>
 4    1  0.6346694E-005  0.9343911E+03  0.7818608E-02  0.9383583E-01
          2   -1    0    0  501    0  0.00000000000E+00  0.00000000000E+00  0.67737413333E+03  0.67737413333E+03  0.25500000000E-02 0.  1.
         -2   -1    0    0    0  501 -0.00000000000E+00 -0.00000000000E+00 -0.32223209960E+03  0.32223209961E+03  0.25500000000E-02 0. -1.
    5000001    1    1    2    0    0 -0.40613579829E+03  0.10852422631E+03  0.93308879819E+02  0.46986630163E+03  0.18800000000E+03 0.  0.
   -5000001    1    1    2    0    0  0.40613579829E+03 -0.10852422631E+03  0.26183315391E+03  0.52973993132E+03  0.18800000000E+03 0.  0.
<mgrwt>
<rscale>  0 0.93439112E+03</rscale>
<asrwt>0</asrwt>
<pdfrwt beam="1">  1        2 0.96767734E-01 0.93439112E+03</pdfrwt>
<pdfrwt beam="2">  1       -2 0.46033157E-01 0.93439112E+03</pdfrwt>
<totfact> 0.20988813E+02</totfact>
</mgrwt>
</event>
<event>
 4    1  0.6346694E-005  0.7751696E+03  0.7818608E-02  0.9596670E-01
         -2   -1    0    0    0  501 -0.00000000000E+00  0.00000000000E+00  0.95717393980E+02  0.95717394014E+02  0.25500000000E-02 0.  1.
          2   -1    0    0  501    0  0.00000000000E+00 -0.00000000000E+00 -0.15694323826E+04  0.15694323826E+04  0.25500000000E-02 0. -1.
    5000001    1    1    2    0    0  0.70674108749E+02  0.31781670512E+03 -0.53448213485E+03  0.65346571461E+03  0.18800000000E+03 0.  0.
   -5000001    1    1    2    0    0 -0.70674108749E+02 -0.31781670512E+03 -0.93923285376E+03  0.10116840620E+04  0.18800000000E+03 0.  0.
<mgrwt>
<rscale>  0 0.77516960E+03</rscale>
<asrwt>0</asrwt>
<pdfrwt beam="1">  1        2 0.22420461E+00 0.77516960E+03</pdfrwt>
<pdfrwt beam="2">  1       -2 0.13673914E-01 0.77516960E+03</pdfrwt>
<totfact> 0.55520821E+02</totfact>
</mgrwt>
</event>
<event>
 4    1  0.6346694E-005  0.8443004E+03  0.7818608E-02  0.9498019E-01
          2   -1    0    0  501    0  0.00000000000E+00  0.00000000000E+00  0.63421942090E+03  0.63421942091E+03  0.25500000000E-02 0.  1.
         -2   -1    0    0    0  501 -0.00000000000E+00 -0.00000000000E+00 -0.28099233351E+03  0.28099233352E+03  0.25500000000E-02 0. -1.
    5000001    1    1    2    0    0  0.30275295261E+02 -0.36838835228E+03  0.26224329059E+03  0.49065478196E+03  0.18800000000E+03 0.  0.
   -5000001    1    1    2    0    0 -0.30275295261E+02  0.36838835228E+03  0.90983796799E+02  0.42455697247E+03  0.18800000000E+03 0.  0.
<mgrwt>
<rscale>  0 0.84430041E+03</rscale>
<asrwt>0</asrwt>
<pdfrwt beam="1">  1        2 0.90602773E-01 0.84430041E+03</pdfrwt>
<pdfrwt beam="2">  1       -2 0.40141762E-01 0.84430041E+03</pdfrwt>
<totfact> 0.29924961E+02</totfact>
</mgrwt>
</event>
<event>
 4    1  0.6346694E-005  0.1410200E+04  0.7818608E-02  0.8946468E-01
         -2   -1    0    0    0  501 -0.00000000000E+00  0.00000000000E+00  0.29087748554E+03  0.29087748555E+03  0.25500000000E-02 0. -1.
          2   -1    0    0  501    0  0.00000000000E+00 -0.00000000000E+00 -0.17091945826E+04  0.17091945826E+04  0.25500000000E-02 0.  1.
    5000001    1    1    2    0    0  0.63471000259E+03 -0.22209325444E+03 -0.56990577899E+03  0.90128730047E+03  0.18800000000E+03 0.  0.
   -5000001    1    1    2    0    0 -0.63471000259E+03  0.22209325444E+03 -0.84841131804E+03  0.10987847677E+04  0.18800000000E+03 0.  0.
<mgrwt>
<rscale>  0 0.14102003E+04</rscale>
<asrwt>0</asrwt>
<pdfrwt beam="1">  1        2 0.24417065E+00 0.14102003E+04</pdfrwt>
<pdfrwt beam="2">  1       -2 0.41553927E-01 0.14102003E+04</pdfrwt>
<totfact> 0.60583459E+01</totfact>
</mgrwt>
</event>
<event>
 4    1  0.6346694E-005  0.5544629E+03  0.7818608E-02  0.1000466E+00
          2   -1    0    0  501    0  0.00000000000E+00  0.00000000000E+00  0.14008364900E+04  0.14008364900E+04  0.25500000000E-02 0.  1.
         -2   -1    0    0    0  501 -0.00000000000E+00 -0.00000000000E+00 -0.54865271731E+02  0.54865271790E+02  0.25500000000E-02 0. -1.
    5000001    1    1    2    0    0  0.75782896407E+02 -0.11803876608E+03  0.10609547425E+04  0.10865749690E+04  0.18800000000E+03 0.  0.
   -5000001    1    1    2    0    0 -0.75782896407E+02  0.11803876608E+03  0.28501647582E+03  0.36912679281E+03  0.18800000000E+03 0.  0.
<mgrwt>
<rscale>  0 0.55446289E+03</rscale>
<asrwt>0</asrwt>
<pdfrwt beam="1">  1        2 0.20011946E+00 0.55446289E+03</pdfrwt>
<pdfrwt beam="2">  1       -2 0.78378973E-02 0.55446289E+03</pdfrwt>
<totfact> 0.17009538E+03</totfact>
</mgrwt>
</event>
<event>
 4    1  0.6346694E-005  0.6304043E+03  0.7818608E-02  0.9844260E-01
          2   -1    0    0  501    0  0.00000000000E+00  0.00000000000E+00  0.35942253360E+03  0.35942253361E+03  0.25500000000E-02 0.  1.
         -2   -1    0    0    0  501 -0.00000000000E+00 -0.00000000000E+00 -0.27642223769E+03  0.27642223770E+03  0.25500000000E-02 0. -1.
    5000001    1    1    2    0    0  0.98840220976E+02  0.14644437435E+03  0.22415145658E+03  0.34176486003E+03  0.18800000000E+03 0.  0.
   -5000001    1    1    2    0    0 -0.98840220976E+02 -0.14644437435E+03 -0.14115116067E+03  0.29407991129E+03  0.18800000000E+03 0.  0.
<mgrwt>
<rscale>  0 0.63040425E+03</rscale>
<asrwt>0</asrwt>
<pdfrwt beam="1">  1        2 0.51346077E-01 0.63040425E+03</pdfrwt>
<pdfrwt beam="2">  1       -2 0.39488891E-01 0.63040425E+03</pdfrwt>
<totfact> 0.59502451E+02</totfact>
</mgrwt>
</event>
<event>
 4    1  0.6346694E-005  0.4567167E+03  0.7818608E-02  0.1025738E+00
         -2   -1    0    0    0  501 -0.00000000000E+00  0.00000000000E+00  0.83921652458E+03  0.83921652459E+03  0.25500000000E-02 0.  1.
          2   -1    0    0  501    0  0.00000000000E+00 -0.00000000000E+00 -0.62138357176E+02  0.62138357228E+02  0.25500000000E-02 0. -1.
    5000001    1    1    2    0    0  0.10175727810E+03  0.30676833222E+02  0.24207103045E+03  0.32440406213E+03  0.18800000000E+03 0.  0.
   -5000001    1    1    2    0    0 -0.10175727810E+03 -0.30676833222E+02  0.53500713695E+03  0.57695081968E+03  0.18800000000E+03 0.  0.
<mgrwt>
<rscale>  0 0.45671670E+03</rscale>
<asrwt>0</asrwt>
<pdfrwt beam="1">  1        2 0.88769085E-02 0.45671670E+03</pdfrwt>
<pdfrwt beam="2">  1       -2 0.11988807E+00 0.45671670E+03</pdfrwt>
<totfact> 0.41660923E+02</totfact>
</mgrwt>
</event>
<event>
 4    1  0.6346694E-005  0.5861227E+03  0.7818608E-02  0.9934623E-01
         -2   -1    0    0    0  501 -0.00000000000E+00  0.00000000000E+00  0.42102026326E+02  0.42102026403E+02  0.25500000000E-02 0. -1.
          2   -1    0    0  501    0  0.00000000000E+00 -0.00000000000E+00 -0.20399245455E+04  0.20399245455E+04  0.25500000000E-02 0.  1.
    5000001    1    1    2    0    0  0.90029950160E+02  0.18044399309E+03 -0.13519138862E+04  0.13797393168E+04  0.18800000000E+03 0.  0.
   -5000001    1    1    2    0    0 -0.90029950160E+02 -0.18044399309E+03 -0.64590863305E+03  0.70228725520E+03  0.18800000000E+03 0.  0.
<mgrwt>
<rscale>  0 0.58612271E+03</rscale>
<asrwt>0</asrwt>
<pdfrwt beam="1">  1        2 0.29141773E+00 0.58612271E+03</pdfrwt>
<pdfrwt beam="2">  1       -2 0.60145765E-02 0.58612271E+03</pdfrwt>
<totfact> 0.12181525E+03</totfact>
</mgrwt>
</event>
<event>
 4    1  0.6346694E-005  0.6770952E+03  0.7818608E-02  0.9757225E-01
         -2   -1    0    0    0  501 -0.00000000000E+00  0.00000000000E+00  0.23606540416E+03  0.23606540418E+03  0.25500000000E-02 0. -1.
          2   -1    0    0  501    0  0.00000000000E+00 -0.00000000000E+00 -0.48551996181E+03  0.48551996182E+03  0.25500000000E-02 0.  1.
    5000001    1    1    2    0    0 -0.14569507781E+03 -0.10395035246E+03  0.10689617554E+03  0.28071965343E+03  0.18800000000E+03 0.  0.
   -5000001    1    1    2    0    0  0.14569507781E+03  0.10395035246E+03 -0.35635073318E+03  0.44086571257E+03  0.18800000000E+03 0.  0.
<mgrwt>
<rscale>  0 0.67709517E+03</rscale>
<asrwt>0</asrwt>
<pdfrwt beam="1">  1        2 0.69359994E-01 0.67709517E+03</pdfrwt>
<pdfrwt beam="2">  1       -2 0.33723629E-01 0.67709517E+03</pdfrwt>
<totfact> 0.57409309E+02</totfact>
</mgrwt>
</event>
<event>
 4    1  0.6346694E-005  0.6235381E+03  0.7818608E-02  0.9857741E-01
         -2   -1    0    0    0  501 -0.00000000000E+00  0.00000000000E+00  0.21067064258E+03  0.21067064260E+03  0.25500000000E-02 0. -1.
          2   -1    0    0  501    0  0.00000000000E+00 -0.00000000000E+00 -0.46138336677E+03  0.46138336678E+03  0.25500000000E-02 0.  1.
    5000001    1    1    2    0    0 -0.90927683246E+02 -0.19180174096E+02 -0.37400122237E+03  0.42878507086E+03  0.18800000000E+03 0.  0.
   -5000001    1    1    2    0    0  0.90927683246E+02  0.19180174096E+02  0.12328849819E+03  0.24326893851E+03  0.18800000000E+03 0.  0.
<mgrwt>
<rscale>  0 0.62353807E+03</rscale>
<asrwt>0</asrwt>
<pdfrwt beam="1">  1        2 0.65911909E-01 0.62353807E+03</pdfrwt>
<pdfrwt beam="2">  1       -2 0.30095806E-01 0.62353807E+03</pdfrwt>
<totfact> 0.75310722E+02</totfact>
</mgrwt>
</event>
<event>
 4    1  0.6346694E-005  0.6785074E+03  0.7818608E-02  0.9754710E-01
          2   -1    0    0  501    0  0.00000000000E+00  0.00000000000E+00  0.31001461499E+03  0.31001461500E+03  0.25500000000E-02 0. -1.
         -2   -1    0    0    0  501 -0.00000000000E+00 -0.00000000000E+00 -0.37125050600E+03  0.37125050600E+03  0.25500000000E-02 0.  1.
    5000001    1    1    2    0    0  0.16999008312E+03  0.14842273290E+03  0.13984588523E+03  0.32531032510E+03  0.18800000000E+03 0.  0.
   -5000001    1    1    2    0    0 -0.16999008312E+03 -0.14842273290E+03 -0.20108177623E+03  0.35595479591E+03  0.18800000000E+03 0.  0.
<mgrwt>
<rscale>  0 0.67850743E+03</rscale>
<asrwt>0</asrwt>
<pdfrwt beam="1">  1        2 0.44287802E-01 0.67850743E+03</pdfrwt>
<pdfrwt beam="2">  1       -2 0.53035786E-01 0.67850743E+03</pdfrwt>
<totfact> 0.38873264E+02</totfact>
</mgrwt>
</event>
<event>
 4    1  0.6346694E-005  0.5537726E+03  0.7818608E-02  0.1000624E+00
          2   -1    0    0  501    0  0.00000000000E+00  0.00000000000E+00  0.15669231607E+03  0.15669231609E+03  0.25500000000E-02 0.  1.
         -2   -1    0    0    0  501 -0.00000000000E+00 -0.00000000000E+00 -0.48927744263E+03  0.48927744263E+03  0.25500000000E-02 0. -1.
    5000001    1    1    2    0    0 -0.16081430022E+03  0.15342500622E+02 -0.31022705376E+03  0.39709124438E+03  0.18800000000E+03 0.  0.
   -5000001    1    1    2    0    0  0.16081430022E+03 -0.15342500622E+02 -0.22358072802E+02  0.24887851434E+03  0.18800000000E+03 0.  0.
<mgrwt>
<rscale>  0 0.55377257E+03</rscale>
<asrwt>0</asrwt>
<pdfrwt beam="1">  1        2 0.22384617E-01 0.55377257E+03</pdfrwt>
<pdfrwt beam="2">  1       -2 0.69896777E-01 0.55377257E+03</pdfrwt>
<totfact> 0.46858843E+02</totfact>
</mgrwt>
</event>
<event>
 4    1  0.6346694E-005  0.8678542E+03  0.7818608E-02  0.9466682E-01
          2   -1    0    0  501    0  0.00000000000E+00  0.00000000000E+00  0.14498191810E+04  0.14498191810E+04  0.25500000000E-02 0.  1.
         -2   -1    0    0    0  501 -0.00000000000E+00 -0.00000000000E+00 -0.12987323540E+03  0.12987323543E+03  0.25500000000E-02 0. -1.
    5000001    1    1    2    0    0 -0.21718254495E+02  0.15128956049E+03  0.13152259588E+04  0.13373569218E+04  0.18800000000E+03 0.  0.
   -5000001    1    1    2    0    0  0.21718254495E+02 -0.15128956049E+03  0.47199868599E+01  0.24233549465E+03  0.18800000000E+03 0.  0.
<mgrwt>
<rscale>  0 0.86785415E+03</rscale>
<asrwt>0</asrwt>
<pdfrwt beam="1">  1        2 0.20711701E+00 0.86785415E+03</pdfrwt>
<pdfrwt beam="2">  1       -2 0.18553320E-01 0.86785415E+03</pdfrwt>
<totfact> 0.37964399E+02</totfact>
</mgrwt>
</event>
<event>
 4    1  0.6346694E-005  0.5503227E+03  0.7818608E-02  0.1001419E+00
          2   -1    0    0  501    0  0.00000000000E+00  0.00000000000E+00  0.11876459619E+04  0.11876459619E+04  0.25500000000E-02 0.  1.
         -2   -1    0    0    0  501 -0.00000000000E+00 -0.00000000000E+00 -0.63751122785E+02  0.63751122836E+02  0.25500000000E-02 0. -1.
    5000001    1    1    2    0    0 -0.11040967122E+03  0.16786585508E+03  0.56359154916E+03  0.62717515502E+03  0.18800000000E+03 0.  0.
   -5000001    1    1    2    0    0  0.11040967122E+03 -0.16786585508E+03  0.56030328999E+03  0.62422192975E+03  0.18800000000E+03 0.  0.
<mgrwt>
<rscale>  0 0.55032268E+03</rscale>
<asrwt>0</asrwt>
<pdfrwt beam="1">  1        2 0.16966370E+00 0.55032268E+03</pdfrwt>
<pdfrwt beam="2">  1       -2 0.91073037E-02 0.55032268E+03</pdfrwt>
<totfact> 0.17479899E+03</totfact>
</mgrwt>
</event>
<event>
 4    1  0.6346694E-005  0.1148741E+04  0.7818608E-02  0.9158946E-01
          2   -1    0    0  501    0  0.00000000000E+00  0.00000000000E+00  0.73863857181E+03  0.73863857182E+03  0.25500000000E-02 0.  1.
         -2   -1    0    0    0  501 -0.00000000000E+00 -0.00000000000E+00 -0.44663466840E+03  0.44663466841E+03  0.25500000000E-02 0. -1.
    5000001    1    1    2    0    0 -0.37015377600E+03  0.39490860808E+03  0.18715735473E+03  0.60277566478E+03  0.18800000000E+03 0.  0.
   -5000001    1    1    2    0    0  0.37015377600E+03 -0.39490860808E+03  0.10484654869E+03  0.58249757544E+03  0.18800000000E+03 0.  0.
<mgrwt>
<rscale>  0 0.11487412E+04</rscale>
<asrwt>0</asrwt>
<pdfrwt beam="1">  1        2 0.10551980E+00 0.11487412E+04</pdfrwt>
<pdfrwt beam="2">  1       -2 0.63804953E-01 0.11487412E+04</pdfrwt>
<totfact> 0.94741473E+01</totfact>
</mgrwt>
</event>
<event>
 4    1  0.6346694E-005  0.9055019E+03  0.7818608E-02  0.9418730E-01
          2   -1    0    0  501    0  0.00000000000E+00  0.00000000000E+00  0.28060110314E+04  0.28060110314E+04  0.25500000000E-02 0.  1.
         -2   -1    0    0    0  501 -0.00000000000E+00 -0.00000000000E+00 -0.73051532493E+02  0.73051532538E+02  0.25500000000E-02 0. -1.
    5000001    1    1    2    0    0  0.39194117287E+03  0.83210690420E+02  0.10632143351E+04  0.11516556015E+04  0.18800000000E+03 0.  0.
   -5000001    1    1    2    0    0 -0.39194117287E+03 -0.83210690420E+02  0.16697451637E+04  0.17274069624E+04  0.18800000000E+03 0.  0.
<mgrwt>
<rscale>  0 0.90550186E+03</rscale>
<asrwt>0</asrwt>
<pdfrwt beam="1">  1        2 0.40085879E+00 0.90550186E+03</pdfrwt>
<pdfrwt beam="2">  1       -2 0.10435931E-01 0.90550186E+03</pdfrwt>
<totfact> 0.19842779E+02</totfact>
</mgrwt>
</event>
<event>
 4    1  0.6346694E-005  0.6717769E+03  0.7818608E-02  0.9766753E-01
          2   -1    0    0  501    0  0.00000000000E+00  0.00000000000E+00  0.29542811371E+04  0.29542811371E+04  0.25500000000E-02 0.  1.
         -2   -1    0    0    0  501 -0.00000000000E+00 -0.00000000000E+00 -0.38188998265E+02  0.38188998350E+02  0.25500000000E-02 0. -1.
    5000001    1    1    2    0    0 -0.54036031896E+02 -0.22316690764E+03  0.75719678301E+03  0.81327383433E+03  0.18800000000E+03 0.  0.
   -5000001    1    1    2    0    0  0.54036031896E+02  0.22316690764E+03  0.21588953558E+04  0.21791963011E+04  0.18800000000E+03 0.  0.
<mgrwt>
<rscale>  0 0.67177686E+03</rscale>
<asrwt>0</asrwt>
<pdfrwt beam="1">  1        2 0.42204018E+00 0.67177686E+03</pdfrwt>
<pdfrwt beam="2">  1       -2 0.54555709E-02 0.67177686E+03</pdfrwt>
<totfact> 0.47519626E+02</totfact>
</mgrwt>
</event>
<event>
 4    1  0.6346694E-005  0.5838301E+03  0.7818608E-02  0.9939533E-01
          2   -1    0    0  501    0  0.00000000000E+00  0.00000000000E+00  0.20466213238E+03  0.20466213240E+03  0.25500000000E-02 0.  1.
         -2   -1    0    0    0  501 -0.00000000000E+00 -0.00000000000E+00 -0.41636625287E+03  0.41636625288E+03  0.25500000000E-02 0. -1.
    5000001    1    1    2    0    0 -0.20311429716E+03  0.83485418671E+02 -0.62707043151E+02  0.29580636589E+03  0.18800000000E+03 0.  0.
   -5000001    1    1    2    0    0  0.20311429716E+03 -0.83485418671E+02 -0.14899707734E+03  0.32522201939E+03  0.18800000000E+03 0.  0.
<mgrwt>
<rscale>  0 0.58383013E+03</rscale>
<asrwt>0</asrwt>
<pdfrwt beam="1">  1        2 0.29237448E-01 0.58383013E+03</pdfrwt>
<pdfrwt beam="2">  1       -2 0.59480893E-01 0.58383013E+03</pdfrwt>
<totfact> 0.48744430E+02</totfact>
</mgrwt>
</event>
<event>
 4    1  0.6346694E-005  0.8567668E+03  0.7818608E-02  0.9481300E-01
         -2   -1    0    0    0  501 -0.00000000000E+00  0.00000000000E+00  0.90427257911E+02  0.90427257947E+02  0.25500000000E-02 0. -1.
          2   -1    0    0  501    0  0.00000000000E+00 -0.00000000000E+00 -0.20293918980E+04  0.20293918980E+04  0.25500000000E-02 0.  1.
    5000001    1    1    2    0    0  0.32484601761E+03 -0.18812702665E+03 -0.11801772240E+04  0.12526288331E+04  0.18800000000E+03 0.  0.
   -5000001    1    1    2    0    0 -0.32484601761E+03  0.18812702665E+03 -0.75878741601E+03  0.86719032283E+03  0.18800000000E+03 0.  0.
<mgrwt>
<rscale>  0 0.85676682E+03</rscale>
<asrwt>0</asrwt>
<pdfrwt beam="1">  1        2 0.28991310E+00 0.85676682E+03</pdfrwt>
<pdfrwt beam="2">  1       -2 0.12918181E-01 0.85676682E+03</pdfrwt>
<totfact> 0.35344716E+02</totfact>
</mgrwt>
</event>
<event>
 4    1  0.6346694E-005  0.4749448E+03  0.7818608E-02  0.1020534E+00
         -2   -1    0    0    0  501 -0.00000000000E+00  0.00000000000E+00  0.19765713691E+02  0.19765713856E+02  0.25500000000E-02 0. -1.
          2   -1    0    0  501    0  0.00000000000E+00 -0.00000000000E+00 -0.28530793405E+04  0.28530793405E+04  0.25500000000E-02 0.  1.
    5000001    1    1    2    0    0  0.13668277909E+03 -0.41056761377E+02 -0.15745419952E+04  0.15921351495E+04  0.18800000000E+03 0.  0.
   -5000001    1    1    2    0    0 -0.13668277909E+03  0.41056761377E+02 -0.12587716317E+04  0.12807099049E+04  0.18800000000E+03 0.  0.
<mgrwt>
<rscale>  0 0.47494484E+03</rscale>
<asrwt>0</asrwt>
<pdfrwt beam="1">  1        2 0.40758250E+00 0.47494484E+03</pdfrwt>
<pdfrwt beam="2">  1       -2 0.28236752E-02 0.47494484E+03</pdfrwt>
<totfact> 0.15046907E+03</totfact>
</mgrwt>
</event>
<event>
 4    1  0.6346694E-005  0.4460599E+03  0.7818608E-02  0.1028904E+00
          2   -1    0    0  501    0  0.00000000000E+00  0.00000000000E+00  0.36301494717E+04  0.36301494717E+04  0.25500000000E-02 0.  1.
         -2   -1    0    0    0  501 -0.00000000000E+00 -0.00000000000E+00 -0.13702564896E+02  0.13702565133E+02  0.25500000000E-02 0. -1.
    5000001    1    1    2    0    0 -0.66928531355E+02 -0.83328811407E+02  0.22538063914E+04  0.22641577616E+04  0.18800000000E+03 0.  0.
   -5000001    1    1    2    0    0  0.66928531355E+02  0.83328811407E+02  0.13626405153E+04  0.13796942752E+04  0.18800000000E+03 0.  0.
<mgrwt>
<rscale>  0 0.44605990E+03</rscale>
<asrwt>0</asrwt>
<pdfrwt beam="1">  1        2 0.51859270E+00 0.44605990E+03</pdfrwt>
<pdfrwt beam="2">  1       -2 0.19575096E-02 0.44605990E+03</pdfrwt>
<totfact> 0.95474095E+02</totfact>
</mgrwt>
</event>
<event>
 4    1  0.6346694E-005  0.1064199E+04  0.7818608E-02  0.9240806E-01
          2   -1    0    0  501    0  0.00000000000E+00  0.00000000000E+00  0.42184632355E+03  0.42184632356E+03  0.25500000000E-02 0. -1.
         -2   -1    0    0    0  501 -0.00000000000E+00 -0.00000000000E+00 -0.67116856991E+03  0.67116856992E+03  0.25500000000E-02 0.  1.
    5000001    1    1    2    0    0  0.18580219041E+02  0.46388402394E+03 -0.30911340770E+03  0.58858194929E+03  0.18800000000E+03 0.  0.
   -5000001    1    1    2    0    0 -0.18580219041E+02 -0.46388402394E+03  0.59791161345E+02  0.50443294419E+03  0.18800000000E+03 0.  0.
<mgrwt>
<rscale>  0 0.10641992E+04</rscale>
<asrwt>0</asrwt>
<pdfrwt beam="1">  1        2 0.60263761E-01 0.10641992E+04</pdfrwt>
<pdfrwt beam="2">  1       -2 0.95881224E-01 0.10641992E+04</pdfrwt>
<totfact> 0.73988434E+01</totfact>
</mgrwt>
</event>
<event>
 4    1  0.6346694E-005  0.6349735E+03  0.7818608E-02  0.9835391E-01
         -2   -1    0    0    0  501 -0.00000000000E+00  0.00000000000E+00  0.23798057068E+03  0.23798057069E+03  0.25500000000E-02 0. -1.
          2   -1    0    0  501    0  0.00000000000E+00 -0.00000000000E+00 -0.42355486319E+03  0.42355486320E+03  0.25500000000E-02 0.  1.
    5000001    1    1    2    0    0 -0.19900029959E+03 -0.48168843836E+02  0.67032916713E+02  0.28593490286E+03  0.18800000000E+03 0.  0.
   -5000001    1    1    2    0    0  0.19900029959E+03  0.48168843836E+02 -0.25260720923E+03  0.37560053103E+03  0.18800000000E+03 0.  0.
<mgrwt>
<rscale>  0 0.63497347E+03</rscale>
<asrwt>0</asrwt>
<pdfrwt beam="1">  1        2 0.60507837E-01 0.63497347E+03</pdfrwt>
<pdfrwt beam="2">  1       -2 0.33997225E-01 0.63497347E+03</pdfrwt>
<totfact> 0.66001726E+02</totfact>
</mgrwt>
</event>
<event>
 4    1  0.6346694E-005  0.4582442E+03  0.7818608E-02  0.1025292E+00
         -2   -1    0    0    0  501 -0.00000000000E+00  0.00000000000E+00  0.49009339627E+02  0.49009339693E+02  0.25500000000E-02 0. -1.
          2   -1    0    0  501    0  0.00000000000E+00 -0.00000000000E+00 -0.10711618532E+04  0.10711618532E+04  0.25500000000E-02 0.  1.
    5000001    1    1    2    0    0 -0.11060258411E+03  0.50418947964E+02 -0.63027927519E+03  0.66885795702E+03  0.18800000000E+03 0.  0.
   -5000001    1    1    2    0    0  0.11060258411E+03 -0.50418947964E+02 -0.39187323840E+03  0.45131323590E+03  0.18800000000E+03 0.  0.
<mgrwt>
<rscale>  0 0.45824419E+03</rscale>
<asrwt>0</asrwt>
<pdfrwt beam="1">  1        2 0.15302311E+00 0.45824419E+03</pdfrwt>
<pdfrwt beam="2">  1       -2 0.70013349E-02 0.45824419E+03</pdfrwt>
<totfact> 0.30950385E+03</totfact>
</mgrwt>
</event>
<event>
 4    1  0.6346694E-005  0.7637625E+03  0.7818608E-02  0.9614003E-01
         -2   -1    0    0    0  501 -0.00000000000E+00  0.00000000000E+00  0.41928514647E+03  0.41928514648E+03  0.25500000000E-02 0. -1.
          2   -1    0    0  501    0  0.00000000000E+00 -0.00000000000E+00 -0.34781409165E+03  0.34781409166E+03  0.25500000000E-02 0.  1.
    5000001    1    1    2    0    0  0.27250093241E+03  0.81526222614E+02 -0.13702175001E+03  0.36745372921E+03  0.18800000000E+03 0.  0.
   -5000001    1    1    2    0    0 -0.27250093241E+03 -0.81526222614E+02  0.20849280484E+03  0.39964550893E+03  0.18800000000E+03 0.  0.
<mgrwt>
<rscale>  0 0.76376248E+03</rscale>
<asrwt>0</asrwt>
<pdfrwt beam="1">  1        2 0.49687727E-01 0.76376248E+03</pdfrwt>
<pdfrwt beam="2">  1       -2 0.59897878E-01 0.76376248E+03</pdfrwt>
<totfact> 0.26494585E+02</totfact>
</mgrwt>
</event>
<event>
 4    1  0.6346694E-005  0.5789388E+03  0.7818608E-02  0.9950091E-01
          2   -1    0    0  501    0  0.00000000000E+00  0.00000000000E+00  0.82464001088E+03  0.82464001089E+03  0.25500000000E-02 0. -1.
         -2   -1    0    0    0  501 -0.00000000000E+00 -0.00000000000E+00 -0.10161105100E+03  0.10161105103E+03  0.25500000000E-02 0.  1.
    5000001    1    1    2    0    0 -0.17285638784E+03 -0.22089735807E+02  0.57664909182E+03  0.63105900068E+03  0.18800000000E+03 0.  0.
   -5000001    1    1    2    0    0  0.17285638784E+03  0.22089735807E+02  0.14637986806E+03  0.29519206124E+03  0.18800000000E+03 0.  0.
<mgrwt>
<rscale>  0 0.57893882E+03</rscale>
<asrwt>0</asrwt>
<pdfrwt beam="1">  1        2 0.11780572E+00 0.57893882E+03</pdfrwt>
<pdfrwt beam="2">  1       -2 0.14515864E-01 0.57893882E+03</pdfrwt>
<totfact> 0.13559532E+03</totfact>
</mgrwt>
</event>
<event>
 4    1  0.6346694E-005  0.5619621E+03  0.7818608E-02  0.9987625E-01
         -2   -1    0    0    0  501 -0.00000000000E+00  0.00000000000E+00  0.17887480488E+03  0.17887480490E+03  0.25500000000E-02 0. -1.
          2   -1    0    0  501    0  0.00000000000E+00 -0.00000000000E+00 -0.44137213483E+03  0.44137213484E+03  0.25500000000E-02 0.  1.
    5000001    1    1    2    0    0  0.12828467350E+03  0.16028708786E+03 -0.89112606707E+02  0.29229089049E+03  0.18800000000E+03 0.  0.
   -5000001    1    1    2    0    0 -0.12828467350E+03 -0.16028708786E+03 -0.17338472324E+03  0.32795604925E+03  0.18800000000E+03 0.  0.
<mgrwt>
<rscale>  0 0.56196211E+03</rscale>
<asrwt>0</asrwt>
<pdfrwt beam="1">  1        2 0.63053162E-01 0.56196211E+03</pdfrwt>
<pdfrwt beam="2">  1       -2 0.25553544E-01 0.56196211E+03</pdfrwt>
<totfact> 0.10675040E+03</totfact>
</mgrwt>
</event>
<event>
 4    1  0.6346694E-005  0.4948913E+03  0.7818608E-02  0.1015121E+00
          2   -1    0    0  501    0  0.00000000000E+00  0.00000000000E+00  0.26610632867E+04  0.26610632867E+04  0.25500000000E-02 0.  1.
         -2   -1    0    0    0  501 -0.00000000000E+00 -0.00000000000E+00 -0.23009355563E+02  0.23009355705E+02  0.25500000000E-02 0. -1.
    5000001    1    1    2    0    0 -0.29509924311E+02  0.15801865744E+03  0.13552552897E+04  0.13776435069E+04  0.18800000000E+03 0.  0.
   -5000001    1    1    2    0    0  0.29509924311E+02 -0.15801865744E+03  0.12827986414E+04  0.13064291355E+04  0.18800000000E+03 0.  0.
<mgrwt>
<rscale>  0 0.49489131E+03</rscale>
<asrwt>0</asrwt>
<pdfrwt beam="1">  1        2 0.38015173E+00 0.49489131E+03</pdfrwt>
<pdfrwt beam="2">  1       -2 0.32870523E-02 0.49489131E+03</pdfrwt>
<totfact> 0.15043889E+03</totfact>
</mgrwt>
</event>
<event>
 4    1  0.6346694E-005  0.6269625E+03  0.7818608E-02  0.9850994E-01
          2   -1    0    0  501    0  0.00000000000E+00  0.00000000000E+00  0.57771125463E+03  0.57771125464E+03  0.25500000000E-02 0.  1.
         -2   -1    0    0    0  501 -0.00000000000E+00 -0.00000000000E+00 -0.17010313978E+03  0.17010313980E+03  0.25500000000E-02 0. -1.
    5000001    1    1    2    0    0 -0.25042253166E+03  0.11220751636E+02  0.21506590649E+03  0.38004564695E+03  0.18800000000E+03 0.  0.
   -5000001    1    1    2    0    0  0.25042253166E+03 -0.11220751636E+02  0.19254220835E+03  0.36776874749E+03  0.18800000000E+03 0.  0.
<mgrwt>
<rscale>  0 0.62696251E+03</rscale>
<asrwt>0</asrwt>
<pdfrwt beam="1">  1        2 0.82530178E-01 0.62696251E+03</pdfrwt>
<pdfrwt beam="2">  1       -2 0.24300449E-01 0.62696251E+03</pdfrwt>
<totfact> 0.85873439E+02</totfact>
</mgrwt>
</event>
<event>
 4    1  0.6346694E-005  0.1087681E+04  0.7818608E-02  0.9217283E-01
          2   -1    0    0  501    0  0.00000000000E+00  0.00000000000E+00  0.52746832999E+03  0.52746833000E+03  0.25500000000E-02 0.  1.
         -2   -1    0    0    0  501 -0.00000000000E+00 -0.00000000000E+00 -0.56072066157E+03  0.56072066158E+03  0.25500000000E-02 0. -1.
    5000001    1    1    2    0    0 -0.48340657715E+03 -0.11652475696E+03 -0.13139006024E+03  0.54760139312E+03  0.18800000000E+03 0.  0.
   -5000001    1    1    2    0    0  0.48340657715E+03  0.11652475696E+03  0.98137728666E+02  0.54058759846E+03  0.18800000000E+03 0.  0.
<mgrwt>
<rscale>  0 0.10876808E+04</rscale>
<asrwt>0</asrwt>
<pdfrwt beam="1">  1        2 0.75352619E-01 0.10876808E+04</pdfrwt>
<pdfrwt beam="2">  1       -2 0.80102951E-01 0.10876808E+04</pdfrwt>
<totfact> 0.86542102E+01</totfact>
</mgrwt>
</event>
<event>
 4    1  0.6346694E-005  0.4906873E+03  0.7818608E-02  0.1016239E+00
         -2   -1    0    0    0  501 -0.00000000000E+00  0.00000000000E+00  0.32538260833E+02  0.32538260933E+02  0.25500000000E-02 0.  1.
          2   -1    0    0  501    0  0.00000000000E+00 -0.00000000000E+00 -0.18499298146E+04  0.18499298146E+04  0.25500000000E-02 0. -1.
    5000001    1    1    2    0    0  0.13589228430E+03  0.74920612526E+02 -0.10151297156E+04  0.10439885778E+04  0.18800000000E+03 0.  0.
   -5000001    1    1    2    0    0 -0.13589228430E+03 -0.74920612526E+02 -0.80226183812E+03  0.83847949767E+03  0.18800000000E+03 0.  0.
<mgrwt>
<rscale>  0 0.49068727E+03</rscale>
<asrwt>0</asrwt>
<pdfrwt beam="1">  1        2 0.26427562E+00 0.49068727E+03</pdfrwt>
<pdfrwt beam="2">  1       -2 0.46483242E-02 0.49068727E+03</pdfrwt>
<totfact> 0.22716326E+03</totfact>
</mgrwt>
</event>
<event>
 4    1  0.6346694E-005  0.9051465E+03  0.7818608E-02  0.9419171E-01
         -2   -1    0    0    0  501 -0.00000000000E+00  0.00000000000E+00  0.85941897729E+03  0.85941897730E+03  0.25500000000E-02 0. -1.
          2   -1    0    0  501    0  0.00000000000E+00 -0.00000000000E+00 -0.23832676117E+03  0.23832676118E+03  0.25500000000E-02 0.  1.
    5000001    1    1    2    0    0 -0.71965499511E+02  0.37733208417E+03  0.13098874112E+03  0.44728132664E+03  0.18800000000E+03 0.  0.
   -5000001    1    1    2    0    0  0.71965499511E+02 -0.37733208417E+03  0.49010347500E+03  0.65046441184E+03  0.18800000000E+03 0.  0.
<mgrwt>
<rscale>  0 0.90514649E+03</rscale>
<asrwt>0</asrwt>
<pdfrwt beam="1">  1        2 0.34046681E-01 0.90514649E+03</pdfrwt>
<pdfrwt beam="2">  1       -2 0.12277414E+00 0.90514649E+03</pdfrwt>
<totfact> 0.77617058E+01</totfact>
</mgrwt>
</event>
<event>
 4    1  0.6346694E-005  0.7638459E+03  0.7818608E-02  0.9613875E-01
         -2   -1    0    0    0  501 -0.00000000000E+00  0.00000000000E+00  0.12228060623E+03  0.12228060626E+03  0.25500000000E-02 0. -1.
          2   -1    0    0  501    0  0.00000000000E+00 -0.00000000000E+00 -0.11928723011E+04  0.11928723011E+04  0.25500000000E-02 0.  1.
    5000001    1    1    2    0    0  0.12097861699E+03  0.30797576421E+03 -0.59072049949E+03  0.70269453223E+03  0.18800000000E+03 0.  0.
   -5000001    1    1    2    0    0 -0.12097861699E+03 -0.30797576421E+03 -0.47987119540E+03  0.61245837514E+03  0.18800000000E+03 0.  0.
<mgrwt>
<rscale>  0 0.76384592E+03</rscale>
<asrwt>0</asrwt>
<pdfrwt beam="1">  1        2 0.17041032E+00 0.76384592E+03</pdfrwt>
<pdfrwt beam="2">  1       -2 0.17468659E-01 0.76384592E+03</pdfrwt>
<totfact> 0.58532595E+02</totfact>
</mgrwt>
</event>
<event>
 4    1  0.6346694E-005  0.6351744E+03  0.7818608E-02  0.9835003E-01
         -2   -1    0    0    0  501 -0.00000000000E+00  0.00000000000E+00  0.72022015789E+02  0.72022015835E+02  0.25500000000E-02 0. -1.
          2   -1    0    0  501    0  0.00000000000E+00 -0.00000000000E+00 -0.14004277546E+04  0.14004277546E+04  0.25500000000E-02 0.  1.
    5000001    1    1    2    0    0 -0.16430046523E+03 -0.14329122401E+01 -0.20921909921E+03  0.32575040689E+03  0.18800000000E+03 0.  0.
   -5000001    1    1    2    0    0  0.16430046523E+03  0.14329122401E+01 -0.11191866396E+04  0.11466993635E+04  0.18800000000E+03 0.  0.
<mgrwt>
<rscale>  0 0.63517440E+03</rscale>
<asrwt>0</asrwt>
<pdfrwt beam="1">  1        2 0.20006109E+00 0.63517440E+03</pdfrwt>
<pdfrwt beam="2">  1       -2 0.10288860E-01 0.63517440E+03</pdfrwt>
<totfact> 0.10961653E+03</totfact>
</mgrwt>
</event>
<event>
 4    1  0.6346694E-005  0.4777921E+03  0.7818608E-02  0.1019744E+00
         -2   -1    0    0    0  501 -0.00000000000E+00  0.00000000000E+00  0.20396726902E+02  0.20396727061E+02  0.25500000000E-02 0. -1.
          2   -1    0    0  501    0  0.00000000000E+00 -0.00000000000E+00 -0.27980624816E+04  0.27980624816E+04  0.25500000000E-02 0.  1.
    5000001    1    1    2    0    0  0.48373894066E+02 -0.10865944003E+03 -0.19024259193E+04  0.19153890691E+04  0.18800000000E+03 0.  0.
   -5000001    1    1    2    0    0 -0.48373894066E+02  0.10865944003E+03 -0.87523983541E+03  0.90307013959E+03  0.18800000000E+03 0.  0.
<mgrwt>
<rscale>  0 0.47779207E+03</rscale>
<asrwt>0</asrwt>
<pdfrwt beam="1">  1        2 0.39972297E+00 0.47779207E+03</pdfrwt>
<pdfrwt beam="2">  1       -2 0.29138199E-02 0.47779207E+03</pdfrwt>
<totfact> 0.15337457E+03</totfact>
</mgrwt>
</event>
<event>
 4    1  0.6346694E-005  0.7521041E+03  0.7818608E-02  0.9632055E-01
         -2   -1    0    0    0  501 -0.00000000000E+00  0.00000000000E+00  0.40487682579E+03  0.40487682580E+03  0.25500000000E-02 0. -1.
          2   -1    0    0  501    0  0.00000000000E+00 -0.00000000000E+00 -0.34927939988E+03  0.34927939989E+03  0.25500000000E-02 0.  1.
    5000001    1    1    2    0    0  0.28779613034E+03 -0.15245500973E+03  0.29213985553E+02  0.37718244867E+03  0.18800000000E+03 0.  0.
   -5000001    1    1    2    0    0 -0.28779613034E+03  0.15245500973E+03  0.26383440360E+02  0.37697377702E+03  0.18800000000E+03 0.  0.
<mgrwt>
<rscale>  0 0.75210407E+03</rscale>
<asrwt>0</asrwt>
<pdfrwt beam="1">  1        2 0.49897057E-01 0.75210407E+03</pdfrwt>
<pdfrwt beam="2">  1       -2 0.57839547E-01 0.75210407E+03</pdfrwt>
<totfact> 0.28392408E+02</totfact>
</mgrwt>
</event>
<event>
 4    1  0.6346694E-005  0.5529458E+03  0.7818608E-02  0.1000814E+00
          2   -1    0    0  501    0  0.00000000000E+00  0.00000000000E+00  0.42295930373E+03  0.42295930374E+03  0.25500000000E-02 0.  1.
         -2   -1    0    0    0  501 -0.00000000000E+00 -0.00000000000E+00 -0.18072012377E+03  0.18072012379E+03  0.25500000000E-02 0. -1.
    5000001    1    1    2    0    0 -0.19957920630E+03  0.14343858746E+02  0.85647711406E+02  0.28760586980E+03  0.18800000000E+03 0.  0.
   -5000001    1    1    2    0    0  0.19957920630E+03 -0.14343858746E+02  0.15659146855E+03  0.31607355773E+03  0.18800000000E+03 0.  0.
<mgrwt>
<rscale>  0 0.55294578E+03</rscale>
<asrwt>0</asrwt>
<pdfrwt beam="1">  1        2 0.60422758E-01 0.55294578E+03</pdfrwt>
<pdfrwt beam="2">  1       -2 0.25817161E-01 0.55294578E+03</pdfrwt>
<totfact> 0.10990298E+03</totfact>
</mgrwt>
</event>
<event>
 4    1  0.6346694E-005  0.1261408E+04  0.7818608E-02  0.9060742E-01
         -2   -1    0    0    0  501 -0.00000000000E+00  0.00000000000E+00  0.38904758622E+03  0.38904758623E+03  0.25500000000E-02 0. -1.
          2   -1    0    0  501    0  0.00000000000E+00 -0.00000000000E+00 -0.10224647368E+04  0.10224647368E+04  0.25500000000E-02 0.  1.
    5000001    1    1    2    0    0 -0.14399889649E+03  0.58441798737E+03 -0.30240589083E+03  0.69933782177E+03  0.18800000000E+03 0.  0.
   -5000001    1    1    2    0    0  0.14399889649E+03 -0.58441798737E+03 -0.33101125972E+03  0.71217450124E+03  0.18800000000E+03 0.  0.
<mgrwt>
<rscale>  0 0.12614078E+04</rscale>
<asrwt>0</asrwt>
<pdfrwt beam="1">  1        2 0.14606639E+00 0.12614078E+04</pdfrwt>
<pdfrwt beam="2">  1       -2 0.55578227E-01 0.12614078E+04</pdfrwt>
<totfact> 0.81375940E+01</totfact>
</mgrwt>
</event>
<event>
 4    1  0.6346694E-005  0.4741653E+03  0.7818608E-02  0.1020751E+00
          2   -1    0    0  501    0  0.00000000000E+00  0.00000000000E+00  0.56346298135E+04  0.56346298135E+04  0.25500000000E-02 0.  1.
         -2   -1    0    0    0  501 -0.00000000000E+00 -0.00000000000E+00 -0.99754869379E+01  0.99754872638E+01  0.25500000000E-02 0. -1.
    5000001    1    1    2    0    0  0.13724659301E+03  0.17505451634E+02  0.33061918895E+04  0.33144218015E+04  0.18800000000E+03 0.  0.
   -5000001    1    1    2    0    0 -0.13724659301E+03 -0.17505451634E+02  0.23184624371E+04  0.23301834993E+04  0.18800000000E+03 0.  0.
<mgrwt>
<rscale>  0 0.47416528E+03</rscale>
<asrwt>0</asrwt>
<pdfrwt beam="1">  1        2 0.80495007E+00 0.47416528E+03</pdfrwt>
<pdfrwt beam="2">  1       -2 0.14250644E-02 0.47416528E+03</pdfrwt>
<totfact> 0.29589188E+01</totfact>
</mgrwt>
</event>
<event>
 4    1  0.6346694E-005  0.7812692E+03  0.7818608E-02  0.9587532E-01
         -2   -1    0    0    0  501 -0.00000000000E+00  0.00000000000E+00  0.30997325225E+03  0.30997325226E+03  0.25500000000E-02 0. -1.
          2   -1    0    0  501    0  0.00000000000E+00 -0.00000000000E+00 -0.49228563487E+03  0.49228563488E+03  0.25500000000E-02 0.  1.
    5000001    1    1    2    0    0  0.68732248604E+02  0.23848619478E+03 -0.33339997795E+03  0.45617905738E+03  0.18800000000E+03 0.  0.
   -5000001    1    1    2    0    0 -0.68732248604E+02 -0.23848619478E+03  0.15108759532E+03  0.34607982975E+03  0.18800000000E+03 0.  0.
<mgrwt>
<rscale>  0 0.78126917E+03</rscale>
<asrwt>0</asrwt>
<pdfrwt beam="1">  1        2 0.70326519E-01 0.78126917E+03</pdfrwt>
<pdfrwt beam="2">  1       -2 0.44281893E-01 0.78126917E+03</pdfrwt>
<totfact> 0.33255871E+02</totfact>
</mgrwt>
</event>
<event>
 4    1  0.6346694E-005  0.4337102E+03  0.7818608E-02  0.1032694E+00
         -2   -1    0    0    0  501 -0.00000000000E+00  0.00000000000E+00  0.19002063372E+02  0.19002063543E+02  0.25500000000E-02 0. -1.
          2   -1    0    0  501    0  0.00000000000E+00 -0.00000000000E+00 -0.24747911884E+04  0.24747911884E+04  0.25500000000E-02 0.  1.
    5000001    1    1    2    0    0  0.65211531506E+02  0.83871745630E+02 -0.13421898700E+04  0.13594501317E+04  0.18800000000E+03 0.  0.
   -5000001    1    1    2    0    0 -0.65211531506E+02 -0.83871745630E+02 -0.11135992550E+04  0.11343431202E+04  0.18800000000E+03 0.  0.
<mgrwt>
<rscale>  0 0.43371022E+03</rscale>
<asrwt>0</asrwt>
<pdfrwt beam="1">  1        2 0.35354139E+00 0.43371022E+03</pdfrwt>
<pdfrwt beam="2">  1       -2 0.27145821E-02 0.43371022E+03</pdfrwt>
<totfact> 0.25118439E+03</totfact>
</mgrwt>
</event>
<event>
 4    1  0.6346694E-005  0.7326707E+03  0.7818608E-02  0.9662936E-01
         -2   -1    0    0    0  501 -0.00000000000E+00  0.00000000000E+00  0.66085230837E+03  0.66085230838E+03  0.25500000000E-02 0. -1.
          2   -1    0    0  501    0  0.00000000000E+00 -0.00000000000E+00 -0.20307348908E+03  0.20307348910E+03  0.25500000000E-02 0.  1.
    5000001    1    1    2    0    0 -0.18974884511E+03 -0.23086447073E+03  0.11363093165E+03  0.37088949391E+03  0.18800000000E+03 0.  0.
   -5000001    1    1    2    0    0  0.18974884511E+03  0.23086447073E+03  0.34414788764E+03  0.49303630357E+03  0.18800000000E+03 0.  0.
<mgrwt>
<rscale>  0 0.73267069E+03</rscale>
<asrwt>0</asrwt>
<pdfrwt beam="1">  1        2 0.29010498E-01 0.73267069E+03</pdfrwt>
<pdfrwt beam="2">  1       -2 0.94407476E-01 0.73267069E+03</pdfrwt>
<totfact> 0.17643898E+02</totfact>
</mgrwt>
</event>
<event>
 4    1  0.6346694E-005  0.5867103E+03  0.7818608E-02  0.9933368E-01
          2   -1    0    0  501    0  0.00000000000E+00  0.00000000000E+00  0.19014831481E+04  0.19014831481E+04  0.25500000000E-02 0.  1.
         -2   -1    0    0    0  501 -0.00000000000E+00 -0.00000000000E+00 -0.45257961561E+02  0.45257961633E+02  0.25500000000E-02 0. -1.
    5000001    1    1    2    0    0  0.24805942307E+02  0.21993261938E+03  0.10660242484E+04  0.11048698521E+04  0.18800000000E+03 0.  0.
   -5000001    1    1    2    0    0 -0.24805942307E+02 -0.21993261938E+03  0.79020093807E+03  0.84187125760E+03  0.18800000000E+03 0.  0.
<mgrwt>
<rscale>  0 0.58671032E+03</rscale>
<asrwt>0</asrwt>
<pdfrwt beam="1">  1        2 0.27164051E+00 0.58671032E+03</pdfrwt>
<pdfrwt beam="2">  1       -2 0.64654217E-02 0.58671032E+03</pdfrwt>
<totfact> 0.12762440E+03</totfact>
</mgrwt>
</event>
<event>
 4    1  0.6346694E-005  0.5565009E+03  0.7818608E-02  0.1000000E+00
         -2   -1    0    0    0  501 -0.00000000000E+00  0.00000000000E+00  0.98191668662E+02  0.98191668695E+02  0.25500000000E-02 0. -1.
          2   -1    0    0  501    0  0.00000000000E+00 -0.00000000000E+00 -0.78849163882E+03  0.78849163882E+03  0.25500000000E-02 0.  1.
    5000001    1    1    2    0    0 -0.19949554523E+03 -0.45774179225E+02 -0.36685433836E+03  0.46023890929E+03  0.18800000000E+03 0.  0.
   -5000001    1    1    2    0    0  0.19949554523E+03  0.45774179225E+02 -0.32344563180E+03  0.42644439823E+03  0.18800000000E+03 0.  0.
<mgrwt>
<rscale>  0 0.55650089E+03</rscale>
<asrwt>0</asrwt>
<pdfrwt beam="1">  1        2 0.11264166E+00 0.55650089E+03</pdfrwt>
<pdfrwt beam="2">  1       -2 0.14027382E-01 0.55650089E+03</pdfrwt>
<totfact> 0.15209233E+03</totfact>
</mgrwt>
</event>
<event>
 4    1  0.6346694E-005  0.9506435E+03  0.7818608E-02  0.9364399E-01
          2   -1    0    0  501    0  0.00000000000E+00  0.00000000000E+00  0.22117541819E+04  0.22117541819E+04  0.25500000000E-02 0.  1.
         -2   -1    0    0    0  501 -0.00000000000E+00 -0.00000000000E+00 -0.10215004312E+03  0.10215004315E+03  0.25500000000E-02 0. -1.
    5000001    1    1    2    0    0  0.31281260191E+03 -0.14109750485E+03  0.39794245377E+03  0.55808818864E+03  0.18800000000E+03 0.  0.
   -5000001    1    1    2    0    0 -0.31281260191E+03  0.14109750485E+03  0.17116616851E+04  0.17558160365E+04  0.18800000000E+03 0.  0.
<mgrwt>
<rscale>  0 0.95064354E+03</rscale>
<asrwt>0</asrwt>
<pdfrwt beam="1">  1        2 0.31596489E+00 0.95064354E+03</pdfrwt>
<pdfrwt beam="2">  1       -2 0.14592863E-01 0.95064354E+03</pdfrwt>
<totfact> 0.23101853E+02</totfact>
</mgrwt>
</event>
<event>
 4    1  0.6346694E-005  0.6893192E+03  0.7818608E-02  0.9735674E-01
         -2   -1    0    0    0  501 -0.00000000000E+00  0.00000000000E+00  0.77543663791E+03  0.77543663792E+03  0.25500000000E-02 0. -1.
          2   -1    0    0  501    0  0.00000000000E+00 -0.00000000000E+00 -0.15319143654E+03  0.15319143656E+03  0.25500000000E-02 0.  1.
    5000001    1    1    2    0    0 -0.25128302595E+03  0.13677990505E+03  0.25733113537E+03  0.42827002555E+03  0.18800000000E+03 0.  0.
   -5000001    1    1    2    0    0  0.25128302595E+03 -0.13677990505E+03  0.36491406600E+03  0.50035804892E+03  0.18800000000E+03 0.  0.
<mgrwt>
<rscale>  0 0.68931924E+03</rscale>
<asrwt>0</asrwt>
<pdfrwt beam="1">  1        2 0.21884491E-01 0.68931924E+03</pdfrwt>
<pdfrwt beam="2">  1       -2 0.11077666E+00 0.68931924E+03</pdfrwt>
<totfact> 0.16693667E+02</totfact>
</mgrwt>
</event>
<event>
 4    1  0.6346694E-005  0.1143020E+04  0.7818608E-02  0.9164247E-01
         -2   -1    0    0    0  501 -0.00000000000E+00  0.00000000000E+00  0.73967235052E+03  0.73967235052E+03  0.25500000000E-02 0. -1.
          2   -1    0    0  501    0  0.00000000000E+00 -0.00000000000E+00 -0.44157894250E+03  0.44157894251E+03  0.25500000000E-02 0.  1.
    5000001    1    1    2    0    0  0.44758319435E+03 -0.32485272095E+01 -0.16259978768E+03  0.51198042907E+03  0.18800000000E+03 0.  0.
   -5000001    1    1    2    0    0 -0.44758319435E+03  0.32485272095E+01  0.46069319570E+03  0.66927086397E+03  0.18800000000E+03 0.  0.
<mgrwt>
<rscale>  0 0.11430201E+04</rscale>
<asrwt>0</asrwt>
<pdfrwt beam="1">  1        2 0.63082706E-01 0.11430201E+04</pdfrwt>
<pdfrwt beam="2">  1       -2 0.10566748E+00 0.11430201E+04</pdfrwt>
<totfact> 0.55515755E+01</totfact>
</mgrwt>
</event>
<event>
 4    1  0.6346694E-005  0.7852317E+03  0.7818608E-02  0.9581643E-01
         -2   -1    0    0    0  501 -0.00000000000E+00  0.00000000000E+00  0.17322700550E+03  0.17322700552E+03  0.25500000000E-02 0. -1.
          2   -1    0    0  501    0  0.00000000000E+00 -0.00000000000E+00 -0.88985666494E+03  0.88985666494E+03  0.25500000000E-02 0.  1.
    5000001    1    1    2    0    0 -0.18949320035E+03  0.13422649472E+03 -0.70315747101E+03  0.76400186773E+03  0.18800000000E+03 0.  0.
   -5000001    1    1    2    0    0  0.18949320035E+03 -0.13422649472E+03 -0.13472188430E+02  0.29908180273E+03  0.18800000000E+03 0.  0.
<mgrwt>
<rscale>  0 0.78523170E+03</rscale>
<asrwt>0</asrwt>
<pdfrwt beam="1">  1        2 0.12712238E+00 0.78523170E+03</pdfrwt>
<pdfrwt beam="2">  1       -2 0.24746716E-01 0.78523170E+03</pdfrwt>
<totfact> 0.48339549E+02</totfact>
</mgrwt>
</event>
<event>
 4    1  0.6346694E-005  0.7285590E+03  0.7818608E-02  0.9669602E-01
          2   -1    0    0  501    0  0.00000000000E+00  0.00000000000E+00  0.11512441004E+04  0.11512441004E+04  0.25500000000E-02 0.  1.
         -2   -1    0    0    0  501 -0.00000000000E+00 -0.00000000000E+00 -0.11526622682E+03  0.11526622685E+03  0.25500000000E-02 0. -1.
    5000001    1    1    2    0    0 -0.84959733414E+02 -0.29241852481E+03  0.63626009279E+03  0.72999839426E+03  0.18800000000E+03 0.  0.
   -5000001    1    1    2    0    0  0.84959733414E+02  0.29241852481E+03  0.39971778079E+03  0.53651193298E+03  0.18800000000E+03 0.  0.
<mgrwt>
<rscale>  0 0.72855903E+03</rscale>
<asrwt>0</asrwt>
<pdfrwt beam="1">  1        2 0.16446346E+00 0.72855903E+03</pdfrwt>
<pdfrwt beam="2">  1       -2 0.16466602E-01 0.72855903E+03</pdfrwt>
<totfact> 0.68502311E+02</totfact>
</mgrwt>
</event>
<event>
 4    1  0.6346694E-005  0.4959832E+03  0.7818608E-02  0.1014833E+00
          2   -1    0    0  501    0  0.00000000000E+00  0.00000000000E+00  0.77319975526E+03  0.77319975527E+03  0.25500000000E-02 0.  1.
         -2   -1    0    0    0  501 -0.00000000000E+00 -0.00000000000E+00 -0.79539378769E+02  0.79539378810E+02  0.25500000000E-02 0. -1.
    5000001    1    1    2    0    0 -0.13449839659E+03 -0.83260925817E+02  0.28894272952E+03  0.37928103221E+03  0.18800000000E+03 0.  0.
   -5000001    1    1    2    0    0  0.13449839659E+03  0.83260925817E+02  0.40471764697E+03  0.47345810187E+03  0.18800000000E+03 0.  0.
<mgrwt>
<rscale>  0 0.49598318E+03</rscale>
<asrwt>0</asrwt>
<pdfrwt beam="1">  1        2 0.11045711E+00 0.49598318E+03</pdfrwt>
<pdfrwt beam="2">  1       -2 0.11362768E-01 0.49598318E+03</pdfrwt>
<totfact> 0.22070907E+03</totfact>
</mgrwt>
</event>
<event>
 4    1  0.6346694E-005  0.6884060E+03  0.7818608E-02  0.9737267E-01
          2   -1    0    0  501    0  0.00000000000E+00  0.00000000000E+00  0.16381212947E+04  0.16381212947E+04  0.25500000000E-02 0.  1.
         -2   -1    0    0    0  501 -0.00000000000E+00 -0.00000000000E+00 -0.72324135719E+02  0.72324135764E+02  0.25500000000E-02 0. -1.
    5000001    1    1    2    0    0  0.45442680671E+02  0.23943285793E+03  0.40008097019E+03  0.50477907384E+03  0.18800000000E+03 0.  0.
   -5000001    1    1    2    0    0 -0.45442680671E+02 -0.23943285793E+03  0.11657161888E+04  0.12056663566E+04  0.18800000000E+03 0.  0.
<mgrwt>
<rscale>  0 0.68840600E+03</rscale>
<asrwt>0</asrwt>
<pdfrwt beam="1">  1        2 0.23401734E+00 0.68840600E+03</pdfrwt>
<pdfrwt beam="2">  1       -2 0.10332019E-01 0.68840600E+03</pdfrwt>
<totfact> 0.81628396E+02</totfact>
</mgrwt>
</event>
<event>
 4    1  0.6346694E-005  0.4397303E+03  0.7818608E-02  0.1030830E+00
         -2   -1    0    0    0  501 -0.00000000000E+00  0.00000000000E+00  0.14380444233E+03  0.14380444235E+03  0.25500000000E-02 0. -1.
          2   -1    0    0  501    0  0.00000000000E+00 -0.00000000000E+00 -0.33615563250E+03  0.33615563251E+03  0.25500000000E-02 0.  1.
    5000001    1    1    2    0    0 -0.92907833002E+02 -0.66032234774E+02 -0.98504281423E+02  0.24091329337E+03  0.18800000000E+03 0.  0.
   -5000001    1    1    2    0    0  0.92907833002E+02  0.66032234774E+02 -0.93846908747E+02  0.23904678150E+03  0.18800000000E+03 0.  0.
<mgrwt>
<rscale>  0 0.43973025E+03</rscale>
<asrwt>0</asrwt>
<pdfrwt beam="1">  1        2 0.48022233E-01 0.43973025E+03</pdfrwt>
<pdfrwt beam="2">  1       -2 0.20543492E-01 0.43973025E+03</pdfrwt>
<totfact> 0.21181698E+03</totfact>
</mgrwt>
</event>
<event>
 4    1  0.6346694E-005  0.9833615E+03  0.7818608E-02  0.9326984E-01
          2   -1    0    0  501    0  0.00000000000E+00  0.00000000000E+00  0.17096859282E+04  0.17096859282E+04  0.25500000000E-02 0.  1.
         -2   -1    0    0    0  501 -0.00000000000E+00 -0.00000000000E+00 -0.14140021861E+03  0.14140021863E+03  0.25500000000E-02 0. -1.
    5000001    1    1    2    0    0 -0.51929827095E+02  0.44011793572E+03  0.59585081927E+03  0.76601743003E+03  0.18800000000E+03 0.  0.
   -5000001    1    1    2    0    0  0.51929827095E+02 -0.44011793572E+03  0.97243489027E+03  0.10850687168E+04  0.18800000000E+03 0.  0.
<mgrwt>
<rscale>  0 0.98336151E+03</rscale>
<asrwt>0</asrwt>
<pdfrwt beam="1">  1        2 0.24424084E+00 0.98336151E+03</pdfrwt>
<pdfrwt beam="2">  1       -2 0.20200032E-01 0.98336151E+03</pdfrwt>
<totfact> 0.23769356E+02</totfact>
</mgrwt>
</event>
<event>
 4    1  0.6346694E-005  0.4952184E+03  0.7818608E-02  0.1015035E+00
          2   -1    0    0  501    0  0.00000000000E+00  0.00000000000E+00  0.14108283125E+04  0.14108283125E+04  0.25500000000E-02 0.  1.
         -2   -1    0    0    0  501 -0.00000000000E+00 -0.00000000000E+00 -0.43456969979E+02  0.43456970054E+02  0.25500000000E-02 0. -1.
    5000001    1    1    2    0    0  0.15089668352E+03  0.35876106613E+02  0.55536297035E+03  0.60648902130E+03  0.18800000000E+03 0.  0.
   -5000001    1    1    2    0    0 -0.15089668352E+03 -0.35876106613E+02  0.81200837220E+03  0.84779626129E+03  0.18800000000E+03 0.  0.
<mgrwt>
<rscale>  0 0.49521843E+03</rscale>
<asrwt>0</asrwt>
<pdfrwt beam="1">  1        2 0.20154687E+00 0.49521843E+03</pdfrwt>
<pdfrwt beam="2">  1       -2 0.62081396E-02 0.49521843E+03</pdfrwt>
<totfact> 0.24291019E+03</totfact>
</mgrwt>
</event>
<event>
 4    1  0.6346694E-005  0.4183396E+03  0.7818608E-02  0.1037608E+00
         -2   -1    0    0    0  501 -0.00000000000E+00  0.00000000000E+00  0.37786130983E+02  0.37786131069E+02  0.25500000000E-02 0. -1.
          2   -1    0    0  501    0  0.00000000000E+00 -0.00000000000E+00 -0.11578851241E+04  0.11578851241E+04  0.25500000000E-02 0.  1.
    5000001    1    1    2    0    0  0.56013050808E+02 -0.40277367326E+01 -0.35287281412E+03  0.40375352317E+03  0.18800000000E+03 0.  0.
   -5000001    1    1    2    0    0 -0.56013050808E+02  0.40277367326E+01 -0.76722617897E+03  0.79191773198E+03  0.18800000000E+03 0.  0.
<mgrwt>
<rscale>  0 0.41833957E+03</rscale>
<asrwt>0</asrwt>
<pdfrwt beam="1">  1        2 0.16541214E+00 0.41833957E+03</pdfrwt>
<pdfrwt beam="2">  1       -2 0.53980194E-02 0.41833957E+03</pdfrwt>
<totfact> 0.41370184E+03</totfact>
</mgrwt>
</event>
<event>
 4    1  0.6346694E-005  0.5871049E+03  0.7818608E-02  0.9932526E-01
         -2   -1    0    0    0  501 -0.00000000000E+00  0.00000000000E+00  0.10577471947E+03  0.10577471950E+03  0.25500000000E-02 0. -1.
          2   -1    0    0  501    0  0.00000000000E+00 -0.00000000000E+00 -0.81468469973E+03  0.81468469974E+03  0.25500000000E-02 0.  1.
    5000001    1    1    2    0    0  0.30108667819E+02 -0.16664171615E+03 -0.12110611357E+03  0.28051146890E+03  0.18800000000E+03 0.  0.
   -5000001    1    1    2    0    0 -0.30108667819E+02  0.16664171615E+03 -0.58780386670E+03  0.63994795034E+03  0.18800000000E+03 0.  0.
<mgrwt>
<rscale>  0 0.58710492E+03</rscale>
<asrwt>0</asrwt>
<pdfrwt beam="1">  1        2 0.11638352E+00 0.58710492E+03</pdfrwt>
<pdfrwt beam="2">  1       -2 0.15110675E-01 0.58710492E+03</pdfrwt>
<totfact> 0.12873187E+03</totfact>
</mgrwt>
</event>
<event>
 4    1  0.6346694E-005  0.8129983E+03  0.7818608E-02  0.9541391E-01
         -2   -1    0    0    0  501 -0.00000000000E+00  0.00000000000E+00  0.11959409618E+03  0.11959409621E+03  0.25500000000E-02 0.  1.
          2   -1    0    0  501    0  0.00000000000E+00 -0.00000000000E+00 -0.13816866241E+04  0.13816866241E+04  0.25500000000E-02 0. -1.
    5000001    1    1    2    0    0  0.19242303507E+03 -0.24881105810E+03 -0.95598446052E+03  0.10238085054E+04  0.18800000000E+03 0.  0.
   -5000001    1    1    2    0    0 -0.19242303507E+03  0.24881105810E+03 -0.30610806743E+03  0.47747221490E+03  0.18800000000E+03 0.  0.
<mgrwt>
<rscale>  0 0.81299831E+03</rscale>
<asrwt>0</asrwt>
<pdfrwt beam="1">  1        2 0.19738379E+00 0.81299831E+03</pdfrwt>
<pdfrwt beam="2">  1       -2 0.17084872E-01 0.81299831E+03</pdfrwt>
<totfact> 0.47740924E+02</totfact>
</mgrwt>
</event>
<event>
 4    1  0.6346694E-005  0.6794072E+03  0.7818608E-02  0.9753111E-01
          2   -1    0    0  501    0  0.00000000000E+00  0.00000000000E+00  0.58131601908E+03  0.58131601908E+03  0.25500000000E-02 0.  1.
         -2   -1    0    0    0  501 -0.00000000000E+00 -0.00000000000E+00 -0.19851258808E+03  0.19851258810E+03  0.25500000000E-02 0. -1.
    5000001    1    1    2    0    0 -0.14437385735E+03 -0.18388810990E+03  0.84860934056E+01  0.30012440992E+03  0.18800000000E+03 0.  0.
   -5000001    1    1    2    0    0  0.14437385735E+03  0.18388810990E+03  0.37431733759E+03  0.47970419726E+03  0.18800000000E+03 0.  0.
<mgrwt>
<rscale>  0 0.67940723E+03</rscale>
<asrwt>0</asrwt>
<pdfrwt beam="1">  1        2 0.83045144E-01 0.67940723E+03</pdfrwt>
<pdfrwt beam="2">  1       -2 0.28358942E-01 0.67940723E+03</pdfrwt>
<totfact> 0.64373755E+02</totfact>
</mgrwt>
</event>
<event>
 4    1  0.6346694E-005  0.6385581E+03  0.7818608E-02  0.9828489E-01
          2   -1    0    0  501    0  0.00000000000E+00  0.00000000000E+00  0.37279739239E+03  0.37279739240E+03  0.25500000000E-02 0.  1.
         -2   -1    0    0    0  501 -0.00000000000E+00 -0.00000000000E+00 -0.27344374722E+03  0.27344374723E+03  0.25500000000E-02 0. -1.
    5000001    1    1    2    0    0  0.24221796895E+02  0.24783915865E+03 -0.18844324286E+02  0.31258607225E+03  0.18800000000E+03 0.  0.
   -5000001    1    1    2    0    0 -0.24221796895E+02 -0.24783915865E+03  0.11819796946E+03  0.33365506738E+03  0.18800000000E+03 0.  0.
<mgrwt>
<rscale>  0 0.63855811E+03</rscale>
<asrwt>0</asrwt>
<pdfrwt beam="1">  1        2 0.53256770E-01 0.63855811E+03</pdfrwt>
<pdfrwt beam="2">  1       -2 0.39063392E-01 0.63855811E+03</pdfrwt>
<totfact> 0.58342162E+02</totfact>
</mgrwt>
</event>
<event>
 4    1  0.6346694E-005  0.5268262E+03  0.7818608E-02  0.1007005E+00
         -2   -1    0    0    0  501 -0.00000000000E+00  0.00000000000E+00  0.46185792833E+02  0.46185792903E+02  0.25500000000E-02 0. -1.
          2   -1    0    0  501    0  0.00000000000E+00 -0.00000000000E+00 -0.15023331780E+04  0.15023331780E+04  0.25500000000E-02 0.  1.
    5000001    1    1    2    0    0  0.36405098975E+02 -0.15765418681E+03 -0.98870304343E+03  0.10193418867E+04  0.18800000000E+03 0.  0.
   -5000001    1    1    2    0    0 -0.36405098975E+02  0.15765418681E+03 -0.46744434175E+03  0.52917708424E+03  0.18800000000E+03 0.  0.
<mgrwt>
<rscale>  0 0.52682615E+03</rscale>
<asrwt>0</asrwt>
<pdfrwt beam="1">  1        2 0.21461900E+00 0.52682615E+03</pdfrwt>
<pdfrwt beam="2">  1       -2 0.65979713E-02 0.52682615E+03</pdfrwt>
<totfact> 0.19767839E+03</totfact>
</mgrwt>
</event>
<event>
 4    1  0.6346694E-005  0.4715310E+03  0.7818608E-02  0.1021489E+00
          2   -1    0    0  501    0  0.00000000000E+00  0.00000000000E+00  0.84260865647E+02  0.84260865686E+02  0.25500000000E-02 0. -1.
         -2   -1    0    0    0  501 -0.00000000000E+00 -0.00000000000E+00 -0.65968180243E+03  0.65968180244E+03  0.25500000000E-02 0.  1.
    5000001    1    1    2    0    0  0.74845000772E+02  0.11779347492E+03 -0.24409341491E+03  0.33823464056E+03  0.18800000000E+03 0.  0.
   -5000001    1    1    2    0    0 -0.74845000772E+02 -0.11779347492E+03 -0.33132752188E+03  0.40570802756E+03  0.18800000000E+03 0.  0.
<mgrwt>
<rscale>  0 0.47153095E+03</rscale>
<asrwt>0</asrwt>
<pdfrwt beam="1">  1        2 0.12037267E-01 0.47153095E+03</pdfrwt>
<pdfrwt beam="2">  1       -2 0.94240255E-01 0.47153095E+03</pdfrwt>
<totfact> 0.50387334E+02</totfact>
</mgrwt>
</event>
<event>
 4    1  0.6346694E-005  0.5840364E+03  0.7818608E-02  0.9939090E-01
         -2   -1    0    0    0  501 -0.00000000000E+00  0.00000000000E+00  0.50152305972E+02  0.50152306037E+02  0.25500000000E-02 0. -1.
          2   -1    0    0  501    0  0.00000000000E+00 -0.00000000000E+00 -0.17003130713E+04  0.17003130713E+04  0.25500000000E-02 0.  1.
    5000001    1    1    2    0    0  0.17132643442E+03 -0.13968993288E+03 -0.72728772598E+03  0.78304371579E+03  0.18800000000E+03 0.  0.
   -5000001    1    1    2    0    0 -0.17132643442E+03  0.13968993288E+03 -0.92287303933E+03  0.96742166153E+03  0.18800000000E+03 0.  0.
<mgrwt>
<rscale>  0 0.58403637E+03</rscale>
<asrwt>0</asrwt>
<pdfrwt beam="1">  1        2 0.24290183E+00 0.58403637E+03</pdfrwt>
<pdfrwt beam="2">  1       -2 0.71646162E-02 0.58403637E+03</pdfrwt>
<totfact> 0.13715990E+03</totfact>
</mgrwt>
</event>
<event>
 4    1  0.6346694E-005  0.6274766E+03  0.7818608E-02  0.9849985E-01
          2   -1    0    0  501    0  0.00000000000E+00  0.00000000000E+00  0.21274567208E+03  0.21274567210E+03  0.25500000000E-02 0.  1.
         -2   -1    0    0    0  501 -0.00000000000E+00 -0.00000000000E+00 -0.46267321334E+03  0.46267321335E+03  0.25500000000E-02 0. -1.
    5000001    1    1    2    0    0 -0.18953099639E+02 -0.21709068537E+03 -0.25940729230E+03  0.38745803509E+03  0.18800000000E+03 0.  0.
   -5000001    1    1    2    0    0  0.18953099639E+02  0.21709068537E+03  0.94797510402E+01  0.28796085036E+03  0.18800000000E+03 0.  0.
<mgrwt>
<rscale>  0 0.62747661E+03</rscale>
<asrwt>0</asrwt>
<pdfrwt beam="1">  1        2 0.30392239E-01 0.62747661E+03</pdfrwt>
<pdfrwt beam="2">  1       -2 0.66096173E-01 0.62747661E+03</pdfrwt>
<totfact> 0.37276248E+02</totfact>
</mgrwt>
</event>
<event>
 4    1  0.6346694E-005  0.5213295E+03  0.7818608E-02  0.1008357E+00
         -2   -1    0    0    0  501 -0.00000000000E+00  0.00000000000E+00  0.19353144242E+02  0.19353144410E+02  0.25500000000E-02 0. -1.
          2   -1    0    0  501    0  0.00000000000E+00 -0.00000000000E+00 -0.35108570644E+04  0.35108570644E+04  0.25500000000E-02 0.  1.
    5000001    1    1    2    0    0 -0.14493955882E+03 -0.96958692586E+02 -0.14285960146E+04  0.14514265523E+04  0.18800000000E+03 0.  0.
   -5000001    1    1    2    0    0  0.14493955882E+03  0.96958692586E+02 -0.20629079055E+04  0.20787836565E+04  0.18800000000E+03 0.  0.
<mgrwt>
<rscale>  0 0.52132954E+03</rscale>
<asrwt>0</asrwt>
<pdfrwt beam="1">  1        2 0.50155060E+00 0.52132954E+03</pdfrwt>
<pdfrwt beam="2">  1       -2 0.27647371E-02 0.52132954E+03</pdfrwt>
<totfact> 0.66396380E+02</totfact>
</mgrwt>
</event>
<event>
 4    1  0.6346694E-005  0.4127895E+03  0.7818608E-02  0.1039439E+00
         -2   -1    0    0    0  501 -0.00000000000E+00  0.00000000000E+00  0.29654033532E+02  0.29654033642E+02  0.25500000000E-02 0. -1.
          2   -1    0    0  501    0  0.00000000000E+00 -0.00000000000E+00 -0.14365260712E+04  0.14365260712E+04  0.25500000000E-02 0.  1.
    5000001    1    1    2    0    0  0.29706996473E+02 -0.43612556889E+02 -0.46595784790E+03  0.50521804875E+03  0.18800000000E+03 0.  0.
   -5000001    1    1    2    0    0 -0.29706996473E+02  0.43612556889E+02 -0.94091418978E+03  0.96096205611E+03  0.18800000000E+03 0.  0.
<mgrwt>
<rscale>  0 0.41278950E+03</rscale>
<asrwt>0</asrwt>
<pdfrwt beam="1">  1        2 0.20521797E+00 0.41278950E+03</pdfrwt>
<pdfrwt beam="2">  1       -2 0.42362914E-02 0.41278950E+03</pdfrwt>
<totfact> 0.42491654E+03</totfact>
</mgrwt>
</event>
<event>
 4    1  0.6346694E-005  0.4923206E+03  0.7818608E-02  0.1015803E+00
         -2   -1    0    0    0  501 -0.00000000000E+00  0.00000000000E+00  0.39131013007E+02  0.39131013090E+02  0.25500000000E-02 0. -1.
          2   -1    0    0  501    0  0.00000000000E+00 -0.00000000000E+00 -0.15485131232E+04  0.15485131232E+04  0.25500000000E-02 0.  1.
    5000001    1    1    2    0    0 -0.15535488298E+03  0.19103550108E+02 -0.84305352990E+03  0.87782876438E+03  0.18800000000E+03 0.  0.
   -5000001    1    1    2    0    0  0.15535488298E+03 -0.19103550108E+02 -0.66632858031E+03  0.70981537193E+03  0.18800000000E+03 0.  0.
<mgrwt>
<rscale>  0 0.49232058E+03</rscale>
<asrwt>0</asrwt>
<pdfrwt beam="1">  1        2 0.22121612E+00 0.49232058E+03</pdfrwt>
<pdfrwt beam="2">  1       -2 0.55901457E-02 0.49232058E+03</pdfrwt>
<totfact> 0.24258497E+03</totfact>
</mgrwt>
</event>
<event>
 4    1  0.6346694E-005  0.7071783E+03  0.7818608E-02  0.9705034E-01
         -2   -1    0    0    0  501 -0.00000000000E+00  0.00000000000E+00  0.99064975561E+02  0.99064975593E+02  0.25500000000E-02 0. -1.
          2   -1    0    0  501    0  0.00000000000E+00 -0.00000000000E+00 -0.12620534251E+04  0.12620534251E+04  0.25500000000E-02 0.  1.
    5000001    1    1    2    0    0  0.13463500936E+03 -0.26717835833E+03 -0.60662124850E+03  0.70202863192E+03  0.18800000000E+03 0.  0.
   -5000001    1    1    2    0    0 -0.13463500936E+03  0.26717835833E+03 -0.55636720099E+03  0.65908976873E+03  0.18800000000E+03 0.  0.
<mgrwt>
<rscale>  0 0.70717831E+03</rscale>
<asrwt>0</asrwt>
<pdfrwt beam="1">  1        2 0.18029334E+00 0.70717831E+03</pdfrwt>
<pdfrwt beam="2">  1       -2 0.14152140E-01 0.70717831E+03</pdfrwt>
<totfact> 0.76740506E+02</totfact>
</mgrwt>
</event>
<event>
 4    1  0.6346694E-005  0.6634418E+03  0.7818608E-02  0.9781878E-01
         -2   -1    0    0    0  501 -0.00000000000E+00  0.00000000000E+00  0.37261785483E+03  0.37261785484E+03  0.25500000000E-02 0. -1.
          2   -1    0    0  501    0  0.00000000000E+00 -0.00000000000E+00 -0.29531261766E+03  0.29531261767E+03  0.25500000000E-02 0.  1.
    5000001    1    1    2    0    0 -0.19619268424E+03  0.95161403413E+02  0.20453233600E+03  0.35316389753E+03  0.18800000000E+03 0.  0.
   -5000001    1    1    2    0    0  0.19619268424E+03 -0.95161403413E+02 -0.12722709883E+03  0.31476657498E+03  0.18800000000E+03 0.  0.
<mgrwt>
<rscale>  0 0.66344180E+03</rscale>
<asrwt>0</asrwt>
<pdfrwt beam="1">  1        2 0.42187517E-01 0.66344180E+03</pdfrwt>
<pdfrwt beam="2">  1       -2 0.53231122E-01 0.66344180E+03</pdfrwt>
<totfact> 0.40726878E+02</totfact>
</mgrwt>
</event>
<event>
 4    1  0.6346694E-005  0.1914365E+04  0.7818608E-02  0.8647739E-01
          2   -1    0    0  501    0  0.00000000000E+00  0.00000000000E+00  0.29404376036E+04  0.29404376036E+04  0.25500000000E-02 0.  1.
         -2   -1    0    0    0  501 -0.00000000000E+00 -0.00000000000E+00 -0.31158584061E+03  0.31158584062E+03  0.25500000000E-02 0. -1.
    5000001    1    1    2    0    0  0.58505068495E+03 -0.28210094390E+03  0.16354547820E+03  0.69566972764E+03  0.18800000000E+03 0.  0.
   -5000001    1    1    2    0    0 -0.58505068495E+03  0.28210094390E+03  0.24653062848E+04  0.25563537166E+04  0.18800000000E+03 0.  0.
<mgrwt>
<rscale>  0 0.19143654E+04</rscale>
<asrwt>0</asrwt>
<pdfrwt beam="1">  1        2 0.42006251E+00 0.19143654E+04</pdfrwt>
<pdfrwt beam="2">  1       -2 0.44512264E-01 0.19143654E+04</pdfrwt>
<totfact> 0.11453459E+01</totfact>
</mgrwt>
</event>
<event>
 4    1  0.6346694E-005  0.5810734E+03  0.7818608E-02  0.9945470E-01
          2   -1    0    0  501    0  0.00000000000E+00  0.00000000000E+00  0.17575886108E+04  0.17575886108E+04  0.25500000000E-02 0.  1.
         -2   -1    0    0    0  501 -0.00000000000E+00 -0.00000000000E+00 -0.48026923306E+02  0.48026923374E+02  0.25500000000E-02 0. -1.
    5000001    1    1    2    0    0  0.88476254406E+02 -0.20061273311E+03  0.95275239313E+03  0.99556749590E+03  0.18800000000E+03 0.  0.
   -5000001    1    1    2    0    0 -0.88476254406E+02  0.20061273311E+03  0.75680929438E+03  0.81004803829E+03  0.18800000000E+03 0.  0.
<mgrwt>
<rscale>  0 0.58107340E+03</rscale>
<asrwt>0</asrwt>
<pdfrwt beam="1">  1        2 0.25108412E+00 0.58107340E+03</pdfrwt>
<pdfrwt beam="2">  1       -2 0.68609881E-02 0.58107340E+03</pdfrwt>
<totfact> 0.13738852E+03</totfact>
</mgrwt>
</event>
<event>
 4    1  0.6346694E-005  0.5446266E+03  0.7818608E-02  0.1002745E+00
         -2   -1    0    0    0  501 -0.00000000000E+00  0.00000000000E+00  0.51428871082E+02  0.51428871145E+02  0.25500000000E-02 0. -1.
          2   -1    0    0  501    0  0.00000000000E+00 -0.00000000000E+00 -0.14418852105E+04  0.14418852105E+04  0.25500000000E-02 0.  1.
    5000001    1    1    2    0    0  0.15553013646E+02 -0.16245226527E+03 -0.99780691581E+03  0.10283945138E+04  0.18800000000E+03 0.  0.
   -5000001    1    1    2    0    0 -0.15553013646E+02  0.16245226527E+03 -0.39264942357E+03  0.46491956783E+03  0.18800000000E+03 0.  0.
<mgrwt>
<rscale>  0 0.54462658E+03</rscale>
<asrwt>0</asrwt>
<pdfrwt beam="1">  1        2 0.20598358E+00 0.54462658E+03</pdfrwt>
<pdfrwt beam="2">  1       -2 0.73469825E-02 0.54462658E+03</pdfrwt>
<totfact> 0.17934957E+03</totfact>
</mgrwt>
</event>
<event>
 4    1  0.6346694E-005  0.7325073E+03  0.7818608E-02  0.9663201E-01
          2   -1    0    0  501    0  0.00000000000E+00  0.00000000000E+00  0.37255047583E+03  0.37255047584E+03  0.25500000000E-02 0.  1.
         -2   -1    0    0    0  501 -0.00000000000E+00 -0.00000000000E+00 -0.36006320472E+03  0.36006320473E+03  0.25500000000E-02 0. -1.
    5000001    1    1    2    0    0 -0.55703211004E+02  0.30725419893E+03  0.42161633609E+02  0.36691905623E+03  0.18800000000E+03 0.  0.
   -5000001    1    1    2    0    0  0.55703211004E+02 -0.30725419893E+03 -0.29674362500E+02  0.36569462433E+03  0.18800000000E+03 0.  0.
<mgrwt>
<rscale>  0 0.73250725E+03</rscale>
<asrwt>0</asrwt>
<pdfrwt beam="1">  1        2 0.53221497E-01 0.73250725E+03</pdfrwt>
<pdfrwt beam="2">  1       -2 0.51437600E-01 0.73250725E+03</pdfrwt>
<totfact> 0.33705771E+02</totfact>
</mgrwt>
</event>
<event>
 4    1  0.6346694E-005  0.6626750E+03  0.7818608E-02  0.9783282E-01
         -2   -1    0    0    0  501 -0.00000000000E+00  0.00000000000E+00  0.18481931927E+03  0.18481931929E+03  0.25500000000E-02 0. -1.
          2   -1    0    0  501    0  0.00000000000E+00 -0.00000000000E+00 -0.59401012244E+03  0.59401012245E+03  0.25500000000E-02 0.  1.
    5000001    1    1    2    0    0 -0.25386726750E+02  0.26343841331E+03 -0.12666918512E+03  0.34847290563E+03  0.18800000000E+03 0.  0.
   -5000001    1    1    2    0    0  0.25386726750E+02 -0.26343841331E+03 -0.28252161805E+03  0.43035653610E+03  0.18800000000E+03 0.  0.
<mgrwt>
<rscale>  0 0.66267502E+03</rscale>
<asrwt>0</asrwt>
<pdfrwt beam="1">  1        2 0.84858588E-01 0.66267502E+03</pdfrwt>
<pdfrwt beam="2">  1       -2 0.26402760E-01 0.66267502E+03</pdfrwt>
<totfact> 0.71526650E+02</totfact>
</mgrwt>
</event>
<event>
 4    1  0.6346694E-005  0.5805126E+03  0.7818608E-02  0.9946682E-01
          2   -1    0    0  501    0  0.00000000000E+00  0.00000000000E+00  0.20074833635E+04  0.20074833635E+04  0.25500000000E-02 0.  1.
         -2   -1    0    0    0  501 -0.00000000000E+00 -0.00000000000E+00 -0.41967327924E+02  0.41967328001E+02  0.25500000000E-02 0. -1.
    5000001    1    1    2    0    0  0.80667969010E+02  0.20451370363E+03  0.89835697209E+03  0.94378092028E+03  0.18800000000E+03 0.  0.
   -5000001    1    1    2    0    0 -0.80667969010E+02 -0.20451370363E+03  0.10671590635E+04  0.11056697712E+04  0.18800000000E+03 0.  0.
<mgrwt>
<rscale>  0 0.58051258E+03</rscale>
<asrwt>0</asrwt>
<pdfrwt beam="1">  1        2 0.28678321E+00 0.58051258E+03</pdfrwt>
<pdfrwt beam="2">  1       -2 0.59953353E-02 0.58051258E+03</pdfrwt>
<totfact> 0.12714075E+03</totfact>
</mgrwt>
</event>
<event>
 4    1  0.6346694E-005  0.4863355E+03  0.7818608E-02  0.1017408E+00
          2   -1    0    0  501    0  0.00000000000E+00  0.00000000000E+00  0.13435760236E+04  0.13435760236E+04  0.25500000000E-02 0.  1.
         -2   -1    0    0    0  501 -0.00000000000E+00 -0.00000000000E+00 -0.44009834217E+02  0.44009834291E+02  0.25500000000E-02 0. -1.
    5000001    1    1    2    0    0 -0.96078255909E+02  0.22858009805E+02  0.98776989098E+03  0.10103399811E+04  0.18800000000E+03 0.  0.
   -5000001    1    1    2    0    0  0.96078255909E+02 -0.22858009805E+02  0.31179629845E+03  0.37724587685E+03  0.18800000000E+03 0.  0.
<mgrwt>
<rscale>  0 0.48633551E+03</rscale>
<asrwt>0</asrwt>
<pdfrwt beam="1">  1        2 0.19193943E+00 0.48633551E+03</pdfrwt>
<pdfrwt beam="2">  1       -2 0.62871191E-02 0.48633551E+03</pdfrwt>
<totfact> 0.25854792E+03</totfact>
</mgrwt>
</event>
<event>
 4    1  0.6346694E-005  0.5023469E+03  0.7818608E-02  0.1013168E+00
         -2   -1    0    0    0  501 -0.00000000000E+00  0.00000000000E+00  0.26645799654E+02  0.26645799776E+02  0.25500000000E-02 0. -1.
          2   -1    0    0  501    0  0.00000000000E+00 -0.00000000000E+00 -0.23676562090E+04  0.23676562090E+04  0.25500000000E-02 0.  1.
    5000001    1    1    2    0    0  0.11485400868E+03 -0.12061551399E+03 -0.11603411455E+04  0.11872131735E+04  0.18800000000E+03 0.  0.
   -5000001    1    1    2    0    0 -0.11485400868E+03  0.12061551399E+03 -0.11806692638E+04  0.12070888352E+04  0.18800000000E+03 0.  0.
<mgrwt>
<rscale>  0 0.50234686E+03</rscale>
<asrwt>0</asrwt>
<pdfrwt beam="1">  1        2 0.33823647E+00 0.50234686E+03</pdfrwt>
<pdfrwt beam="2">  1       -2 0.38065443E-02 0.50234686E+03</pdfrwt>
<totfact> 0.16984195E+03</totfact>
</mgrwt>
</event>
<event>
 4    1  0.6346694E-005  0.4603987E+03  0.7818608E-02  0.1024666E+00
          2   -1    0    0  501    0  0.00000000000E+00  0.00000000000E+00  0.62167017586E+03  0.62167017587E+03  0.25500000000E-02 0.  1.
         -2   -1    0    0    0  501 -0.00000000000E+00 -0.00000000000E+00 -0.85240908709E+02  0.85240908747E+02  0.25500000000E-02 0. -1.
    5000001    1    1    2    0    0 -0.78956677477E+02  0.79233708922E+02  0.37824841812E+03  0.43695309057E+03  0.18800000000E+03 0.  0.
   -5000001    1    1    2    0    0  0.78956677477E+02 -0.79233708922E+02  0.15818084903E+03  0.26995799404E+03  0.18800000000E+03 0.  0.
<mgrwt>
<rscale>  0 0.46039866E+03</rscale>
<asrwt>0</asrwt>
<pdfrwt beam="1">  1        2 0.88810024E-01 0.46039866E+03</pdfrwt>
<pdfrwt beam="2">  1       -2 0.12177273E-01 0.46039866E+03</pdfrwt>
<totfact> 0.25660649E+03</totfact>
</mgrwt>
</event>
<event>
 4    1  0.6346694E-005  0.5638629E+03  0.7818608E-02  0.9983352E-01
         -2   -1    0    0    0  501 -0.00000000000E+00  0.00000000000E+00  0.95232396474E+03  0.95232396475E+03  0.25500000000E-02 0. -1.
          2   -1    0    0  501    0  0.00000000000E+00 -0.00000000000E+00 -0.83464595363E+02  0.83464595401E+02  0.25500000000E-02 0.  1.
    5000001    1    1    2    0    0 -0.83029578045E+01 -0.20088611923E+03  0.32243346117E+03  0.42394753082E+03  0.18800000000E+03 0.  0.
   -5000001    1    1    2    0    0  0.83029578045E+01  0.20088611923E+03  0.54642590821E+03  0.61184102932E+03  0.18800000000E+03 0.  0.
<mgrwt>
<rscale>  0 0.56386287E+03</rscale>
<asrwt>0</asrwt>
<pdfrwt beam="1">  1        2 0.11923514E-01 0.56386287E+03</pdfrwt>
<pdfrwt beam="2">  1       -2 0.13604628E+00 0.56386287E+03</pdfrwt>
<totfact> 0.20897512E+02</totfact>
</mgrwt>
</event>
<event>
 4    1  0.6346694E-005  0.4163012E+03  0.7818608E-02  0.1038277E+00
          2   -1    0    0  501    0  0.00000000000E+00  0.00000000000E+00  0.57814740745E+03  0.57814740746E+03  0.25500000000E-02 0.  1.
         -2   -1    0    0    0  501 -0.00000000000E+00 -0.00000000000E+00 -0.74940538386E+02  0.74940538430E+02  0.25500000000E-02 0. -1.
    5000001    1    1    2    0    0  0.68214630680E+02 -0.45476736068E+02  0.19588811045E+03  0.28361509335E+03  0.18800000000E+03 0.  0.
   -5000001    1    1    2    0    0 -0.68214630680E+02  0.45476736068E+02  0.30731875861E+03  0.36947285253E+03  0.18800000000E+03 0.  0.
<mgrwt>
<rscale>  0 0.41630123E+03</rscale>
<asrwt>0</asrwt>
<pdfrwt beam="1">  1        2 0.82592490E-01 0.41630123E+03</pdfrwt>
<pdfrwt beam="2">  1       -2 0.10705791E-01 0.41630123E+03</pdfrwt>
<totfact> 0.34389513E+03</totfact>
</mgrwt>
</event>
<event>
 4    1  0.6346694E-005  0.4922506E+03  0.7818608E-02  0.1015822E+00
         -2   -1    0    0    0  501 -0.00000000000E+00  0.00000000000E+00  0.68547118216E+02  0.68547118263E+02  0.25500000000E-02 0. -1.
          2   -1    0    0  501    0  0.00000000000E+00 -0.00000000000E+00 -0.88373748394E+03  0.88373748394E+03  0.25500000000E-02 0.  1.
    5000001    1    1    2    0    0 -0.10150795197E+03  0.48473943713E+02 -0.62457636016E+03  0.66188610591E+03  0.18800000000E+03 0.  0.
   -5000001    1    1    2    0    0  0.10150795197E+03 -0.48473943713E+02 -0.19061400556E+03  0.29039849629E+03  0.18800000000E+03 0.  0.
<mgrwt>
<rscale>  0 0.49225058E+03</rscale>
<asrwt>0</asrwt>
<pdfrwt beam="1">  1        2 0.12624821E+00 0.49225058E+03</pdfrwt>
<pdfrwt beam="2">  1       -2 0.97924460E-02 0.49225058E+03</pdfrwt>
<totfact> 0.23657058E+03</totfact>
</mgrwt>
</event>
<event>
 4    1  0.6346694E-005  0.4408355E+03  0.7818608E-02  0.1030491E+00
         -2   -1    0    0    0  501 -0.00000000000E+00  0.00000000000E+00  0.35846434665E+03  0.35846434666E+03  0.25500000000E-02 0. -1.
          2   -1    0    0  501    0  0.00000000000E+00 -0.00000000000E+00 -0.13553367213E+03  0.13553367216E+03  0.25500000000E-02 0.  1.
    5000001    1    1    2    0    0  0.10652618440E+03 -0.26174659345E+02  0.15039771989E+03  0.26456835582E+03  0.18800000000E+03 0.  0.
   -5000001    1    1    2    0    0 -0.10652618440E+03  0.26174659345E+02  0.72532954627E+02  0.22942966299E+03  0.18800000000E+03 0.  0.
<mgrwt>
<rscale>  0 0.44083552E+03</rscale>
<asrwt>0</asrwt>
<pdfrwt beam="1">  1        2 0.19361953E-01 0.44083552E+03</pdfrwt>
<pdfrwt beam="2">  1       -2 0.51209192E-01 0.44083552E+03</pdfrwt>
<totfact> 0.10642117E+03</totfact>
</mgrwt>
</event>
<event>
 4    1  0.6346694E-005  0.5056170E+03  0.7818608E-02  0.1012323E+00
          2   -1    0    0  501    0  0.00000000000E+00  0.00000000000E+00  0.21849806868E+04  0.21849806868E+04  0.25500000000E-02 0.  1.
         -2   -1    0    0    0  501 -0.00000000000E+00 -0.00000000000E+00 -0.29250662910E+02  0.29250663021E+02  0.25500000000E-02 0. -1.
    5000001    1    1    2    0    0 -0.14715487770E+03 -0.24637691250E+01  0.71389805284E+03  0.75276494208E+03  0.18800000000E+03 0.  0.
   -5000001    1    1    2    0    0  0.14715487770E+03  0.24637691250E+01  0.14418319710E+04  0.14614664077E+04  0.18800000000E+03 0.  0.
<mgrwt>
<rscale>  0 0.50561698E+03</rscale>
<asrwt>0</asrwt>
<pdfrwt beam="1">  1        2 0.31214005E+00 0.50561698E+03</pdfrwt>
<pdfrwt beam="2">  1       -2 0.41786668E-02 0.50561698E+03</pdfrwt>
<totfact> 0.18189162E+03</totfact>
</mgrwt>
</event>
<event>
 4    1  0.6346694E-005  0.6728023E+03  0.7818608E-02  0.9764909E-01
          2   -1    0    0  501    0  0.00000000000E+00  0.00000000000E+00  0.98573568197E+03  0.98573568197E+03  0.25500000000E-02 0.  1.
         -2   -1    0    0    0  501 -0.00000000000E+00 -0.00000000000E+00 -0.11480330839E+03  0.11480330842E+03  0.25500000000E-02 0. -1.
    5000001    1    1    2    0    0  0.37864375268E+02  0.26052972659E+03  0.58638404928E+03  0.66970120397E+03  0.18800000000E+03 0.  0.
   -5000001    1    1    2    0    0 -0.37864375268E+02 -0.26052972659E+03  0.28454832429E+03  0.43083778642E+03  0.18800000000E+03 0.  0.
<mgrwt>
<rscale>  0 0.67280225E+03</rscale>
<asrwt>0</asrwt>
<pdfrwt beam="1">  1        2 0.14081938E+00 0.67280225E+03</pdfrwt>
<pdfrwt beam="2">  1       -2 0.16400474E-01 0.67280225E+03</pdfrwt>
<totfact> 0.86648686E+02</totfact>
</mgrwt>
</event>
<event>
 4    1  0.6346694E-005  0.5446428E+03  0.7818608E-02  0.1002742E+00
          2   -1    0    0  501    0  0.00000000000E+00  0.00000000000E+00  0.27139552549E+03  0.27139552550E+03  0.25500000000E-02 0.  1.
         -2   -1    0    0    0  501 -0.00000000000E+00 -0.00000000000E+00 -0.27325047848E+03  0.27325047849E+03  0.25500000000E-02 0. -1.
    5000001    1    1    2    0    0 -0.89068432732E+02  0.17071643733E+03 -0.42613081630E+02  0.27246497465E+03  0.18800000000E+03 0.  0.
   -5000001    1    1    2    0    0  0.89068432732E+02 -0.17071643733E+03  0.40758128636E+02  0.27218102934E+03  0.18800000000E+03 0.  0.
<mgrwt>
<rscale>  0 0.54464285E+03</rscale>
<asrwt>0</asrwt>
<pdfrwt beam="1">  1        2 0.38770789E-01 0.54464285E+03</pdfrwt>
<pdfrwt beam="2">  1       -2 0.39035783E-01 0.54464285E+03</pdfrwt>
<totfact> 0.83050161E+02</totfact>
</mgrwt>
</event>
<event>
 4    1  0.6346694E-005  0.8056213E+03  0.7818608E-02  0.9551916E-01
          2   -1    0    0  501    0  0.00000000000E+00  0.00000000000E+00  0.85756328826E+03  0.85756328826E+03  0.25500000000E-02 0.  1.
         -2   -1    0    0    0  501 -0.00000000000E+00 -0.00000000000E+00 -0.18920635722E+03  0.18920635723E+03  0.25500000000E-02 0. -1.
    5000001    1    1    2    0    0  0.33655712604E+03  0.22346651227E+02  0.18522289408E+03  0.42827747127E+03  0.18800000000E+03 0.  0.
   -5000001    1    1    2    0    0 -0.33655712604E+03 -0.22346651227E+02  0.48313403696E+03  0.61849217422E+03  0.18800000000E+03 0.  0.
<mgrwt>
<rscale>  0 0.80562132E+03</rscale>
<asrwt>0</asrwt>
<pdfrwt beam="1">  1        2 0.12250904E+00 0.80562132E+03</pdfrwt>
<pdfrwt beam="2">  1       -2 0.27029479E-01 0.80562132E+03</pdfrwt>
<totfact> 0.43240847E+02</totfact>
</mgrwt>
</event>
<event>
 4    1  0.6346694E-005  0.6005021E+03  0.7818608E-02  0.9904365E-01
         -2   -1    0    0    0  501 -0.00000000000E+00  0.00000000000E+00  0.14879770321E+03  0.14879770323E+03  0.25500000000E-02 0.  1.
          2   -1    0    0  501    0  0.00000000000E+00 -0.00000000000E+00 -0.60586075057E+03  0.60586075057E+03  0.25500000000E-02 0. -1.
    5000001    1    1    2    0    0 -0.12805489618E+03  0.19453681242E+03 -0.25837838744E+03  0.39540614426E+03  0.18800000000E+03 0.  0.
   -5000001    1    1    2    0    0  0.12805489618E+03 -0.19453681242E+03 -0.19868465992E+03  0.35925230954E+03  0.18800000000E+03 0.  0.
<mgrwt>
<rscale>  0 0.60050208E+03</rscale>
<asrwt>0</asrwt>
<pdfrwt beam="1">  1        2 0.86551534E-01 0.60050208E+03</pdfrwt>
<pdfrwt beam="2">  1       -2 0.21256815E-01 0.60050208E+03</pdfrwt>
<totfact> 0.10298882E+03</totfact>
</mgrwt>
</event>
<event>
 4    1  0.6346694E-005  0.6734916E+03  0.7818608E-02  0.9763671E-01
          2   -1    0    0  501    0  0.00000000000E+00  0.00000000000E+00  0.51476566566E+03  0.51476566567E+03  0.25500000000E-02 0.  1.
         -2   -1    0    0    0  501 -0.00000000000E+00 -0.00000000000E+00 -0.22029001582E+03  0.22029001583E+03  0.25500000000E-02 0. -1.
    5000001    1    1    2    0    0 -0.74003389163E+02 -0.26939694667E+03  0.14550521094E+03  0.36683372649E+03  0.18800000000E+03 0.  0.
   -5000001    1    1    2    0    0  0.74003389163E+02  0.26939694667E+03  0.14897043891E+03  0.36822195501E+03  0.18800000000E+03 0.  0.
<mgrwt>
<rscale>  0 0.67349161E+03</rscale>
<asrwt>0</asrwt>
<pdfrwt beam="1">  1        2 0.73537951E-01 0.67349161E+03</pdfrwt>
<pdfrwt beam="2">  1       -2 0.31470003E-01 0.67349161E+03</pdfrwt>
<totfact> 0.61145620E+02</totfact>
</mgrwt>
</event>
<event>
 4    1  0.6346694E-005  0.4780417E+03  0.7818608E-02  0.1019675E+00
          2   -1    0    0  501    0  0.00000000000E+00  0.00000000000E+00  0.28463727631E+03  0.28463727632E+03  0.25500000000E-02 0.  1.
         -2   -1    0    0    0  501 -0.00000000000E+00 -0.00000000000E+00 -0.20071499961E+03  0.20071499963E+03  0.25500000000E-02 0. -1.
    5000001    1    1    2    0    0 -0.10775100745E+03  0.63205471910E+02  0.12178768213E+03  0.25647894807E+03  0.18800000000E+03 0.  0.
   -5000001    1    1    2    0    0  0.10775100745E+03 -0.63205471910E+02 -0.37865405431E+02  0.22887332788E+03  0.18800000000E+03 0.  0.
<mgrwt>
<rscale>  0 0.47804172E+03</rscale>
<asrwt>0</asrwt>
<pdfrwt beam="1">  1        2 0.40662468E-01 0.47804172E+03</pdfrwt>
<pdfrwt beam="2">  1       -2 0.28673571E-01 0.47804172E+03</pdfrwt>
<totfact> 0.14054150E+03</totfact>
</mgrwt>
</event>
<event>
 4    1  0.6346694E-005  0.5780978E+03  0.7818608E-02  0.9951918E-01
         -2   -1    0    0    0  501 -0.00000000000E+00  0.00000000000E+00  0.35240320939E+02  0.35240321031E+02  0.25500000000E-02 0.  1.
          2   -1    0    0  501    0  0.00000000000E+00 -0.00000000000E+00 -0.23708432504E+04  0.23708432504E+04  0.25500000000E-02 0. -1.
    5000001    1    1    2    0    0 -0.14017651236E+03 -0.15791557241E+03 -0.91743663336E+03  0.96001081184E+03  0.18800000000E+03 0.  0.
   -5000001    1    1    2    0    0  0.14017651236E+03  0.15791557241E+03 -0.14181662961E+04  0.14460727596E+04  0.18800000000E+03 0.  0.
<mgrwt>
<rscale>  0 0.57809784E+03</rscale>
<asrwt>0</asrwt>
<pdfrwt beam="1">  1        2 0.33869179E+00 0.57809784E+03</pdfrwt>
<pdfrwt beam="2">  1       -2 0.50343331E-02 0.57809784E+03</pdfrwt>
<totfact> 0.10953527E+03</totfact>
</mgrwt>
</event>
<event>
 4    1  0.6346694E-005  0.5606207E+03  0.7818608E-02  0.9990651E-01
          2   -1    0    0  501    0  0.00000000000E+00  0.00000000000E+00  0.16216740690E+04  0.16216740690E+04  0.25500000000E-02 0.  1.
         -2   -1    0    0    0  501 -0.00000000000E+00 -0.00000000000E+00 -0.48452326341E+02  0.48452326408E+02  0.25500000000E-02 0. -1.
    5000001    1    1    2    0    0 -0.11073817858E+03 -0.60361723798E+02  0.29417735321E+03  0.37120182790E+03  0.18800000000E+03 0.  0.
   -5000001    1    1    2    0    0  0.11073817858E+03  0.60361723798E+02  0.12790443894E+04  0.12989245675E+04  0.18800000000E+03 0.  0.
<mgrwt>
<rscale>  0 0.56062066E+03</rscale>
<asrwt>0</asrwt>
<pdfrwt beam="1">  1        2 0.23166768E+00 0.56062066E+03</pdfrwt>
<pdfrwt beam="2">  1       -2 0.69217623E-02 0.56062066E+03</pdfrwt>
<totfact> 0.15898195E+03</totfact>
</mgrwt>
</event>
<event>
 4    1  0.6346694E-005  0.4254961E+03  0.7818608E-02  0.1035292E+00
          2   -1    0    0  501    0  0.00000000000E+00  0.00000000000E+00  0.40041604811E+03  0.40041604811E+03  0.25500000000E-02 0.  1.
         -2   -1    0    0    0  501 -0.00000000000E+00 -0.00000000000E+00 -0.11303678099E+03  0.11303678102E+03  0.25500000000E-02 0. -1.
    5000001    1    1    2    0    0 -0.26305052321E+02 -0.95695361967E+02  0.13372541623E+03  0.25114944759E+03  0.18800000000E+03 0.  0.
   -5000001    1    1    2    0    0  0.26305052321E+02  0.95695361967E+02  0.15365385088E+03  0.26230338154E+03  0.18800000000E+03 0.  0.
<mgrwt>
<rscale>  0 0.42549614E+03</rscale>
<asrwt>0</asrwt>
<pdfrwt beam="1">  1        2 0.57202292E-01 0.42549614E+03</pdfrwt>
<pdfrwt beam="2">  1       -2 0.16148112E-01 0.42549614E+03</pdfrwt>
<totfact> 0.26373692E+03</totfact>
</mgrwt>
</event>
<event>
 4    1  0.6346694E-005  0.4111914E+03  0.7818608E-02  0.1039972E+00
         -2   -1    0    0    0  501 -0.00000000000E+00  0.00000000000E+00  0.23695668828E+03  0.23695668830E+03  0.25500000000E-02 0. -1.
          2   -1    0    0  501    0  0.00000000000E+00 -0.00000000000E+00 -0.17838534339E+03  0.17838534340E+03  0.25500000000E-02 0.  1.
    5000001    1    1    2    0    0  0.95718548659E+01 -0.77341936782E+02  0.58772887693E+02  0.21182928957E+03  0.18800000000E+03 0.  0.
   -5000001    1    1    2    0    0 -0.95718548659E+01  0.77341936782E+02 -0.20154279576E+00  0.20351274213E+03  0.18800000000E+03 0.  0.
<mgrwt>
<rscale>  0 0.41119144E+03</rscale>
<asrwt>0</asrwt>
<pdfrwt beam="1">  1        2 0.25483621E-01 0.41119144E+03</pdfrwt>
<pdfrwt beam="2">  1       -2 0.33850955E-01 0.41119144E+03</pdfrwt>
<totfact> 0.17354664E+03</totfact>
</mgrwt>
</event>
<event>
 4    1  0.6346694E-005  0.7995596E+03  0.7818608E-02  0.9560655E-01
          2   -1    0    0  501    0  0.00000000000E+00  0.00000000000E+00  0.18811067947E+04  0.18811067947E+04  0.25500000000E-02 0.  1.
         -2   -1    0    0    0  501 -0.00000000000E+00 -0.00000000000E+00 -0.84962690133E+02  0.84962690171E+02  0.25500000000E-02 0. -1.
    5000001    1    1    2    0    0 -0.29399811017E+03 -0.15892665572E+03  0.62001249164E+03  0.72900758602E+03  0.18800000000E+03 0.  0.
   -5000001    1    1    2    0    0  0.29399811017E+03  0.15892665572E+03  0.11761316130E+04  0.12370618989E+04  0.18800000000E+03 0.  0.
<mgrwt>
<rscale>  0 0.79955961E+03</rscale>
<asrwt>0</asrwt>
<pdfrwt beam="1">  1        2 0.26872952E+00 0.79955961E+03</pdfrwt>
<pdfrwt beam="2">  1       -2 0.12137528E-01 0.79955961E+03</pdfrwt>
<totfact> 0.46798106E+02</totfact>
</mgrwt>
</event>
<event>
 4    1  0.6346694E-005  0.6786722E+03  0.7818608E-02  0.9754417E-01
          2   -1    0    0  501    0  0.00000000000E+00  0.00000000000E+00  0.11008076750E+04  0.11008076750E+04  0.25500000000E-02 0.  1.
         -2   -1    0    0    0  501 -0.00000000000E+00 -0.00000000000E+00 -0.10460409555E+03  0.10460409558E+03  0.25500000000E-02 0. -1.
    5000001    1    1    2    0    0 -0.39404343473E+02 -0.27860877465E+03  0.54266253110E+03  0.63953277809E+03  0.18800000000E+03 0.  0.
   -5000001    1    1    2    0    0  0.39404343473E+02  0.27860877465E+03  0.45354104831E+03  0.56587899245E+03  0.18800000000E+03 0.  0.
<mgrwt>
<rscale>  0 0.67867221E+03</rscale>
<asrwt>0</asrwt>
<pdfrwt beam="1">  1        2 0.15725824E+00 0.67867221E+03</pdfrwt>
<pdfrwt beam="2">  1       -2 0.14943443E-01 0.67867221E+03</pdfrwt>
<totfact> 0.86536212E+02</totfact>
</mgrwt>
</event>
<event>
 4    1  0.6346694E-005  0.4849374E+03  0.7818608E-02  0.1017787E+00
         -2   -1    0    0    0  501 -0.00000000000E+00  0.00000000000E+00  0.39253842530E+02  0.39253842613E+02  0.25500000000E-02 0. -1.
          2   -1    0    0  501    0  0.00000000000E+00 -0.00000000000E+00 -0.14977148399E+04  0.14977148399E+04  0.25500000000E-02 0.  1.
    5000001    1    1    2    0    0  0.13401882465E+03  0.38187125359E+02 -0.52808459393E+03  0.57761288096E+03  0.18800000000E+03 0.  0.
   -5000001    1    1    2    0    0 -0.13401882465E+03 -0.38187125359E+02 -0.93037640345E+03  0.95935580156E+03  0.18800000000E+03 0.  0.
<mgrwt>
<rscale>  0 0.48493737E+03</rscale>
<asrwt>0</asrwt>
<pdfrwt beam="1">  1        2 0.21395923E+00 0.48493737E+03</pdfrwt>
<pdfrwt beam="2">  1       -2 0.56076927E-02 0.48493737E+03</pdfrwt>
<totfact> 0.25644342E+03</totfact>
</mgrwt>
</event>
<event>
 4    1  0.6346694E-005  0.5123223E+03  0.7818608E-02  0.1010612E+00
         -2   -1    0    0    0  501 -0.00000000000E+00  0.00000000000E+00  0.97788588935E+02  0.97788588968E+02  0.25500000000E-02 0. -1.
          2   -1    0    0  501    0  0.00000000000E+00 -0.00000000000E+00 -0.67102452249E+03  0.67102452249E+03  0.25500000000E-02 0.  1.
    5000001    1    1    2    0    0  0.75214506940E+02  0.15630223167E+03 -0.30713519922E+03  0.39970444116E+03  0.18800000000E+03 0.  0.
   -5000001    1    1    2    0    0 -0.75214506940E+02 -0.15630223167E+03 -0.26610073433E+03  0.36910867030E+03  0.18800000000E+03 0.  0.
<mgrwt>
<rscale>  0 0.51232233E+03</rscale>
<asrwt>0</asrwt>
<pdfrwt beam="1">  1        2 0.95860643E-01 0.51232233E+03</pdfrwt>
<pdfrwt beam="2">  1       -2 0.13969799E-01 0.51232233E+03</pdfrwt>
<totfact> 0.18688356E+03</totfact>
</mgrwt>
</event>
<event>
 4    1  0.6346694E-005  0.4316498E+03  0.7818608E-02  0.1033340E+00
          2   -1    0    0  501    0  0.00000000000E+00  0.00000000000E+00  0.30469720477E+03  0.30469720478E+03  0.25500000000E-02 0.  1.
         -2   -1    0    0    0  501 -0.00000000000E+00 -0.00000000000E+00 -0.15287437224E+03  0.15287437226E+03  0.25500000000E-02 0. -1.
    5000001    1    1    2    0    0  0.60517146537E+02  0.51266927112E+02  0.15046087084E+03  0.25352139258E+03  0.18800000000E+03 0.  0.
   -5000001    1    1    2    0    0 -0.60517146537E+02 -0.51266927112E+02  0.13619616907E+01  0.20405018446E+03  0.18800000000E+03 0.  0.
<mgrwt>
<rscale>  0 0.43164983E+03</rscale>
<asrwt>0</asrwt>
<pdfrwt beam="1">  1        2 0.43528172E-01 0.43164983E+03</pdfrwt>
<pdfrwt beam="2">  1       -2 0.21839196E-01 0.43164983E+03</pdfrwt>
<totfact> 0.21194277E+03</totfact>
</mgrwt>
</event>
<event>
 4    1  0.6346694E-005  0.4299549E+03  0.7818608E-02  0.1033874E+00
         -2   -1    0    0    0  501 -0.00000000000E+00  0.00000000000E+00  0.13599916935E+03  0.13599916937E+03  0.25500000000E-02 0. -1.
          2   -1    0    0  501    0  0.00000000000E+00 -0.00000000000E+00 -0.33982055842E+03  0.33982055843E+03  0.25500000000E-02 0.  1.
    5000001    1    1    2    0    0  0.87827799726E+02  0.14209129566E+01 -0.39743887451E+02  0.21128018835E+03  0.18800000000E+03 0.  0.
   -5000001    1    1    2    0    0 -0.87827799726E+02 -0.14209129566E+01 -0.16407750162E+03  0.26453953946E+03  0.18800000000E+03 0.  0.
<mgrwt>
<rscale>  0 0.42995494E+03</rscale>
<asrwt>0</asrwt>
<pdfrwt beam="1">  1        2 0.48545794E-01 0.42995494E+03</pdfrwt>
<pdfrwt beam="2">  1       -2 0.19428453E-01 0.42995494E+03</pdfrwt>
<totfact> 0.23046656E+03</totfact>
</mgrwt>
</event>
<event>
 4    1  0.6346694E-005  0.5515969E+03  0.7818608E-02  0.1001125E+00
          2   -1    0    0  501    0  0.00000000000E+00  0.00000000000E+00  0.85783392607E+03  0.85783392607E+03  0.25500000000E-02 0.  1.
         -2   -1    0    0    0  501 -0.00000000000E+00 -0.00000000000E+00 -0.88670746100E+02  0.88670746137E+02  0.25500000000E-02 0. -1.
    5000001    1    1    2    0    0 -0.21184381578E+02  0.19774874403E+03  0.44321113059E+03  0.52089677487E+03  0.18800000000E+03 0.  0.
   -5000001    1    1    2    0    0  0.21184381578E+02 -0.19774874403E+03  0.32595204938E+03  0.42560789734E+03  0.18800000000E+03 0.  0.
<mgrwt>
<rscale>  0 0.55159686E+03</rscale>
<asrwt>0</asrwt>
<pdfrwt beam="1">  1        2 0.12254770E+00 0.55159686E+03</pdfrwt>
<pdfrwt beam="2">  1       -2 0.12667249E-01 0.55159686E+03</pdfrwt>
<totfact> 0.16164075E+03</totfact>
</mgrwt>
</event>
<event>
 4    1  0.6346694E-005  0.6445638E+03  0.7818608E-02  0.9817034E-01
          2   -1    0    0  501    0  0.00000000000E+00  0.00000000000E+00  0.16292312317E+04  0.16292312317E+04  0.25500000000E-02 0.  1.
         -2   -1    0    0    0  501 -0.00000000000E+00 -0.00000000000E+00 -0.63751310676E+02  0.63751310727E+02  0.25500000000E-02 0. -1.
    5000001    1    1    2    0    0 -0.11396886866E+03  0.22398913781E+03  0.59041602164E+03  0.66865171464E+03  0.18800000000E+03 0.  0.
   -5000001    1    1    2    0    0  0.11396886866E+03 -0.22398913781E+03  0.97506389940E+03  0.10243308278E+04  0.18800000000E+03 0.  0.
<mgrwt>
<rscale>  0 0.64456381E+03</rscale>
<asrwt>0</asrwt>
<pdfrwt beam="1">  1        2 0.23274731E+00 0.64456381E+03</pdfrwt>
<pdfrwt beam="2">  1       -2 0.91073303E-02 0.64456381E+03</pdfrwt>
<totfact> 0.10141422E+03</totfact>
</mgrwt>
</event>
<event>
 4    1  0.6346694E-005  0.4476454E+03  0.7818608E-02  0.1028427E+00
          2   -1    0    0  501    0  0.00000000000E+00  0.00000000000E+00  0.29770514560E+03  0.29770514561E+03  0.25500000000E-02 0.  1.
         -2   -1    0    0    0  501 -0.00000000000E+00 -0.00000000000E+00 -0.16827590493E+03  0.16827590495E+03  0.25500000000E-02 0. -1.
    5000001    1    1    2    0    0  0.98827030800E+02 -0.54417119535E+02  0.17876062965E+02  0.21998081403E+03  0.18800000000E+03 0.  0.
   -5000001    1    1    2    0    0 -0.98827030800E+02  0.54417119535E+02  0.11155317771E+03  0.24600023653E+03  0.18800000000E+03 0.  0.
<mgrwt>
<rscale>  0 0.44764541E+03</rscale>
<asrwt>0</asrwt>
<pdfrwt beam="1">  1        2 0.42529306E-01 0.44764541E+03</pdfrwt>
<pdfrwt beam="2">  1       -2 0.24039415E-01 0.44764541E+03</pdfrwt>
<totfact> 0.18364028E+03</totfact>
</mgrwt>
</event>
<event>
 4    1  0.6346694E-005  0.5316854E+03  0.7818608E-02  0.1005824E+00
         -2   -1    0    0    0  501 -0.00000000000E+00  0.00000000000E+00  0.19604302439E+03  0.19604302441E+03  0.25500000000E-02 0. -1.
          2   -1    0    0  501    0  0.00000000000E+00 -0.00000000000E+00 -0.36049405841E+03  0.36049405841E+03  0.25500000000E-02 0.  1.
    5000001    1    1    2    0    0  0.11351108270E+03  0.13662926840E+03 -0.17903944668E+02  0.25926217255E+03  0.18800000000E+03 0.  0.
   -5000001    1    1    2    0    0 -0.11351108270E+03 -0.13662926840E+03 -0.14654708935E+03  0.29727491027E+03  0.18800000000E+03 0.  0.
<mgrwt>
<rscale>  0 0.53168542E+03</rscale>
<asrwt>0</asrwt>
<pdfrwt beam="1">  1        2 0.51499151E-01 0.53168542E+03</pdfrwt>
<pdfrwt beam="2">  1       -2 0.28006146E-01 0.53168542E+03</pdfrwt>
<totfact> 0.11320077E+03</totfact>
</mgrwt>
</event>
<event>
 4    1  0.6346694E-005  0.6437606E+03  0.7818608E-02  0.9818558E-01
         -2   -1    0    0    0  501 -0.00000000000E+00  0.00000000000E+00  0.71568777592E+02  0.71568777637E+02  0.25500000000E-02 0. -1.
          2   -1    0    0  501    0  0.00000000000E+00 -0.00000000000E+00 -0.14476554665E+04  0.14476554665E+04  0.25500000000E-02 0.  1.
    5000001    1    1    2    0    0 -0.10157406670E+03 -0.97345119967E+02 -0.12075989769E+04  0.12302165064E+04  0.18800000000E+03 0.  0.
   -5000001    1    1    2    0    0  0.10157406670E+03  0.97345119967E+02 -0.16848771194E+03  0.28900773776E+03  0.18800000000E+03 0.  0.
<mgrwt>
<rscale>  0 0.64376061E+03</rscale>
<asrwt>0</asrwt>
<pdfrwt beam="1">  1        2 0.20680791E+00 0.64376061E+03</pdfrwt>
<pdfrwt beam="2">  1       -2 0.10224112E-01 0.64376061E+03</pdfrwt>
<totfact> 0.10451467E+03</totfact>
</mgrwt>
</event>
<event>
 4    1  0.6346694E-005  0.7306575E+03  0.7818608E-02  0.9666194E-01
          2   -1    0    0  501    0  0.00000000000E+00  0.00000000000E+00  0.23460526412E+04  0.23460526412E+04  0.25500000000E-02 0.  1.
         -2   -1    0    0    0  501 -0.00000000000E+00 -0.00000000000E+00 -0.56889218200E+02  0.56889218258E+02  0.25500000000E-02 0. -1.
    5000001    1    1    2    0    0  0.16925539868E+03 -0.81402192022E+02  0.19690482696E+04  0.19868992916E+04  0.18800000000E+03 0.  0.
   -5000001    1    1    2    0    0 -0.16925539868E+03  0.81402192022E+02  0.32011515337E+03  0.41604256785E+03  0.18800000000E+03 0.  0.
<mgrwt>
<rscale>  0 0.73065751E+03</rscale>
<asrwt>0</asrwt>
<pdfrwt beam="1">  1        2 0.33515041E+00 0.73065751E+03</pdfrwt>
<pdfrwt beam="2">  1       -2 0.81270304E-02 0.73065751E+03</pdfrwt>
<totfact> 0.52467408E+02</totfact>
</mgrwt>
</event>
<event>
 4    1  0.6346694E-005  0.4855973E+03  0.7818608E-02  0.1017608E+00
          2   -1    0    0  501    0  0.00000000000E+00  0.00000000000E+00  0.10173453191E+04  0.10173453191E+04  0.25500000000E-02 0.  1.
         -2   -1    0    0    0  501 -0.00000000000E+00 -0.00000000000E+00 -0.57946082426E+02  0.57946082482E+02  0.25500000000E-02 0. -1.
    5000001    1    1    2    0    0  0.12591469247E+03 -0.76138268669E+02  0.38177468414E+03  0.45027486626E+03  0.18800000000E+03 0.  0.
   -5000001    1    1    2    0    0 -0.12591469247E+03  0.76138268669E+02  0.57762455254E+03  0.62501653532E+03  0.18800000000E+03 0.  0.
<mgrwt>
<rscale>  0 0.48559726E+03</rscale>
<asrwt>0</asrwt>
<pdfrwt beam="1">  1        2 0.14533504E+00 0.48559726E+03</pdfrwt>
<pdfrwt beam="2">  1       -2 0.82780122E-02 0.48559726E+03</pdfrwt>
<totfact> 0.25562380E+03</totfact>
</mgrwt>
</event>
<event>
 4    1  0.6346694E-005  0.6085482E+03  0.7818608E-02  0.9887828E-01
         -2   -1    0    0    0  501 -0.00000000000E+00  0.00000000000E+00  0.23772761686E+03  0.23772761688E+03  0.25500000000E-02 0. -1.
          2   -1    0    0  501    0  0.00000000000E+00 -0.00000000000E+00 -0.38944880514E+03  0.38944880515E+03  0.25500000000E-02 0.  1.
    5000001    1    1    2    0    0 -0.72095278761E+02  0.22507245105E+03 -0.37527980260E+02  0.30431511094E+03  0.18800000000E+03 0.  0.
   -5000001    1    1    2    0    0  0.72095278761E+02 -0.22507245105E+03 -0.11419320802E+03  0.32286131109E+03  0.18800000000E+03 0.  0.
<mgrwt>
<rscale>  0 0.60854823E+03</rscale>
<asrwt>0</asrwt>
<pdfrwt beam="1">  1        2 0.55635543E-01 0.60854823E+03</pdfrwt>
<pdfrwt beam="2">  1       -2 0.33961088E-01 0.60854823E+03</pdfrwt>
<totfact> 0.72650031E+02</totfact>
</mgrwt>
</event>
<event>
 4    1  0.6346694E-005  0.5574631E+03  0.7818608E-02  0.9997811E-01
          2   -1    0    0  501    0  0.00000000000E+00  0.00000000000E+00  0.87511813384E+03  0.87511813384E+03  0.25500000000E-02 0.  1.
         -2   -1    0    0    0  501 -0.00000000000E+00 -0.00000000000E+00 -0.88778032467E+02  0.88778032503E+02  0.25500000000E-02 0. -1.
    5000001    1    1    2    0    0  0.66532242958E+02 -0.19148335250E+03  0.33191942998E+03  0.43198023292E+03  0.18800000000E+03 0.  0.
   -5000001    1    1    2    0    0 -0.66532242958E+02  0.19148335250E+03  0.45442067139E+03  0.53191593342E+03  0.18800000000E+03 0.  0.
<mgrwt>
<rscale>  0 0.55746306E+03</rscale>
<asrwt>0</asrwt>
<pdfrwt beam="1">  1        2 0.12501688E+00 0.55746306E+03</pdfrwt>
<pdfrwt beam="2">  1       -2 0.12682576E-01 0.55746306E+03</pdfrwt>
<totfact> 0.15713780E+03</totfact>
</mgrwt>
</event>
<event>
 4    1  0.6346694E-005  0.4459379E+03  0.7818608E-02  0.1028940E+00
         -2   -1    0    0    0  501 -0.00000000000E+00  0.00000000000E+00  0.13361777067E+03  0.13361777069E+03  0.25500000000E-02 0. -1.
          2   -1    0    0  501    0  0.00000000000E+00 -0.00000000000E+00 -0.37206993734E+03  0.37206993735E+03  0.25500000000E-02 0.  1.
    5000001    1    1    2    0    0 -0.76080580095E+02  0.68879763176E+02 -0.48969408438E+02  0.21971499586E+03  0.18800000000E+03 0.  0.
   -5000001    1    1    2    0    0  0.76080580095E+02 -0.68879763176E+02 -0.18948275824E+03  0.28597271218E+03  0.18800000000E+03 0.  0.
<mgrwt>
<rscale>  0 0.44593791E+03</rscale>
<asrwt>0</asrwt>
<pdfrwt beam="1">  1        2 0.53152848E-01 0.44593791E+03</pdfrwt>
<pdfrwt beam="2">  1       -2 0.19088253E-01 0.44593791E+03</pdfrwt>
<totfact> 0.21521435E+03</totfact>
</mgrwt>
</event>
<event>
 4    1  0.6346694E-005  0.7509659E+03  0.7818608E-02  0.9633836E-01
         -2   -1    0    0    0  501 -0.00000000000E+00  0.00000000000E+00  0.12266800397E+03  0.12266800399E+03  0.25500000000E-02 0.  1.
          2   -1    0    0  501    0  0.00000000000E+00 -0.00000000000E+00 -0.11493415396E+04  0.11493415396E+04  0.25500000000E-02 0. -1.
    5000001    1    1    2    0    0  0.15136906672E+03 -0.57247834242E+02 -0.35888024767E+02  0.25064289179E+03  0.18800000000E+03 0.  0.
   -5000001    1    1    2    0    0 -0.15136906672E+03  0.57247834242E+02 -0.99078551089E+03  0.10213666518E+04  0.18800000000E+03 0.  0.
<mgrwt>
<rscale>  0 0.75096586E+03</rscale>
<asrwt>0</asrwt>
<pdfrwt beam="1">  1        2 0.16419164E+00 0.75096586E+03</pdfrwt>
<pdfrwt beam="2">  1       -2 0.17524001E-01 0.75096586E+03</pdfrwt>
<totfact> 0.61674314E+02</totfact>
</mgrwt>
</event>
<event>
 4    1  0.6346694E-005  0.9857917E+03  0.7818608E-02  0.9324267E-01
          2   -1    0    0  501    0  0.00000000000E+00  0.00000000000E+00  0.94828545874E+03  0.94828545874E+03  0.25500000000E-02 0.  1.
         -2   -1    0    0    0  501 -0.00000000000E+00 -0.00000000000E+00 -0.25619531903E+03  0.25619531904E+03  0.25500000000E-02 0. -1.
    5000001    1    1    2    0    0  0.73986876042E+02 -0.28569502240E+03 -0.78105582556E+02  0.35852501402E+03  0.18800000000E+03 0.  0.
   -5000001    1    1    2    0    0 -0.73986876042E+02  0.28569502240E+03  0.77019572226E+03  0.84595576376E+03  0.18800000000E+03 0.  0.
<mgrwt>
<rscale>  0 0.98579165E+03</rscale>
<asrwt>0</asrwt>
<pdfrwt beam="1">  1        2 0.13546935E+00 0.98579165E+03</pdfrwt>
<pdfrwt beam="2">  1       -2 0.36599332E-01 0.98579165E+03</pdfrwt>
<totfact> 0.21213177E+02</totfact>
</mgrwt>
</event>
<event>
 4    1  0.6346694E-005  0.7173200E+03  0.7818608E-02  0.9688063E-01
          2   -1    0    0  501    0  0.00000000000E+00  0.00000000000E+00  0.16162947819E+04  0.16162947819E+04  0.25500000000E-02 0.  1.
         -2   -1    0    0    0  501 -0.00000000000E+00 -0.00000000000E+00 -0.79587577900E+02  0.79587577940E+02  0.25500000000E-02 0. -1.
    5000001    1    1    2    0    0 -0.59555351770E+02 -0.29366963945E+03  0.62840041023E+03  0.72112396482E+03  0.18800000000E+03 0.  0.
   -5000001    1    1    2    0    0  0.59555351770E+02  0.29366963945E+03  0.90830679378E+03  0.97475839503E+03  0.18800000000E+03 0.  0.
<mgrwt>
<rscale>  0 0.71731998E+03</rscale>
<asrwt>0</asrwt>
<pdfrwt beam="1">  1        2 0.23089926E+00 0.71731998E+03</pdfrwt>
<pdfrwt beam="2">  1       -2 0.11369654E-01 0.71731998E+03</pdfrwt>
<totfact> 0.71521131E+02</totfact>
</mgrwt>
</event>
<event>
 4    1  0.6346694E-005  0.1445916E+04  0.7818608E-02  0.8921237E-01
          2   -1    0    0  501    0  0.00000000000E+00  0.00000000000E+00  0.13157211255E+04  0.13157211255E+04  0.25500000000E-02 0. -1.
         -2   -1    0    0    0  501 -0.00000000000E+00 -0.00000000000E+00 -0.39724852160E+03  0.39724852161E+03  0.25500000000E-02 0.  1.
    5000001    1    1    2    0    0 -0.79388711166E+02  0.69344553646E+03  0.47398527873E+03  0.86439303789E+03  0.18800000000E+03 0.  0.
   -5000001    1    1    2    0    0  0.79388711166E+02 -0.69344553646E+03  0.44448732521E+03  0.84857660925E+03  0.18800000000E+03 0.  0.
<mgrwt>
<rscale>  0 0.14459160E+04</rscale>
<asrwt>0</asrwt>
<pdfrwt beam="1">  1        2 0.18796016E+00 0.14459160E+04</pdfrwt>
<pdfrwt beam="2">  1       -2 0.56749788E-01 0.14459160E+04</pdfrwt>
<totfact> 0.52045838E+01</totfact>
</mgrwt>
</event>
<event>
 4    1  0.6346694E-005  0.1159151E+04  0.7818608E-02  0.9149382E-01
          2   -1    0    0  501    0  0.00000000000E+00  0.00000000000E+00  0.14299225776E+04  0.14299225776E+04  0.25500000000E-02 0.  1.
         -2   -1    0    0    0  501 -0.00000000000E+00 -0.00000000000E+00 -0.23491331416E+03  0.23491331418E+03  0.25500000000E-02 0. -1.
    5000001    1    1    2    0    0  0.34878667008E+03 -0.31750519097E+03  0.19611801221E+03  0.54430502683E+03  0.18800000000E+03 0.  0.
   -5000001    1    1    2    0    0 -0.34878667008E+03  0.31750519097E+03  0.99889125125E+03  0.11205308650E+04  0.18800000000E+03 0.  0.
<mgrwt>
<rscale>  0 0.11591512E+04</rscale>
<asrwt>0</asrwt>
<pdfrwt beam="1">  1        2 0.20427465E+00 0.11591512E+04</pdfrwt>
<pdfrwt beam="2">  1       -2 0.33559045E-01 0.11591512E+04</pdfrwt>
<totfact> 0.13073441E+02</totfact>
</mgrwt>
</event>
<event>
 4    1  0.6346694E-005  0.4972159E+03  0.7818608E-02  0.1014508E+00
          2   -1    0    0  501    0  0.00000000000E+00  0.00000000000E+00  0.42147043764E+03  0.42147043765E+03  0.25500000000E-02 0.  1.
         -2   -1    0    0    0  501 -0.00000000000E+00 -0.00000000000E+00 -0.14664354957E+03  0.14664354959E+03  0.25500000000E-02 0. -1.
    5000001    1    1    2    0    0  0.43672289208E+02  0.15643168118E+03  0.12695507408E+03  0.27899772500E+03  0.18800000000E+03 0.  0.
   -5000001    1    1    2    0    0 -0.43672289208E+02 -0.15643168118E+03  0.14787181399E+03  0.28911626224E+03  0.18800000000E+03 0.  0.
<mgrwt>
<rscale>  0 0.49721593E+03</rscale>
<asrwt>0</asrwt>
<pdfrwt beam="1">  1        2 0.60210064E-01 0.49721593E+03</pdfrwt>
<pdfrwt beam="2">  1       -2 0.20949078E-01 0.49721593E+03</pdfrwt>
<totfact> 0.15978132E+03</totfact>
</mgrwt>
</event>
<event>
 4    1  0.6346694E-005  0.5510264E+03  0.7818608E-02  0.1001257E+00
          2   -1    0    0  501    0  0.00000000000E+00  0.00000000000E+00  0.57346016883E+03  0.57346016883E+03  0.25500000000E-02 0.  1.
         -2   -1    0    0    0  501 -0.00000000000E+00 -0.00000000000E+00 -0.13236754599E+03  0.13236754602E+03  0.25500000000E-02 0. -1.
    5000001    1    1    2    0    0 -0.20046451937E+03 -0.46316041376E+01  0.24471625964E+03  0.36801837320E+03  0.18800000000E+03 0.  0.
   -5000001    1    1    2    0    0  0.20046451937E+03  0.46316041376E+01  0.19637636320E+03  0.33780934165E+03  0.18800000000E+03 0.  0.
<mgrwt>
<rscale>  0 0.55102637E+03</rscale>
<asrwt>0</asrwt>
<pdfrwt beam="1">  1        2 0.81922883E-01 0.55102637E+03</pdfrwt>
<pdfrwt beam="2">  1       -2 0.18909649E-01 0.55102637E+03</pdfrwt>
<totfact> 0.13470012E+03</totfact>
</mgrwt>
</event>
<event>
 4    1  0.6346694E-005  0.6872586E+03  0.7818608E-02  0.9739273E-01
         -2   -1    0    0    0  501 -0.00000000000E+00  0.00000000000E+00  0.16331812345E+03  0.16331812347E+03  0.25500000000E-02 0. -1.
          2   -1    0    0  501    0  0.00000000000E+00 -0.00000000000E+00 -0.72301277113E+03  0.72301277114E+03  0.25500000000E-02 0.  1.
    5000001    1    1    2    0    0 -0.11647703591E+03  0.23911532075E+03 -0.42108764291E+03  0.53235499390E+03  0.18800000000E+03 0.  0.
   -5000001    1    1    2    0    0  0.11647703591E+03 -0.23911532075E+03 -0.13860700477E+03  0.35397590071E+03  0.18800000000E+03 0.  0.
<mgrwt>
<rscale>  0 0.68725858E+03</rscale>
<asrwt>0</asrwt>
<pdfrwt beam="1">  1        2 0.10328754E+00 0.68725858E+03</pdfrwt>
<pdfrwt beam="2">  1       -2 0.23331161E-01 0.68725858E+03</pdfrwt>
<totfact> 0.70424196E+02</totfact>
</mgrwt>
</event>
<event>
 4    1  0.6346694E-005  0.4742643E+03  0.7818608E-02  0.1020724E+00
          2   -1    0    0  501    0  0.00000000000E+00  0.00000000000E+00  0.19779876969E+04  0.19779876969E+04  0.25500000000E-02 0.  1.
         -2   -1    0    0    0  501 -0.00000000000E+00 -0.00000000000E+00 -0.28428713540E+02  0.28428713655E+02  0.25500000000E-02 0. -1.
    5000001    1    1    2    0    0  0.88579291233E+02 -0.33417603215E+02  0.14367592305E+04  0.14520964546E+04  0.18800000000E+03 0.  0.
   -5000001    1    1    2    0    0 -0.88579291233E+02  0.33417603215E+02  0.51279975290E+03  0.55431995599E+03  0.18800000000E+03 0.  0.
<mgrwt>
<rscale>  0 0.47426425E+03</rscale>
<asrwt>0</asrwt>
<pdfrwt beam="1">  1        2 0.28256961E+00 0.47426425E+03</pdfrwt>
<pdfrwt beam="2">  1       -2 0.40612457E-02 0.47426425E+03</pdfrwt>
<totfact> 0.24134036E+03</totfact>
</mgrwt>
</event>
<event>
 4    1  0.6346694E-005  0.5548632E+03  0.7818608E-02  0.1000375E+00
          2   -1    0    0  501    0  0.00000000000E+00  0.00000000000E+00  0.76192435920E+03  0.76192435921E+03  0.25500000000E-02 0.  1.
         -2   -1    0    0    0  501 -0.00000000000E+00 -0.00000000000E+00 -0.10101829539E+03  0.10101829542E+03  0.25500000000E-02 0. -1.
    5000001    1    1    2    0    0  0.43194925384E+02 -0.14066893107E+03  0.55023556971E+03  0.59979724234E+03  0.18800000000E+03 0.  0.
   -5000001    1    1    2    0    0 -0.43194925384E+02  0.14066893107E+03  0.11067049411E+03  0.26314541230E+03  0.18800000000E+03 0.  0.
<mgrwt>
<rscale>  0 0.55486323E+03</rscale>
<asrwt>0</asrwt>
<pdfrwt beam="1">  1        2 0.10884634E+00 0.55486323E+03</pdfrwt>
<pdfrwt beam="2">  1       -2 0.14431185E-01 0.55486323E+03</pdfrwt>
<totfact> 0.15145018E+03</totfact>
</mgrwt>
</event>
<event>
 4    1  0.6346694E-005  0.6861799E+03  0.7818608E-02  0.9741163E-01
         -2   -1    0    0    0  501 -0.00000000000E+00  0.00000000000E+00  0.11823254812E+03  0.11823254815E+03  0.25500000000E-02 0. -1.
          2   -1    0    0  501    0  0.00000000000E+00 -0.00000000000E+00 -0.99558632140E+03  0.99558632140E+03  0.25500000000E-02 0.  1.
    5000001    1    1    2    0    0 -0.14105421342E+03  0.16851830662E+03 -0.73830004924E+03  0.79292223672E+03  0.18800000000E+03 0.  0.
   -5000001    1    1    2    0    0  0.14105421342E+03 -0.16851830662E+03 -0.13905372404E+03  0.32089663282E+03  0.18800000000E+03 0.  0.
<mgrwt>
<rscale>  0 0.68617988E+03</rscale>
<asrwt>0</asrwt>
<pdfrwt beam="1">  1        2 0.14222661E+00 0.68617988E+03</pdfrwt>
<pdfrwt beam="2">  1       -2 0.16890365E-01 0.68617988E+03</pdfrwt>
<totfact> 0.81229156E+02</totfact>
</mgrwt>
</event>
<event>
 4    1  0.6346694E-005  0.1135265E+04  0.7818608E-02  0.9171486E-01
         -2   -1    0    0    0  501 -0.00000000000E+00  0.00000000000E+00  0.18974899685E+03  0.18974899687E+03  0.25500000000E-02 0. -1.
          2   -1    0    0  501    0  0.00000000000E+00 -0.00000000000E+00 -0.16980684634E+04  0.16980684634E+04  0.25500000000E-02 0.  1.
    5000001    1    1    2    0    0 -0.22803285011E+03 -0.48032472893E+03 -0.64701043694E+03  0.85829909208E+03  0.18800000000E+03 0.  0.
   -5000001    1    1    2    0    0  0.22803285011E+03  0.48032472893E+03 -0.86130902956E+03  0.10295183681E+04  0.18800000000E+03 0.  0.
<mgrwt>
<rscale>  0 0.11352652E+04</rscale>
<asrwt>0</asrwt>
<pdfrwt beam="1">  1        2 0.24258120E+00 0.11352652E+04</pdfrwt>
<pdfrwt beam="2">  1       -2 0.27107000E-01 0.11352652E+04</pdfrwt>
<totfact> 0.14081682E+02</totfact>
</mgrwt>
</event>
<event>
 4    1  0.6346694E-005  0.4838655E+03  0.7818608E-02  0.1018078E+00
         -2   -1    0    0    0  501 -0.00000000000E+00  0.00000000000E+00  0.73579551156E+02  0.73579551201E+02  0.25500000000E-02 0. -1.
          2   -1    0    0  501    0  0.00000000000E+00 -0.00000000000E+00 -0.79548535642E+03  0.79548535643E+03  0.25500000000E-02 0.  1.
    5000001    1    1    2    0    0 -0.15252728867E+02 -0.13964108718E+03 -0.46652828833E+03  0.52223071796E+03  0.18800000000E+03 0.  0.
   -5000001    1    1    2    0    0  0.15252728867E+02  0.13964108718E+03 -0.25537751693E+03  0.34683418967E+03  0.18800000000E+03 0.  0.
<mgrwt>
<rscale>  0 0.48386550E+03</rscale>
<asrwt>0</asrwt>
<pdfrwt beam="1">  1        2 0.11364076E+00 0.48386550E+03</pdfrwt>
<pdfrwt beam="2">  1       -2 0.10511365E-01 0.48386550E+03</pdfrwt>
<totfact> 0.24166476E+03</totfact>
</mgrwt>
</event>
<event>
 4    1  0.6346694E-005  0.6992756E+03  0.7818608E-02  0.9718472E-01
         -2   -1    0    0    0  501 -0.00000000000E+00  0.00000000000E+00  0.57408665687E+02  0.57408665744E+02  0.25500000000E-02 0. -1.
          2   -1    0    0  501    0  0.00000000000E+00 -0.00000000000E+00 -0.21294101712E+04  0.21294101712E+04  0.25500000000E-02 0.  1.
    5000001    1    1    2    0    0 -0.25734609504E+03 -0.12387638810E+03 -0.12643171874E+04  0.13097382648E+04  0.18800000000E+03 0.  0.
   -5000001    1    1    2    0    0  0.25734609504E+03  0.12387638810E+03 -0.80768431817E+03  0.87708057211E+03  0.18800000000E+03 0.  0.
<mgrwt>
<rscale>  0 0.69927562E+03</rscale>
<asrwt>0</asrwt>
<pdfrwt beam="1">  1        2 0.30420140E+00 0.69927562E+03</pdfrwt>
<pdfrwt beam="2">  1       -2 0.82012393E-02 0.69927562E+03</pdfrwt>
<totfact> 0.66755537E+02</totfact>
</mgrwt>
</event>
<event>
 4    1  0.6346694E-005  0.5998341E+03  0.7818608E-02  0.9905750E-01
         -2   -1    0    0    0  501 -0.00000000000E+00  0.00000000000E+00  0.78313232943E+02  0.78313232985E+02  0.25500000000E-02 0. -1.
          2   -1    0    0  501    0  0.00000000000E+00 -0.00000000000E+00 -0.11485957292E+04  0.11485957292E+04  0.25500000000E-02 0.  1.
    5000001    1    1    2    0    0  0.21722648859E+03  0.86065689024E+02 -0.52817639540E+03  0.60737875731E+03  0.18800000000E+03 0.  0.
   -5000001    1    1    2    0    0 -0.21722648859E+03 -0.86065689024E+02 -0.54210610086E+03  0.61953020488E+03  0.18800000000E+03 0.  0.
<mgrwt>
<rscale>  0 0.59983413E+03</rscale>
<asrwt>0</asrwt>
<pdfrwt beam="1">  1        2 0.16408509E+00 0.59983413E+03</pdfrwt>
<pdfrwt beam="2">  1       -2 0.11187605E-01 0.59983413E+03</pdfrwt>
<totfact> 0.13163267E+03</totfact>
</mgrwt>
</event>
<event>
 4    1  0.6346694E-005  0.6814623E+03  0.7818608E-02  0.9749470E-01
         -2   -1    0    0    0  501 -0.00000000000E+00  0.00000000000E+00  0.99139833340E+02  0.99139833373E+02  0.25500000000E-02 0. -1.
          2   -1    0    0  501    0  0.00000000000E+00 -0.00000000000E+00 -0.11710501054E+04  0.11710501054E+04  0.25500000000E-02 0.  1.
    5000001    1    1    2    0    0  0.28051394618E+03 -0.31043167555E+02 -0.59782936027E+03  0.68731048024E+03  0.18800000000E+03 0.  0.
   -5000001    1    1    2    0    0 -0.28051394618E+03  0.31043167555E+02 -0.47408091178E+03  0.58287945852E+03  0.18800000000E+03 0.  0.
<mgrwt>
<rscale>  0 0.68146229E+03</rscale>
<asrwt>0</asrwt>
<pdfrwt beam="1">  1        2 0.16729286E+00 0.68146229E+03</pdfrwt>
<pdfrwt beam="2">  1       -2 0.14162834E-01 0.68146229E+03</pdfrwt>
<totfact> 0.86275210E+02</totfact>
</mgrwt>
</event>
<event>
 4    1  0.6346694E-005  0.6585161E+03  0.7818608E-02  0.9790929E-01
         -2   -1    0    0    0  501 -0.00000000000E+00  0.00000000000E+00  0.68794012948E+02  0.68794012995E+02  0.25500000000E-02 0. -1.
          2   -1    0    0  501    0  0.00000000000E+00 -0.00000000000E+00 -0.15758763258E+04  0.15758763258E+04  0.25500000000E-02 0.  1.
    5000001    1    1    2    0    0 -0.24928977139E+03 -0.42295223553E+02 -0.51486489436E+03  0.60362582408E+03  0.18800000000E+03 0.  0.
   -5000001    1    1    2    0    0  0.24928977139E+03  0.42295223553E+02 -0.99221741851E+03  0.10410445147E+04  0.18800000000E+03 0.  0.
<mgrwt>
<rscale>  0 0.65851608E+03</rscale>
<asrwt>0</asrwt>
<pdfrwt beam="1">  1        2 0.22512517E+00 0.65851608E+03</pdfrwt>
<pdfrwt beam="2">  1       -2 0.98277172E-02 0.65851608E+03</pdfrwt>
<totfact> 0.95471057E+02</totfact>
</mgrwt>
</event>
<event>
 4    1  0.6346694E-005  0.7742597E+03  0.7818608E-02  0.9598041E-01
          2   -1    0    0  501    0  0.00000000000E+00  0.00000000000E+00  0.20204200393E+04  0.20204200393E+04  0.25500000000E-02 0.  1.
         -2   -1    0    0    0  501 -0.00000000000E+00 -0.00000000000E+00 -0.74177410001E+02  0.74177410045E+02  0.25500000000E-02 0. -1.
    5000001    1    1    2    0    0  0.13689570951E+03 -0.29076823998E+03  0.68632324903E+03  0.78081381060E+03  0.18800000000E+03 0.  0.
   -5000001    1    1    2    0    0 -0.13689570951E+03  0.29076823998E+03  0.12599193803E+04  0.13137836388E+04  0.18800000000E+03 0.  0.
<mgrwt>
<rscale>  0 0.77425971E+03</rscale>
<asrwt>0</asrwt>
<pdfrwt beam="1">  1        2 0.28863145E+00 0.77425971E+03</pdfrwt>
<pdfrwt beam="2">  1       -2 0.10596772E-01 0.77425971E+03</pdfrwt>
<totfact> 0.49814524E+02</totfact>
</mgrwt>
</event>
<event>
 4    1  0.6346694E-005  0.6708903E+03  0.7818608E-02  0.9768351E-01
         -2   -1    0    0    0  501 -0.00000000000E+00  0.00000000000E+00  0.71662558880E+02  0.71662558926E+02  0.25500000000E-02 0. -1.
          2   -1    0    0  501    0  0.00000000000E+00 -0.00000000000E+00 -0.15701848152E+04  0.15701848152E+04  0.25500000000E-02 0.  1.
    5000001    1    1    2    0    0  0.10301306959E+03  0.21871824494E+03 -0.10841889899E+04  0.11266140106E+04  0.18800000000E+03 0.  0.
   -5000001    1    1    2    0    0 -0.10301306959E+03 -0.21871824494E+03 -0.41433326643E+03  0.51523336349E+03  0.18800000000E+03 0.  0.
<mgrwt>
<rscale>  0 0.67089034E+03</rscale>
<asrwt>0</asrwt>
<pdfrwt beam="1">  1        2 0.22431210E+00 0.67089034E+03</pdfrwt>
<pdfrwt beam="2">  1       -2 0.10237509E-01 0.67089034E+03</pdfrwt>
<totfact> 0.89898288E+02</totfact>
</mgrwt>
</event>
<event>
 4    1  0.6346694E-005  0.5454019E+03  0.7818608E-02  0.1002564E+00
          2   -1    0    0  501    0  0.00000000000E+00  0.00000000000E+00  0.37330770018E+04  0.37330770018E+04  0.25500000000E-02 0.  1.
         -2   -1    0    0    0  501 -0.00000000000E+00 -0.00000000000E+00 -0.19920783582E+02  0.19920783745E+02  0.25500000000E-02 0. -1.
    5000001    1    1    2    0    0 -0.24989661830E+01  0.19738669140E+03  0.18059800212E+04  0.18264379507E+04  0.18800000000E+03 0.  0.
   -5000001    1    1    2    0    0  0.24989661830E+01 -0.19738669140E+03  0.19071761970E+04  0.19265598348E+04  0.18800000000E+03 0.  0.
<mgrwt>
<rscale>  0 0.54540194E+03</rscale>
<asrwt>0</asrwt>
<pdfrwt beam="1">  1        2 0.53329763E+00 0.54540194E+03</pdfrwt>
<pdfrwt beam="2">  1       -2 0.28458214E-02 0.54540194E+03</pdfrwt>
<totfact> 0.46437127E+02</totfact>
</mgrwt>
</event>
<event>
 4    1  0.6346694E-005  0.4573706E+03  0.7818608E-02  0.1025547E+00
          2   -1    0    0  501    0  0.00000000000E+00  0.00000000000E+00  0.35009755163E+03  0.35009755164E+03  0.25500000000E-02 0.  1.
         -2   -1    0    0    0  501 -0.00000000000E+00 -0.00000000000E+00 -0.14937824992E+03  0.14937824994E+03  0.25500000000E-02 0. -1.
    5000001    1    1    2    0    0 -0.11506991061E+03  0.73387695554E+01  0.34310211095E+02  0.22319527874E+03  0.18800000000E+03 0.  0.
   -5000001    1    1    2    0    0  0.11506991061E+03 -0.73387695554E+01  0.16640909062E+03  0.27628052285E+03  0.18800000000E+03 0.  0.
<mgrwt>
<rscale>  0 0.45737057E+03</rscale>
<asrwt>0</asrwt>
<pdfrwt beam="1">  1        2 0.50013936E-01 0.45737057E+03</pdfrwt>
<pdfrwt beam="2">  1       -2 0.21339750E-01 0.45737057E+03</pdfrwt>
<totfact> 0.18969472E+03</totfact>
</mgrwt>
</event>
<event>
 4    1  0.6346694E-005  0.4461061E+03  0.7818608E-02  0.1028890E+00
         -2   -1    0    0    0  501 -0.00000000000E+00  0.00000000000E+00  0.78705811316E+02  0.78705811357E+02  0.25500000000E-02 0. -1.
          2   -1    0    0  501    0  0.00000000000E+00 -0.00000000000E+00 -0.63213456658E+03  0.63213456658E+03  0.25500000000E-02 0.  1.
    5000001    1    1    2    0    0  0.56595752057E+02 -0.76709799339E+02 -0.16047899033E+03  0.26492447755E+03  0.18800000000E+03 0.  0.
   -5000001    1    1    2    0    0 -0.56595752057E+02  0.76709799339E+02 -0.39294976493E+03  0.44591590039E+03  0.18800000000E+03 0.  0.
<mgrwt>
<rscale>  0 0.44610610E+03</rscale>
<asrwt>0</asrwt>
<pdfrwt beam="1">  1        2 0.90304935E-01 0.44610610E+03</pdfrwt>
<pdfrwt beam="2">  1       -2 0.11243688E-01 0.44610610E+03</pdfrwt>
<totfact> 0.28650695E+03</totfact>
</mgrwt>
</event>
<event>
 4    1  0.6346694E-005  0.6872055E+03  0.7818608E-02  0.9739366E-01
          2   -1    0    0  501    0  0.00000000000E+00  0.00000000000E+00  0.19826517708E+03  0.19826517710E+03  0.25500000000E-02 0.  1.
         -2   -1    0    0    0  501 -0.00000000000E+00 -0.00000000000E+00 -0.59547944789E+03  0.59547944789E+03  0.25500000000E-02 0. -1.
    5000001    1    1    2    0    0  0.60904282198E+02 -0.23000854256E+03 -0.38522827625E+03  0.49026328239E+03  0.18800000000E+03 0.  0.
   -5000001    1    1    2    0    0 -0.60904282198E+02  0.23000854256E+03 -0.11985994557E+02  0.30348134260E+03  0.18800000000E+03 0.  0.
<mgrwt>
<rscale>  0 0.68720547E+03</rscale>
<asrwt>0</asrwt>
<pdfrwt beam="1">  1        2 0.28323597E-01 0.68720547E+03</pdfrwt>
<pdfrwt beam="2">  1       -2 0.85068492E-01 0.68720547E+03</pdfrwt>
<totfact> 0.23073109E+02</totfact>
</mgrwt>
</event>
<event>
 4    1  0.6346694E-005  0.4389006E+03  0.7818608E-02  0.1031085E+00
          2   -1    0    0  501    0  0.00000000000E+00  0.00000000000E+00  0.54434156823E+02  0.54434156883E+02  0.25500000000E-02 0.  1.
         -2   -1    0    0    0  501 -0.00000000000E+00 -0.00000000000E+00 -0.88470988204E+03  0.88470988205E+03  0.25500000000E-02 0. -1.
    5000001    1    1    2    0    0  0.14018241456E+01 -0.10930003165E+03 -0.47810566896E+03  0.52524041421E+03  0.18800000000E+03 0.  0.
   -5000001    1    1    2    0    0 -0.14018241456E+01  0.10930003165E+03 -0.35217005626E+03  0.41390362472E+03  0.18800000000E+03 0.  0.
<mgrwt>
<rscale>  0 0.43890061E+03</rscale>
<asrwt>0</asrwt>
<pdfrwt beam="1">  1        2 0.77763087E-02 0.43890061E+03</pdfrwt>
<pdfrwt beam="2">  1       -2 0.12638712E+00 0.43890061E+03</pdfrwt>
<totfact> 0.43345725E+02</totfact>
</mgrwt>
</event>
<event>
 4    1  0.6346694E-005  0.7025131E+03  0.7818608E-02  0.9712944E-01
         -2   -1    0    0    0  501 -0.00000000000E+00  0.00000000000E+00  0.26061495959E+03  0.26061495961E+03  0.25500000000E-02 0. -1.
          2   -1    0    0  501    0  0.00000000000E+00 -0.00000000000E+00 -0.47342318308E+03  0.47342318308E+03  0.25500000000E-02 0.  1.
    5000001    1    1    2    0    0  0.17572340306E+03  0.21874168562E+03 -0.55830491336E+01  0.33778959405E+03  0.18800000000E+03 0.  0.
   -5000001    1    1    2    0    0 -0.17572340306E+03 -0.21874168562E+03 -0.20722517435E+03  0.39624854864E+03  0.18800000000E+03 0.  0.
<mgrwt>
<rscale>  0 0.70251310E+03</rscale>
<asrwt>0</asrwt>
<pdfrwt beam="1">  1        2 0.67631883E-01 0.70251310E+03</pdfrwt>
<pdfrwt beam="2">  1       -2 0.37230709E-01 0.70251310E+03</pdfrwt>
<totfact> 0.48905199E+02</totfact>
</mgrwt>
</event>
<event>
 4    1  0.6346694E-005  0.5022962E+03  0.7818608E-02  0.1013181E+00
          2   -1    0    0  501    0  0.00000000000E+00  0.00000000000E+00  0.12304781927E+04  0.12304781927E+04  0.25500000000E-02 0.  1.
         -2   -1    0    0    0  501 -0.00000000000E+00 -0.00000000000E+00 -0.51260865460E+02  0.51260865524E+02  0.25500000000E-02 0. -1.
    5000001    1    1    2    0    0 -0.13171091508E+03  0.30603434877E+02  0.34158814430E+03  0.41268728561E+03  0.18800000000E+03 0.  0.
   -5000001    1    1    2    0    0  0.13171091508E+03 -0.30603434877E+02  0.83762918292E+03  0.86905177260E+03  0.18800000000E+03 0.  0.
<mgrwt>
<rscale>  0 0.50229624E+03</rscale>
<asrwt>0</asrwt>
<pdfrwt beam="1">  1        2 0.17578258E+00 0.50229624E+03</pdfrwt>
<pdfrwt beam="2">  1       -2 0.73229814E-02 0.50229624E+03</pdfrwt>
<totfact> 0.23429195E+03</totfact>
</mgrwt>
</event>
<event>
 4    1  0.6346694E-005  0.5268124E+03  0.7818608E-02  0.1007008E+00
         -2   -1    0    0    0  501 -0.00000000000E+00  0.00000000000E+00  0.49353075664E+02  0.49353075730E+02  0.25500000000E-02 0. -1.
          2   -1    0    0  501    0  0.00000000000E+00 -0.00000000000E+00 -0.14058462222E+04  0.14058462222E+04  0.25500000000E-02 0.  1.
    5000001    1    1    2    0    0  0.33383059057E+02 -0.11568079318E+03 -0.29209752372E+03  0.36764308494E+03  0.18800000000E+03 0.  0.
   -5000001    1    1    2    0    0 -0.33383059057E+02  0.11568079318E+03 -0.10643956228E+04  0.10875562130E+04  0.18800000000E+03 0.  0.
<mgrwt>
<rscale>  0 0.52681243E+03</rscale>
<asrwt>0</asrwt>
<pdfrwt beam="1">  1        2 0.20083515E+00 0.52681243E+03</pdfrwt>
<pdfrwt beam="2">  1       -2 0.70504403E-02 0.52681243E+03</pdfrwt>
<totfact> 0.20003448E+03</totfact>
</mgrwt>
</event>
<event>
 4    1  0.6346694E-005  0.6533048E+03  0.7818608E-02  0.9800598E-01
         -2   -1    0    0    0  501 -0.00000000000E+00  0.00000000000E+00  0.39114335367E+03  0.39114335368E+03  0.25500000000E-02 0. -1.
          2   -1    0    0  501    0  0.00000000000E+00 -0.00000000000E+00 -0.27279462363E+03  0.27279462364E+03  0.25500000000E-02 0.  1.
    5000001    1    1    2    0    0  0.11463730960E+02 -0.21680703477E+03  0.21733869082E+03  0.36016220510E+03  0.18800000000E+03 0.  0.
   -5000001    1    1    2    0    0 -0.11463730960E+02  0.21680703477E+03 -0.98989960778E+02  0.30377577222E+03  0.18800000000E+03 0.  0.
<mgrwt>
<rscale>  0 0.65330484E+03</rscale>
<asrwt>0</asrwt>
<pdfrwt beam="1">  1        2 0.38970660E-01 0.65330484E+03</pdfrwt>
<pdfrwt beam="2">  1       -2 0.55877622E-01 0.65330484E+03</pdfrwt>
<totfact> 0.40236306E+02</totfact>
</mgrwt>
</event>
<event>
 4    1  0.6346694E-005  0.4860288E+03  0.7818608E-02  0.1017491E+00
          2   -1    0    0  501    0  0.00000000000E+00  0.00000000000E+00  0.20102677592E+04  0.20102677592E+04  0.25500000000E-02 0.  1.
         -2   -1    0    0    0  501 -0.00000000000E+00 -0.00000000000E+00 -0.29377184549E+02  0.29377184660E+02  0.25500000000E-02 0. -1.
    5000001    1    1    2    0    0 -0.11605705575E+03 -0.73353392409E+02  0.69782657113E+03  0.73563298169E+03  0.18800000000E+03 0.  0.
   -5000001    1    1    2    0    0  0.11605705575E+03  0.73353392409E+02  0.12830640035E+04  0.13040119622E+04  0.18800000000E+03 0.  0.
<mgrwt>
<rscale>  0 0.48602883E+03</rscale>
<asrwt>0</asrwt>
<pdfrwt beam="1">  1        2 0.28718123E+00 0.48602883E+03</pdfrwt>
<pdfrwt beam="2">  1       -2 0.41967389E-02 0.48602883E+03</pdfrwt>
<totfact> 0.22107849E+03</totfact>
</mgrwt>
</event>
<event>
 4    1  0.6346694E-005  0.5177627E+03  0.7818608E-02  0.1009244E+00
         -2   -1    0    0    0  501 -0.00000000000E+00  0.00000000000E+00  0.22092942612E+03  0.22092942614E+03  0.25500000000E-02 0. -1.
          2   -1    0    0  501    0  0.00000000000E+00 -0.00000000000E+00 -0.30335280481E+03  0.30335280483E+03  0.25500000000E-02 0.  1.
    5000001    1    1    2    0    0 -0.67532723782E+02 -0.16057689712E+03 -0.42839769471E+01  0.25633564155E+03  0.18800000000E+03 0.  0.
   -5000001    1    1    2    0    0  0.67532723782E+02  0.16057689712E+03 -0.78139401745E+02  0.26794658941E+03  0.18800000000E+03 0.  0.
<mgrwt>
<rscale>  0 0.51776273E+03</rscale>
<asrwt>0</asrwt>
<pdfrwt beam="1">  1        2 0.43336115E-01 0.51776273E+03</pdfrwt>
<pdfrwt beam="2">  1       -2 0.31561347E-01 0.51776273E+03</pdfrwt>
<totfact> 0.10985145E+03</totfact>
</mgrwt>
</event>
<event>
 4    1  0.6346694E-005  0.5336729E+03  0.7818608E-02  0.1005345E+00
         -2   -1    0    0    0  501 -0.00000000000E+00  0.00000000000E+00  0.20681160238E+02  0.20681160395E+02  0.25500000000E-02 0. -1.
          2   -1    0    0  501    0  0.00000000000E+00 -0.00000000000E+00 -0.34428281100E+04  0.34428281100E+04  0.25500000000E-02 0.  1.
    5000001    1    1    2    0    0 -0.98968338145E+02  0.16142726537E+03 -0.16977950190E+04  0.17186347548E+04  0.18800000000E+03 0.  0.
   -5000001    1    1    2    0    0  0.98968338145E+02 -0.16142726537E+03 -0.17243519307E+04  0.17448745155E+04  0.18800000000E+03 0.  0.
<mgrwt>
<rscale>  0 0.53367286E+03</rscale>
<asrwt>0</asrwt>
<pdfrwt beam="1">  1        2 0.49183222E+00 0.53367286E+03</pdfrwt>
<pdfrwt beam="2">  1       -2 0.29544537E-02 0.53367286E+03</pdfrwt>
<totfact> 0.65758904E+02</totfact>
</mgrwt>
</event>
<event>
 4    1  0.6346694E-005  0.1309886E+04  0.7818608E-02  0.9021762E-01
          2   -1    0    0  501    0  0.00000000000E+00  0.00000000000E+00  0.17622599472E+04  0.17622599472E+04  0.25500000000E-02 0.  1.
         -2   -1    0    0    0  501 -0.00000000000E+00 -0.00000000000E+00 -0.24340937284E+03  0.24340937285E+03  0.25500000000E-02 0. -1.
    5000001    1    1    2    0    0  0.34483322987E+03 -0.41630755646E+03  0.27188354384E+03  0.63362970211E+03  0.18800000000E+03 0.  0.
   -5000001    1    1    2    0    0 -0.34483322987E+03  0.41630755646E+03  0.12469670306E+04  0.13720396180E+04  0.18800000000E+03 0.  0.
<mgrwt>
<rscale>  0 0.13098864E+04</rscale>
<asrwt>0</asrwt>
<pdfrwt beam="1">  1        2 0.25175143E+00 0.13098864E+04</pdfrwt>
<pdfrwt beam="2">  1       -2 0.34772767E-01 0.13098864E+04</pdfrwt>
<totfact> 0.80898726E+01</totfact>
</mgrwt>
</event>
<event>
 4    1  0.6346694E-005  0.9246953E+03  0.7818608E-02  0.9395227E-01
         -2   -1    0    0    0  501 -0.00000000000E+00  0.00000000000E+00  0.48990083306E+03  0.48990083307E+03  0.25500000000E-02 0. -1.
          2   -1    0    0  501    0  0.00000000000E+00 -0.00000000000E+00 -0.43634409002E+03  0.43634409003E+03  0.25500000000E-02 0.  1.
    5000001    1    1    2    0    0  0.16115006314E+03 -0.38864181077E+03  0.64385041104E+02  0.46529693041E+03  0.18800000000E+03 0.  0.
   -5000001    1    1    2    0    0 -0.16115006314E+03  0.38864181077E+03 -0.10828298066E+02  0.46094799269E+03  0.18800000000E+03 0.  0.
<mgrwt>
<rscale>  0 0.92469526E+03</rscale>
<asrwt>0</asrwt>
<pdfrwt beam="1">  1        2 0.62334870E-01 0.92469526E+03</pdfrwt>
<pdfrwt beam="2">  1       -2 0.69985833E-01 0.92469526E+03</pdfrwt>
<totfact> 0.14624019E+02</totfact>
</mgrwt>
</event>
<event>
 4    1  0.6346694E-005  0.8949516E+03  0.7818608E-02  0.9431914E-01
          2   -1    0    0  501    0  0.00000000000E+00  0.00000000000E+00  0.22858370118E+04  0.22858370119E+04  0.25500000000E-02 0.  1.
         -2   -1    0    0    0  501 -0.00000000000E+00 -0.00000000000E+00 -0.87597932313E+02  0.87597932350E+02  0.25500000000E-02 0. -1.
    5000001    1    1    2    0    0  0.37698323650E+03  0.58191899237E+02  0.72984990956E+03  0.84470559855E+03  0.18800000000E+03 0.  0.
   -5000001    1    1    2    0    0 -0.37698323650E+03 -0.58191899237E+02  0.14683891700E+04  0.15287293456E+04  0.18800000000E+03 0.  0.
<mgrwt>
<rscale>  0 0.89495161E+03</rscale>
<asrwt>0</asrwt>
<pdfrwt beam="1">  1        2 0.32654817E+00 0.89495161E+03</pdfrwt>
<pdfrwt beam="2">  1       -2 0.12513989E-01 0.89495161E+03</pdfrwt>
<totfact> 0.27511526E+02</totfact>
</mgrwt>
</event>
<event>
 4    1  0.6346694E-005  0.4705187E+03  0.7818608E-02  0.1021774E+00
         -2   -1    0    0    0  501 -0.00000000000E+00  0.00000000000E+00  0.70907958489E+02  0.70907958535E+02  0.25500000000E-02 0. -1.
          2   -1    0    0  501    0  0.00000000000E+00 -0.00000000000E+00 -0.78054653196E+03  0.78054653197E+03  0.25500000000E-02 0.  1.
    5000001    1    1    2    0    0 -0.83843692435E+02 -0.73768308625E+02 -0.19777455842E+03  0.29483945475E+03  0.18800000000E+03 0.  0.
   -5000001    1    1    2    0    0  0.83843692435E+02  0.73768308625E+02 -0.51186401506E+03  0.55661503576E+03  0.18800000000E+03 0.  0.
<mgrwt>
<rscale>  0 0.47051870E+03</rscale>
<asrwt>0</asrwt>
<pdfrwt beam="1">  1        2 0.11150664E+00 0.47051870E+03</pdfrwt>
<pdfrwt beam="2">  1       -2 0.10129709E-01 0.47051870E+03</pdfrwt>
<totfact> 0.26271634E+03</totfact>
</mgrwt>
</event>
<event>
 4    1  0.6346694E-005  0.9261824E+03  0.7818608E-02  0.9393431E-01
         -2   -1    0    0    0  501 -0.00000000000E+00  0.00000000000E+00  0.28311445911E+03  0.28311445912E+03  0.25500000000E-02 0. -1.
          2   -1    0    0  501    0  0.00000000000E+00 -0.00000000000E+00 -0.75747966068E+03  0.75747966069E+03  0.25500000000E-02 0.  1.
    5000001    1    1    2    0    0 -0.18311822112E+02  0.38678756215E+03 -0.42907129003E+03  0.60777143153E+03  0.18800000000E+03 0.  0.
   -5000001    1    1    2    0    0  0.18311822112E+02 -0.38678756215E+03 -0.45293911548E+02  0.43282268827E+03  0.18800000000E+03 0.  0.
<mgrwt>
<rscale>  0 0.92618237E+03</rscale>
<asrwt>0</asrwt>
<pdfrwt beam="1">  1        2 0.10821138E+00 0.92618237E+03</pdfrwt>
<pdfrwt beam="2">  1       -2 0.40444923E-01 0.92618237E+03</pdfrwt>
<totfact> 0.23601076E+02</totfact>
</mgrwt>
</event>
<event>
 4    1  0.6346694E-005  0.6417853E+03  0.7818608E-02  0.9822317E-01
         -2   -1    0    0    0  501 -0.00000000000E+00  0.00000000000E+00  0.10092853227E+03  0.10092853230E+03  0.25500000000E-02 0. -1.
          2   -1    0    0  501    0  0.00000000000E+00 -0.00000000000E+00 -0.10202476183E+04  0.10202476183E+04  0.25500000000E-02 0.  1.
    5000001    1    1    2    0    0 -0.23000871254E+03 -0.24781777737E+02 -0.66717326702E+03  0.73074093397E+03  0.18800000000E+03 0.  0.
   -5000001    1    1    2    0    0  0.23000871254E+03  0.24781777737E+02 -0.25214581905E+03  0.39043521667E+03  0.18800000000E+03 0.  0.
<mgrwt>
<rscale>  0 0.64178531E+03</rscale>
<asrwt>0</asrwt>
<pdfrwt beam="1">  1        2 0.14574965E+00 0.64178531E+03</pdfrwt>
<pdfrwt beam="2">  1       -2 0.14418362E-01 0.64178531E+03</pdfrwt>
<totfact> 0.10272351E+03</totfact>
</mgrwt>
</event>
<event>
 4    1  0.6346694E-005  0.4046960E+03  0.7818608E-02  0.1042166E+00
         -2   -1    0    0    0  501 -0.00000000000E+00  0.00000000000E+00  0.16994205691E+02  0.16994205883E+02  0.25500000000E-02 0. -1.
          2   -1    0    0  501    0  0.00000000000E+00 -0.00000000000E+00 -0.24093341009E+04  0.24093341009E+04  0.25500000000E-02 0.  1.
    5000001    1    1    2    0    0  0.28414596419E+02  0.48075379184E+02 -0.89747407630E+03  0.91865246367E+03  0.18800000000E+03 0.  0.
   -5000001    1    1    2    0    0 -0.28414596419E+02 -0.48075379184E+02 -0.14948658189E+04  0.15076758431E+04  0.18800000000E+03 0.  0.
<mgrwt>
<rscale>  0 0.40469603E+03</rscale>
<asrwt>0</asrwt>
<pdfrwt beam="1">  1        2 0.34419037E+00 0.40469603E+03</pdfrwt>
<pdfrwt beam="2">  1       -2 0.24277452E-02 0.40469603E+03</pdfrwt>
<totfact> 0.32088298E+03</totfact>
</mgrwt>
</event>
<event>
 4    1  0.6346694E-005  0.6440896E+03  0.7818608E-02  0.9817933E-01
         -2   -1    0    0    0  501 -0.00000000000E+00  0.00000000000E+00  0.21154977191E+03  0.21154977192E+03  0.25500000000E-02 0. -1.
          2   -1    0    0  501    0  0.00000000000E+00 -0.00000000000E+00 -0.49025271193E+03  0.49025271193E+03  0.25500000000E-02 0.  1.
    5000001    1    1    2    0    0  0.19448596714E+03 -0.15626269764E+03 -0.22463360934E+03  0.38476886638E+03  0.18800000000E+03 0.  0.
   -5000001    1    1    2    0    0 -0.19448596714E+03  0.15626269764E+03 -0.54069330679E+02  0.31703361747E+03  0.18800000000E+03 0.  0.
<mgrwt>
<rscale>  0 0.64408959E+03</rscale>
<asrwt>0</asrwt>
<pdfrwt beam="1">  1        2 0.70036101E-01 0.64408959E+03</pdfrwt>
<pdfrwt beam="2">  1       -2 0.30221396E-01 0.64408959E+03</pdfrwt>
<totfact> 0.69744542E+02</totfact>
</mgrwt>
</event>
<event>
 4    1  0.6346694E-005  0.6058652E+03  0.7818608E-02  0.9893312E-01
          2   -1    0    0  501    0  0.00000000000E+00  0.00000000000E+00  0.53109124369E+03  0.53109124370E+03  0.25500000000E-02 0.  1.
         -2   -1    0    0    0  501 -0.00000000000E+00 -0.00000000000E+00 -0.17279172462E+03  0.17279172464E+03  0.25500000000E-02 0. -1.
    5000001    1    1    2    0    0 -0.23742540653E+03 -0.49442258216E+01  0.17290385775E+03  0.34876211529E+03  0.18800000000E+03 0.  0.
   -5000001    1    1    2    0    0  0.23742540653E+03  0.49442258216E+01  0.18539566132E+03  0.35512085305E+03  0.18800000000E+03 0.  0.
<mgrwt>
<rscale>  0 0.60586524E+03</rscale>
<asrwt>0</asrwt>
<pdfrwt beam="1">  1        2 0.75870178E-01 0.60586524E+03</pdfrwt>
<pdfrwt beam="2">  1       -2 0.24684532E-01 0.60586524E+03</pdfrwt>
<totfact> 0.92078431E+02</totfact>
</mgrwt>
</event>
<event>
 4    1  0.6346694E-005  0.6701635E+03  0.7818608E-02  0.9769663E-01
         -2   -1    0    0    0  501 -0.00000000000E+00  0.00000000000E+00  0.71107609745E+02  0.71107609790E+02  0.25500000000E-02 0. -1.
          2   -1    0    0  501    0  0.00000000000E+00 -0.00000000000E+00 -0.15790119144E+04  0.15790119144E+04  0.25500000000E-02 0.  1.
    5000001    1    1    2    0    0  0.26883444384E+02 -0.25716522703E+03 -0.50675394705E+03  0.59916628446E+03  0.18800000000E+03 0.  0.
   -5000001    1    1    2    0    0 -0.26883444384E+02  0.25716522703E+03 -0.10011503576E+04  0.10509532397E+04  0.18800000000E+03 0.  0.
<mgrwt>
<rscale>  0 0.67016345E+03</rscale>
<asrwt>0</asrwt>
<pdfrwt beam="1">  1        2 0.22557311E+00 0.67016345E+03</pdfrwt>
<pdfrwt beam="2">  1       -2 0.10158231E-01 0.67016345E+03</pdfrwt>
<totfact> 0.90092831E+02</totfact>
</mgrwt>
</event>
<event>
 4    1  0.6346694E-005  0.5005256E+03  0.7818608E-02  0.1013642E+00
         -2   -1    0    0    0  501 -0.00000000000E+00  0.00000000000E+00  0.53596165274E+02  0.53596165334E+02  0.25500000000E-02 0. -1.
          2   -1    0    0  501    0  0.00000000000E+00 -0.00000000000E+00 -0.11685811315E+04  0.11685811315E+04  0.25500000000E-02 0.  1.
    5000001    1    1    2    0    0 -0.12798744356E+03 -0.59918668777E+02 -0.34863132611E+03  0.42054587636E+03  0.18800000000E+03 0.  0.
   -5000001    1    1    2    0    0  0.12798744356E+03  0.59918668777E+02 -0.76635364007E+03  0.80163142044E+03  0.18800000000E+03 0.  0.
<mgrwt>
<rscale>  0 0.50052559E+03</rscale>
<asrwt>0</asrwt>
<pdfrwt beam="1">  1        2 0.16694015E+00 0.50052559E+03</pdfrwt>
<pdfrwt beam="2">  1       -2 0.76565957E-02 0.50052559E+03</pdfrwt>
<totfact> 0.23640269E+03</totfact>
</mgrwt>
</event>
<event>
 4    1  0.6346694E-005  0.6771033E+03  0.7818608E-02  0.9757210E-01
          2   -1    0    0  501    0  0.00000000000E+00  0.00000000000E+00  0.11980679266E+04  0.11980679266E+04  0.25500000000E-02 0.  1.
         -2   -1    0    0    0  501 -0.00000000000E+00 -0.00000000000E+00 -0.95668390786E+02  0.95668390820E+02  0.25500000000E-02 0. -1.
    5000001    1    1    2    0    0  0.44912139789E+02 -0.25064622032E+03  0.78074228767E+03  0.84246254980E+03  0.18800000000E+03 0.  0.
   -5000001    1    1    2    0    0 -0.44912139789E+02  0.25064622032E+03  0.32165724814E+03  0.45127376761E+03  0.18800000000E+03 0.  0.
<mgrwt>
<rscale>  0 0.67710333E+03</rscale>
<asrwt>0</asrwt>
<pdfrwt beam="1">  1        2 0.17115256E+00 0.67710333E+03</pdfrwt>
<pdfrwt beam="2">  1       -2 0.13666913E-01 0.67710333E+03</pdfrwt>
<totfact> 0.88426929E+02</totfact>
</mgrwt>
</event>
<event>
 4    1  0.6346694E-005  0.5860579E+03  0.7818608E-02  0.9934761E-01
         -2   -1    0    0    0  501 -0.00000000000E+00  0.00000000000E+00  0.28563590082E+03  0.28563590083E+03  0.25500000000E-02 0. -1.
          2   -1    0    0  501    0  0.00000000000E+00 -0.00000000000E+00 -0.30061331483E+03  0.30061331484E+03  0.25500000000E-02 0.  1.
    5000001    1    1    2    0    0  0.12289748948E+03 -0.46334718340E+02 -0.18995236380E+03  0.29778616414E+03  0.18800000000E+03 0.  0.
   -5000001    1    1    2    0    0 -0.12289748948E+03  0.46334718340E+02  0.17497494979E+03  0.28846305153E+03  0.18800000000E+03 0.  0.
<mgrwt>
<rscale>  0 0.58605786E+03</rscale>
<asrwt>0</asrwt>
<pdfrwt beam="1">  1        2 0.42944759E-01 0.58605786E+03</pdfrwt>
<pdfrwt beam="2">  1       -2 0.40805129E-01 0.58605786E+03</pdfrwt>
<totfact> 0.68059149E+02</totfact>
</mgrwt>
</event>
<event>
 4    1  0.6346694E-005  0.6436490E+03  0.7818608E-02  0.9818770E-01
         -2   -1    0    0    0  501 -0.00000000000E+00  0.00000000000E+00  0.23505364330E+03  0.23505364331E+03  0.25500000000E-02 0. -1.
          2   -1    0    0  501    0  0.00000000000E+00 -0.00000000000E+00 -0.44062717577E+03  0.44062717578E+03  0.25500000000E-02 0.  1.
    5000001    1    1    2    0    0  0.11113142056E+03  0.16337551382E+03 -0.28212559678E+03  0.39240362321E+03  0.18800000000E+03 0.  0.
   -5000001    1    1    2    0    0 -0.11113142056E+03 -0.16337551382E+03  0.76552064313E+02  0.28327719587E+03  0.18800000000E+03 0.  0.
<mgrwt>
<rscale>  0 0.64364904E+03</rscale>
<asrwt>0</asrwt>
<pdfrwt beam="1">  1        2 0.62946739E-01 0.64364904E+03</pdfrwt>
<pdfrwt beam="2">  1       -2 0.33579092E-01 0.64364904E+03</pdfrwt>
<totfact> 0.64624747E+02</totfact>
</mgrwt>
</event>
<event>
 4    1  0.6346694E-005  0.5389650E+03  0.7818608E-02  0.1004081E+00
         -2   -1    0    0    0  501 -0.00000000000E+00  0.00000000000E+00  0.16785082222E+02  0.16785082416E+02  0.25500000000E-02 0. -1.
          2   -1    0    0  501    0  0.00000000000E+00 -0.00000000000E+00 -0.43265093961E+04  0.43265093961E+04  0.25500000000E-02 0.  1.
    5000001    1    1    2    0    0  0.10162753602E+03 -0.12881461910E+03 -0.13348065679E+04  0.13579300188E+04  0.18800000000E+03 0.  0.
   -5000001    1    1    2    0    0 -0.10162753602E+03  0.12881461910E+03 -0.29749177459E+04  0.29853644597E+04  0.18800000000E+03 0.  0.
<mgrwt>
<rscale>  0 0.53896499E+03</rscale>
<asrwt>0</asrwt>
<pdfrwt beam="1">  1        2 0.61807206E+00 0.53896499E+03</pdfrwt>
<pdfrwt beam="2">  1       -2 0.23978717E-02 0.53896499E+03</pdfrwt>
<totfact> 0.24021407E+02</totfact>
</mgrwt>
</event>
<event>
 4    1  0.6346694E-005  0.5234933E+03  0.7818608E-02  0.1007822E+00
          2   -1    0    0  501    0  0.00000000000E+00  0.00000000000E+00  0.18671789441E+04  0.18671789441E+04  0.25500000000E-02 0.  1.
         -2   -1    0    0    0  501 -0.00000000000E+00 -0.00000000000E+00 -0.36692413755E+02  0.36692413844E+02  0.25500000000E-02 0. -1.
    5000001    1    1    2    0    0 -0.10988925657E+03  0.43929082865E+02  0.14186808759E+04  0.14359682589E+04  0.18800000000E+03 0.  0.
   -5000001    1    1    2    0    0  0.10988925657E+03 -0.43929082865E+02  0.41180565445E+03  0.46790309902E+03  0.18800000000E+03 0.  0.
<mgrwt>
<rscale>  0 0.52349328E+03</rscale>
<asrwt>0</asrwt>
<pdfrwt beam="1">  1        2 0.26673984E+00 0.52349328E+03</pdfrwt>
<pdfrwt beam="2">  1       -2 0.52417736E-02 0.52349328E+03</pdfrwt>
<totfact> 0.18475265E+03</totfact>
</mgrwt>
</event>
<event>
 4    1  0.6346694E-005  0.4585915E+03  0.7818608E-02  0.1025190E+00
         -2   -1    0    0    0  501 -0.00000000000E+00  0.00000000000E+00  0.18735521804E+03  0.18735521806E+03  0.25500000000E-02 0. -1.
          2   -1    0    0  501    0  0.00000000000E+00 -0.00000000000E+00 -0.28062496578E+03  0.28062496579E+03  0.25500000000E-02 0.  1.
    5000001    1    1    2    0    0  0.81363095175E+02  0.75594112887E+01  0.58208230394E+02  0.21309457065E+03  0.18800000000E+03 0.  0.
   -5000001    1    1    2    0    0 -0.81363095175E+02 -0.75594112887E+01 -0.15147797814E+03  0.25488561320E+03  0.18800000000E+03 0.  0.
<mgrwt>
<rscale>  0 0.45859155E+03</rscale>
<asrwt>0</asrwt>
<pdfrwt beam="1">  1        2 0.40089281E-01 0.45859155E+03</pdfrwt>
<pdfrwt beam="2">  1       -2 0.26765031E-01 0.45859155E+03</pdfrwt>
<totfact> 0.16170652E+03</totfact>
</mgrwt>
</event>
<event>
 4    1  0.6346694E-005  0.7629970E+03  0.7818608E-02  0.9615178E-01
         -2   -1    0    0    0  501 -0.00000000000E+00  0.00000000000E+00  0.62010759199E+02  0.62010759251E+02  0.25500000000E-02 0. -1.
          2   -1    0    0  501    0  0.00000000000E+00 -0.00000000000E+00 -0.23470296783E+04  0.23470296783E+04  0.25500000000E-02 0.  1.
    5000001    1    1    2    0    0 -0.48582815692E+01 -0.19595220637E+03 -0.19883949539E+04  0.20068580824E+04  0.18800000000E+03 0.  0.
   -5000001    1    1    2    0    0  0.48582815692E+01  0.19595220637E+03 -0.29662396517E+03  0.40218235515E+03  0.18800000000E+03 0.  0.
<mgrwt>
<rscale>  0 0.76299697E+03</rscale>
<asrwt>0</asrwt>
<pdfrwt beam="1">  1        2 0.33528990E+00 0.76299697E+03</pdfrwt>
<pdfrwt beam="2">  1       -2 0.88586814E-02 0.76299697E+03</pdfrwt>
<totfact> 0.45518833E+02</totfact>
</mgrwt>
</event>
<event>
 4    1  0.6346694E-005  0.4886546E+03  0.7818608E-02  0.1016783E+00
         -2   -1    0    0    0  501 -0.00000000000E+00  0.00000000000E+00  0.31012859091E+03  0.31012859092E+03  0.25500000000E-02 0. -1.
          2   -1    0    0  501    0  0.00000000000E+00 -0.00000000000E+00 -0.19248735076E+03  0.19248735078E+03  0.25500000000E-02 0.  1.
    5000001    1    1    2    0    0  0.19960526504E+02  0.15476538897E+03  0.59890840672E+02  0.25155846445E+03  0.18800000000E+03 0.  0.
   -5000001    1    1    2    0    0 -0.19960526504E+02 -0.15476538897E+03  0.57750399474E+02  0.25105747725E+03  0.18800000000E+03 0.  0.
<mgrwt>
<rscale>  0 0.48865461E+03</rscale>
<asrwt>0</asrwt>
<pdfrwt beam="1">  1        2 0.27498193E-01 0.48865461E+03</pdfrwt>
<pdfrwt beam="2">  1       -2 0.44304085E-01 0.48865461E+03</pdfrwt>
<totfact> 0.95133255E+02</totfact>
</mgrwt>
</event>
<event>
 4    1  0.6346694E-005  0.5226498E+03  0.7818608E-02  0.1008030E+00
         -2   -1    0    0    0  501 -0.00000000000E+00  0.00000000000E+00  0.62054705785E+02  0.62054705837E+02  0.25500000000E-02 0. -1.
          2   -1    0    0  501    0  0.00000000000E+00 -0.00000000000E+00 -0.11004919566E+04  0.11004919567E+04  0.25500000000E-02 0.  1.
    5000001    1    1    2    0    0 -0.10529596539E+03  0.13407363523E+03 -0.38059928895E+03  0.45745250982E+03  0.18800000000E+03 0.  0.
   -5000001    1    1    2    0    0  0.10529596539E+03 -0.13407363523E+03 -0.65783796192E+03  0.70509415267E+03  0.18800000000E+03 0.  0.
<mgrwt>
<rscale>  0 0.52264980E+03</rscale>
<asrwt>0</asrwt>
<pdfrwt beam="1">  1        2 0.15721313E+00 0.52264980E+03</pdfrwt>
<pdfrwt beam="2">  1       -2 0.88649586E-02 0.52264980E+03</pdfrwt>
<totfact> 0.20470453E+03</totfact>
</mgrwt>
</event>
<event>
 4    1  0.6346694E-005  0.6118240E+03  0.7818608E-02  0.9881174E-01
          2   -1    0    0  501    0  0.00000000000E+00  0.00000000000E+00  0.89732896072E+03  0.89732896073E+03  0.25500000000E-02 0.  1.
         -2   -1    0    0    0  501 -0.00000000000E+00 -0.00000000000E+00 -0.10428968524E+03  0.10428968527E+03  0.25500000000E-02 0. -1.
    5000001    1    1    2    0    0  0.13230446169E+03  0.20169414633E+03  0.38458386403E+03  0.49135908226E+03  0.18800000000E+03 0.  0.
   -5000001    1    1    2    0    0 -0.13230446169E+03 -0.20169414633E+03  0.40845541145E+03  0.51025956374E+03  0.18800000000E+03 0.  0.
<mgrwt>
<rscale>  0 0.61182401E+03</rscale>
<asrwt>0</asrwt>
<pdfrwt beam="1">  1        2 0.12818985E+00 0.61182401E+03</pdfrwt>
<pdfrwt beam="2">  1       -2 0.14898527E-01 0.61182401E+03</pdfrwt>
<totfact> 0.11610450E+03</totfact>
</mgrwt>
</event>
<event>
 4    1  0.6346694E-005  0.7567993E+03  0.7818608E-02  0.9624743E-01
         -2   -1    0    0    0  501 -0.00000000000E+00  0.00000000000E+00  0.14541598618E+03  0.14541598620E+03  0.25500000000E-02 0. -1.
          2   -1    0    0  501    0  0.00000000000E+00 -0.00000000000E+00 -0.98466669149E+03  0.98466669149E+03  0.25500000000E-02 0.  1.
    5000001    1    1    2    0    0 -0.90432698451E+02  0.12622159203E+03  0.12466493423E+02  0.24415031579E+03  0.18800000000E+03 0.  0.
   -5000001    1    1    2    0    0  0.90432698451E+02 -0.12622159203E+03 -0.85171719873E+03  0.88593236190E+03  0.18800000000E+03 0.  0.
<mgrwt>
<rscale>  0 0.75679925E+03</rscale>
<asrwt>0</asrwt>
<pdfrwt beam="1">  1        2 0.14066667E+00 0.75679925E+03</pdfrwt>
<pdfrwt beam="2">  1       -2 0.20773713E-01 0.75679925E+03</pdfrwt>
<totfact> 0.57494151E+02</totfact>
</mgrwt>
</event>
<event>
 4    1  0.6346694E-005  0.6337677E+03  0.7818608E-02  0.9837724E-01
         -2   -1    0    0    0  501 -0.00000000000E+00  0.00000000000E+00  0.88704190398E+02  0.88704190435E+02  0.25500000000E-02 0. -1.
          2   -1    0    0  501    0  0.00000000000E+00 -0.00000000000E+00 -0.11320249862E+04  0.11320249862E+04  0.25500000000E-02 0.  1.
    5000001    1    1    2    0    0 -0.71804811607E+01  0.19614038598E+03 -0.83550256230E+03  0.87859611992E+03  0.18800000000E+03 0.  0.
   -5000001    1    1    2    0    0  0.71804811607E+01 -0.19614038598E+03 -0.20781823349E+03  0.34213305671E+03  0.18800000000E+03 0.  0.
<mgrwt>
<rscale>  0 0.63376765E+03</rscale>
<asrwt>0</asrwt>
<pdfrwt beam="1">  1        2 0.16171785E+00 0.63376765E+03</pdfrwt>
<pdfrwt beam="2">  1       -2 0.12672028E-01 0.63376765E+03</pdfrwt>
<totfact> 0.10949538E+03</totfact>
</mgrwt>
</event>
<event>
 4    1  0.6346694E-005  0.5206949E+03  0.7818608E-02  0.1008514E+00
          2   -1    0    0  501    0  0.00000000000E+00  0.00000000000E+00  0.66405758136E+03  0.66405758137E+03  0.25500000000E-02 0.  1.
         -2   -1    0    0    0  501 -0.00000000000E+00 -0.00000000000E+00 -0.10207064208E+03  0.10207064212E+03  0.25500000000E-02 0. -1.
    5000001    1    1    2    0    0 -0.17898419688E+03  0.13763998908E+02  0.25957051990E+03  0.36734948645E+03  0.18800000000E+03 0.  0.
   -5000001    1    1    2    0    0  0.17898419688E+03 -0.13763998908E+02  0.30241641938E+03  0.39877873703E+03  0.18800000000E+03 0.  0.
<mgrwt>
<rscale>  0 0.52069486E+03</rscale>
<asrwt>0</asrwt>
<pdfrwt beam="1">  1        2 0.94865368E-01 0.52069486E+03</pdfrwt>
<pdfrwt beam="2">  1       -2 0.14581520E-01 0.52069486E+03</pdfrwt>
<totfact> 0.17617817E+03</totfact>
</mgrwt>
</event>
<event>
 4    1  0.6346694E-005  0.5318292E+03  0.7818608E-02  0.1005789E+00
         -2   -1    0    0    0  501 -0.00000000000E+00  0.00000000000E+00  0.26968692633E+03  0.26968692634E+03  0.25500000000E-02 0. -1.
          2   -1    0    0  501    0  0.00000000000E+00 -0.00000000000E+00 -0.26219501346E+03  0.26219501347E+03  0.25500000000E-02 0.  1.
    5000001    1    1    2    0    0 -0.15302074157E+03 -0.10409371043E+03  0.37151656449E+02  0.26641151153E+03  0.18800000000E+03 0.  0.
   -5000001    1    1    2    0    0  0.15302074157E+03  0.10409371043E+03 -0.29659743582E+02  0.26547042828E+03  0.18800000000E+03 0.  0.
<mgrwt>
<rscale>  0 0.53182917E+03</rscale>
<asrwt>0</asrwt>
<pdfrwt beam="1">  1        2 0.37456431E-01 0.53182917E+03</pdfrwt>
<pdfrwt beam="2">  1       -2 0.38526704E-01 0.53182917E+03</pdfrwt>
<totfact> 0.88491416E+02</totfact>
</mgrwt>
</event>
<event>
 4    1  0.6346694E-005  0.4195158E+03  0.7818608E-02  0.1037224E+00
          2   -1    0    0  501    0  0.00000000000E+00  0.00000000000E+00  0.92865791438E+03  0.92865791438E+03  0.25500000000E-02 0.  1.
         -2   -1    0    0    0  501 -0.00000000000E+00 -0.00000000000E+00 -0.47378452463E+02  0.47378452531E+02  0.25500000000E-02 0. -1.
    5000001    1    1    2    0    0 -0.30372484814E+02  0.62781587533E+02  0.29740185338E+03  0.35868632252E+03  0.18800000000E+03 0.  0.
   -5000001    1    1    2    0    0  0.30372484814E+02 -0.62781587533E+02  0.58387760853E+03  0.61735004440E+03  0.18800000000E+03 0.  0.
<mgrwt>
<rscale>  0 0.41951579E+03</rscale>
<asrwt>0</asrwt>
<pdfrwt beam="1">  1        2 0.13266542E+00 0.41951579E+03</pdfrwt>
<pdfrwt beam="2">  1       -2 0.67683503E-02 0.41951579E+03</pdfrwt>
<totfact> 0.39749578E+03</totfact>
</mgrwt>
</event>
<event>
 4    1  0.6346694E-005  0.8345432E+03  0.7818608E-02  0.9511321E-01
         -2   -1    0    0    0  501 -0.00000000000E+00  0.00000000000E+00  0.43549242245E+02  0.43549242320E+02  0.25500000000E-02 0. -1.
          2   -1    0    0  501    0  0.00000000000E+00 -0.00000000000E+00 -0.39981312974E+04  0.39981312974E+04  0.25500000000E-02 0.  1.
    5000001    1    1    2    0    0 -0.63120625703E+02 -0.35144748244E+03 -0.14631118753E+04  0.15177417125E+04  0.18800000000E+03 0.  0.
   -5000001    1    1    2    0    0  0.63120625703E+02  0.35144748244E+03 -0.24914701799E+04  0.25239388272E+04  0.18800000000E+03 0.  0.
<mgrwt>
<rscale>  0 0.83454320E+03</rscale>
<asrwt>0</asrwt>
<pdfrwt beam="1">  1        2 0.57116138E+00 0.83454320E+03</pdfrwt>
<pdfrwt beam="2">  1       -2 0.62213229E-02 0.83454320E+03</pdfrwt>
<totfact> 0.89988205E+01</totfact>
</mgrwt>
</event>
<event>
 4    1  0.6346694E-005  0.4795146E+03  0.7818608E-02  0.1019269E+00
         -2   -1    0    0    0  501 -0.00000000000E+00  0.00000000000E+00  0.91276614677E+02  0.91276614713E+02  0.25500000000E-02 0. -1.
          2   -1    0    0  501    0  0.00000000000E+00 -0.00000000000E+00 -0.62977305208E+03  0.62977305209E+03  0.25500000000E-02 0.  1.
    5000001    1    1    2    0    0 -0.10736156368E+02 -0.13832392163E+03 -0.18839991781E+03  0.30014546703E+03  0.18800000000E+03 0.  0.
   -5000001    1    1    2    0    0  0.10736156368E+02  0.13832392163E+03 -0.35009651960E+03  0.42090419977E+03  0.18800000000E+03 0.  0.
<mgrwt>
<rscale>  0 0.47951456E+03</rscale>
<asrwt>0</asrwt>
<pdfrwt beam="1">  1        2 0.89967577E-01 0.47951456E+03</pdfrwt>
<pdfrwt beam="2">  1       -2 0.13039517E-01 0.47951456E+03</pdfrwt>
<totfact> 0.22590137E+03</totfact>
</mgrwt>
</event>
<event>
 4    1  0.6346694E-005  0.7322082E+03  0.7818608E-02  0.9663684E-01
          2   -1    0    0  501    0  0.00000000000E+00  0.00000000000E+00  0.15969191107E+04  0.15969191107E+04  0.25500000000E-02 0.  1.
         -2   -1    0    0    0  501 -0.00000000000E+00 -0.00000000000E+00 -0.83931757289E+02  0.83931757328E+02  0.25500000000E-02 0. -1.
    5000001    1    1    2    0    0 -0.22830607051E+03 -0.20557843795E+03  0.90706191535E+03  0.97595669692E+03  0.18800000000E+03 0.  0.
   -5000001    1    1    2    0    0  0.22830607051E+03  0.20557843795E+03  0.60592543810E+03  0.70489417115E+03  0.18800000000E+03 0.  0.
<mgrwt>
<rscale>  0 0.73220824E+03</rscale>
<asrwt>0</asrwt>
<pdfrwt beam="1">  1        2 0.22813131E+00 0.73220824E+03</pdfrwt>
<pdfrwt beam="2">  1       -2 0.11990250E-01 0.73220824E+03</pdfrwt>
<totfact> 0.67001249E+02</totfact>
</mgrwt>
</event>
<event>
 4    1  0.6346694E-005  0.4073802E+03  0.7818608E-02  0.1041254E+00
         -2   -1    0    0    0  501 -0.00000000000E+00  0.00000000000E+00  0.34732306936E+03  0.34732306937E+03  0.25500000000E-02 0. -1.
          2   -1    0    0  501    0  0.00000000000E+00 -0.00000000000E+00 -0.11945554586E+03  0.11945554589E+03  0.25500000000E-02 0.  1.
    5000001    1    1    2    0    0 -0.67893784463E+02  0.15810295333E+02  0.72842040361E+02  0.21332954378E+03  0.18800000000E+03 0.  0.
   -5000001    1    1    2    0    0  0.67893784463E+02 -0.15810295333E+02  0.15502548314E+03  0.25344907147E+03  0.18800000000E+03 0.  0.
<mgrwt>
<rscale>  0 0.40738025E+03</rscale>
<asrwt>0</asrwt>
<pdfrwt beam="1">  1        2 0.17065078E-01 0.40738025E+03</pdfrwt>
<pdfrwt beam="2">  1       -2 0.49617582E-01 0.40738025E+03</pdfrwt>
<totfact> 0.13145783E+03</totfact>
</mgrwt>
</event>
<event>
 4    1  0.6346694E-005  0.8655110E+03  0.7818608E-02  0.9469752E-01
          2   -1    0    0  501    0  0.00000000000E+00  0.00000000000E+00  0.32865528632E+04  0.32865528632E+04  0.25500000000E-02 0.  1.
         -2   -1    0    0    0  501 -0.00000000000E+00 -0.00000000000E+00 -0.56982905437E+02  0.56982905494E+02  0.25500000000E-02 0. -1.
    5000001    1    1    2    0    0 -0.27065781025E+03 -0.25427640031E+03  0.20722162572E+04  0.21136074268E+04  0.18800000000E+03 0.  0.
   -5000001    1    1    2    0    0  0.27065781025E+03  0.25427640031E+03  0.11573537006E+04  0.12299283419E+04  0.18800000000E+03 0.  0.
<mgrwt>
<rscale>  0 0.86551102E+03</rscale>
<asrwt>0</asrwt>
<pdfrwt beam="1">  1        2 0.46950743E+00 0.86551102E+03</pdfrwt>
<pdfrwt beam="2">  1       -2 0.81404171E-02 0.86551102E+03</pdfrwt>
<totfact> 0.16132717E+02</totfact>
</mgrwt>
</event>
<event>
 4    1  0.6346694E-005  0.5487560E+03  0.7818608E-02  0.1001782E+00
          2   -1    0    0  501    0  0.00000000000E+00  0.00000000000E+00  0.21643628817E+03  0.21643628818E+03  0.25500000000E-02 0.  1.
         -2   -1    0    0    0  501 -0.00000000000E+00 -0.00000000000E+00 -0.34783118496E+03  0.34783118497E+03  0.25500000000E-02 0. -1.
    5000001    1    1    2    0    0 -0.26244808202E+02  0.92453250889E+02 -0.24587280984E+03  0.32408923490E+03  0.18800000000E+03 0.  0.
   -5000001    1    1    2    0    0  0.26244808202E+02 -0.92453250889E+02  0.11447791305E+03  0.24017823826E+03  0.18800000000E+03 0.  0.
<mgrwt>
<rscale>  0 0.54875601E+03</rscale>
<asrwt>0</asrwt>
<pdfrwt beam="1">  1        2 0.30919470E-01 0.54875601E+03</pdfrwt>
<pdfrwt beam="2">  1       -2 0.49690169E-01 0.54875601E+03</pdfrwt>
<totfact> 0.66321313E+02</totfact>
</mgrwt>
</event>
<event>
 4    1  0.6346694E-005  0.4939797E+03  0.7818608E-02  0.1015362E+00
         -2   -1    0    0    0  501 -0.00000000000E+00  0.00000000000E+00  0.19120209739E+02  0.19120209909E+02  0.25500000000E-02 0. -1.
          2   -1    0    0  501    0  0.00000000000E+00 -0.00000000000E+00 -0.31905495162E+04  0.31905495162E+04  0.25500000000E-02 0.  1.
    5000001    1    1    2    0    0 -0.87171499555E+02  0.84171889463E+02 -0.90498093478E+03  0.93221149404E+03  0.18800000000E+03 0.  0.
   -5000001    1    1    2    0    0  0.87171499555E+02 -0.84171889463E+02 -0.22664483717E+04  0.22774582321E+04  0.18800000000E+03 0.  0.
<mgrwt>
<rscale>  0 0.49397966E+03</rscale>
<asrwt>0</asrwt>
<pdfrwt beam="1">  1        2 0.45579245E+00 0.49397966E+03</pdfrwt>
<pdfrwt beam="2">  1       -2 0.27314606E-02 0.49397966E+03</pdfrwt>
<totfact> 0.10359320E+03</totfact>
</mgrwt>
</event>
<event>
 4    1  0.6346694E-005  0.6463346E+03  0.7818608E-02  0.9813681E-01
          2   -1    0    0  501    0  0.00000000000E+00  0.00000000000E+00  0.24494564072E+03  0.24494564073E+03  0.25500000000E-02 0.  1.
         -2   -1    0    0    0  501 -0.00000000000E+00 -0.00000000000E+00 -0.42636854374E+03  0.42636854375E+03  0.25500000000E-02 0. -1.
    5000001    1    1    2    0    0  0.24790893706E+03 -0.19067299797E+02 -0.17927538512E+03  0.35959152758E+03  0.18800000000E+03 0.  0.
   -5000001    1    1    2    0    0 -0.24790893706E+03  0.19067299797E+02 -0.21475178981E+01  0.31172265690E+03  0.18800000000E+03 0.  0.
<mgrwt>
<rscale>  0 0.64633464E+03</rscale>
<asrwt>0</asrwt>
<pdfrwt beam="1">  1        2 0.34992234E-01 0.64633464E+03</pdfrwt>
<pdfrwt beam="2">  1       -2 0.60909792E-01 0.64633464E+03</pdfrwt>
<totfact> 0.37872016E+02</totfact>
</mgrwt>
</event>
<event>
 4    1  0.6346694E-005  0.4668942E+03  0.7818608E-02  0.1022800E+00
          2   -1    0    0  501    0  0.00000000000E+00  0.00000000000E+00  0.12990852321E+04  0.12990852321E+04  0.25500000000E-02 0.  1.
         -2   -1    0    0    0  501 -0.00000000000E+00 -0.00000000000E+00 -0.41950714679E+02  0.41950714756E+02  0.25500000000E-02 0. -1.
    5000001    1    1    2    0    0  0.62697394256E+01 -0.10603157913E+03  0.88339811190E+03  0.90940542637E+03  0.18800000000E+03 0.  0.
   -5000001    1    1    2    0    0 -0.62697394256E+01  0.10603157913E+03  0.37373640553E+03  0.43163052050E+03  0.18800000000E+03 0.  0.
<mgrwt>
<rscale>  0 0.46689422E+03</rscale>
<asrwt>0</asrwt>
<pdfrwt beam="1">  1        2 0.18558357E+00 0.46689422E+03</pdfrwt>
<pdfrwt beam="2">  1       -2 0.59929604E-02 0.46689422E+03</pdfrwt>
<totfact> 0.29438059E+03</totfact>
</mgrwt>
</event>
<event>
 4    1  0.6346694E-005  0.6218121E+03  0.7818608E-02  0.9861158E-01
          2   -1    0    0  501    0  0.00000000000E+00  0.00000000000E+00  0.10407395296E+04  0.10407395296E+04  0.25500000000E-02 0.  1.
         -2   -1    0    0    0  501 -0.00000000000E+00 -0.00000000000E+00 -0.92878729717E+02  0.92878729752E+02  0.25500000000E-02 0. -1.
    5000001    1    1    2    0    0 -0.24202567778E+03  0.20509053810E+02  0.38609016840E+03  0.49336261323E+03  0.18800000000E+03 0.  0.
   -5000001    1    1    2    0    0  0.24202567778E+03 -0.20509053810E+02  0.56177063144E+03  0.64025564609E+03  0.18800000000E+03 0.  0.
<mgrwt>
<rscale>  0 0.62181208E+03</rscale>
<asrwt>0</asrwt>
<pdfrwt beam="1">  1        2 0.14867706E+00 0.62181208E+03</pdfrwt>
<pdfrwt beam="2">  1       -2 0.13268391E-01 0.62181208E+03</pdfrwt>
<totfact> 0.11478914E+03</totfact>
</mgrwt>
</event>
<event>
 4    1  0.6346694E-005  0.6819904E+03  0.7818608E-02  0.9748537E-01
         -2   -1    0    0    0  501 -0.00000000000E+00  0.00000000000E+00  0.14854881555E+03  0.14854881558E+03  0.25500000000E-02 0. -1.
          2   -1    0    0  501    0  0.00000000000E+00 -0.00000000000E+00 -0.78275761836E+03  0.78275761836E+03  0.25500000000E-02 0.  1.
    5000001    1    1    2    0    0 -0.44771475910E+02 -0.27272702522E+03 -0.22499966632E+03  0.40293096826E+03  0.18800000000E+03 0.  0.
   -5000001    1    1    2    0    0  0.44771475910E+02  0.27272702522E+03 -0.40920913648E+03  0.52837546567E+03  0.18800000000E+03 0.  0.
<mgrwt>
<rscale>  0 0.68199037E+03</rscale>
<asrwt>0</asrwt>
<pdfrwt beam="1">  1        2 0.11182252E+00 0.68199037E+03</pdfrwt>
<pdfrwt beam="2">  1       -2 0.21221260E-01 0.68199037E+03</pdfrwt>
<totfact> 0.75394588E+02</totfact>
</mgrwt>
</event>
<event>
 4    1  0.6346694E-005  0.5005187E+03  0.7818608E-02  0.1013644E+00
         -2   -1    0    0    0  501 -0.00000000000E+00  0.00000000000E+00  0.85831401515E+02  0.85831401553E+02  0.25500000000E-02 0. -1.
          2   -1    0    0  501    0  0.00000000000E+00 -0.00000000000E+00 -0.72968332780E+03  0.72968332780E+03  0.25500000000E-02 0.  1.
    5000001    1    1    2    0    0  0.34956318929E+02 -0.16100052038E+03 -0.30246706143E+03  0.39239448906E+03  0.18800000000E+03 0.  0.
   -5000001    1    1    2    0    0 -0.34956318929E+02  0.16100052038E+03 -0.34138486485E+03  0.42312024029E+03  0.18800000000E+03 0.  0.
<mgrwt>
<rscale>  0 0.50051870E+03</rscale>
<asrwt>0</asrwt>
<pdfrwt beam="1">  1        2 0.10424047E+00 0.50051870E+03</pdfrwt>
<pdfrwt beam="2">  1       -2 0.12261629E-01 0.50051870E+03</pdfrwt>
<totfact> 0.20939120E+03</totfact>
</mgrwt>
</event>
<event>
 4    1  0.6346694E-005  0.3928436E+03  0.7818608E-02  0.1046286E+00
         -2   -1    0    0    0  501 -0.00000000000E+00  0.00000000000E+00  0.17674086350E+02  0.17674086534E+02  0.25500000000E-02 0. -1.
          2   -1    0    0  501    0  0.00000000000E+00 -0.00000000000E+00 -0.21829426020E+04  0.21829426020E+04  0.25500000000E-02 0.  1.
    5000001    1    1    2    0    0 -0.17123350671E+02 -0.54245280565E+02 -0.10752097587E+04  0.10930031037E+04  0.18800000000E+03 0.  0.
   -5000001    1    1    2    0    0  0.17123350671E+02  0.54245280565E+02 -0.10900587570E+04  0.11076135848E+04  0.18800000000E+03 0.  0.
<mgrwt>
<rscale>  0 0.39284356E+03</rscale>
<asrwt>0</asrwt>
<pdfrwt beam="1">  1        2 0.31184877E+00 0.39284356E+03</pdfrwt>
<pdfrwt beam="2">  1       -2 0.25248709E-02 0.39284356E+03</pdfrwt>
<totfact> 0.39263961E+03</totfact>
</mgrwt>
</event>
<event>
 4    1  0.6346694E-005  0.7022265E+03  0.7818608E-02  0.9713432E-01
         -2   -1    0    0    0  501 -0.00000000000E+00  0.00000000000E+00  0.65307410829E+03  0.65307410829E+03  0.25500000000E-02 0. -1.
          2   -1    0    0  501    0  0.00000000000E+00 -0.00000000000E+00 -0.18876955258E+03  0.18876955260E+03  0.25500000000E-02 0.  1.
    5000001    1    1    2    0    0  0.25474953614E+03 -0.13804226082E+03  0.15648859286E+03  0.37919081164E+03  0.18800000000E+03 0.  0.
   -5000001    1    1    2    0    0 -0.25474953614E+03  0.13804226082E+03  0.30781596285E+03  0.46265284925E+03  0.18800000000E+03 0.  0.
<mgrwt>
<rscale>  0 0.70222648E+03</rscale>
<asrwt>0</asrwt>
<pdfrwt beam="1">  1        2 0.26967079E-01 0.70222648E+03</pdfrwt>
<pdfrwt beam="2">  1       -2 0.93296300E-01 0.70222648E+03</pdfrwt>
<totfact> 0.19724797E+02</totfact>
</mgrwt>
</event>
<event>
 4    1  0.6346694E-005  0.8625199E+03  0.7818608E-02  0.9473685E-01
         -2   -1    0    0    0  501 -0.00000000000E+00  0.00000000000E+00  0.22139532924E+03  0.22139532926E+03  0.25500000000E-02 0. -1.
          2   -1    0    0  501    0  0.00000000000E+00 -0.00000000000E+00 -0.84005909365E+03  0.84005909366E+03  0.25500000000E-02 0.  1.
    5000001    1    1    2    0    0 -0.12245998095E+03 -0.34697176364E+03 -0.46133157098E+03  0.61931952180E+03  0.18800000000E+03 0.  0.
   -5000001    1    1    2    0    0  0.12245998095E+03  0.34697176364E+03 -0.15733219343E+03  0.44213490111E+03  0.18800000000E+03 0.  0.
<mgrwt>
<rscale>  0 0.86251994E+03</rscale>
<asrwt>0</asrwt>
<pdfrwt beam="1">  1        2 0.12000844E+00 0.86251994E+03</pdfrwt>
<pdfrwt beam="2">  1       -2 0.31627905E-01 0.86251994E+03</pdfrwt>
<totfact> 0.33152828E+02</totfact>
</mgrwt>
</event>
<event>
 4    1  0.6346694E-005  0.6226727E+03  0.7818608E-02  0.9859453E-01
         -2   -1    0    0    0  501 -0.00000000000E+00  0.00000000000E+00  0.14276109015E+03  0.14276109018E+03  0.25500000000E-02 0. -1.
          2   -1    0    0  501    0  0.00000000000E+00 -0.00000000000E+00 -0.67896878024E+03  0.67896878024E+03  0.25500000000E-02 0.  1.
    5000001    1    1    2    0    0  0.46989131703E+02 -0.22870814082E+03 -0.37907434689E+03  0.48327709717E+03  0.18800000000E+03 0.  0.
   -5000001    1    1    2    0    0 -0.46989131703E+02  0.22870814082E+03 -0.15713334319E+03  0.33845277325E+03  0.18800000000E+03 0.  0.
<mgrwt>
<rscale>  0 0.62267270E+03</rscale>
<asrwt>0</asrwt>
<pdfrwt beam="1">  1        2 0.96995539E-01 0.62267270E+03</pdfrwt>
<pdfrwt beam="2">  1       -2 0.20394442E-01 0.62267270E+03</pdfrwt>
<totfact> 0.96593815E+02</totfact>
</mgrwt>
</event>
<event>
 4    1  0.6346694E-005  0.8141713E+03  0.7818608E-02  0.9539728E-01
          2   -1    0    0  501    0  0.00000000000E+00  0.00000000000E+00  0.75249046545E+03  0.75249046545E+03  0.25500000000E-02 0.  1.
         -2   -1    0    0    0  501 -0.00000000000E+00 -0.00000000000E+00 -0.22022703099E+03  0.22022703100E+03  0.25500000000E-02 0. -1.
    5000001    1    1    2    0    0 -0.20521229493E+03 -0.25351354337E+03  0.81069368787E+02  0.38509407320E+03  0.18800000000E+03 0.  0.
   -5000001    1    1    2    0    0  0.20521229493E+03  0.25351354337E+03  0.45119406567E+03  0.58762342325E+03  0.18800000000E+03 0.  0.
<mgrwt>
<rscale>  0 0.81417134E+03</rscale>
<asrwt>0</asrwt>
<pdfrwt beam="1">  1        2 0.10749864E+00 0.81417134E+03</pdfrwt>
<pdfrwt beam="2">  1       -2 0.31461004E-01 0.81417134E+03</pdfrwt>
<totfact> 0.38658142E+02</totfact>
</mgrwt>
</event>
<event>
 4    1  0.6346694E-005  0.4204003E+03  0.7818608E-02  0.1036936E+00
          2   -1    0    0  501    0  0.00000000000E+00  0.00000000000E+00  0.29605162110E+04  0.29605162110E+04  0.25500000000E-02 0.  1.
         -2   -1    0    0    0  501 -0.00000000000E+00 -0.00000000000E+00 -0.14924460988E+02  0.14924461206E+02  0.25500000000E-02 0. -1.
    5000001    1    1    2    0    0  0.43980117638E+02 -0.83080405536E+02  0.14595463414E+04  0.14746037187E+04  0.18800000000E+03 0.  0.
   -5000001    1    1    2    0    0 -0.43980117638E+02  0.83080405536E+02  0.14860454086E+04  0.15008369534E+04  0.18800000000E+03 0.  0.
<mgrwt>
<rscale>  0 0.42040033E+03</rscale>
<asrwt>0</asrwt>
<pdfrwt beam="1">  1        2 0.42293082E+00 0.42040033E+03</pdfrwt>
<pdfrwt beam="2">  1       -2 0.21320662E-02 0.42040033E+03</pdfrwt>
<totfact> 0.20196871E+03</totfact>
</mgrwt>
</event>
<event>
 4    1  0.6346694E-005  0.5788112E+03  0.7818608E-02  0.9950368E-01
          2   -1    0    0  501    0  0.00000000000E+00  0.00000000000E+00  0.12734282768E+04  0.12734282768E+04  0.25500000000E-02 0.  1.
         -2   -1    0    0    0  501 -0.00000000000E+00 -0.00000000000E+00 -0.65771735203E+02  0.65771735253E+02  0.25500000000E-02 0. -1.
    5000001    1    1    2    0    0 -0.14391389138E+03  0.11706978901E+03  0.87754143530E+03  0.91642758268E+03  0.18800000000E+03 0.  0.
   -5000001    1    1    2    0    0  0.14391389138E+03 -0.11706978901E+03  0.33011510629E+03  0.42277242937E+03  0.18800000000E+03 0.  0.
<mgrwt>
<rscale>  0 0.57881115E+03</rscale>
<asrwt>0</asrwt>
<pdfrwt beam="1">  1        2 0.18191832E+00 0.57881115E+03</pdfrwt>
<pdfrwt beam="2">  1       -2 0.93959626E-02 0.57881115E+03</pdfrwt>
<totfact> 0.14892183E+03</totfact>
</mgrwt>
</event>
<event>
 4    1  0.6346694E-005  0.5401601E+03  0.7818608E-02  0.1003797E+00
          2   -1    0    0  501    0  0.00000000000E+00  0.00000000000E+00  0.57445454185E+03  0.57445454185E+03  0.25500000000E-02 0.  1.
         -2   -1    0    0    0  501 -0.00000000000E+00 -0.00000000000E+00 -0.12697826546E+03  0.12697826548E+03  0.25500000000E-02 0. -1.
    5000001    1    1    2    0    0  0.11823301646E+03 -0.37951888313E+02  0.30344205096E+02  0.22734151137E+03  0.18800000000E+03 0.  0.
   -5000001    1    1    2    0    0 -0.11823301646E+03  0.37951888313E+02  0.41713207129E+03  0.47409129597E+03  0.18800000000E+03 0.  0.
<mgrwt>
<rscale>  0 0.54016013E+03</rscale>
<asrwt>0</asrwt>
<pdfrwt beam="1">  1        2 0.82064936E-01 0.54016013E+03</pdfrwt>
<pdfrwt beam="2">  1       -2 0.18139752E-01 0.54016013E+03</pdfrwt>
<totfact> 0.14440207E+03</totfact>
</mgrwt>
</event>
<event>
 4    1  0.6346694E-005  0.5745734E+03  0.7818608E-02  0.9959609E-01
         -2   -1    0    0    0  501 -0.00000000000E+00  0.00000000000E+00  0.10019257849E+04  0.10019257849E+04  0.25500000000E-02 0. -1.
          2   -1    0    0  501    0  0.00000000000E+00 -0.00000000000E+00 -0.82375003457E+02  0.82375003496E+02  0.25500000000E-02 0.  1.
    5000001    1    1    2    0    0 -0.16672718075E+03 -0.97825105728E+02  0.27274902874E+03  0.38354104968E+03  0.18800000000E+03 0.  0.
   -5000001    1    1    2    0    0  0.16672718075E+03  0.97825105728E+02  0.64680175271E+03  0.70075973873E+03  0.18800000000E+03 0.  0.
<mgrwt>
<rscale>  0 0.57457337E+03</rscale>
<asrwt>0</asrwt>
<pdfrwt beam="1">  1        2 0.11767859E-01 0.57457337E+03</pdfrwt>
<pdfrwt beam="2">  1       -2 0.14313224E+00 0.57457337E+03</pdfrwt>
<totfact> 0.18634645E+02</totfact>
</mgrwt>
</event>
<event>
 4    1  0.6346694E-005  0.1109393E+04  0.7818608E-02  0.9196085E-01
          2   -1    0    0  501    0  0.00000000000E+00  0.00000000000E+00  0.18867887101E+03  0.18867887103E+03  0.25500000000E-02 0.  1.
         -2   -1    0    0    0  501 -0.00000000000E+00 -0.00000000000E+00 -0.16307502174E+04  0.16307502174E+04  0.25500000000E-02 0. -1.
    5000001    1    1    2    0    0  0.50841467433E+03  0.61059966559E+02 -0.88610300643E+03  0.10405461732E+04  0.18800000000E+03 0.  0.
   -5000001    1    1    2    0    0 -0.50841467433E+03 -0.61059966559E+02 -0.55596833996E+03  0.77888291522E+03  0.18800000000E+03 0.  0.
<mgrwt>
<rscale>  0 0.11093928E+04</rscale>
<asrwt>0</asrwt>
<pdfrwt beam="1">  1        2 0.26954125E-01 0.11093928E+04</pdfrwt>
<pdfrwt beam="2">  1       -2 0.23296431E+00 0.11093928E+04</pdfrwt>
<totfact> 0.16413086E+01</totfact>
</mgrwt>
</event>
<event>
 4    1  0.6346694E-005  0.4625001E+03  0.7818608E-02  0.1024059E+00
         -2   -1    0    0    0  501 -0.00000000000E+00  0.00000000000E+00  0.19723299775E+03  0.19723299776E+03  0.25500000000E-02 0. -1.
          2   -1    0    0  501    0  0.00000000000E+00 -0.00000000000E+00 -0.27113405325E+03  0.27113405326E+03  0.25500000000E-02 0.  1.
    5000001    1    1    2    0    0 -0.13177663701E+03  0.17616939515E+02 -0.58602666118E+02  0.23759989708E+03  0.18800000000E+03 0.  0.
   -5000001    1    1    2    0    0  0.13177663701E+03 -0.17616939515E+02 -0.15298389381E+02  0.23076715394E+03  0.18800000000E+03 0.  0.
<mgrwt>
<rscale>  0 0.46250008E+03</rscale>
<asrwt>0</asrwt>
<pdfrwt beam="1">  1        2 0.38733436E-01 0.46250008E+03</pdfrwt>
<pdfrwt beam="2">  1       -2 0.28176142E-01 0.46250008E+03</pdfrwt>
<totfact> 0.15301702E+03</totfact>
</mgrwt>
</event>
<event>
 4    1  0.6346694E-005  0.6584877E+03  0.7818608E-02  0.9790982E-01
          2   -1    0    0  501    0  0.00000000000E+00  0.00000000000E+00  0.28099884818E+04  0.28099884818E+04  0.25500000000E-02 0.  1.
         -2   -1    0    0    0  501 -0.00000000000E+00 -0.00000000000E+00 -0.38577209700E+02  0.38577209784E+02  0.25500000000E-02 0. -1.
    5000001    1    1    2    0    0 -0.19997849996E+03  0.18150456471E+03  0.13378836462E+04  0.13777561316E+04  0.18800000000E+03 0.  0.
   -5000001    1    1    2    0    0  0.19997849996E+03 -0.18150456471E+03  0.14335276259E+04  0.14708095600E+04  0.18800000000E+03 0.  0.
<mgrwt>
<rscale>  0 0.65848771E+03</rscale>
<asrwt>0</asrwt>
<pdfrwt beam="1">  1        2 0.40142687E+00 0.65848771E+03</pdfrwt>
<pdfrwt beam="2">  1       -2 0.55110308E-02 0.65848771E+03</pdfrwt>
<totfact> 0.55976397E+02</totfact>
</mgrwt>
</event>
<event>
 4    1  0.6346694E-005  0.1001882E+04  0.7818608E-02  0.9306483E-01
          2   -1    0    0  501    0  0.00000000000E+00  0.00000000000E+00  0.27758039008E+04  0.27758039008E+04  0.25500000000E-02 0.  1.
         -2   -1    0    0    0  501 -0.00000000000E+00 -0.00000000000E+00 -0.90403267568E+02  0.90403267604E+02  0.25500000000E-02 0. -1.
    5000001    1    1    2    0    0 -0.27000229725E+03 -0.17424428985E+02  0.26316890953E+03  0.42167134855E+03  0.18800000000E+03 0.  0.
   -5000001    1    1    2    0    0  0.27000229725E+03  0.17424428985E+02  0.24222317237E+04  0.24445358199E+04  0.18800000000E+03 0.  0.
<mgrwt>
<rscale>  0 0.10018817E+04</rscale>
<asrwt>0</asrwt>
<pdfrwt beam="1">  1        2 0.39654346E+00 0.10018817E+04</pdfrwt>
<pdfrwt beam="2">  1       -2 0.12914751E-01 0.10018817E+04</pdfrwt>
<totfact> 0.14354633E+02</totfact>
</mgrwt>
</event>
<event>
 4    1  0.6346694E-005  0.4157908E+03  0.7818608E-02  0.1038445E+00
         -2   -1    0    0    0  501 -0.00000000000E+00  0.00000000000E+00  0.21040971575E+02  0.21040971729E+02  0.25500000000E-02 0. -1.
          2   -1    0    0  501    0  0.00000000000E+00 -0.00000000000E+00 -0.20541108653E+04  0.20541108653E+04  0.25500000000E-02 0.  1.
    5000001    1    1    2    0    0  0.68584830505E+02  0.58408289781E+00 -0.73543548908E+03  0.76217686840E+03  0.18800000000E+03 0.  0.
   -5000001    1    1    2    0    0 -0.68584830505E+02 -0.58408289781E+00 -0.12976344046E+04  0.13129749686E+04  0.18800000000E+03 0.  0.
<mgrwt>
<rscale>  0 0.41579076E+03</rscale>
<asrwt>0</asrwt>
<pdfrwt beam="1">  1        2 0.29344428E+00 0.41579076E+03</pdfrwt>
<pdfrwt beam="2">  1       -2 0.30058544E-02 0.41579076E+03</pdfrwt>
<totfact> 0.34986337E+03</totfact>
</mgrwt>
</event>
<event>
 4    1  0.6346694E-005  0.4922846E+03  0.7818608E-02  0.1015813E+00
          2   -1    0    0  501    0  0.00000000000E+00  0.00000000000E+00  0.23494242961E+03  0.23494242962E+03  0.25500000000E-02 0.  1.
         -2   -1    0    0    0  501 -0.00000000000E+00 -0.00000000000E+00 -0.25787605929E+03  0.25787605930E+03  0.25500000000E-02 0. -1.
    5000001    1    1    2    0    0  0.15268151337E+03 -0.33772736598E+02 -0.39600419236E+02  0.24771846009E+03  0.18800000000E+03 0.  0.
   -5000001    1    1    2    0    0 -0.15268151337E+03  0.33772736598E+02  0.16666789557E+02  0.24510002884E+03  0.18800000000E+03 0.  0.
<mgrwt>
<rscale>  0 0.49228458E+03</rscale>
<asrwt>0</asrwt>
<pdfrwt beam="1">  1        2 0.33563204E-01 0.49228458E+03</pdfrwt>
<pdfrwt beam="2">  1       -2 0.36839437E-01 0.49228458E+03</pdfrwt>
<totfact> 0.10887006E+03</totfact>
</mgrwt>
</event>
<event>
 4    1  0.6346694E-005  0.7674912E+03  0.7818608E-02  0.9608302E-01
         -2   -1    0    0    0  501 -0.00000000000E+00  0.00000000000E+00  0.69747004017E+02  0.69747004064E+02  0.25500000000E-02 0. -1.
          2   -1    0    0  501    0  0.00000000000E+00 -0.00000000000E+00 -0.21113549384E+04  0.21113549384E+04  0.25500000000E-02 0.  1.
    5000001    1    1    2    0    0  0.29808942472E+03  0.60561907560E+02 -0.14165437786E+04  0.14609809466E+04  0.18800000000E+03 0.  0.
   -5000001    1    1    2    0    0 -0.29808942472E+03 -0.60561907560E+02 -0.62506415579E+03  0.72012099583E+03  0.18800000000E+03 0.  0.
<mgrwt>
<rscale>  0 0.76749119E+03</rscale>
<asrwt>0</asrwt>
<pdfrwt beam="1">  1        2 0.30162209E+00 0.76749119E+03</pdfrwt>
<pdfrwt beam="2">  1       -2 0.99638590E-02 0.76749119E+03</pdfrwt>
<totfact> 0.49562800E+02</totfact>
</mgrwt>
</event>
<event>
 4    1  0.6346694E-005  0.5768116E+03  0.7818608E-02  0.9954718E-01
         -2   -1    0    0    0  501 -0.00000000000E+00  0.00000000000E+00  0.55270178598E+03  0.55270178598E+03  0.25500000000E-02 0. -1.
          2   -1    0    0  501    0  0.00000000000E+00 -0.00000000000E+00 -0.15049327230E+03  0.15049327232E+03  0.25500000000E-02 0.  1.
    5000001    1    1    2    0    0 -0.60661006198E-01  0.20321203769E+03  0.29968445434E+03  0.40798273017E+03  0.18800000000E+03 0.  0.
   -5000001    1    1    2    0    0  0.60661006198E-01 -0.20321203769E+03  0.10252405934E+03  0.29521232814E+03  0.18800000000E+03 0.  0.
<mgrwt>
<rscale>  0 0.57681158E+03</rscale>
<asrwt>0</asrwt>
<pdfrwt beam="1">  1        2 0.21499039E-01 0.57681158E+03</pdfrwt>
<pdfrwt beam="2">  1       -2 0.78957396E-01 0.57681158E+03</pdfrwt>
<totfact> 0.37537889E+02</totfact>
</mgrwt>
</event>
<event>
 4    1  0.6346694E-005  0.9793513E+03  0.7818608E-02  0.9331486E-01
          2   -1    0    0  501    0  0.00000000000E+00  0.00000000000E+00  0.37116624780E+03  0.37116624781E+03  0.25500000000E-02 0.  1.
         -2   -1    0    0    0  501 -0.00000000000E+00 -0.00000000000E+00 -0.64602384941E+03  0.64602384942E+03  0.25500000000E-02 0. -1.
    5000001    1    1    2    0    0 -0.24694027578E+03 -0.21067871744E+03 -0.46434900922E+03  0.59693301479E+03  0.18800000000E+03 0.  0.
   -5000001    1    1    2    0    0  0.24694027578E+03  0.21067871744E+03  0.18949140760E+03  0.42025708244E+03  0.18800000000E+03 0.  0.
<mgrwt>
<rscale>  0 0.97935131E+03</rscale>
<asrwt>0</asrwt>
<pdfrwt beam="1">  1        2 0.53023750E-01 0.97935131E+03</pdfrwt>
<pdfrwt beam="2">  1       -2 0.92289121E-01 0.97935131E+03</pdfrwt>
<totfact> 0.93792043E+01</totfact>
</mgrwt>
</event>
<event>
 4    1  0.6346694E-005  0.6722501E+03  0.7818608E-02  0.9765902E-01
          2   -1    0    0  501    0  0.00000000000E+00  0.00000000000E+00  0.10847957519E+03  0.10847957522E+03  0.25500000000E-02 0.  1.
         -2   -1    0    0    0  501 -0.00000000000E+00 -0.00000000000E+00 -0.10414868101E+04  0.10414868101E+04  0.25500000000E-02 0. -1.
    5000001    1    1    2    0    0 -0.25900368623E+03 -0.98140533148E+02 -0.51843371640E+03  0.61711586597E+03  0.18800000000E+03 0.  0.
   -5000001    1    1    2    0    0  0.25900368623E+03  0.98140533148E+02 -0.41457351851E+03  0.53285051936E+03  0.18800000000E+03 0.  0.
<mgrwt>
<rscale>  0 0.67225009E+03</rscale>
<asrwt>0</asrwt>
<pdfrwt beam="1">  1        2 0.15497083E-01 0.67225009E+03</pdfrwt>
<pdfrwt beam="2">  1       -2 0.14878382E+00 0.67225009E+03</pdfrwt>
<totfact> 0.11967134E+02</totfact>
</mgrwt>
</event>
<event>
 4    1  0.6346694E-005  0.8152251E+03  0.7818608E-02  0.9538237E-01
          2   -1    0    0  501    0  0.00000000000E+00  0.00000000000E+00  0.22724934540E+04  0.22724934540E+04  0.25500000000E-02 0.  1.
         -2   -1    0    0    0  501 -0.00000000000E+00 -0.00000000000E+00 -0.73112641022E+02  0.73112641067E+02  0.25500000000E-02 0. -1.
    5000001    1    1    2    0    0  0.15839852031E+03 -0.32153531955E+03  0.12385440138E+04  0.13030005092E+04  0.18800000000E+03 0.  0.
   -5000001    1    1    2    0    0 -0.15839852031E+03  0.32153531955E+03  0.96083679920E+03  0.10426055858E+04  0.18800000000E+03 0.  0.
<mgrwt>
<rscale>  0 0.81522512E+03</rscale>
<asrwt>0</asrwt>
<pdfrwt beam="1">  1        2 0.32464187E+00 0.81522512E+03</pdfrwt>
<pdfrwt beam="2">  1       -2 0.10444665E-01 0.81522512E+03</pdfrwt>
<totfact> 0.37879355E+02</totfact>
</mgrwt>
</event>
<event>
 4    1  0.6346694E-005  0.1030667E+04  0.7818608E-02  0.9275535E-01
          2   -1    0    0  501    0  0.00000000000E+00  0.00000000000E+00  0.18056075536E+04  0.18056075536E+04  0.25500000000E-02 0.  1.
         -2   -1    0    0    0  501 -0.00000000000E+00 -0.00000000000E+00 -0.14708001358E+03  0.14708001360E+03  0.25500000000E-02 0. -1.
    5000001    1    1    2    0    0 -0.43447228018E+03 -0.12106678110E+03  0.51909830112E+03  0.71290278016E+03  0.18800000000E+03 0.  0.
   -5000001    1    1    2    0    0  0.43447228018E+03  0.12106678110E+03  0.11394292389E+04  0.12397847871E+04  0.18800000000E+03 0.  0.
<mgrwt>
<rscale>  0 0.10306673E+04</rscale>
<asrwt>0</asrwt>
<pdfrwt beam="1">  1        2 0.25794394E+00 0.10306673E+04</pdfrwt>
<pdfrwt beam="2">  1       -2 0.21011430E-01 0.10306673E+04</pdfrwt>
<totfact> 0.19732412E+02</totfact>
</mgrwt>
</event>
<event>
 4    1  0.6346694E-005  0.6624886E+03  0.7818608E-02  0.9783623E-01
          2   -1    0    0  501    0  0.00000000000E+00  0.00000000000E+00  0.59144331906E+03  0.59144331906E+03  0.25500000000E-02 0.  1.
         -2   -1    0    0    0  501 -0.00000000000E+00 -0.00000000000E+00 -0.18551699775E+03  0.18551699776E+03  0.25500000000E-02 0. -1.
    5000001    1    1    2    0    0  0.26189620559E+03 -0.27429557718E+02  0.28619647002E+03  0.43196576553E+03  0.18800000000E+03 0.  0.
   -5000001    1    1    2    0    0 -0.26189620559E+03  0.27429557718E+02  0.11972985129E+03  0.34499455130E+03  0.18800000000E+03 0.  0.
<mgrwt>
<rscale>  0 0.66248861E+03</rscale>
<asrwt>0</asrwt>
<pdfrwt beam="1">  1        2 0.84491902E-01 0.66248861E+03</pdfrwt>
<pdfrwt beam="2">  1       -2 0.26502429E-01 0.66248861E+03</pdfrwt>
<totfact> 0.71402811E+02</totfact>
</mgrwt>
</event>
<event>
 4    1  0.6346694E-005  0.5323530E+03  0.7818608E-02  0.1005663E+00
          2   -1    0    0  501    0  0.00000000000E+00  0.00000000000E+00  0.77830553874E+03  0.77830553874E+03  0.25500000000E-02 0.  1.
         -2   -1    0    0    0  501 -0.00000000000E+00 -0.00000000000E+00 -0.91030984238E+02  0.91030984274E+02  0.25500000000E-02 0. -1.
    5000001    1    1    2    0    0  0.20009012045E+02  0.18566009797E+03  0.30245805659E+03  0.40211305442E+03  0.18800000000E+03 0.  0.
   -5000001    1    1    2    0    0 -0.20009012045E+02 -0.18566009797E+03  0.38481649791E+03  0.46722346859E+03  0.18800000000E+03 0.  0.
<mgrwt>
<rscale>  0 0.53235296E+03</rscale>
<asrwt>0</asrwt>
<pdfrwt beam="1">  1        2 0.11118651E+00 0.53235296E+03</pdfrwt>
<pdfrwt beam="2">  1       -2 0.13004426E-01 0.53235296E+03</pdfrwt>
<totfact> 0.17537270E+03</totfact>
</mgrwt>
</event>
<event>
 4    1  0.6346694E-005  0.4845300E+03  0.7818608E-02  0.1017898E+00
          2   -1    0    0  501    0  0.00000000000E+00  0.00000000000E+00  0.20611436430E+03  0.20611436431E+03  0.25500000000E-02 0.  1.
         -2   -1    0    0    0  501 -0.00000000000E+00 -0.00000000000E+00 -0.28475616004E+03  0.28475616005E+03  0.25500000000E-02 0. -1.
    5000001    1    1    2    0    0  0.28766484073E+02 -0.14798251754E+03 -0.64587162572E+02  0.24948314106E+03  0.18800000000E+03 0.  0.
   -5000001    1    1    2    0    0 -0.28766484073E+02  0.14798251754E+03 -0.14054633171E+02  0.24138738330E+03  0.18800000000E+03 0.  0.
<mgrwt>
<rscale>  0 0.48453002E+03</rscale>
<asrwt>0</asrwt>
<pdfrwt beam="1">  1        2 0.29444909E-01 0.48453002E+03</pdfrwt>
<pdfrwt beam="2">  1       -2 0.40679451E-01 0.48453002E+03</pdfrwt>
<totfact> 0.10410019E+03</totfact>
</mgrwt>
</event>
<event>
 4    1  0.6346694E-005  0.7759800E+03  0.7818608E-02  0.9595451E-01
          2   -1    0    0  501    0  0.00000000000E+00  0.00000000000E+00  0.26508731279E+04  0.26508731279E+04  0.25500000000E-02 0.  1.
         -2   -1    0    0    0  501 -0.00000000000E+00 -0.00000000000E+00 -0.56787421630E+02  0.56787421687E+02  0.25500000000E-02 0. -1.
    5000001    1    1    2    0    0  0.10601857769E+03  0.30399311267E+03  0.16718915139E+04  0.17129556286E+04  0.18800000000E+03 0.  0.
   -5000001    1    1    2    0    0 -0.10601857769E+03 -0.30399311267E+03  0.92219419239E+03  0.99470492099E+03  0.18800000000E+03 0.  0.
<mgrwt>
<rscale>  0 0.77598003E+03</rscale>
<asrwt>0</asrwt>
<pdfrwt beam="1">  1        2 0.37869608E+00 0.77598003E+03</pdfrwt>
<pdfrwt beam="2">  1       -2 0.81124905E-02 0.77598003E+03</pdfrwt>
<totfact> 0.36474834E+02</totfact>
</mgrwt>
</event>
<event>
 4    1  0.6346694E-005  0.1039199E+04  0.7818608E-02  0.9266567E-01
          2   -1    0    0  501    0  0.00000000000E+00  0.00000000000E+00  0.13004524880E+04  0.13004524880E+04  0.25500000000E-02 0.  1.
         -2   -1    0    0    0  501 -0.00000000000E+00 -0.00000000000E+00 -0.20760726499E+03  0.20760726500E+03  0.25500000000E-02 0. -1.
    5000001    1    1    2    0    0  0.25631215216E+03 -0.40136151612E+03  0.41782846615E+03  0.66084159455E+03  0.18800000000E+03 0.  0.
   -5000001    1    1    2    0    0 -0.25631215216E+03  0.40136151612E+03  0.67501675689E+03  0.84721815847E+03  0.18800000000E+03 0.  0.
<mgrwt>
<rscale>  0 0.10391985E+04</rscale>
<asrwt>0</asrwt>
<pdfrwt beam="1">  1        2 0.18577893E+00 0.10391985E+04</pdfrwt>
<pdfrwt beam="2">  1       -2 0.29658180E-01 0.10391985E+04</pdfrwt>
<totfact> 0.19535045E+02</totfact>
</mgrwt>
</event>
<event>
 4    1  0.6346694E-005  0.1627547E+04  0.7818608E-02  0.8803802E-01
         -2   -1    0    0    0  501 -0.00000000000E+00  0.00000000000E+00  0.30930200172E+03  0.30930200173E+03  0.25500000000E-02 0. -1.
          2   -1    0    0  501    0  0.00000000000E+00 -0.00000000000E+00 -0.21410369041E+04  0.21410369041E+04  0.25500000000E-02 0.  1.
    5000001    1    1    2    0    0 -0.33458589366E+03 -0.58701072727E+03 -0.29447140488E+03  0.76064888251E+03  0.18800000000E+03 0.  0.
   -5000001    1    1    2    0    0  0.33458589366E+03  0.58701072727E+03 -0.15372634975E+04  0.16896900233E+04  0.18800000000E+03 0.  0.
<mgrwt>
<rscale>  0 0.16275466E+04</rscale>
<asrwt>0</asrwt>
<pdfrwt beam="1">  1        2 0.30586241E+00 0.16275466E+04</pdfrwt>
<pdfrwt beam="2">  1       -2 0.44186001E-01 0.16275466E+04</pdfrwt>
<totfact> 0.31602777E+01</totfact>
</mgrwt>
</event>
<event>
 4    1  0.6346694E-005  0.5176435E+03  0.7818608E-02  0.1009274E+00
          2   -1    0    0  501    0  0.00000000000E+00  0.00000000000E+00  0.85587942993E+03  0.85587942994E+03  0.25500000000E-02 0.  1.
         -2   -1    0    0    0  501 -0.00000000000E+00 -0.00000000000E+00 -0.78268859462E+02  0.78268859504E+02  0.25500000000E-02 0. -1.
    5000001    1    1    2    0    0 -0.12247625475E+03 -0.20725218219E+02  0.15901058203E+03  0.27578675248E+03  0.18800000000E+03 0.  0.
   -5000001    1    1    2    0    0  0.12247625475E+03  0.20725218219E+02  0.61859998844E+03  0.65836153696E+03  0.18800000000E+03 0.  0.
<mgrwt>
<rscale>  0 0.51764353E+03</rscale>
<asrwt>0</asrwt>
<pdfrwt beam="1">  1        2 0.12226849E+00 0.51764353E+03</pdfrwt>
<pdfrwt beam="2">  1       -2 0.11181266E-01 0.51764353E+03</pdfrwt>
<totfact> 0.19899803E+03</totfact>
</mgrwt>
</event>
<event>
 4    1  0.6346694E-005  0.5077279E+03  0.7818608E-02  0.1011781E+00
          2   -1    0    0  501    0  0.00000000000E+00  0.00000000000E+00  0.14675657337E+04  0.14675657337E+04  0.25500000000E-02 0.  1.
         -2   -1    0    0    0  501 -0.00000000000E+00 -0.00000000000E+00 -0.43914145507E+02  0.43914145581E+02  0.25500000000E-02 0. -1.
    5000001    1    1    2    0    0  0.92602059051E+02 -0.12191690481E+03  0.48778152032E+03  0.54471431465E+03  0.18800000000E+03 0.  0.
   -5000001    1    1    2    0    0 -0.92602059051E+02  0.12191690481E+03  0.93587006791E+03  0.96676556467E+03  0.18800000000E+03 0.  0.
<mgrwt>
<rscale>  0 0.50772786E+03</rscale>
<asrwt>0</asrwt>
<pdfrwt beam="1">  1        2 0.20965227E+00 0.50772786E+03</pdfrwt>
<pdfrwt beam="2">  1       -2 0.62734487E-02 0.50772786E+03</pdfrwt>
<totfact> 0.22312295E+03</totfact>
</mgrwt>
</event>
<event>
 4    1  0.6346694E-005  0.4125188E+03  0.7818608E-02  0.1039529E+00
         -2   -1    0    0    0  501 -0.00000000000E+00  0.00000000000E+00  0.15362249803E+04  0.15362249803E+04  0.25500000000E-02 0. -1.
          2   -1    0    0  501    0  0.00000000000E+00 -0.00000000000E+00 -0.27693167138E+02  0.27693167256E+02  0.25500000000E-02 0.  1.
    5000001    1    1    2    0    0 -0.44478520442E+02 -0.11893712938E+02  0.48407842635E+03  0.52134031308E+03  0.18800000000E+03 0.  0.
   -5000001    1    1    2    0    0  0.44478520442E+02  0.11893712938E+02  0.10244533868E+04  0.10425778345E+04  0.18800000000E+03 0.  0.
<mgrwt>
<rscale>  0 0.41251878E+03</rscale>
<asrwt>0</asrwt>
<pdfrwt beam="1">  1        2 0.39561657E-02 0.41251878E+03</pdfrwt>
<pdfrwt beam="2">  1       -2 0.21946077E+00 0.41251878E+03</pdfrwt>
<totfact> 0.23444388E+02</totfact>
</mgrwt>
</event>
<event>
 4    1  0.6346694E-005  0.4514808E+03  0.7818608E-02  0.1027281E+00
          2   -1    0    0  501    0  0.00000000000E+00  0.00000000000E+00  0.26243717640E+04  0.26243717640E+04  0.25500000000E-02 0.  1.
         -2   -1    0    0    0  501 -0.00000000000E+00 -0.00000000000E+00 -0.19417498320E+02  0.19417498487E+02  0.25500000000E-02 0. -1.
    5000001    1    1    2    0    0 -0.12282901717E+03  0.22473005481E+02  0.12745582649E+04  0.12943858676E+04  0.18800000000E+03 0.  0.
   -5000001    1    1    2    0    0  0.12282901717E+03 -0.22473005481E+02  0.13303960007E+04  0.13494033949E+04  0.18800000000E+03 0.  0.
<mgrwt>
<rscale>  0 0.45148083E+03</rscale>
<asrwt>0</asrwt>
<pdfrwt beam="1">  1        2 0.37491008E+00 0.45148083E+03</pdfrwt>
<pdfrwt beam="2">  1       -2 0.27739296E-02 0.45148083E+03</pdfrwt>
<totfact> 0.20374320E+03</totfact>
</mgrwt>
</event>
<event>
 4    1  0.6346694E-005  0.5359250E+03  0.7818608E-02  0.1004805E+00
          2   -1    0    0  501    0  0.00000000000E+00  0.00000000000E+00  0.59207372121E+03  0.59207372122E+03  0.25500000000E-02 0.  1.
         -2   -1    0    0    0  501 -0.00000000000E+00 -0.00000000000E+00 -0.12127526144E+03  0.12127526146E+03  0.25500000000E-02 0. -1.
    5000001    1    1    2    0    0  0.45288889202E+02  0.18547809556E+03  0.23195696924E+03  0.35440265658E+03  0.18800000000E+03 0.  0.
   -5000001    1    1    2    0    0 -0.45288889202E+02 -0.18547809556E+03  0.23884149054E+03  0.35894632610E+03  0.18800000000E+03 0.  0.
<mgrwt>
<rscale>  0 0.53592498E+03</rscale>
<asrwt>0</asrwt>
<pdfrwt beam="1">  1        2 0.84581960E-01 0.53592498E+03</pdfrwt>
<pdfrwt beam="2">  1       -2 0.17325037E-01 0.53592498E+03</pdfrwt>
<totfact> 0.15081299E+03</totfact>
</mgrwt>
</event>
<event>
 4    1  0.6346694E-005  0.1206608E+04  0.7818608E-02  0.9107092E-01
         -2   -1    0    0    0  501 -0.00000000000E+00  0.00000000000E+00  0.46434963732E+03  0.46434963733E+03  0.25500000000E-02 0. -1.
          2   -1    0    0  501    0  0.00000000000E+00 -0.00000000000E+00 -0.78383938499E+03  0.78383938499E+03  0.25500000000E-02 0.  1.
    5000001    1    1    2    0    0  0.43791002676E+03 -0.73453991054E+02 -0.53482927966E+03  0.72010210298E+03  0.18800000000E+03 0.  0.
   -5000001    1    1    2    0    0 -0.43791002676E+03  0.73453991054E+02  0.21533953199E+03  0.52808691934E+03  0.18800000000E+03 0.  0.
<mgrwt>
<rscale>  0 0.12066077E+04</rscale>
<asrwt>0</asrwt>
<pdfrwt beam="1">  1        2 0.11197705E+00 0.12066077E+04</pdfrwt>
<pdfrwt beam="2">  1       -2 0.66335663E-01 0.12066077E+04</pdfrwt>
<totfact> 0.80509267E+01</totfact>
</mgrwt>
</event>
<event>
 4    1  0.6346694E-005  0.1001265E+04  0.7818608E-02  0.9307159E-01
          2   -1    0    0  501    0  0.00000000000E+00  0.00000000000E+00  0.40161967812E+04  0.40161967812E+04  0.25500000000E-02 0.  1.
         -2   -1    0    0    0  501 -0.00000000000E+00 -0.00000000000E+00 -0.62405506229E+02  0.62405506281E+02  0.25500000000E-02 0. -1.
    5000001    1    1    2    0    0 -0.23593755667E+03 -0.39147371397E+03  0.23020221448E+04  0.23544783190E+04  0.18800000000E+03 0.  0.
   -5000001    1    1    2    0    0  0.23593755667E+03  0.39147371397E+03  0.16517691301E+04  0.17241239685E+04  0.18800000000E+03 0.  0.
<mgrwt>
<rscale>  0 0.10012648E+04</rscale>
<asrwt>0</asrwt>
<pdfrwt beam="1">  1        2 0.57374252E+00 0.10012648E+04</pdfrwt>
<pdfrwt beam="2">  1       -2 0.89150704E-02 0.10012648E+04</pdfrwt>
<totfact> 0.48206421E+01</totfact>
</mgrwt>
</event>
<event>
 4    1  0.6346694E-005  0.6600241E+03  0.7818608E-02  0.9788149E-01
          2   -1    0    0  501    0  0.00000000000E+00  0.00000000000E+00  0.90902871805E+03  0.90902871805E+03  0.25500000000E-02 0.  1.
         -2   -1    0    0    0  501 -0.00000000000E+00 -0.00000000000E+00 -0.11980695854E+03  0.11980695856E+03  0.25500000000E-02 0. -1.
    5000001    1    1    2    0    0 -0.60337119958E+02  0.25540946227E+03  0.28786649363E+03  0.43253402134E+03  0.18800000000E+03 0.  0.
   -5000001    1    1    2    0    0  0.60337119958E+02 -0.25540946227E+03  0.50135526588E+03  0.59630165528E+03  0.18800000000E+03 0.  0.
<mgrwt>
<rscale>  0 0.66002414E+03</rscale>
<asrwt>0</asrwt>
<pdfrwt beam="1">  1        2 0.12986125E+00 0.66002414E+03</pdfrwt>
<pdfrwt beam="2">  1       -2 0.17115279E-01 0.66002414E+03</pdfrwt>
<totfact> 0.90070690E+02</totfact>
</mgrwt>
</event>
<event>
 4    1  0.6346694E-005  0.6104977E+03  0.7818608E-02  0.9883863E-01
          2   -1    0    0  501    0  0.00000000000E+00  0.00000000000E+00  0.29556248204E+04  0.29556248204E+04  0.25500000000E-02 0.  1.
         -2   -1    0    0    0  501 -0.00000000000E+00 -0.00000000000E+00 -0.31525263715E+02  0.31525263818E+02  0.25500000000E-02 0. -1.
    5000001    1    1    2    0    0  0.22250431360E+03  0.49774331618E+01  0.19078185709E+04  0.19299348807E+04  0.18800000000E+03 0.  0.
   -5000001    1    1    2    0    0 -0.22250431360E+03 -0.49774331618E+01  0.10162809859E+04  0.10572152035E+04  0.18800000000E+03 0.  0.
<mgrwt>
<rscale>  0 0.61049767E+03</rscale>
<asrwt>0</asrwt>
<pdfrwt beam="1">  1        2 0.42223211E+00 0.61049767E+03</pdfrwt>
<pdfrwt beam="2">  1       -2 0.45036092E-02 0.61049767E+03</pdfrwt>
<totfact> 0.64264212E+02</totfact>
</mgrwt>
</event>
<event>
 4    1  0.6346694E-005  0.5270190E+03  0.7818608E-02  0.1006958E+00
         -2   -1    0    0    0  501 -0.00000000000E+00  0.00000000000E+00  0.15271852323E+03  0.15271852325E+03  0.25500000000E-02 0. -1.
          2   -1    0    0  501    0  0.00000000000E+00 -0.00000000000E+00 -0.45467480017E+03  0.45467480018E+03  0.25500000000E-02 0.  1.
    5000001    1    1    2    0    0 -0.13686875868E+03 -0.12090054338E+03 -0.11955744839E+03  0.28807634745E+03  0.18800000000E+03 0.  0.
   -5000001    1    1    2    0    0  0.13686875868E+03  0.12090054338E+03 -0.18239882855E+03  0.31931697598E+03  0.18800000000E+03 0.  0.
<mgrwt>
<rscale>  0 0.52701903E+03</rscale>
<asrwt>0</asrwt>
<pdfrwt beam="1">  1        2 0.64953543E-01 0.52701903E+03</pdfrwt>
<pdfrwt beam="2">  1       -2 0.21816932E-01 0.52701903E+03</pdfrwt>
<totfact> 0.13677911E+03</totfact>
</mgrwt>
</event>
<event>
 4    1  0.6346694E-005  0.5995589E+03  0.7818608E-02  0.9906322E-01
          2   -1    0    0  501    0  0.00000000000E+00  0.00000000000E+00  0.79105745672E+03  0.79105745673E+03  0.25500000000E-02 0.  1.
         -2   -1    0    0    0  501 -0.00000000000E+00 -0.00000000000E+00 -0.11360453457E+03  0.11360453459E+03  0.25500000000E-02 0. -1.
    5000001    1    1    2    0    0  0.19885505547E+03  0.91834770458E+02  0.21663997896E+03  0.36090696673E+03  0.18800000000E+03 0.  0.
   -5000001    1    1    2    0    0 -0.19885505547E+03 -0.91834770458E+02  0.46081294320E+03  0.54375502459E+03  0.18800000000E+03 0.  0.
<mgrwt>
<rscale>  0 0.59955889E+03</rscale>
<asrwt>0</asrwt>
<pdfrwt beam="1">  1        2 0.11300821E+00 0.59955889E+03</pdfrwt>
<pdfrwt beam="2">  1       -2 0.16229219E-01 0.59955889E+03</pdfrwt>
<totfact> 0.11844324E+03</totfact>
</mgrwt>
</event>
<event>
 4    1  0.6346694E-005  0.4635602E+03  0.7818608E-02  0.1023754E+00
          2   -1    0    0  501    0  0.00000000000E+00  0.00000000000E+00  0.55758642870E+03  0.55758642871E+03  0.25500000000E-02 0.  1.
         -2   -1    0    0    0  501 -0.00000000000E+00 -0.00000000000E+00 -0.96347413557E+02  0.96347413590E+02  0.25500000000E-02 0. -1.
    5000001    1    1    2    0    0 -0.12966046293E+03  0.38724536220E+02  0.24213057416E+03  0.33508601925E+03  0.18800000000E+03 0.  0.
   -5000001    1    1    2    0    0  0.12966046293E+03 -0.38724536220E+02  0.21910844099E+03  0.31884782305E+03  0.18800000000E+03 0.  0.
<mgrwt>
<rscale>  0 0.46356018E+03</rscale>
<asrwt>0</asrwt>
<pdfrwt beam="1">  1        2 0.79655208E-01 0.46356018E+03</pdfrwt>
<pdfrwt beam="2">  1       -2 0.13763916E-01 0.46356018E+03</pdfrwt>
<totfact> 0.23794811E+03</totfact>
</mgrwt>
</event>
<event>
 4    1  0.6346694E-005  0.8509843E+03  0.7818608E-02  0.9489017E-01
          2   -1    0    0  501    0  0.00000000000E+00  0.00000000000E+00  0.23656075947E+04  0.23656075947E+04  0.25500000000E-02 0.  1.
         -2   -1    0    0    0  501 -0.00000000000E+00 -0.00000000000E+00 -0.76531534776E+02  0.76531534819E+02  0.25500000000E-02 0. -1.
    5000001    1    1    2    0    0  0.18277931433E+03  0.33006955769E+03  0.97855175696E+03  0.10654866173E+04  0.18800000000E+03 0.  0.
   -5000001    1    1    2    0    0 -0.18277931433E+03 -0.33006955769E+03  0.13105243029E+04  0.13766525122E+04  0.18800000000E+03 0.  0.
<mgrwt>
<rscale>  0 0.85098432E+03</rscale>
<asrwt>0</asrwt>
<pdfrwt beam="1">  1        2 0.33794387E+00 0.85098432E+03</pdfrwt>
<pdfrwt beam="2">  1       -2 0.10933079E-01 0.85098432E+03</pdfrwt>
<totfact> 0.31407325E+02</totfact>
</mgrwt>
</event>
<event>
 4    1  0.6346694E-005  0.5107414E+03  0.7818608E-02  0.1011013E+00
         -2   -1    0    0    0  501 -0.00000000000E+00  0.00000000000E+00  0.19634603941E+03  0.19634603942E+03  0.25500000000E-02 0. -1.
          2   -1    0    0  501    0  0.00000000000E+00 -0.00000000000E+00 -0.33213914408E+03  0.33213914409E+03  0.25500000000E-02 0.  1.
    5000001    1    1    2    0    0  0.17002951865E+03 -0.11230953885E+02 -0.38013594689E+02  0.25656423156E+03  0.18800000000E+03 0.  0.
   -5000001    1    1    2    0    0 -0.17002951865E+03  0.11230953885E+02 -0.97779509983E+02  0.27192095195E+03  0.18800000000E+03 0.  0.
<mgrwt>
<rscale>  0 0.51074144E+03</rscale>
<asrwt>0</asrwt>
<pdfrwt beam="1">  1        2 0.47448449E-01 0.51074144E+03</pdfrwt>
<pdfrwt beam="2">  1       -2 0.28049434E-01 0.51074144E+03</pdfrwt>
<totfact> 0.12353053E+03</totfact>
</mgrwt>
</event>
<event>
 4    1  0.6346694E-005  0.4496544E+03  0.7818608E-02  0.1027825E+00
          2   -1    0    0  501    0  0.00000000000E+00  0.00000000000E+00  0.88293713265E+03  0.88293713266E+03  0.25500000000E-02 0.  1.
         -2   -1    0    0    0  501 -0.00000000000E+00 -0.00000000000E+00 -0.57249014740E+02  0.57249014796E+02  0.25500000000E-02 0. -1.
    5000001    1    1    2    0    0 -0.52295708812E+02 -0.10325682754E+03  0.50171300138E+03  0.54813935213E+03  0.18800000000E+03 0.  0.
   -5000001    1    1    2    0    0  0.52295708812E+02  0.10325682754E+03  0.32397511653E+03  0.39204679533E+03  0.18800000000E+03 0.  0.
<mgrwt>
<rscale>  0 0.44965445E+03</rscale>
<asrwt>0</asrwt>
<pdfrwt beam="1">  1        2 0.12613388E+00 0.44965445E+03</pdfrwt>
<pdfrwt beam="2">  1       -2 0.81784304E-02 0.44965445E+03</pdfrwt>
<totfact> 0.31570128E+03</totfact>
</mgrwt>
</event>
<event>
 4    1  0.6346694E-005  0.6314879E+03  0.7818608E-02  0.9842150E-01
         -2   -1    0    0    0  501 -0.00000000000E+00  0.00000000000E+00  0.10958786861E+03  0.10958786864E+03  0.25500000000E-02 0. -1.
          2   -1    0    0  501    0  0.00000000000E+00 -0.00000000000E+00 -0.90971976149E+03  0.90971976149E+03  0.25500000000E-02 0.  1.
    5000001    1    1    2    0    0  0.10903947374E+03  0.20718179808E+03 -0.55769316477E+03  0.63338737777E+03  0.18800000000E+03 0.  0.
   -5000001    1    1    2    0    0 -0.10903947374E+03 -0.20718179808E+03 -0.24243872812E+03  0.38592025236E+03  0.18800000000E+03 0.  0.
<mgrwt>
<rscale>  0 0.63148792E+03</rscale>
<asrwt>0</asrwt>
<pdfrwt beam="1">  1        2 0.12995996E+00 0.63148792E+03</pdfrwt>
<pdfrwt beam="2">  1       -2 0.15655410E-01 0.63148792E+03</pdfrwt>
<totfact> 0.10479640E+03</totfact>
</mgrwt>
</event>
<event>
 4    1  0.6346694E-005  0.4895432E+03  0.7818608E-02  0.1016545E+00
          2   -1    0    0  501    0  0.00000000000E+00  0.00000000000E+00  0.21663846227E+03  0.21663846228E+03  0.25500000000E-02 0.  1.
         -2   -1    0    0    0  501 -0.00000000000E+00 -0.00000000000E+00 -0.27655818636E+03  0.27655818637E+03  0.25500000000E-02 0. -1.
    5000001    1    1    2    0    0  0.76739383608E+02 -0.13613008839E+03 -0.42249516964E+02  0.24809142598E+03  0.18800000000E+03 0.  0.
   -5000001    1    1    2    0    0 -0.76739383608E+02  0.13613008839E+03 -0.17670207131E+02  0.24510522267E+03  0.18800000000E+03 0.  0.
<mgrwt>
<rscale>  0 0.48954322E+03</rscale>
<asrwt>0</asrwt>
<pdfrwt beam="1">  1        2 0.30948352E-01 0.48954322E+03</pdfrwt>
<pdfrwt beam="2">  1       -2 0.39508312E-01 0.48954322E+03</pdfrwt>
<totfact> 0.10419491E+03</totfact>
</mgrwt>
</event>
<event>
 4    1  0.6346694E-005  0.6609279E+03  0.7818608E-02  0.9786487E-01
          2   -1    0    0  501    0  0.00000000000E+00  0.00000000000E+00  0.28224348713E+03  0.28224348714E+03  0.25500000000E-02 0.  1.
         -2   -1    0    0    0  501 -0.00000000000E+00 -0.00000000000E+00 -0.38692270387E+03  0.38692270387E+03  0.25500000000E-02 0. -1.
    5000001    1    1    2    0    0  0.12991673794E+02 -0.21417799337E+03  0.11653701790E+03  0.30816533382E+03  0.18800000000E+03 0.  0.
   -5000001    1    1    2    0    0 -0.12991673794E+02  0.21417799337E+03 -0.22121623463E+03  0.36100085719E+03  0.18800000000E+03 0.  0.
<mgrwt>
<rscale>  0 0.66092787E+03</rscale>
<asrwt>0</asrwt>
<pdfrwt beam="1">  1        2 0.40320498E-01 0.66092787E+03</pdfrwt>
<pdfrwt beam="2">  1       -2 0.55274672E-01 0.66092787E+03</pdfrwt>
<totfact> 0.39620158E+02</totfact>
</mgrwt>
</event>
<event>
 4    1  0.6346694E-005  0.4546085E+03  0.7818608E-02  0.1026357E+00
          2   -1    0    0  501    0  0.00000000000E+00  0.00000000000E+00  0.16018349854E+04  0.16018349854E+04  0.25500000000E-02 0.  1.
         -2   -1    0    0    0  501 -0.00000000000E+00 -0.00000000000E+00 -0.32255024768E+02  0.32255024868E+02  0.25500000000E-02 0. -1.
    5000001    1    1    2    0    0  0.10364160668E+03 -0.62125411423E+02  0.93395424453E+03  0.96032061326E+03  0.18800000000E+03 0.  0.
   -5000001    1    1    2    0    0 -0.10364160668E+03  0.62125411423E+02  0.63562571614E+03  0.67376939705E+03  0.18800000000E+03 0.  0.
<mgrwt>
<rscale>  0 0.45460852E+03</rscale>
<asrwt>0</asrwt>
<pdfrwt beam="1">  1        2 0.22883359E+00 0.45460852E+03</pdfrwt>
<pdfrwt beam="2">  1       -2 0.46078604E-02 0.45460852E+03</pdfrwt>
<totfact> 0.30723057E+03</totfact>
</mgrwt>
</event>
<event>
 4    1  0.6346694E-005  0.4363668E+03  0.7818608E-02  0.1031867E+00
         -2   -1    0    0    0  501 -0.00000000000E+00  0.00000000000E+00  0.19400613915E+02  0.19400614082E+02  0.25500000000E-02 0. -1.
          2   -1    0    0  501    0  0.00000000000E+00 -0.00000000000E+00 -0.24537368580E+04  0.24537368580E+04  0.25500000000E-02 0.  1.
    5000001    1    1    2    0    0 -0.56576736004E+02 -0.89143746389E+02 -0.14062022037E+04  0.14226370487E+04  0.18800000000E+03 0.  0.
   -5000001    1    1    2    0    0  0.56576736004E+02  0.89143746389E+02 -0.10281340403E+04  0.10505004234E+04  0.18800000000E+03 0.  0.
<mgrwt>
<rscale>  0 0.43636683E+03</rscale>
<asrwt>0</asrwt>
<pdfrwt beam="1">  1        2 0.35053364E+00 0.43636683E+03</pdfrwt>
<pdfrwt beam="2">  1       -2 0.27715179E-02 0.43636683E+03</pdfrwt>
<totfact> 0.24947638E+03</totfact>
</mgrwt>
</event>
<event>
 4    1  0.6346694E-005  0.5057576E+03  0.7818608E-02  0.1012287E+00
          2   -1    0    0  501    0  0.00000000000E+00  0.00000000000E+00  0.12157611723E+04  0.12157611723E+04  0.25500000000E-02 0.  1.
         -2   -1    0    0    0  501 -0.00000000000E+00 -0.00000000000E+00 -0.52598882322E+02  0.52598882384E+02  0.25500000000E-02 0. -1.
    5000001    1    1    2    0    0  0.78781635953E+02  0.13921900423E+03  0.71928888252E+03  0.76046628710E+03  0.18800000000E+03 0.  0.
   -5000001    1    1    2    0    0 -0.78781635953E+02 -0.13921900423E+03  0.44387340745E+03  0.50789376758E+03  0.18800000000E+03 0.  0.
<mgrwt>
<rscale>  0 0.50575757E+03</rscale>
<asrwt>0</asrwt>
<pdfrwt beam="1">  1        2 0.17368018E+00 0.50575757E+03</pdfrwt>
<pdfrwt beam="2">  1       -2 0.75141255E-02 0.50575757E+03</pdfrwt>
<totfact> 0.22918991E+03</totfact>
</mgrwt>
</event>
<event>
 4    1  0.6346694E-005  0.1062467E+04  0.7818608E-02  0.9242566E-01
          2   -1    0    0  501    0  0.00000000000E+00  0.00000000000E+00  0.10895804389E+04  0.10895804389E+04  0.25500000000E-02 0.  1.
         -2   -1    0    0    0  501 -0.00000000000E+00 -0.00000000000E+00 -0.25900714255E+03  0.25900714257E+03  0.25500000000E-02 0. -1.
    5000001    1    1    2    0    0  0.59707092528E+02  0.48997059392E+03  0.48741357245E+03  0.71871559773E+03  0.18800000000E+03 0.  0.
   -5000001    1    1    2    0    0 -0.59707092528E+02 -0.48997059392E+03  0.34315972391E+03  0.62987198375E+03  0.18800000000E+03 0.  0.
<mgrwt>
<rscale>  0 0.10624672E+04</rscale>
<asrwt>0</asrwt>
<pdfrwt beam="1">  1        2 0.15565435E+00 0.10624672E+04</pdfrwt>
<pdfrwt beam="2">  1       -2 0.37001021E-01 0.10624672E+04</pdfrwt>
<totfact> 0.16944301E+02</totfact>
</mgrwt>
</event>
<event>
 4    1  0.6346694E-005  0.4534869E+03  0.7818608E-02  0.1026687E+00
          2   -1    0    0  501    0  0.00000000000E+00  0.00000000000E+00  0.10563377292E+04  0.10563377292E+04  0.25500000000E-02 0.  1.
         -2   -1    0    0    0  501 -0.00000000000E+00 -0.00000000000E+00 -0.48670605307E+02  0.48670605374E+02  0.25500000000E-02 0. -1.
    5000001    1    1    2    0    0 -0.39081396014E+02 -0.11701942877E+03  0.57477834617E+03  0.61719935957E+03  0.18800000000E+03 0.  0.
   -5000001    1    1    2    0    0  0.39081396014E+02  0.11701942877E+03  0.43288877776E+03  0.48780897504E+03  0.18800000000E+03 0.  0.
<mgrwt>
<rscale>  0 0.45348692E+03</rscale>
<asrwt>0</asrwt>
<pdfrwt beam="1">  1        2 0.15090539E+00 0.45348692E+03</pdfrwt>
<pdfrwt beam="2">  1       -2 0.69529436E-02 0.45348692E+03</pdfrwt>
<totfact> 0.31918715E+03</totfact>
</mgrwt>
</event>
<event>
 4    1  0.6346694E-005  0.6312304E+03  0.7818608E-02  0.9842651E-01
          2   -1    0    0  501    0  0.00000000000E+00  0.00000000000E+00  0.10845225984E+04  0.10845225984E+04  0.25500000000E-02 0.  1.
         -2   -1    0    0    0  501 -0.00000000000E+00 -0.00000000000E+00 -0.91849580061E+02  0.91849580097E+02  0.25500000000E-02 0. -1.
    5000001    1    1    2    0    0  0.20915949897E+03 -0.84521121326E+02  0.28078890963E+03  0.40629783132E+03  0.18800000000E+03 0.  0.
   -5000001    1    1    2    0    0 -0.20915949897E+03  0.84521121326E+02  0.71188410872E+03  0.77007434719E+03  0.18800000000E+03 0.  0.
<mgrwt>
<rscale>  0 0.63123037E+03</rscale>
<asrwt>0</asrwt>
<pdfrwt beam="1">  1        2 0.15493180E+00 0.63123037E+03</pdfrwt>
<pdfrwt beam="2">  1       -2 0.13121368E-01 0.63123037E+03</pdfrwt>
<totfact> 0.11013152E+03</totfact>
</mgrwt>
</event>
<event>
 4    1  0.6346694E-005  0.6186146E+03  0.7818608E-02  0.9867522E-01
         -2   -1    0    0    0  501 -0.00000000000E+00  0.00000000000E+00  0.11461882380E+03  0.11461882383E+03  0.25500000000E-02 0. -1.
          2   -1    0    0  501    0  0.00000000000E+00 -0.00000000000E+00 -0.83468846898E+03  0.83468846898E+03  0.25500000000E-02 0.  1.
    5000001    1    1    2    0    0 -0.24352445805E+03 -0.25143926349E+02 -0.39036468765E+03  0.49765949007E+03  0.18800000000E+03 0.  0.
   -5000001    1    1    2    0    0  0.24352445805E+03  0.25143926349E+02 -0.32970495753E+03  0.45164780274E+03  0.18800000000E+03 0.  0.
<mgrwt>
<rscale>  0 0.61861462E+03</rscale>
<asrwt>0</asrwt>
<pdfrwt beam="1">  1        2 0.11924121E+00 0.61861462E+03</pdfrwt>
<pdfrwt beam="2">  1       -2 0.16374118E-01 0.61861462E+03</pdfrwt>
<totfact> 0.10884869E+03</totfact>
</mgrwt>
</event>
<event>
 4    1  0.6346694E-005  0.5418992E+03  0.7818608E-02  0.1003387E+00
         -2   -1    0    0    0  501 -0.00000000000E+00  0.00000000000E+00  0.31702612146E+03  0.31702612147E+03  0.25500000000E-02 0. -1.
          2   -1    0    0  501    0  0.00000000000E+00 -0.00000000000E+00 -0.23156986654E+03  0.23156986656E+03  0.25500000000E-02 0.  1.
    5000001    1    1    2    0    0 -0.17021695774E+03 -0.95362571015E+02  0.44110279814E+02  0.27451329556E+03  0.18800000000E+03 0.  0.
   -5000001    1    1    2    0    0  0.17021695774E+03  0.95362571015E+02  0.41345975098E+02  0.27408269247E+03  0.18800000000E+03 0.  0.
<mgrwt>
<rscale>  0 0.54189924E+03</rscale>
<asrwt>0</asrwt>
<pdfrwt beam="1">  1        2 0.33081409E-01 0.54189924E+03</pdfrwt>
<pdfrwt beam="2">  1       -2 0.45289446E-01 0.54189924E+03</pdfrwt>
<totfact> 0.74052493E+02</totfact>
</mgrwt>
</event>
<event>
 4    1  0.6346694E-005  0.6906641E+03  0.7818608E-02  0.9733332E-01
         -2   -1    0    0    0  501 -0.00000000000E+00  0.00000000000E+00  0.86943586904E+02  0.86943586941E+02  0.25500000000E-02 0. -1.
          2   -1    0    0  501    0  0.00000000000E+00 -0.00000000000E+00 -0.13716276414E+04  0.13716276414E+04  0.25500000000E-02 0.  1.
    5000001    1    1    2    0    0  0.15093809584E+03  0.22703873766E+03 -0.84905781782E+03  0.91135727088E+03  0.18800000000E+03 0.  0.
   -5000001    1    1    2    0    0 -0.15093809584E+03 -0.22703873766E+03 -0.43562623667E+03  0.54721395747E+03  0.18800000000E+03 0.  0.
<mgrwt>
<rscale>  0 0.69066411E+03</rscale>
<asrwt>0</asrwt>
<pdfrwt beam="1">  1        2 0.19594679E+00 0.69066411E+03</pdfrwt>
<pdfrwt beam="2">  1       -2 0.12420513E-01 0.69066411E+03</pdfrwt>
<totfact> 0.83204863E+02</totfact>
</mgrwt>
</event>
<event>
 4    1  0.6346694E-005  0.8116272E+03  0.7818608E-02  0.9543338E-01
         -2   -1    0    0    0  501 -0.00000000000E+00  0.00000000000E+00  0.81886633347E+03  0.81886633348E+03  0.25500000000E-02 0. -1.
          2   -1    0    0  501    0  0.00000000000E+00 -0.00000000000E+00 -0.20111302578E+03  0.20111302579E+03  0.25500000000E-02 0.  1.
    5000001    1    1    2    0    0 -0.18875128858E+03 -0.28230013996E+03  0.16007322506E+03  0.41986647323E+03  0.18800000000E+03 0.  0.
   -5000001    1    1    2    0    0  0.18875128858E+03  0.28230013996E+03  0.45768008263E+03  0.60011288604E+03  0.18800000000E+03 0.  0.
<mgrwt>
<rscale>  0 0.81162722E+03</rscale>
<asrwt>0</asrwt>
<pdfrwt beam="1">  1        2 0.28730433E-01 0.81162722E+03</pdfrwt>
<pdfrwt beam="2">  1       -2 0.11698090E+00 0.81162722E+03</pdfrwt>
<totfact> 0.10643489E+02</totfact>
</mgrwt>
</event>
<event>
 4    1  0.6346694E-005  0.4438156E+03  0.7818608E-02  0.1029582E+00
         -2   -1    0    0    0  501 -0.00000000000E+00  0.00000000000E+00  0.45621060340E+02  0.45621060412E+02  0.25500000000E-02 0. -1.
          2   -1    0    0  501    0  0.00000000000E+00 -0.00000000000E+00 -0.10793935387E+04  0.10793935387E+04  0.25500000000E-02 0.  1.
    5000001    1    1    2    0    0 -0.11722894975E+03 -0.12313050927E+02 -0.52246290325E+03  0.56763167913E+03  0.18800000000E+03 0.  0.
   -5000001    1    1    2    0    0  0.11722894975E+03  0.12313050927E+02 -0.51130957506E+03  0.55738291994E+03  0.18800000000E+03 0.  0.
<mgrwt>
<rscale>  0 0.44381563E+03</rscale>
<asrwt>0</asrwt>
<pdfrwt beam="1">  1        2 0.15419906E+00 0.44381563E+03</pdfrwt>
<pdfrwt beam="2">  1       -2 0.65172950E-02 0.44381563E+03</pdfrwt>
<totfact> 0.34241202E+03</totfact>
</mgrwt>
</event>
<event>
 4    1  0.6346694E-005  0.6718923E+03  0.7818608E-02  0.9766545E-01
          2   -1    0    0  501    0  0.00000000000E+00  0.00000000000E+00  0.15576834941E+04  0.15576834941E+04  0.25500000000E-02 0.  1.
         -2   -1    0    0    0  501 -0.00000000000E+00 -0.00000000000E+00 -0.72453630995E+02  0.72453631040E+02  0.25500000000E-02 0. -1.
    5000001    1    1    2    0    0  0.80531360978E+02  0.26357030205E+03  0.64675069135E+03  0.72772595184E+03  0.18800000000E+03 0.  0.
   -5000001    1    1    2    0    0 -0.80531360978E+02 -0.26357030205E+03  0.83847917172E+03  0.90241117326E+03  0.18800000000E+03 0.  0.
<mgrwt>
<rscale>  0 0.67189233E+03</rscale>
<asrwt>0</asrwt>
<pdfrwt beam="1">  1        2 0.22252621E+00 0.67189233E+03</pdfrwt>
<pdfrwt beam="2">  1       -2 0.10350519E-01 0.67189233E+03</pdfrwt>
<totfact> 0.89628934E+02</totfact>
</mgrwt>
</event>
<event>
 4    1  0.6346694E-005  0.6101330E+03  0.7818608E-02  0.9884603E-01
         -2   -1    0    0    0  501 -0.00000000000E+00  0.00000000000E+00  0.85223340037E+02  0.85223340075E+02  0.25500000000E-02 0. -1.
          2   -1    0    0  501    0  0.00000000000E+00 -0.00000000000E+00 -0.10920198635E+04  0.10920198635E+04  0.25500000000E-02 0.  1.
    5000001    1    1    2    0    0  0.46539628632E+02 -0.18313255780E+03 -0.21709146075E+03  0.34376761495E+03  0.18800000000E+03 0.  0.
   -5000001    1    1    2    0    0 -0.46539628632E+02  0.18313255780E+03 -0.78970506270E+03  0.83347558861E+03  0.18800000000E+03 0.  0.
<mgrwt>
<rscale>  0 0.61013304E+03</rscale>
<asrwt>0</asrwt>
<pdfrwt beam="1">  1        2 0.15600283E+00 0.61013304E+03</pdfrwt>
<pdfrwt beam="2">  1       -2 0.12174763E-01 0.61013304E+03</pdfrwt>
<totfact> 0.12347958E+03</totfact>
</mgrwt>
</event>
<event>
 4    1  0.6346694E-005  0.5182944E+03  0.7818608E-02  0.1009111E+00
          2   -1    0    0  501    0  0.00000000000E+00  0.00000000000E+00  0.21698755247E+04  0.21698755247E+04  0.25500000000E-02 0.  1.
         -2   -1    0    0    0  501 -0.00000000000E+00 -0.00000000000E+00 -0.30949822116E+02  0.30949822221E+02  0.25500000000E-02 0. -1.
    5000001    1    1    2    0    0 -0.60765163849E+02  0.11775066775E+03  0.56246933681E+03  0.60767868133E+03  0.18800000000E+03 0.  0.
   -5000001    1    1    2    0    0  0.60765163849E+02 -0.11775066775E+03  0.15764563658E+04  0.15931466656E+04  0.18800000000E+03 0.  0.
<mgrwt>
<rscale>  0 0.51829436E+03</rscale>
<asrwt>0</asrwt>
<pdfrwt beam="1">  1        2 0.30998225E+00 0.51829436E+03</pdfrwt>
<pdfrwt beam="2">  1       -2 0.44214027E-02 0.51829436E+03</pdfrwt>
<totfact> 0.16960757E+03</totfact>
</mgrwt>
</event>
<event>
 4    1  0.6346694E-005  0.7636344E+03  0.7818608E-02  0.9614200E-01
          2   -1    0    0  501    0  0.00000000000E+00  0.00000000000E+00  0.96034681892E+03  0.96034681892E+03  0.25500000000E-02 0.  1.
         -2   -1    0    0    0  501 -0.00000000000E+00 -0.00000000000E+00 -0.15180386116E+03  0.15180386118E+03  0.25500000000E-02 0. -1.
    5000001    1    1    2    0    0 -0.49640155922E+02  0.24872353481E+03  0.71701547823E+03  0.78344287466E+03  0.18800000000E+03 0.  0.
   -5000001    1    1    2    0    0  0.49640155922E+02 -0.24872353481E+03  0.91527479535E+02  0.32870780544E+03  0.18800000000E+03 0.  0.
<mgrwt>
<rscale>  0 0.76363435E+03</rscale>
<asrwt>0</asrwt>
<pdfrwt beam="1">  1        2 0.13719240E+00 0.76363435E+03</pdfrwt>
<pdfrwt beam="2">  1       -2 0.21686267E-01 0.76363435E+03</pdfrwt>
<totfact> 0.55177325E+02</totfact>
</mgrwt>
</event>
<event>
 4    1  0.6346694E-005  0.4495750E+03  0.7818608E-02  0.1027849E+00
          2   -1    0    0  501    0  0.00000000000E+00  0.00000000000E+00  0.28397162559E+04  0.28397162559E+04  0.25500000000E-02 0.  1.
         -2   -1    0    0    0  501 -0.00000000000E+00 -0.00000000000E+00 -0.17793826764E+02  0.17793826947E+02  0.25500000000E-02 0. -1.
    5000001    1    1    2    0    0  0.81625240264E+02  0.92318194385E+02  0.14128734808E+04  0.14306434921E+04  0.18800000000E+03 0.  0.
   -5000001    1    1    2    0    0 -0.81625240264E+02 -0.92318194385E+02  0.14090489484E+04  0.14268665907E+04  0.18800000000E+03 0.  0.
<mgrwt>
<rscale>  0 0.44957500E+03</rscale>
<asrwt>0</asrwt>
<pdfrwt beam="1">  1        2 0.40567375E+00 0.44957500E+03</pdfrwt>
<pdfrwt beam="2">  1       -2 0.25419753E-02 0.44957500E+03</pdfrwt>
<totfact> 0.17951470E+03</totfact>
</mgrwt>
</event>
<event>
 4    1  0.6346694E-005  0.5644349E+03  0.7818608E-02  0.9982069E-01
         -2   -1    0    0    0  501 -0.00000000000E+00  0.00000000000E+00  0.10566388064E+03  0.10566388067E+03  0.25500000000E-02 0. -1.
          2   -1    0    0  501    0  0.00000000000E+00 -0.00000000000E+00 -0.75377412601E+03  0.75377412602E+03  0.25500000000E-02 0.  1.
    5000001    1    1    2    0    0  0.88945855182E+02  0.18211284454E+03 -0.23756840655E+03  0.36449856117E+03  0.18800000000E+03 0.  0.
   -5000001    1    1    2    0    0 -0.88945855182E+02 -0.18211284454E+03 -0.41054183883E+03  0.49493944552E+03  0.18800000000E+03 0.  0.
<mgrwt>
<rscale>  0 0.56443494E+03</rscale>
<asrwt>0</asrwt>
<pdfrwt beam="1">  1        2 0.10768202E+00 0.56443494E+03</pdfrwt>
<pdfrwt beam="2">  1       -2 0.15094840E-01 0.56443494E+03</pdfrwt>
<totfact> 0.14233516E+03</totfact>
</mgrwt>
</event>
<event>
 4    1  0.6346694E-005  0.1211728E+04  0.7818608E-02  0.9102653E-01
         -2   -1    0    0    0  501 -0.00000000000E+00  0.00000000000E+00  0.40592913457E+03  0.40592913458E+03  0.25500000000E-02 0. -1.
          2   -1    0    0  501    0  0.00000000000E+00 -0.00000000000E+00 -0.90427341786E+03  0.90427341786E+03  0.25500000000E-02 0.  1.
    5000001    1    1    2    0    0  0.42887610379E+03  0.23405860944E+03 -0.57893020796E+03  0.78052695709E+03  0.18800000000E+03 0.  0.
   -5000001    1    1    2    0    0 -0.42887610379E+03 -0.23405860944E+03  0.80585924665E+02  0.52967559535E+03  0.18800000000E+03 0.  0.
<mgrwt>
<rscale>  0 0.12117276E+04</rscale>
<asrwt>0</asrwt>
<pdfrwt beam="1">  1        2 0.12918192E+00 0.12117276E+04</pdfrwt>
<pdfrwt beam="2">  1       -2 0.57989877E-01 0.12117276E+04</pdfrwt>
<totfact> 0.88714581E+01</totfact>
</mgrwt>
</event>
<event>
 4    1  0.6346694E-005  0.5736582E+03  0.7818608E-02  0.9961616E-01
          2   -1    0    0  501    0  0.00000000000E+00  0.00000000000E+00  0.31108761021E+04  0.31108761021E+04  0.25500000000E-02 0.  1.
         -2   -1    0    0    0  501 -0.00000000000E+00 -0.00000000000E+00 -0.26446224651E+02  0.26446224774E+02  0.25500000000E-02 0. -1.
    5000001    1    1    2    0    0  0.16174166273E+03 -0.12251465927E+03  0.11272670630E+04  0.11607089379E+04  0.18800000000E+03 0.  0.
   -5000001    1    1    2    0    0 -0.16174166273E+03  0.12251465927E+03  0.19571628144E+04  0.19766133890E+04  0.18800000000E+03 0.  0.
<mgrwt>
<rscale>  0 0.57365819E+03</rscale>
<asrwt>0</asrwt>
<pdfrwt beam="1">  1        2 0.44441092E+00 0.57365819E+03</pdfrwt>
<pdfrwt beam="2">  1       -2 0.37780317E-02 0.57365819E+03</pdfrwt>
<totfact> 0.69500406E+02</totfact>
</mgrwt>
</event>
<event>
 4    1  0.6346694E-005  0.5197093E+03  0.7818608E-02  0.1008759E+00
         -2   -1    0    0    0  501 -0.00000000000E+00  0.00000000000E+00  0.43615598840E+02  0.43615598915E+02  0.25500000000E-02 0. -1.
          2   -1    0    0  501    0  0.00000000000E+00 -0.00000000000E+00 -0.15481717844E+04  0.15481717844E+04  0.25500000000E-02 0.  1.
    5000001    1    1    2    0    0 -0.14560322297E+03  0.10074318423E+03 -0.66398789407E+03  0.71244186512E+03  0.18800000000E+03 0.  0.
   -5000001    1    1    2    0    0  0.14560322297E+03 -0.10074318423E+03 -0.84056829148E+03  0.87934551819E+03  0.18800000000E+03 0.  0.
<mgrwt>
<rscale>  0 0.51970930E+03</rscale>
<asrwt>0</asrwt>
<pdfrwt beam="1">  1        2 0.22116736E+00 0.51970930E+03</pdfrwt>
<pdfrwt beam="2">  1       -2 0.62308008E-02 0.51970930E+03</pdfrwt>
<totfact> 0.20480034E+03</totfact>
</mgrwt>
</event>
<event>
 4    1  0.6346694E-005  0.5332447E+03  0.7818608E-02  0.1005448E+00
          2   -1    0    0  501    0  0.00000000000E+00  0.00000000000E+00  0.51145719427E+03  0.51145719427E+03  0.25500000000E-02 0.  1.
         -2   -1    0    0    0  501 -0.00000000000E+00 -0.00000000000E+00 -0.13899009758E+03  0.13899009760E+03  0.25500000000E-02 0. -1.
    5000001    1    1    2    0    0  0.13782293718E+03  0.10258122577E+03  0.89990425095E+02  0.27011172966E+03  0.18800000000E+03 0.  0.
   -5000001    1    1    2    0    0 -0.13782293718E+03 -0.10258122577E+03  0.28247667159E+03  0.38033556222E+03  0.18800000000E+03 0.  0.
<mgrwt>
<rscale>  0 0.53324473E+03</rscale>
<asrwt>0</asrwt>
<pdfrwt beam="1">  1        2 0.73065315E-01 0.53324473E+03</pdfrwt>
<pdfrwt beam="2">  1       -2 0.19855728E-01 0.53324473E+03</pdfrwt>
<totfact> 0.14119040E+03</totfact>
</mgrwt>
</event>
<event>
 4    1  0.6346694E-005  0.4943513E+03  0.7818608E-02  0.1015264E+00
         -2   -1    0    0    0  501 -0.00000000000E+00  0.00000000000E+00  0.11361996683E+03  0.11361996686E+03  0.25500000000E-02 0. -1.
          2   -1    0    0  501    0  0.00000000000E+00 -0.00000000000E+00 -0.53772073935E+03  0.53772073935E+03  0.25500000000E-02 0.  1.
    5000001    1    1    2    0    0 -0.12228004601E+03  0.95858400359E+02 -0.26492683821E+03  0.36009925322E+03  0.18800000000E+03 0.  0.
   -5000001    1    1    2    0    0  0.12228004601E+03 -0.95858400359E+02 -0.15917393431E+03  0.29124145298E+03  0.18800000000E+03 0.  0.
<mgrwt>
<rscale>  0 0.49435134E+03</rscale>
<asrwt>0</asrwt>
<pdfrwt beam="1">  1        2 0.76817247E-01 0.49435134E+03</pdfrwt>
<pdfrwt beam="2">  1       -2 0.16231424E-01 0.49435134E+03</pdfrwt>
<totfact> 0.18829069E+03</totfact>
</mgrwt>
</event>
<event>
 4    1  0.6346694E-005  0.4948748E+03  0.7818608E-02  0.1015125E+00
         -2   -1    0    0    0  501 -0.00000000000E+00  0.00000000000E+00  0.84201332801E+02  0.84201332840E+02  0.25500000000E-02 0. -1.
          2   -1    0    0  501    0  0.00000000000E+00 -0.00000000000E+00 -0.72712931935E+03  0.72712931935E+03  0.25500000000E-02 0.  1.
    5000001    1    1    2    0    0 -0.15435509978E+03  0.44983380166E+02 -0.31215267333E+03  0.39828669672E+03  0.18800000000E+03 0.  0.
   -5000001    1    1    2    0    0  0.15435509978E+03 -0.44983380166E+02 -0.33077531322E+03  0.41304395547E+03  0.18800000000E+03 0.  0.
<mgrwt>
<rscale>  0 0.49487476E+03</rscale>
<asrwt>0</asrwt>
<pdfrwt beam="1">  1        2 0.10387561E+00 0.49487476E+03</pdfrwt>
<pdfrwt beam="2">  1       -2 0.12028762E-01 0.49487476E+03</pdfrwt>
<totfact> 0.21701333E+03</totfact>
</mgrwt>
</event>
<event>
 4    1  0.6346694E-005  0.5043123E+03  0.7818608E-02  0.1012659E+00
          2   -1    0    0  501    0  0.00000000000E+00  0.00000000000E+00  0.74126627133E+03  0.74126627134E+03  0.25500000000E-02 0.  1.
         -2   -1    0    0    0  501 -0.00000000000E+00 -0.00000000000E+00 -0.85775805297E+02  0.85775805335E+02  0.25500000000E-02 0. -1.
    5000001    1    1    2    0    0  0.71779308139E+02  0.91391373669E+02  0.12868280734E+03  0.25574971586E+03  0.18800000000E+03 0.  0.
   -5000001    1    1    2    0    0 -0.71779308139E+02 -0.91391373669E+02  0.52680765870E+03  0.57129236081E+03  0.18800000000E+03 0.  0.
<mgrwt>
<rscale>  0 0.50431225E+03</rscale>
<asrwt>0</asrwt>
<pdfrwt beam="1">  1        2 0.10589518E+00 0.50431225E+03</pdfrwt>
<pdfrwt beam="2">  1       -2 0.12253687E-01 0.50431225E+03</pdfrwt>
<totfact> 0.20558124E+03</totfact>
</mgrwt>
</event>
<event>
 4    1  0.6346694E-005  0.4277794E+03  0.7818608E-02  0.1034564E+00
          2   -1    0    0  501    0  0.00000000000E+00  0.00000000000E+00  0.28650233792E+04  0.28650233792E+04  0.25500000000E-02 0.  1.
         -2   -1    0    0    0  501 -0.00000000000E+00 -0.00000000000E+00 -0.15968040267E+02  0.15968040471E+02  0.25500000000E-02 0. -1.
    5000001    1    1    2    0    0 -0.92967858059E+01 -0.96844829242E+02  0.16309519180E+04  0.16446317248E+04  0.18800000000E+03 0.  0.
   -5000001    1    1    2    0    0  0.92967858059E+01  0.96844829242E+02  0.12181034209E+04  0.12363596949E+04  0.18800000000E+03 0.  0.
<mgrwt>
<rscale>  0 0.42777942E+03</rscale>
<asrwt>0</asrwt>
<pdfrwt beam="1">  1        2 0.40928962E+00 0.42777942E+03</pdfrwt>
<pdfrwt beam="2">  1       -2 0.22811455E-02 0.42777942E+03</pdfrwt>
<totfact> 0.20508447E+03</totfact>
</mgrwt>
</event>
<event>
 4    1  0.6346694E-005  0.5723180E+03  0.7818608E-02  0.9964562E-01
         -2   -1    0    0    0  501 -0.00000000000E+00  0.00000000000E+00  0.13524208237E+03  0.13524208239E+03  0.25500000000E-02 0. -1.
          2   -1    0    0  501    0  0.00000000000E+00 -0.00000000000E+00 -0.60548433056E+03  0.60548433056E+03  0.25500000000E-02 0.  1.
    5000001    1    1    2    0    0 -0.79349094002E+02  0.17754799558E+03 -0.35600354735E+03  0.44710412118E+03  0.18800000000E+03 0.  0.
   -5000001    1    1    2    0    0  0.79349094002E+02 -0.17754799558E+03 -0.11423870085E+03  0.29362229177E+03  0.18800000000E+03 0.  0.
<mgrwt>
<rscale>  0 0.57231796E+03</rscale>
<asrwt>0</asrwt>
<pdfrwt beam="1">  1        2 0.86497760E-01 0.57231796E+03</pdfrwt>
<pdfrwt beam="2">  1       -2 0.19320298E-01 0.57231796E+03</pdfrwt>
<totfact> 0.12178074E+03</totfact>
</mgrwt>
</event>
<event>
 4    1  0.6346694E-005  0.6498054E+03  0.7818608E-02  0.9807144E-01
         -2   -1    0    0    0  501 -0.00000000000E+00  0.00000000000E+00  0.12885222769E+03  0.12885222772E+03  0.25500000000E-02 0. -1.
          2   -1    0    0  501    0  0.00000000000E+00 -0.00000000000E+00 -0.81924681604E+03  0.81924681604E+03  0.25500000000E-02 0.  1.
    5000001    1    1    2    0    0 -0.20930873544E+03  0.12633722904E+03 -0.19607021895E+03  0.36545693718E+03  0.18800000000E+03 0.  0.
   -5000001    1    1    2    0    0  0.20930873544E+03 -0.12633722904E+03 -0.49432436939E+03  0.58264210657E+03  0.18800000000E+03 0.  0.
<mgrwt>
<rscale>  0 0.64980544E+03</rscale>
<asrwt>0</asrwt>
<pdfrwt beam="1">  1        2 0.11703526E+00 0.64980544E+03</pdfrwt>
<pdfrwt beam="2">  1       -2 0.18407462E-01 0.64980544E+03</pdfrwt>
<totfact> 0.91192711E+02</totfact>
</mgrwt>
</event>
<event>
 4    1  0.6346694E-005  0.5988278E+03  0.7818608E-02  0.9907841E-01
          2   -1    0    0  501    0  0.00000000000E+00  0.00000000000E+00  0.18594522906E+04  0.18594522906E+04  0.25500000000E-02 0.  1.
         -2   -1    0    0    0  501 -0.00000000000E+00 -0.00000000000E+00 -0.48212408696E+02  0.48212408764E+02  0.25500000000E-02 0. -1.
    5000001    1    1    2    0    0  0.98102459455E+02 -0.17346290410E+03  0.52081055999E+03  0.58847354320E+03  0.18800000000E+03 0.  0.
   -5000001    1    1    2    0    0 -0.98102459455E+02  0.17346290410E+03  0.12904293219E+04  0.13191911562E+04  0.18800000000E+03 0.  0.
<mgrwt>
<rscale>  0 0.59882777E+03</rscale>
<asrwt>0</asrwt>
<pdfrwt beam="1">  1        2 0.26563598E+00 0.59882777E+03</pdfrwt>
<pdfrwt beam="2">  1       -2 0.68874885E-02 0.59882777E+03</pdfrwt>
<totfact> 0.12121386E+03</totfact>
</mgrwt>
</event>
<event>
 4    1  0.6346694E-005  0.1333172E+04  0.7818608E-02  0.9003665E-01
          2   -1    0    0  501    0  0.00000000000E+00  0.00000000000E+00  0.52382578839E+03  0.52382578840E+03  0.25500000000E-02 0.  1.
         -2   -1    0    0    0  501 -0.00000000000E+00 -0.00000000000E+00 -0.84825368845E+03  0.84825368846E+03  0.25500000000E-02 0. -1.
    5000001    1    1    2    0    0  0.17341215702E+03  0.35622580222E+03  0.35445740956E+03  0.56387290550E+03  0.18800000000E+03 0.  0.
   -5000001    1    1    2    0    0 -0.17341215702E+03 -0.35622580222E+03 -0.67888530962E+03  0.80820657135E+03  0.18800000000E+03 0.  0.
<mgrwt>
<rscale>  0 0.13331724E+04</rscale>
<asrwt>0</asrwt>
<pdfrwt beam="1">  1        2 0.74832256E-01 0.13331724E+04</pdfrwt>
<pdfrwt beam="2">  1       -2 0.12117910E+00 0.13331724E+04</pdfrwt>
<totfact> 0.32286660E+01</totfact>
</mgrwt>
</event>
<event>
 4    1  0.6346694E-005  0.4448810E+03  0.7818608E-02  0.1029260E+00
          2   -1    0    0  501    0  0.00000000000E+00  0.00000000000E+00  0.21393202570E+04  0.21393202570E+04  0.25500000000E-02 0.  1.
         -2   -1    0    0    0  501 -0.00000000000E+00 -0.00000000000E+00 -0.23128741305E+02  0.23128741446E+02  0.25500000000E-02 0. -1.
    5000001    1    1    2    0    0  0.88838068847E+02 -0.61267471546E+02  0.13006400910E+04  0.13185805064E+04  0.18800000000E+03 0.  0.
   -5000001    1    1    2    0    0 -0.88838068847E+02  0.61267471546E+02  0.81555142471E+03  0.84386849206E+03  0.18800000000E+03 0.  0.
<mgrwt>
<rscale>  0 0.44488104E+03</rscale>
<asrwt>0</asrwt>
<pdfrwt beam="1">  1        2 0.30561718E+00 0.44488104E+03</pdfrwt>
<pdfrwt beam="2">  1       -2 0.33041059E-02 0.44488104E+03</pdfrwt>
<totfact> 0.27487755E+03</totfact>
</mgrwt>
</event>
<event>
 4    1  0.6346694E-005  0.4574135E+03  0.7818608E-02  0.1025534E+00
          2   -1    0    0  501    0  0.00000000000E+00  0.00000000000E+00  0.82331084403E+02  0.82331084443E+02  0.25500000000E-02 0.  1.
         -2   -1    0    0    0  501 -0.00000000000E+00 -0.00000000000E+00 -0.63532223900E+03  0.63532223900E+03  0.25500000000E-02 0. -1.
    5000001    1    1    2    0    0 -0.66931628494E+02  0.69306184222E+02 -0.41398663706E+03  0.46477104657E+03  0.18800000000E+03 0.  0.
   -5000001    1    1    2    0    0  0.66931628494E+02 -0.69306184222E+02 -0.13900451754E+03  0.25288227688E+03  0.18800000000E+03 0.  0.
<mgrwt>
<rscale>  0 0.45741346E+03</rscale>
<asrwt>0</asrwt>
<pdfrwt beam="1">  1        2 0.11761584E-01 0.45741346E+03</pdfrwt>
<pdfrwt beam="2">  1       -2 0.90760317E-01 0.45741346E+03</pdfrwt>
<totfact> 0.56543937E+02</totfact>
</mgrwt>
</event>
<event>
 4    1  0.6346694E-005  0.7363543E+03  0.7818608E-02  0.9657005E-01
         -2   -1    0    0    0  501 -0.00000000000E+00  0.00000000000E+00  0.16585641214E+03  0.16585641216E+03  0.25500000000E-02 0. -1.
          2   -1    0    0  501    0  0.00000000000E+00 -0.00000000000E+00 -0.81729982452E+03  0.81729982452E+03  0.25500000000E-02 0.  1.
    5000001    1    1    2    0    0  0.19805830610E+03  0.34804383593E+02 -0.65214754123E+03  0.70786923458E+03  0.18800000000E+03 0.  0.
   -5000001    1    1    2    0    0 -0.19805830610E+03 -0.34804383593E+02  0.70412884933E+00  0.27528700211E+03  0.18800000000E+03 0.  0.
<mgrwt>
<rscale>  0 0.73635431E+03</rscale>
<asrwt>0</asrwt>
<pdfrwt beam="1">  1        2 0.11675712E+00 0.73635431E+03</pdfrwt>
<pdfrwt beam="2">  1       -2 0.23693774E-01 0.73635431E+03</pdfrwt>
<totfact> 0.58568505E+02</totfact>
</mgrwt>
</event>
<event>
 4    1  0.6346694E-005  0.6607742E+03  0.7818608E-02  0.9786770E-01
          2   -1    0    0  501    0  0.00000000000E+00  0.00000000000E+00  0.13831121439E+04  0.13831121439E+04  0.25500000000E-02 0.  1.
         -2   -1    0    0    0  501 -0.00000000000E+00 -0.00000000000E+00 -0.78920302621E+02  0.78920302662E+02  0.25500000000E-02 0. -1.
    5000001    1    1    2    0    0 -0.78437229849E+01  0.16878063453E+03  0.11228310242E+04  0.11509308996E+04  0.18800000000E+03 0.  0.
   -5000001    1    1    2    0    0  0.78437229849E+01 -0.16878063453E+03  0.18136081702E+03  0.31110154697E+03  0.18800000000E+03 0.  0.
<mgrwt>
<rscale>  0 0.66077418E+03</rscale>
<asrwt>0</asrwt>
<pdfrwt beam="1">  1        2 0.19758744E+00 0.66077418E+03</pdfrwt>
<pdfrwt beam="2">  1       -2 0.11274329E-01 0.66077418E+03</pdfrwt>
<totfact> 0.96340876E+02</totfact>
</mgrwt>
</event>
<event>
 4    1  0.6346694E-005  0.7491214E+03  0.7818608E-02  0.9636730E-01
          2   -1    0    0  501    0  0.00000000000E+00  0.00000000000E+00  0.58244199634E+02  0.58244199689E+02  0.25500000000E-02 0.  1.
         -2   -1    0    0    0  501 -0.00000000000E+00 -0.00000000000E+00 -0.24087499832E+04  0.24087499832E+04  0.25500000000E-02 0. -1.
    5000001    1    1    2    0    0 -0.28318048834E+02 -0.29296717099E+03 -0.16209903506E+04  0.16581873814E+04  0.18800000000E+03 0.  0.
   -5000001    1    1    2    0    0  0.28318048834E+02  0.29296717099E+03 -0.72951543297E+03  0.80880680147E+03  0.18800000000E+03 0.  0.
<mgrwt>
<rscale>  0 0.74912139E+03</rscale>
<asrwt>0</asrwt>
<pdfrwt beam="1">  1        2 0.83206015E-02 0.74912139E+03</pdfrwt>
<pdfrwt beam="2">  1       -2 0.34410708E+00 0.74912139E+03</pdfrwt>
<totfact> 0.15030823E+01</totfact>
</mgrwt>
</event>
<event>
 4    1  0.6346694E-005  0.6140814E+03  0.7818608E-02  0.9876615E-01
         -2   -1    0    0    0  501 -0.00000000000E+00  0.00000000000E+00  0.29634231647E+03  0.29634231648E+03  0.25500000000E-02 0. -1.
          2   -1    0    0  501    0  0.00000000000E+00 -0.00000000000E+00 -0.31812531366E+03  0.31812531367E+03  0.25500000000E-02 0.  1.
    5000001    1    1    2    0    0 -0.12859351441E+02  0.23524724412E+03  0.47654818169E+02  0.30515833674E+03  0.18800000000E+03 0.  0.
   -5000001    1    1    2    0    0  0.12859351441E+02 -0.23524724412E+03 -0.69437815358E+02  0.30930929341E+03  0.18800000000E+03 0.  0.
<mgrwt>
<rscale>  0 0.61408140E+03</rscale>
<asrwt>0</asrwt>
<pdfrwt beam="1">  1        2 0.45446473E-01 0.61408140E+03</pdfrwt>
<pdfrwt beam="2">  1       -2 0.42334617E-01 0.61408140E+03</pdfrwt>
<totfact> 0.59474399E+02</totfact>
</mgrwt>
</event>
<event>
 4    1  0.6346694E-005  0.4212357E+03  0.7818608E-02  0.1036665E+00
         -2   -1    0    0    0  501 -0.00000000000E+00  0.00000000000E+00  0.10302383816E+02  0.10302384131E+02  0.25500000000E-02 0. -1.
          2   -1    0    0  501    0  0.00000000000E+00 -0.00000000000E+00 -0.43057883381E+04  0.43057883381E+04  0.25500000000E-02 0.  1.
    5000001    1    1    2    0    0 -0.37552278359E+01  0.62863467664E+02 -0.28758742004E+04  0.28827005279E+04  0.18800000000E+03 0.  0.
   -5000001    1    1    2    0    0  0.37552278359E+01 -0.62863467664E+02 -0.14196117539E+04  0.14333901943E+04  0.18800000000E+03 0.  0.
<mgrwt>
<rscale>  0 0.42123573E+03</rscale>
<asrwt>0</asrwt>
<pdfrwt beam="1">  1        2 0.61511147E+00 0.42123573E+03</pdfrwt>
<pdfrwt beam="2">  1       -2 0.14717719E-02 0.42123573E+03</pdfrwt>
<totfact> 0.52609018E+02</totfact>
</mgrwt>
</event>
<event>
 4    1  0.6346694E-005  0.5236951E+03  0.7818608E-02  0.1007773E+00
         -2   -1    0    0    0  501 -0.00000000000E+00  0.00000000000E+00  0.32692054117E+02  0.32692054217E+02  0.25500000000E-02 0. -1.
          2   -1    0    0  501    0  0.00000000000E+00 -0.00000000000E+00 -0.20972720149E+04  0.20972720149E+04  0.25500000000E-02 0.  1.
    5000001    1    1    2    0    0 -0.76915572042E+02  0.16522479489E+03 -0.10412859515E+04  0.10737018538E+04  0.18800000000E+03 0.  0.
   -5000001    1    1    2    0    0  0.76915572042E+02 -0.16522479489E+03 -0.10232940092E+04  0.10562622153E+04  0.18800000000E+03 0.  0.
<mgrwt>
<rscale>  0 0.52369507E+03</rscale>
<asrwt>0</asrwt>
<pdfrwt beam="1">  1        2 0.29961020E+00 0.52369507E+03</pdfrwt>
<pdfrwt beam="2">  1       -2 0.46702948E-02 0.52369507E+03</pdfrwt>
<totfact> 0.16944687E+03</totfact>
</mgrwt>
</event>
<event>
 4    1  0.6346694E-005  0.4149256E+03  0.7818608E-02  0.1038731E+00
         -2   -1    0    0    0  501 -0.00000000000E+00  0.00000000000E+00  0.22345842653E+02  0.22345842798E+02  0.25500000000E-02 0. -1.
          2   -1    0    0  501    0  0.00000000000E+00 -0.00000000000E+00 -0.19261218014E+04  0.19261218014E+04  0.25500000000E-02 0.  1.
    5000001    1    1    2    0    0 -0.15312603908E+02 -0.82102417179E+02 -0.10780273877E+04  0.10974799914E+04  0.18800000000E+03 0.  0.
   -5000001    1    1    2    0    0  0.15312603908E+02  0.82102417179E+02 -0.82574857101E+03  0.85098765283E+03  0.18800000000E+03 0.  0.
<mgrwt>
<rscale>  0 0.41492561E+03</rscale>
<asrwt>0</asrwt>
<pdfrwt beam="1">  1        2 0.27516015E+00 0.41492561E+03</pdfrwt>
<pdfrwt beam="2">  1       -2 0.31922645E-02 0.41492561E+03</pdfrwt>
<totfact> 0.36976141E+03</totfact>
</mgrwt>
</event>
<event>
 4    1  0.6346694E-005  0.5516885E+03  0.7818608E-02  0.1001104E+00
          2   -1    0    0  501    0  0.00000000000E+00  0.00000000000E+00  0.14389910500E+03  0.14389910502E+03  0.25500000000E-02 0.  1.
         -2   -1    0    0    0  501 -0.00000000000E+00 -0.00000000000E+00 -0.52877371012E+03  0.52877371013E+03  0.25500000000E-02 0. -1.
    5000001    1    1    2    0    0 -0.16847798477E+03  0.10191668431E+03 -0.24661341950E+03  0.36733366381E+03  0.18800000000E+03 0.  0.
   -5000001    1    1    2    0    0  0.16847798477E+03 -0.10191668431E+03 -0.13826118562E+03  0.30533915134E+03  0.18800000000E+03 0.  0.
<mgrwt>
<rscale>  0 0.55168855E+03</rscale>
<asrwt>0</asrwt>
<pdfrwt beam="1">  1        2 0.20557015E-01 0.55168855E+03</pdfrwt>
<pdfrwt beam="2">  1       -2 0.75539100E-01 0.55168855E+03</pdfrwt>
<totfact> 0.43643651E+02</totfact>
</mgrwt>
</event>
<event>
 4    1  0.6346694E-005  0.6410234E+03  0.7818608E-02  0.9823770E-01
         -2   -1    0    0    0  501 -0.00000000000E+00  0.00000000000E+00  0.27717220470E+03  0.27717220471E+03  0.25500000000E-02 0. -1.
          2   -1    0    0  501    0  0.00000000000E+00 -0.00000000000E+00 -0.37062790426E+03  0.37062790427E+03  0.25500000000E-02 0.  1.
    5000001    1    1    2    0    0  0.10583767217E+03 -0.23138746256E+03 -0.98671457290E+02  0.33139376452E+03  0.18800000000E+03 0.  0.
   -5000001    1    1    2    0    0 -0.10583767217E+03  0.23138746256E+03  0.52157577306E+01  0.31640634445E+03  0.18800000000E+03 0.  0.
<mgrwt>
<rscale>  0 0.64102341E+03</rscale>
<asrwt>0</asrwt>
<pdfrwt beam="1">  1        2 0.52946843E-01 0.64102341E+03</pdfrwt>
<pdfrwt beam="2">  1       -2 0.39596029E-01 0.64102341E+03</pdfrwt>
<totfact> 0.57198097E+02</totfact>
</mgrwt>
</event>
<event>
 4    1  0.6346694E-005  0.4903689E+03  0.7818608E-02  0.1016324E+00
         -2   -1    0    0    0  501 -0.00000000000E+00  0.00000000000E+00  0.43983454967E+02  0.43983455041E+02  0.25500000000E-02 0. -1.
          2   -1    0    0  501    0  0.00000000000E+00 -0.00000000000E+00 -0.13667734200E+04  0.13667734200E+04  0.25500000000E-02 0.  1.
    5000001    1    1    2    0    0 -0.79817185834E+02 -0.13242907512E+03 -0.57687129118E+03  0.62612517094E+03  0.18800000000E+03 0.  0.
   -5000001    1    1    2    0    0  0.79817185834E+02  0.13242907512E+03 -0.74591867390E+03  0.78463170415E+03  0.18800000000E+03 0.  0.
<mgrwt>
<rscale>  0 0.49036891E+03</rscale>
<asrwt>0</asrwt>
<pdfrwt beam="1">  1        2 0.19525332E+00 0.49036891E+03</pdfrwt>
<pdfrwt beam="2">  1       -2 0.62833516E-02 0.49036891E+03</pdfrwt>
<totfact> 0.25152562E+03</totfact>
</mgrwt>
</event>
<event>
 4    1  0.6346694E-005  0.4662380E+03  0.7818608E-02  0.1022987E+00
          2   -1    0    0  501    0  0.00000000000E+00  0.00000000000E+00  0.89548844672E+03  0.89548844672E+03  0.25500000000E-02 0.  1.
         -2   -1    0    0    0  501 -0.00000000000E+00 -0.00000000000E+00 -0.60686953443E+02  0.60686953497E+02  0.25500000000E-02 0. -1.
    5000001    1    1    2    0    0  0.11297925962E+03  0.17829956042E+02  0.25963003347E+03  0.34034390654E+03  0.18800000000E+03 0.  0.
   -5000001    1    1    2    0    0 -0.11297925962E+03 -0.17829956042E+02  0.57517145980E+03  0.61583149368E+03  0.18800000000E+03 0.  0.
<mgrwt>
<rscale>  0 0.46623799E+03</rscale>
<asrwt>0</asrwt>
<pdfrwt beam="1">  1        2 0.12792691E+00 0.46623799E+03</pdfrwt>
<pdfrwt beam="2">  1       -2 0.86695656E-02 0.46623799E+03</pdfrwt>
<totfact> 0.28251647E+03</totfact>
</mgrwt>
</event>
<event>
 4    1  0.6346694E-005  0.1121263E+04  0.7818608E-02  0.9184712E-01
          2   -1    0    0  501    0  0.00000000000E+00  0.00000000000E+00  0.17262592141E+04  0.17262592141E+04  0.25500000000E-02 0.  1.
         -2   -1    0    0    0  501 -0.00000000000E+00 -0.00000000000E+00 -0.18207442855E+03  0.18207442857E+03  0.25500000000E-02 0. -1.
    5000001    1    1    2    0    0 -0.44424915476E+03 -0.83719542372E+02  0.12369378970E+04  0.13303103526E+04  0.18800000000E+03 0.  0.
   -5000001    1    1    2    0    0  0.44424915476E+03  0.83719542372E+02  0.30724688850E+03  0.57802328999E+03  0.18800000000E+03 0.  0.
<mgrwt>
<rscale>  0 0.11212630E+04</rscale>
<asrwt>0</asrwt>
<pdfrwt beam="1">  1        2 0.24660845E+00 0.11212630E+04</pdfrwt>
<pdfrwt beam="2">  1       -2 0.26010633E-01 0.11212630E+04</pdfrwt>
<totfact> 0.14696535E+02</totfact>
</mgrwt>
</event>
<event>
 4    1  0.6346694E-005  0.1289116E+04  0.7818608E-02  0.9038241E-01
          2   -1    0    0  501    0  0.00000000000E+00  0.00000000000E+00  0.22860530060E+04  0.22860530060E+04  0.25500000000E-02 0.  1.
         -2   -1    0    0    0  501 -0.00000000000E+00 -0.00000000000E+00 -0.18173451783E+03  0.18173451785E+03  0.25500000000E-02 0. -1.
    5000001    1    1    2    0    0  0.39484804032E+03  0.10778134127E+03  0.16951386720E+03  0.48124914924E+03  0.18800000000E+03 0.  0.
   -5000001    1    1    2    0    0 -0.39484804032E+03 -0.10778134127E+03  0.19348046209E+04  0.19865383746E+04  0.18800000000E+03 0.  0.
<mgrwt>
<rscale>  0 0.12891156E+04</rscale>
<asrwt>0</asrwt>
<pdfrwt beam="1">  1        2 0.32657900E+00 0.12891156E+04</pdfrwt>
<pdfrwt beam="2">  1       -2 0.25962074E-01 0.12891156E+04</pdfrwt>
<totfact> 0.75126137E+01</totfact>
</mgrwt>
</event>
<event>
 4    1  0.6346694E-005  0.6452075E+03  0.7818608E-02  0.9815814E-01
         -2   -1    0    0    0  501 -0.00000000000E+00  0.00000000000E+00  0.42763073197E+02  0.42763073273E+02  0.25500000000E-02 0. -1.
          2   -1    0    0  501    0  0.00000000000E+00 -0.00000000000E+00 -0.24337159934E+04  0.24337159934E+04  0.25500000000E-02 0.  1.
    5000001    1    1    2    0    0  0.18075904124E+03  0.15694833835E+03 -0.78525625160E+03  0.84218643576E+03  0.18800000000E+03 0.  0.
   -5000001    1    1    2    0    0 -0.18075904124E+03 -0.15694833835E+03 -0.16056966686E+04  0.16342926309E+04  0.18800000000E+03 0.  0.
<mgrwt>
<rscale>  0 0.64520749E+03</rscale>
<asrwt>0</asrwt>
<pdfrwt beam="1">  1        2 0.34767362E+00 0.64520749E+03</pdfrwt>
<pdfrwt beam="2">  1       -2 0.61090120E-02 0.64520749E+03</pdfrwt>
<totfact> 0.74881690E+02</totfact>
</mgrwt>
</event>
<event>
 4    1  0.6346694E-005  0.1362049E+04  0.7818608E-02  0.8981757E-01
          2   -1    0    0  501    0  0.00000000000E+00  0.00000000000E+00  0.24322709644E+03  0.24322709645E+03  0.25500000000E-02 0.  1.
         -2   -1    0    0    0  501 -0.00000000000E+00 -0.00000000000E+00 -0.19068358356E+04  0.19068358356E+04  0.25500000000E-02 0. -1.
    5000001    1    1    2    0    0 -0.52290813194E+03  0.38320542658E+03 -0.97449374621E+03  0.11854372083E+04  0.18800000000E+03 0.  0.
   -5000001    1    1    2    0    0  0.52290813194E+03 -0.38320542658E+03 -0.68911499291E+03  0.96462572372E+03  0.18800000000E+03 0.  0.
<mgrwt>
<rscale>  0 0.13620487E+04</rscale>
<asrwt>0</asrwt>
<pdfrwt beam="1">  1        2 0.34746729E-01 0.13620487E+04</pdfrwt>
<pdfrwt beam="2">  1       -2 0.27240511E+00 0.13620487E+04</pdfrwt>
<totfact> 0.69299660E+00</totfact>
</mgrwt>
</event>
<event>
 4    1  0.6346694E-005  0.6677838E+03  0.7818608E-02  0.9773970E-01
          2   -1    0    0  501    0  0.00000000000E+00  0.00000000000E+00  0.29385085436E+04  0.29385085436E+04  0.25500000000E-02 0.  1.
         -2   -1    0    0    0  501 -0.00000000000E+00 -0.00000000000E+00 -0.37938902948E+02  0.37938903034E+02  0.25500000000E-02 0. -1.
    5000001    1    1    2    0    0 -0.84565557166E+02  0.23843232271E+03  0.95921347211E+03  0.10096711301E+04  0.18800000000E+03 0.  0.
   -5000001    1    1    2    0    0  0.84565557166E+02 -0.23843232271E+03  0.19413561685E+04  0.19667763165E+04  0.18800000000E+03 0.  0.
<mgrwt>
<rscale>  0 0.66778377E+03</rscale>
<asrwt>0</asrwt>
<pdfrwt beam="1">  1        2 0.41978698E+00 0.66778377E+03</pdfrwt>
<pdfrwt beam="2">  1       -2 0.54198427E-02 0.66778377E+03</pdfrwt>
<totfact> 0.48981830E+02</totfact>
</mgrwt>
</event>
<event>
 4    1  0.6346694E-005  0.6318475E+03  0.7818608E-02  0.9841450E-01
         -2   -1    0    0    0  501 -0.00000000000E+00  0.00000000000E+00  0.15938268324E+03  0.15938268326E+03  0.25500000000E-02 0. -1.
          2   -1    0    0  501    0  0.00000000000E+00 -0.00000000000E+00 -0.62621487060E+03  0.62621487060E+03  0.25500000000E-02 0.  1.
    5000001    1    1    2    0    0  0.19070208290E+03 -0.10335430830E+03 -0.39749102852E+03  0.49029839406E+03  0.18800000000E+03 0.  0.
   -5000001    1    1    2    0    0 -0.19070208290E+03  0.10335430830E+03 -0.69341158840E+02  0.29529915980E+03  0.18800000000E+03 0.  0.
<mgrwt>
<rscale>  0 0.63184747E+03</rscale>
<asrwt>0</asrwt>
<pdfrwt beam="1">  1        2 0.89459266E-01 0.63184747E+03</pdfrwt>
<pdfrwt beam="2">  1       -2 0.22768955E-01 0.63184747E+03</pdfrwt>
<totfact> 0.87680614E+02</totfact>
</mgrwt>
</event>
<event>
 4    1  0.6346694E-005  0.5248945E+03  0.7818608E-02  0.1007478E+00
          2   -1    0    0  501    0  0.00000000000E+00  0.00000000000E+00  0.26682622056E+03  0.26682622058E+03  0.25500000000E-02 0.  1.
         -2   -1    0    0    0  501 -0.00000000000E+00 -0.00000000000E+00 -0.25814019132E+03  0.25814019133E+03  0.25500000000E-02 0. -1.
    5000001    1    1    2    0    0 -0.38347405777E+02 -0.17124987922E+03 -0.47985530330E+02  0.26161738433E+03  0.18800000000E+03 0.  0.
   -5000001    1    1    2    0    0  0.38347405777E+02  0.17124987922E+03  0.56671559572E+02  0.26334902758E+03  0.18800000000E+03 0.  0.
<mgrwt>
<rscale>  0 0.52489455E+03</rscale>
<asrwt>0</asrwt>
<pdfrwt beam="1">  1        2 0.38118031E-01 0.52489455E+03</pdfrwt>
<pdfrwt beam="2">  1       -2 0.36877170E-01 0.52489455E+03</pdfrwt>
<totfact> 0.94386870E+02</totfact>
</mgrwt>
</event>
<event>
 4    1  0.6346694E-005  0.6959891E+03  0.7818608E-02  0.9724116E-01
         -2   -1    0    0    0  501 -0.00000000000E+00  0.00000000000E+00  0.19919221382E+04  0.19919221382E+04  0.25500000000E-02 0. -1.
          2   -1    0    0  501    0  0.00000000000E+00 -0.00000000000E+00 -0.60795657810E+02  0.60795657864E+02  0.25500000000E-02 0.  1.
    5000001    1    1    2    0    0  0.28973776323E+03 -0.14782424067E+01  0.10909041644E+04  0.11442753395E+04  0.18800000000E+03 0.  0.
   -5000001    1    1    2    0    0 -0.28973776323E+03  0.14782424067E+01  0.84022231604E+03  0.90844245664E+03  0.18800000000E+03 0.  0.
<mgrwt>
<rscale>  0 0.69598913E+03</rscale>
<asrwt>0</asrwt>
<pdfrwt beam="1">  1        2 0.86850926E-02 0.69598913E+03</pdfrwt>
<pdfrwt beam="2">  1       -2 0.28456035E+00 0.69598913E+03</pdfrwt>
<totfact> 0.32790785E+01</totfact>
</mgrwt>
</event>
<event>
 4    1  0.6346694E-005  0.6604654E+03  0.7818608E-02  0.9787337E-01
         -2   -1    0    0    0  501 -0.00000000000E+00  0.00000000000E+00  0.53483728829E+03  0.53483728829E+03  0.25500000000E-02 0. -1.
          2   -1    0    0  501    0  0.00000000000E+00 -0.00000000000E+00 -0.20390058001E+03  0.20390058002E+03  0.25500000000E-02 0.  1.
    5000001    1    1    2    0    0 -0.11388193272E+03 -0.24318635459E+02  0.43978680358E+03  0.49225696870E+03  0.18800000000E+03 0.  0.
   -5000001    1    1    2    0    0  0.11388193272E+03  0.24318635459E+02 -0.10885009530E+03  0.24648089962E+03  0.18800000000E+03 0.  0.
<mgrwt>
<rscale>  0 0.66046539E+03</rscale>
<asrwt>0</asrwt>
<pdfrwt beam="1">  1        2 0.29128654E-01 0.66046539E+03</pdfrwt>
<pdfrwt beam="2">  1       -2 0.76405327E-01 0.66046539E+03</pdfrwt>
<totfact> 0.28473219E+02</totfact>
</mgrwt>
</event>
<event>
 4    1  0.6346694E-005  0.4770375E+03  0.7818608E-02  0.1019953E+00
          2   -1    0    0  501    0  0.00000000000E+00  0.00000000000E+00  0.19715068411E+04  0.19715068411E+04  0.25500000000E-02 0.  1.
         -2   -1    0    0    0  501 -0.00000000000E+00 -0.00000000000E+00 -0.28856702427E+02  0.28856702539E+02  0.25500000000E-02 0. -1.
    5000001    1    1    2    0    0  0.37622047006E+02  0.12975357460E+03  0.73059219380E+03  0.76639439076E+03  0.18800000000E+03 0.  0.
   -5000001    1    1    2    0    0 -0.37622047006E+02 -0.12975357460E+03  0.12120579449E+04  0.12339691529E+04  0.18800000000E+03 0.  0.
<mgrwt>
<rscale>  0 0.47703747E+03</rscale>
<asrwt>0</asrwt>
<pdfrwt beam="1">  1        2 0.28164387E+00 0.47703747E+03</pdfrwt>
<pdfrwt beam="2">  1       -2 0.41223855E-02 0.47703747E+03</pdfrwt>
<totfact> 0.23762454E+03</totfact>
</mgrwt>
</event>
<event>
 4    1  0.6346694E-005  0.5631735E+03  0.7818608E-02  0.9984899E-01
          2   -1    0    0  501    0  0.00000000000E+00  0.00000000000E+00  0.11398158287E+04  0.11398158287E+04  0.25500000000E-02 0.  1.
         -2   -1    0    0    0  501 -0.00000000000E+00 -0.00000000000E+00 -0.69564837536E+02  0.69564837583E+02  0.25500000000E-02 0. -1.
    5000001    1    1    2    0    0 -0.10329886041E+03  0.16255389641E+03  0.71289243524E+03  0.76200659316E+03  0.18800000000E+03 0.  0.
   -5000001    1    1    2    0    0  0.10329886041E+03 -0.16255389641E+03  0.35735855588E+03  0.44737407308E+03  0.18800000000E+03 0.  0.
<mgrwt>
<rscale>  0 0.56317352E+03</rscale>
<asrwt>0</asrwt>
<pdfrwt beam="1">  1        2 0.16283084E+00 0.56317352E+03</pdfrwt>
<pdfrwt beam="2">  1       -2 0.99378336E-02 0.56317352E+03</pdfrwt>
<totfact> 0.16158974E+03</totfact>
</mgrwt>
</event>
<event>
 4    1  0.6346694E-005  0.5937677E+03  0.7818608E-02  0.9918421E-01
         -2   -1    0    0    0  501 -0.00000000000E+00  0.00000000000E+00  0.54997632296E+02  0.54997632355E+02  0.25500000000E-02 0. -1.
          2   -1    0    0  501    0  0.00000000000E+00 -0.00000000000E+00 -0.16026146916E+04  0.16026146916E+04  0.25500000000E-02 0.  1.
    5000001    1    1    2    0    0 -0.20216615569E+03 -0.98681708207E+02 -0.64326092284E+03  0.70692138806E+03  0.18800000000E+03 0.  0.
   -5000001    1    1    2    0    0  0.20216615569E+03  0.98681708207E+02 -0.90435613642E+03  0.95069093585E+03  0.18800000000E+03 0.  0.
<mgrwt>
<rscale>  0 0.59376768E+03</rscale>
<asrwt>0</asrwt>
<pdfrwt beam="1">  1        2 0.22894493E+00 0.59376768E+03</pdfrwt>
<pdfrwt beam="2">  1       -2 0.78568056E-02 0.59376768E+03</pdfrwt>
<totfact> 0.13286346E+03</totfact>
</mgrwt>
</event>
<event>
 4    1  0.6346694E-005  0.5231470E+03  0.7818608E-02  0.1007908E+00
         -2   -1    0    0    0  501 -0.00000000000E+00  0.00000000000E+00  0.76437705850E+02  0.76437705893E+02  0.25500000000E-02 0. -1.
          2   -1    0    0  501    0  0.00000000000E+00 -0.00000000000E+00 -0.89511692132E+03  0.89511692133E+03  0.25500000000E-02 0.  1.
    5000001    1    1    2    0    0 -0.12357123443E+03  0.12512449844E+03 -0.49546531904E+03  0.55835102979E+03  0.18800000000E+03 0.  0.
   -5000001    1    1    2    0    0  0.12357123443E+03 -0.12512449844E+03 -0.32321389643E+03  0.41320359743E+03  0.18800000000E+03 0.  0.
<mgrwt>
<rscale>  0 0.52314695E+03</rscale>
<asrwt>0</asrwt>
<pdfrwt beam="1">  1        2 0.12787384E+00 0.52314695E+03</pdfrwt>
<pdfrwt beam="2">  1       -2 0.10919673E-01 0.52314695E+03</pdfrwt>
<totfact> 0.19497393E+03</totfact>
</mgrwt>
</event>
<event>
 4    1  0.6346694E-005  0.6808038E+03  0.7818608E-02  0.9750635E-01
          2   -1    0    0  501    0  0.00000000000E+00  0.00000000000E+00  0.46172815875E+03  0.46172815876E+03  0.25500000000E-02 0.  1.
         -2   -1    0    0    0  501 -0.00000000000E+00 -0.00000000000E+00 -0.25095599896E+03  0.25095599897E+03  0.25500000000E-02 0. -1.
    5000001    1    1    2    0    0  0.40856465786E+02  0.14572418737E+03  0.35667846737E+03  0.43066032864E+03  0.18800000000E+03 0.  0.
   -5000001    1    1    2    0    0 -0.40856465786E+02 -0.14572418737E+03 -0.14590630758E+03  0.28202382909E+03  0.18800000000E+03 0.  0.
<mgrwt>
<rscale>  0 0.68080379E+03</rscale>
<asrwt>0</asrwt>
<pdfrwt beam="1">  1        2 0.65961166E-01 0.68080379E+03</pdfrwt>
<pdfrwt beam="2">  1       -2 0.35850857E-01 0.68080379E+03</pdfrwt>
<totfact> 0.54110319E+02</totfact>
</mgrwt>
</event>
<event>
 4    1  0.6346694E-005  0.5268298E+03  0.7818608E-02  0.1007004E+00
         -2   -1    0    0    0  501 -0.00000000000E+00  0.00000000000E+00  0.15644154475E+03  0.15644154477E+03  0.25500000000E-02 0.  1.
          2   -1    0    0  501    0  0.00000000000E+00 -0.00000000000E+00 -0.44353573642E+03  0.44353573643E+03  0.25500000000E-02 0. -1.
    5000001    1    1    2    0    0  0.17869890144E+03 -0.13564191576E+01 -0.91255915506E+02  0.27496686958E+03  0.18800000000E+03 0.  0.
   -5000001    1    1    2    0    0 -0.17869890144E+03  0.13564191576E+01 -0.19583827617E+03  0.32501041162E+03  0.18800000000E+03 0.  0.
<mgrwt>
<rscale>  0 0.52682982E+03</rscale>
<asrwt>0</asrwt>
<pdfrwt beam="1">  1        2 0.63362248E-01 0.52682982E+03</pdfrwt>
<pdfrwt beam="2">  1       -2 0.22348792E-01 0.52682982E+03</pdfrwt>
<totfact> 0.13478866E+03</totfact>
</mgrwt>
</event>
<event>
 4    1  0.6346694E-005  0.1019324E+04  0.7818608E-02  0.9287601E-01
          2   -1    0    0  501    0  0.00000000000E+00  0.00000000000E+00  0.11604819848E+04  0.11604819848E+04  0.25500000000E-02 0.  1.
         -2   -1    0    0    0  501 -0.00000000000E+00 -0.00000000000E+00 -0.22383402350E+03  0.22383402351E+03  0.25500000000E-02 0. -1.
    5000001    1    1    2    0    0 -0.12098761393E+03  0.42847771190E+03  0.24858380387E+03  0.54347866551E+03  0.18800000000E+03 0.  0.
   -5000001    1    1    2    0    0  0.12098761393E+03 -0.42847771190E+03  0.68806415747E+03  0.84083734284E+03  0.18800000000E+03 0.  0.
<mgrwt>
<rscale>  0 0.10193240E+04</rscale>
<asrwt>0</asrwt>
<pdfrwt beam="1">  1        2 0.16578314E+00 0.10193240E+04</pdfrwt>
<pdfrwt beam="2">  1       -2 0.31976289E-01 0.10193240E+04</pdfrwt>
<totfact> 0.20380184E+02</totfact>
</mgrwt>
</event>
<event>
 4    1  0.6346694E-005  0.7238948E+03  0.7818608E-02  0.9677219E-01
         -2   -1    0    0    0  501 -0.00000000000E+00  0.00000000000E+00  0.15912329925E+03  0.15912329927E+03  0.25500000000E-02 0. -1.
          2   -1    0    0  501    0  0.00000000000E+00 -0.00000000000E+00 -0.82329825674E+03  0.82329825674E+03  0.25500000000E-02 0.  1.
    5000001    1    1    2    0    0 -0.44322604496E+02  0.23849416038E+03 -0.71680653053E+02  0.31516039381E+03  0.18800000000E+03 0.  0.
   -5000001    1    1    2    0    0  0.44322604496E+02 -0.23849416038E+03 -0.59249430443E+03  0.66726116220E+03  0.18800000000E+03 0.  0.
<mgrwt>
<rscale>  0 0.72389484E+03</rscale>
<asrwt>0</asrwt>
<pdfrwt beam="1">  1        2 0.11761403E+00 0.72389484E+03</pdfrwt>
<pdfrwt beam="2">  1       -2 0.22731900E-01 0.72389484E+03</pdfrwt>
<totfact> 0.62489621E+02</totfact>
</mgrwt>
</event>
<event>
 4    1  0.6346694E-005  0.9717034E+03  0.7818608E-02  0.9340136E-01
          2   -1    0    0  501    0  0.00000000000E+00  0.00000000000E+00  0.11107901087E+04  0.11107901087E+04  0.25500000000E-02 0.  1.
         -2   -1    0    0    0  501 -0.00000000000E+00 -0.00000000000E+00 -0.21250807468E+03  0.21250807470E+03  0.25500000000E-02 0. -1.
    5000001    1    1    2    0    0  0.10263923384E+03  0.30464779461E+03  0.24208001672E+02  0.37319581781E+03  0.18800000000E+03 0.  0.
   -5000001    1    1    2    0    0 -0.10263923384E+03 -0.30464779461E+03  0.87407403233E+03  0.95010236558E+03  0.18800000000E+03 0.  0.
<mgrwt>
<rscale>  0 0.97170339E+03</rscale>
<asrwt>0</asrwt>
<pdfrwt beam="1">  1        2 0.15868430E+00 0.97170339E+03</pdfrwt>
<pdfrwt beam="2">  1       -2 0.30358297E-01 0.97170339E+03</pdfrwt>
<totfact> 0.24069002E+02</totfact>
</mgrwt>
</event>
<event>
 4    1  0.6346694E-005  0.7170574E+03  0.7818608E-02  0.9688498E-01
          2   -1    0    0  501    0  0.00000000000E+00  0.00000000000E+00  0.15216336119E+03  0.15216336121E+03  0.25500000000E-02 0.  1.
         -2   -1    0    0    0  501 -0.00000000000E+00 -0.00000000000E+00 -0.84476858149E+03  0.84476858150E+03  0.25500000000E-02 0. -1.
    5000001    1    1    2    0    0  0.26179258640E+03  0.13088727694E+03 -0.46696347617E+03  0.58229350472E+03  0.18800000000E+03 0.  0.
   -5000001    1    1    2    0    0 -0.26179258640E+03 -0.13088727694E+03 -0.22564174413E+03  0.41463843799E+03  0.18800000000E+03 0.  0.
<mgrwt>
<rscale>  0 0.71705739E+03</rscale>
<asrwt>0</asrwt>
<pdfrwt beam="1">  1        2 0.21737623E-01 0.71705739E+03</pdfrwt>
<pdfrwt beam="2">  1       -2 0.12068122E+00 0.71705739E+03</pdfrwt>
<totfact> 0.13633988E+02</totfact>
</mgrwt>
</event>
<event>
 4    1  0.6346694E-005  0.6911557E+03  0.7818608E-02  0.9732478E-01
         -2   -1    0    0    0  501 -0.00000000000E+00  0.00000000000E+00  0.86274895532E+02  0.86274895569E+02  0.25500000000E-02 0. -1.
          2   -1    0    0  501    0  0.00000000000E+00 -0.00000000000E+00 -0.13842272634E+04  0.13842272634E+04  0.25500000000E-02 0.  1.
    5000001    1    1    2    0    0 -0.74908740208E+02 -0.28008578290E+03 -0.65865557409E+03  0.74379468297E+03  0.18800000000E+03 0.  0.
   -5000001    1    1    2    0    0  0.74908740208E+02  0.28008578290E+03 -0.63929679381E+03  0.72670747603E+03  0.18800000000E+03 0.  0.
<mgrwt>
<rscale>  0 0.69115574E+03</rscale>
<asrwt>0</asrwt>
<pdfrwt beam="1">  1        2 0.19774674E+00 0.69115574E+03</pdfrwt>
<pdfrwt beam="2">  1       -2 0.12324986E-01 0.69115574E+03</pdfrwt>
<totfact> 0.82972484E+02</totfact>
</mgrwt>
</event>
<event>
 4    1  0.6346694E-005  0.5997341E+03  0.7818608E-02  0.9905958E-01
         -2   -1    0    0    0  501 -0.00000000000E+00  0.00000000000E+00  0.11248478786E+03  0.11248478789E+03  0.25500000000E-02 0.  1.
          2   -1    0    0  501    0  0.00000000000E+00 -0.00000000000E+00 -0.79939920896E+03  0.79939920896E+03  0.25500000000E-02 0. -1.
    5000001    1    1    2    0    0 -0.21611955587E+03  0.75471869810E+02 -0.41432831843E+03  0.50932859827E+03  0.18800000000E+03 0.  0.
   -5000001    1    1    2    0    0  0.21611955587E+03 -0.75471869810E+02 -0.27258610267E+03  0.40255539859E+03  0.18800000000E+03 0.  0.
<mgrwt>
<rscale>  0 0.59973411E+03</rscale>
<asrwt>0</asrwt>
<pdfrwt beam="1">  1        2 0.11419988E+00 0.59973411E+03</pdfrwt>
<pdfrwt beam="2">  1       -2 0.16069256E-01 0.59973411E+03</pdfrwt>
<totfact> 0.11885054E+03</totfact>
</mgrwt>
</event>
<event>
 4    1  0.6346694E-005  0.5293696E+03  0.7818608E-02  0.1006385E+00
          2   -1    0    0  501    0  0.00000000000E+00  0.00000000000E+00  0.31627252330E+03  0.31627252331E+03  0.25500000000E-02 0.  1.
         -2   -1    0    0    0  501 -0.00000000000E+00 -0.00000000000E+00 -0.22151166309E+03  0.22151166310E+03  0.25500000000E-02 0. -1.
    5000001    1    1    2    0    0 -0.15931367540E+03  0.72776485445E+02 -0.17165223991E+02  0.25751875450E+03  0.18800000000E+03 0.  0.
   -5000001    1    1    2    0    0  0.15931367540E+03 -0.72776485445E+02  0.11192608420E+03  0.28026543192E+03  0.18800000000E+03 0.  0.
<mgrwt>
<rscale>  0 0.52936964E+03</rscale>
<asrwt>0</asrwt>
<pdfrwt beam="1">  1        2 0.45181789E-01 0.52936964E+03</pdfrwt>
<pdfrwt beam="2">  1       -2 0.31644523E-01 0.52936964E+03</pdfrwt>
<totfact> 0.10441658E+03</totfact>
</mgrwt>
</event>
<event>
 4    1  0.6346694E-005  0.8757364E+03  0.7818608E-02  0.9456431E-01
          2   -1    0    0  501    0  0.00000000000E+00  0.00000000000E+00  0.37043321058E+03  0.37043321059E+03  0.25500000000E-02 0.  1.
         -2   -1    0    0    0  501 -0.00000000000E+00 -0.00000000000E+00 -0.51757930457E+03  0.51757930458E+03  0.25500000000E-02 0. -1.
    5000001    1    1    2    0    0  0.18995922127E+03  0.33006850703E+03 -0.18162588088E+03  0.46191090665E+03  0.18800000000E+03 0.  0.
   -5000001    1    1    2    0    0 -0.18995922127E+03 -0.33006850703E+03  0.34479786892E+02  0.42610160852E+03  0.18800000000E+03 0.  0.
<mgrwt>
<rscale>  0 0.87573641E+03</rscale>
<asrwt>0</asrwt>
<pdfrwt beam="1">  1        2 0.52919030E-01 0.87573641E+03</pdfrwt>
<pdfrwt beam="2">  1       -2 0.73939900E-01 0.87573641E+03</pdfrwt>
<totfact> 0.15608659E+02</totfact>
</mgrwt>
</event>
<event>
 4    1  0.6346694E-005  0.5518012E+03  0.7818608E-02  0.1001078E+00
          2   -1    0    0  501    0  0.00000000000E+00  0.00000000000E+00  0.25434687369E+04  0.25434687369E+04  0.25500000000E-02 0.  1.
         -2   -1    0    0    0  501 -0.00000000000E+00 -0.00000000000E+00 -0.29928081406E+02  0.29928081514E+02  0.25500000000E-02 0. -1.
    5000001    1    1    2    0    0  0.16160033852E+03 -0.64922749514E+02  0.78008646116E+03  0.82110201540E+03  0.18800000000E+03 0.  0.
   -5000001    1    1    2    0    0 -0.16160033852E+03  0.64922749514E+02  0.17334541944E+04  0.17522948031E+04  0.18800000000E+03 0.  0.
<mgrwt>
<rscale>  0 0.55180119E+03</rscale>
<asrwt>0</asrwt>
<pdfrwt beam="1">  1        2 0.36335268E+00 0.55180119E+03</pdfrwt>
<pdfrwt beam="2">  1       -2 0.42754401E-02 0.55180119E+03</pdfrwt>
<totfact> 0.11529647E+03</totfact>
</mgrwt>
</event>
<event>
 4    1  0.6346694E-005  0.4674589E+03  0.7818608E-02  0.1022640E+00
          2   -1    0    0  501    0  0.00000000000E+00  0.00000000000E+00  0.55668841904E+03  0.55668841904E+03  0.25500000000E-02 0.  1.
         -2   -1    0    0    0  501 -0.00000000000E+00 -0.00000000000E+00 -0.98132915237E+02  0.98132915270E+02  0.25500000000E-02 0. -1.
    5000001    1    1    2    0    0 -0.18083198878E+02 -0.92251776071E+02  0.86092819847E+02  0.22714173086E+03  0.18800000000E+03 0.  0.
   -5000001    1    1    2    0    0  0.18083198878E+02  0.92251776071E+02  0.37246268395E+03  0.42767960345E+03  0.18800000000E+03 0.  0.
<mgrwt>
<rscale>  0 0.46745891E+03</rscale>
<asrwt>0</asrwt>
<pdfrwt beam="1">  1        2 0.79526918E-01 0.46745891E+03</pdfrwt>
<pdfrwt beam="2">  1       -2 0.14018988E-01 0.46745891E+03</pdfrwt>
<totfact> 0.23124661E+03</totfact>
</mgrwt>
</event>
<event>
 4    1  0.6346694E-005  0.4342839E+03  0.7818608E-02  0.1032515E+00
          2   -1    0    0  501    0  0.00000000000E+00  0.00000000000E+00  0.18666951494E+04  0.18666951494E+04  0.25500000000E-02 0. -1.
         -2   -1    0    0    0  501 -0.00000000000E+00 -0.00000000000E+00 -0.25258879321E+02  0.25258879450E+02  0.25500000000E-02 0.  1.
    5000001    1    1    2    0    0 -0.70608290066E+02 -0.81252102590E+02  0.98521669464E+03  0.10087533743E+04  0.18800000000E+03 0.  0.
   -5000001    1    1    2    0    0  0.70608290066E+02  0.81252102590E+02  0.85621957541E+03  0.88320065451E+03  0.18800000000E+03 0.  0.
<mgrwt>
<rscale>  0 0.43428391E+03</rscale>
<asrwt>0</asrwt>
<pdfrwt beam="1">  1        2 0.26667085E+00 0.43428391E+03</pdfrwt>
<pdfrwt beam="2">  1       -2 0.36084098E-02 0.43428391E+03</pdfrwt>
<totfact> 0.32863765E+03</totfact>
</mgrwt>
</event>
<event>
 4    1  0.6346694E-005  0.5776742E+03  0.7818608E-02  0.9952839E-01
          2   -1    0    0  501    0  0.00000000000E+00  0.00000000000E+00  0.15922675339E+03  0.15922675341E+03  0.25500000000E-02 0.  1.
         -2   -1    0    0    0  501 -0.00000000000E+00 -0.00000000000E+00 -0.52395008236E+03  0.52395008237E+03  0.25500000000E-02 0. -1.
    5000001    1    1    2    0    0 -0.20521505852E+02 -0.12619914562E+03 -0.39304147966E+03  0.45406272837E+03  0.18800000000E+03 0.  0.
   -5000001    1    1    2    0    0  0.20521505852E+02  0.12619914562E+03  0.28318150695E+02  0.22911410741E+03  0.18800000000E+03 0.  0.
<mgrwt>
<rscale>  0 0.57767420E+03</rscale>
<asrwt>0</asrwt>
<pdfrwt beam="1">  1        2 0.22746679E-01 0.57767420E+03</pdfrwt>
<pdfrwt beam="2">  1       -2 0.74850011E-01 0.57767420E+03</pdfrwt>
<totfact> 0.39588003E+02</totfact>
</mgrwt>
</event>
<event>
 4    1  0.6346694E-005  0.9499313E+03  0.7818608E-02  0.9365231E-01
         -2   -1    0    0    0  501 -0.00000000000E+00  0.00000000000E+00  0.66454512241E+03  0.66454512241E+03  0.25500000000E-02 0. -1.
          2   -1    0    0  501    0  0.00000000000E+00 -0.00000000000E+00 -0.33946881928E+03  0.33946881929E+03  0.25500000000E-02 0.  1.
    5000001    1    1    2    0    0 -0.43460002275E+03 -0.10093731159E+02  0.20019353898E+03  0.51419890726E+03  0.18800000000E+03 0.  0.
   -5000001    1    1    2    0    0  0.43460002275E+03  0.10093731159E+02  0.12488276414E+03  0.48981503444E+03  0.18800000000E+03 0.  0.
<mgrwt>
<rscale>  0 0.94993126E+03</rscale>
<asrwt>0</asrwt>
<pdfrwt beam="1">  1        2 0.48495546E-01 0.94993126E+03</pdfrwt>
<pdfrwt beam="2">  1       -2 0.94935016E-01 0.94993126E+03</pdfrwt>
<totfact> 0.97145804E+01</totfact>
</mgrwt>
</event>
<event>
 4    1  0.6346694E-005  0.6879596E+03  0.7818608E-02  0.9738047E-01
          2   -1    0    0  501    0  0.00000000000E+00  0.00000000000E+00  0.15880208348E+03  0.15880208350E+03  0.25500000000E-02 0.  1.
         -2   -1    0    0    0  501 -0.00000000000E+00 -0.00000000000E+00 -0.74509164558E+03  0.74509164558E+03  0.25500000000E-02 0. -1.
    5000001    1    1    2    0    0  0.31718717160E+02  0.86497964751E+02  0.65449865056E+02  0.21935282027E+03  0.18800000000E+03 0.  0.
   -5000001    1    1    2    0    0 -0.31718717160E+02 -0.86497964751E+02 -0.65173942716E+03  0.68454090881E+03  0.18800000000E+03 0.  0.
<mgrwt>
<rscale>  0 0.68795961E+03</rscale>
<asrwt>0</asrwt>
<pdfrwt beam="1">  1        2 0.22686012E-01 0.68795961E+03</pdfrwt>
<pdfrwt beam="2">  1       -2 0.10644166E+00 0.68795961E+03</pdfrwt>
<totfact> 0.17628532E+02</totfact>
</mgrwt>
</event>
<event>
 4    1  0.6346694E-005  0.7207624E+03  0.7818608E-02  0.9682370E-01
         -2   -1    0    0    0  501 -0.00000000000E+00  0.00000000000E+00  0.94669777830E+02  0.94669777864E+02  0.25500000000E-02 0. -1.
          2   -1    0    0  501    0  0.00000000000E+00 -0.00000000000E+00 -0.13718698784E+04  0.13718698784E+04  0.25500000000E-02 0.  1.
    5000001    1    1    2    0    0  0.11438909901E+03  0.17147071403E+03 -0.11027786471E+04  0.11375200289E+04  0.18800000000E+03 0.  0.
   -5000001    1    1    2    0    0 -0.11438909901E+03 -0.17147071403E+03 -0.17442145350E+03  0.32901962736E+03  0.18800000000E+03 0.  0.
<mgrwt>
<rscale>  0 0.72076242E+03</rscale>
<asrwt>0</asrwt>
<pdfrwt beam="1">  1        2 0.19598140E+00 0.72076242E+03</pdfrwt>
<pdfrwt beam="2">  1       -2 0.13524255E-01 0.72076242E+03</pdfrwt>
<totfact> 0.72102758E+02</totfact>
</mgrwt>
</event>
<event>
 4    1  0.6346694E-005  0.9633109E+03  0.7818608E-02  0.9349726E-01
          2   -1    0    0  501    0  0.00000000000E+00  0.00000000000E+00  0.18136373039E+04  0.18136373039E+04  0.25500000000E-02 0.  1.
         -2   -1    0    0    0  501 -0.00000000000E+00 -0.00000000000E+00 -0.12791531611E+03  0.12791531613E+03  0.25500000000E-02 0. -1.
    5000001    1    1    2    0    0 -0.33438973018E+03  0.23291241913E+03  0.49038879729E+03  0.66474796663E+03  0.18800000000E+03 0.  0.
   -5000001    1    1    2    0    0  0.33438973018E+03 -0.23291241913E+03  0.11953331905E+04  0.12768046534E+04  0.18800000000E+03 0.  0.
<mgrwt>
<rscale>  0 0.96331093E+03</rscale>
<asrwt>0</asrwt>
<pdfrwt beam="1">  1        2 0.25909103E+00 0.96331093E+03</pdfrwt>
<pdfrwt beam="2">  1       -2 0.18273618E-01 0.96331093E+03</pdfrwt>
<totfact> 0.25068733E+02</totfact>
</mgrwt>
</event>
<event>
 4    1  0.6346694E-005  0.1217319E+04  0.7818608E-02  0.9097831E-01
          2   -1    0    0  501    0  0.00000000000E+00  0.00000000000E+00  0.65848009565E+03  0.65848009565E+03  0.25500000000E-02 0.  1.
         -2   -1    0    0    0  501 -0.00000000000E+00 -0.00000000000E+00 -0.56260819215E+03  0.56260819216E+03  0.25500000000E-02 0. -1.
    5000001    1    1    2    0    0 -0.25123901047E+03  0.27883968544E+03  0.49003835999E+03  0.64525514707E+03  0.18800000000E+03 0.  0.
   -5000001    1    1    2    0    0  0.25123901047E+03 -0.27883968544E+03 -0.39416645649E+03  0.57583314075E+03  0.18800000000E+03 0.  0.
<mgrwt>
<rscale>  0 0.12173189E+04</rscale>
<asrwt>0</asrwt>
<pdfrwt beam="1">  1        2 0.94068585E-01 0.12173189E+04</pdfrwt>
<pdfrwt beam="2">  1       -2 0.80372599E-01 0.12173189E+04</pdfrwt>
<totfact> 0.65505922E+01</totfact>
</mgrwt>
</event>
<event>
 4    1  0.6346694E-005  0.7372612E+03  0.7818608E-02  0.9655550E-01
         -2   -1    0    0    0  501 -0.00000000000E+00  0.00000000000E+00  0.86832303272E+02  0.86832303309E+02  0.25500000000E-02 0. -1.
          2   -1    0    0  501    0  0.00000000000E+00 -0.00000000000E+00 -0.15649534673E+04  0.15649534673E+04  0.25500000000E-02 0.  1.
    5000001    1    1    2    0    0 -0.12215243159E+03 -0.17279719389E+03 -0.20999321699E+03  0.35245033401E+03  0.18800000000E+03 0.  0.
   -5000001    1    1    2    0    0  0.12215243159E+03  0.17279719389E+03 -0.12681279470E+04  0.12993354366E+04  0.18800000000E+03 0.  0.
<mgrwt>
<rscale>  0 0.73726119E+03</rscale>
<asrwt>0</asrwt>
<pdfrwt beam="1">  1        2 0.22356476E+00 0.73726119E+03</pdfrwt>
<pdfrwt beam="2">  1       -2 0.12404616E-01 0.73726119E+03</pdfrwt>
<totfact> 0.65786461E+02</totfact>
</mgrwt>
</event>
<event>
 4    1  0.6346694E-005  0.7754609E+03  0.7818608E-02  0.9596232E-01
         -2   -1    0    0    0  501 -0.00000000000E+00  0.00000000000E+00  0.58228189269E+03  0.58228189270E+03  0.25500000000E-02 0. -1.
          2   -1    0    0  501    0  0.00000000000E+00 -0.00000000000E+00 -0.25818231700E+03  0.25818231701E+03  0.25500000000E-02 0.  1.
    5000001    1    1    2    0    0 -0.90107323652E+02 -0.23783835219E+03  0.40513730432E+03  0.51397144561E+03  0.18800000000E+03 0.  0.
   -5000001    1    1    2    0    0  0.90107323652E+02  0.23783835219E+03 -0.81037728629E+02  0.32649276410E+03  0.18800000000E+03 0.  0.
<mgrwt>
<rscale>  0 0.77546086E+03</rscale>
<asrwt>0</asrwt>
<pdfrwt beam="1">  1        2 0.36883189E-01 0.77546086E+03</pdfrwt>
<pdfrwt beam="2">  1       -2 0.83183126E-01 0.77546086E+03</pdfrwt>
<totfact> 0.17991170E+02</totfact>
</mgrwt>
</event>
<event>
 4    1  0.6346694E-005  0.4861831E+03  0.7818608E-02  0.1017450E+00
         -2   -1    0    0    0  501 -0.00000000000E+00  0.00000000000E+00  0.35896263937E+02  0.35896264027E+02  0.25500000000E-02 0. -1.
          2   -1    0    0  501    0  0.00000000000E+00 -0.00000000000E+00 -0.16462295312E+04  0.16462295312E+04  0.25500000000E-02 0.  1.
    5000001    1    1    2    0    0 -0.10550726410E+03 -0.10468033393E+03 -0.66421244104E+03  0.70612457961E+03  0.18800000000E+03 0.  0.
   -5000001    1    1    2    0    0  0.10550726410E+03  0.10468033393E+03 -0.94612082622E+03  0.97600121562E+03  0.18800000000E+03 0.  0.
<mgrwt>
<rscale>  0 0.48618305E+03</rscale>
<asrwt>0</asrwt>
<pdfrwt beam="1">  1        2 0.23517560E+00 0.48618305E+03</pdfrwt>
<pdfrwt beam="2">  1       -2 0.51280388E-02 0.48618305E+03</pdfrwt>
<totfact> 0.24723413E+03</totfact>
</mgrwt>
</event>
<event>
 4    1  0.6346694E-005  0.6638974E+03  0.7818608E-02  0.9781046E-01
          2   -1    0    0  501    0  0.00000000000E+00  0.00000000000E+00  0.68406825508E+03  0.68406825508E+03  0.25500000000E-02 0.  1.
         -2   -1    0    0    0  501 -0.00000000000E+00 -0.00000000000E+00 -0.16108030812E+03  0.16108030814E+03  0.25500000000E-02 0. -1.
    5000001    1    1    2    0    0 -0.20983604819E+03 -0.15602366359E+03  0.15908679818E+03  0.35920350788E+03  0.18800000000E+03 0.  0.
   -5000001    1    1    2    0    0  0.20983604819E+03  0.15602366359E+03  0.36390114878E+03  0.48594505534E+03  0.18800000000E+03 0.  0.
<mgrwt>
<rscale>  0 0.66389736E+03</rscale>
<asrwt>0</asrwt>
<pdfrwt beam="1">  1        2 0.97724038E-01 0.66389736E+03</pdfrwt>
<pdfrwt beam="2">  1       -2 0.23011472E-01 0.66389736E+03</pdfrwt>
<totfact> 0.77307009E+02</totfact>
</mgrwt>
</event>
<event>
 4    1  0.6346694E-005  0.4861575E+03  0.7818608E-02  0.1017457E+00
         -2   -1    0    0    0  501 -0.00000000000E+00  0.00000000000E+00  0.74531369969E+02  0.74531370013E+02  0.25500000000E-02 0. -1.
          2   -1    0    0  501    0  0.00000000000E+00 -0.00000000000E+00 -0.79278393919E+03  0.79278393919E+03  0.25500000000E-02 0.  1.
    5000001    1    1    2    0    0 -0.11062234861E+03  0.10524989997E+03 -0.32219973027E+03  0.40307755040E+03  0.18800000000E+03 0.  0.
   -5000001    1    1    2    0    0  0.11062234861E+03 -0.10524989997E+03 -0.39605283895E+03  0.46423775880E+03  0.18800000000E+03 0.  0.
<mgrwt>
<rscale>  0 0.48615748E+03</rscale>
<asrwt>0</asrwt>
<pdfrwt beam="1">  1        2 0.11325484E+00 0.48615748E+03</pdfrwt>
<pdfrwt beam="2">  1       -2 0.10647339E-01 0.48615748E+03</pdfrwt>
<totfact> 0.23770872E+03</totfact>
</mgrwt>
</event>
<event>
 4    1  0.6346694E-005  0.5946258E+03  0.7818608E-02  0.9916619E-01
          2   -1    0    0  501    0  0.00000000000E+00  0.00000000000E+00  0.65630053741E+03  0.65630053741E+03  0.25500000000E-02 0.  1.
         -2   -1    0    0    0  501 -0.00000000000E+00 -0.00000000000E+00 -0.13468670589E+03  0.13468670592E+03  0.25500000000E-02 0. -1.
    5000001    1    1    2    0    0 -0.66254777067E+02 -0.20148527727E+03  0.38026799775E+03  0.47427182349E+03  0.18800000000E+03 0.  0.
   -5000001    1    1    2    0    0  0.66254777067E+02  0.20148527727E+03  0.14134583377E+03  0.31671541984E+03  0.18800000000E+03 0.  0.
<mgrwt>
<rscale>  0 0.59462579E+03</rscale>
<asrwt>0</asrwt>
<pdfrwt beam="1">  1        2 0.93757218E-01 0.59462579E+03</pdfrwt>
<pdfrwt beam="2">  1       -2 0.19240958E-01 0.59462579E+03</pdfrwt>
<totfact> 0.11141916E+03</totfact>
</mgrwt>
</event>
<event>
 4    1  0.6346694E-005  0.9126512E+03  0.7818608E-02  0.9409904E-01
         -2   -1    0    0    0  501 -0.00000000000E+00  0.00000000000E+00  0.43958891141E+03  0.43958891142E+03  0.25500000000E-02 0. -1.
          2   -1    0    0  501    0  0.00000000000E+00 -0.00000000000E+00 -0.47369947652E+03  0.47369947652E+03  0.25500000000E-02 0.  1.
    5000001    1    1    2    0    0 -0.18856257733E+03  0.24379789886E+03 -0.29634829983E+03  0.46707555692E+03  0.18800000000E+03 0.  0.
   -5000001    1    1    2    0    0  0.18856257733E+03 -0.24379789886E+03  0.26223773473E+03  0.44621283103E+03  0.18800000000E+03 0.  0.
<mgrwt>
<rscale>  0 0.91265116E+03</rscale>
<asrwt>0</asrwt>
<pdfrwt beam="1">  1        2 0.67671353E-01 0.91265116E+03</pdfrwt>
<pdfrwt beam="2">  1       -2 0.62798416E-01 0.91265116E+03</pdfrwt>
<totfact> 0.16843276E+02</totfact>
</mgrwt>
</event>
<event>
 4    1  0.6346694E-005  0.5893972E+03  0.7818608E-02  0.9927651E-01
          2   -1    0    0  501    0  0.00000000000E+00  0.00000000000E+00  0.14013671596E+04  0.14013671596E+04  0.25500000000E-02 0.  1.
         -2   -1    0    0    0  501 -0.00000000000E+00 -0.00000000000E+00 -0.61973241864E+02  0.61973241917E+02  0.25500000000E-02 0. -1.
    5000001    1    1    2    0    0  0.53855031654E+02 -0.21752930617E+03  0.75865870778E+03  0.81309679520E+03  0.18800000000E+03 0.  0.
   -5000001    1    1    2    0    0 -0.53855031654E+02  0.21752930617E+03  0.58073520995E+03  0.65024360632E+03  0.18800000000E+03 0.  0.
<mgrwt>
<rscale>  0 0.58939720E+03</rscale>
<asrwt>0</asrwt>
<pdfrwt beam="1">  1        2 0.20019531E+00 0.58939720E+03</pdfrwt>
<pdfrwt beam="2">  1       -2 0.88533201E-02 0.58939720E+03</pdfrwt>
<totfact> 0.13979778E+03</totfact>
</mgrwt>
</event>
<event>
 4    1  0.6346694E-005  0.4402781E+03  0.7818608E-02  0.1030662E+00
          2   -1    0    0  501    0  0.00000000000E+00  0.00000000000E+00  0.20268283771E+04  0.20268283771E+04  0.25500000000E-02 0.  1.
         -2   -1    0    0    0  501 -0.00000000000E+00 -0.00000000000E+00 -0.23909872908E+02  0.23909873044E+02  0.25500000000E-02 0. -1.
    5000001    1    1    2    0    0  0.18851703254E+02 -0.11058440193E+03  0.11089846399E+04  0.11303872028E+04  0.18800000000E+03 0.  0.
   -5000001    1    1    2    0    0 -0.18851703254E+02  0.11058440193E+03  0.89393386431E+03  0.92035104738E+03  0.18800000000E+03 0.  0.
<mgrwt>
<rscale>  0 0.44027814E+03</rscale>
<asrwt>0</asrwt>
<pdfrwt beam="1">  1        2 0.28954682E+00 0.44027814E+03</pdfrwt>
<pdfrwt beam="2">  1       -2 0.34156972E-02 0.44027814E+03</pdfrwt>
<totfact> 0.29734165E+03</totfact>
</mgrwt>
</event>
<event>
 4    1  0.6346694E-005  0.9435793E+03  0.7818608E-02  0.9372687E-01
         -2   -1    0    0    0  501 -0.00000000000E+00  0.00000000000E+00  0.17644359580E+03  0.17644359582E+03  0.25500000000E-02 0. -1.
          2   -1    0    0  501    0  0.00000000000E+00 -0.00000000000E+00 -0.12615107375E+04  0.12615107375E+04  0.25500000000E-02 0.  1.
    5000001    1    1    2    0    0 -0.36476599038E+03  0.17385821003E+03 -0.77842675248E+03  0.89697999639E+03  0.18800000000E+03 0.  0.
   -5000001    1    1    2    0    0  0.36476599038E+03 -0.17385821003E+03 -0.30664038922E+03  0.54097433695E+03  0.18800000000E+03 0.  0.
<mgrwt>
<rscale>  0 0.94357934E+03</rscale>
<asrwt>0</asrwt>
<pdfrwt beam="1">  1        2 0.18021581E+00 0.94357934E+03</pdfrwt>
<pdfrwt beam="2">  1       -2 0.25206229E-01 0.94357934E+03</pdfrwt>
<totfact> 0.27813006E+02</totfact>
</mgrwt>
</event>
<event>
 4    1  0.6346694E-005  0.4989313E+03  0.7818608E-02  0.1014058E+00
         -2   -1    0    0    0  501 -0.00000000000E+00  0.00000000000E+00  0.12699401009E+03  0.12699401011E+03  0.25500000000E-02 0. -1.
          2   -1    0    0  501    0  0.00000000000E+00 -0.00000000000E+00 -0.49004760833E+03  0.49004760834E+03  0.25500000000E-02 0.  1.
    5000001    1    1    2    0    0  0.26125497542E+02 -0.13488437753E+03 -0.29223126811E+03  0.37365686262E+03  0.18800000000E+03 0.  0.
   -5000001    1    1    2    0    0 -0.26125497542E+02  0.13488437753E+03 -0.70822330128E+02  0.24338475582E+03  0.18800000000E+03 0.  0.
<mgrwt>
<rscale>  0 0.49893130E+03</rscale>
<asrwt>0</asrwt>
<pdfrwt beam="1">  1        2 0.70006800E-01 0.49893130E+03</pdfrwt>
<pdfrwt beam="2">  1       -2 0.18142002E-01 0.49893130E+03</pdfrwt>
<totfact> 0.17313859E+03</totfact>
</mgrwt>
</event>
<event>
 4    1  0.6346694E-005  0.4922281E+03  0.7818608E-02  0.1015828E+00
          2   -1    0    0  501    0  0.00000000000E+00  0.00000000000E+00  0.88590443091E+03  0.88590443091E+03  0.25500000000E-02 0.  1.
         -2   -1    0    0    0  501 -0.00000000000E+00 -0.00000000000E+00 -0.68373202353E+02  0.68373202401E+02  0.25500000000E-02 0. -1.
    5000001    1    1    2    0    0  0.13898033815E+03  0.13747197508E+02  0.55543622730E+03  0.60279177369E+03  0.18800000000E+03 0.  0.
   -5000001    1    1    2    0    0 -0.13898033815E+03 -0.13747197508E+02  0.26209500125E+03  0.35148585962E+03  0.18800000000E+03 0.  0.
<mgrwt>
<rscale>  0 0.49222809E+03</rscale>
<asrwt>0</asrwt>
<pdfrwt beam="1">  1        2 0.12655776E+00 0.49222809E+03</pdfrwt>
<pdfrwt beam="2">  1       -2 0.97676014E-02 0.49222809E+03</pdfrwt>
<totfact> 0.23677468E+03</totfact>
</mgrwt>
</event>
<event>
 4    1  0.6346694E-005  0.9742628E+03  0.7818608E-02  0.9337232E-01
         -2   -1    0    0    0  501 -0.00000000000E+00  0.00000000000E+00  0.15593335409E+03  0.15593335411E+03  0.25500000000E-02 0. -1.
          2   -1    0    0  501    0  0.00000000000E+00 -0.00000000000E+00 -0.15217847813E+04  0.15217847813E+04  0.25500000000E-02 0.  1.
    5000001    1    1    2    0    0 -0.34133928667E+03  0.28387743474E+03 -0.80290248513E+03  0.93653366582E+03  0.18800000000E+03 0.  0.
   -5000001    1    1    2    0    0  0.34133928667E+03 -0.28387743474E+03 -0.56294894205E+03  0.74118446957E+03  0.18800000000E+03 0.  0.
<mgrwt>
<rscale>  0 0.97426281E+03</rscale>
<asrwt>0</asrwt>
<pdfrwt beam="1">  1        2 0.21739782E+00 0.97426281E+03</pdfrwt>
<pdfrwt beam="2">  1       -2 0.22276194E-01 0.97426281E+03</pdfrwt>
<totfact> 0.25064523E+02</totfact>
</mgrwt>
</event>
<event>
 4    1  0.6346694E-005  0.9148315E+03  0.7818608E-02  0.9407229E-01
         -2   -1    0    0    0  501 -0.00000000000E+00  0.00000000000E+00  0.62929364702E+03  0.62929364702E+03  0.25500000000E-02 0. -1.
          2   -1    0    0  501    0  0.00000000000E+00 -0.00000000000E+00 -0.33248253994E+03  0.33248253995E+03  0.25500000000E-02 0.  1.
    5000001    1    1    2    0    0  0.95932934821E+02  0.30614108785E+03 -0.13164644806E+03  0.39446201457E+03  0.18800000000E+03 0.  0.
   -5000001    1    1    2    0    0 -0.95932934821E+02 -0.30614108785E+03  0.42845755514E+03  0.56731417240E+03  0.18800000000E+03 0.  0.
<mgrwt>
<rscale>  0 0.91483146E+03</rscale>
<asrwt>0</asrwt>
<pdfrwt beam="1">  1        2 0.47497506E-01 0.91483146E+03</pdfrwt>
<pdfrwt beam="2">  1       -2 0.89899092E-01 0.91483146E+03</pdfrwt>
<totfact> 0.11303418E+02</totfact>
</mgrwt>
</event>
<event>
 4    1  0.6346694E-005  0.4767233E+03  0.7818608E-02  0.1020040E+00
          2   -1    0    0  501    0  0.00000000000E+00  0.00000000000E+00  0.23084075389E+04  0.23084075389E+04  0.25500000000E-02 0.  1.
         -2   -1    0    0    0  501 -0.00000000000E+00 -0.00000000000E+00 -0.24612754505E+02  0.24612754637E+02  0.25500000000E-02 0. -1.
    5000001    1    1    2    0    0 -0.50245898144E+02  0.18391899008E+02  0.47429506786E+03  0.51299388264E+03  0.18800000000E+03 0.  0.
   -5000001    1    1    2    0    0  0.50245898144E+02 -0.18391899008E+02  0.18094997165E+04  0.18200264109E+04  0.18800000000E+03 0.  0.
<mgrwt>
<rscale>  0 0.47672327E+03</rscale>
<asrwt>0</asrwt>
<pdfrwt beam="1">  1        2 0.32977245E+00 0.47672327E+03</pdfrwt>
<pdfrwt beam="2">  1       -2 0.35161084E-02 0.47672327E+03</pdfrwt>
<totfact> 0.20560367E+03</totfact>
</mgrwt>
</event>
<event>
 4    1  0.6346694E-005  0.4987028E+03  0.7818608E-02  0.1014118E+00
         -2   -1    0    0    0  501 -0.00000000000E+00  0.00000000000E+00  0.14411841368E+02  0.14411841593E+02  0.25500000000E-02 0. -1.
          2   -1    0    0  501    0  0.00000000000E+00 -0.00000000000E+00 -0.43142377902E+04  0.43142377902E+04  0.25500000000E-02 0.  1.
    5000001    1    1    2    0    0 -0.11971044973E+03  0.10166380745E+03 -0.25538734247E+04  0.25655953677E+04  0.18800000000E+03 0.  0.
   -5000001    1    1    2    0    0  0.11971044973E+03 -0.10166380745E+03 -0.17459525242E+04  0.17630542641E+04  0.18800000000E+03 0.  0.
<mgrwt>
<rscale>  0 0.49870276E+03</rscale>
<asrwt>0</asrwt>
<pdfrwt beam="1">  1        2 0.61631886E+00 0.49870276E+03</pdfrwt>
<pdfrwt beam="2">  1       -2 0.20588373E-02 0.49870276E+03</pdfrwt>
<totfact> 0.31039814E+02</totfact>
</mgrwt>
</event>
<event>
 4    1  0.6346694E-005  0.8074191E+03  0.7818608E-02  0.9549340E-01
          2   -1    0    0  501    0  0.00000000000E+00  0.00000000000E+00  0.13180151687E+04  0.13180151687E+04  0.25500000000E-02 0.  1.
         -2   -1    0    0    0  501 -0.00000000000E+00 -0.00000000000E+00 -0.12365669798E+03  0.12365669801E+03  0.25500000000E-02 0. -1.
    5000001    1    1    2    0    0  0.34868004492E+03 -0.44969820996E+02  0.71063206709E+03  0.81482635776E+03  0.18800000000E+03 0.  0.
   -5000001    1    1    2    0    0 -0.34868004492E+03  0.44969820996E+02  0.48372640363E+03  0.62684550896E+03  0.18800000000E+03 0.  0.
<mgrwt>
<rscale>  0 0.80741911E+03</rscale>
<asrwt>0</asrwt>
<pdfrwt beam="1">  1        2 0.18828788E+00 0.80741911E+03</pdfrwt>
<pdfrwt beam="2">  1       -2 0.17665243E-01 0.80741911E+03</pdfrwt>
<totfact> 0.48819969E+02</totfact>
</mgrwt>
</event>
<event>
 4    1  0.6346694E-005  0.5150256E+03  0.7818608E-02  0.1009930E+00
         -2   -1    0    0    0  501 -0.00000000000E+00  0.00000000000E+00  0.24421484393E+03  0.24421484395E+03  0.25500000000E-02 0. -1.
          2   -1    0    0  501    0  0.00000000000E+00 -0.00000000000E+00 -0.27153484656E+03  0.27153484658E+03  0.25500000000E-02 0.  1.
    5000001    1    1    2    0    0 -0.13819382676E+03 -0.10738005304E+03 -0.32147556292E+02  0.25885415763E+03  0.18800000000E+03 0.  0.
   -5000001    1    1    2    0    0  0.13819382676E+03  0.10738005304E+03  0.48275536607E+01  0.25689553289E+03  0.18800000000E+03 0.  0.
<mgrwt>
<rscale>  0 0.51502559E+03</rscale>
<asrwt>0</asrwt>
<pdfrwt beam="1">  1        2 0.38790692E-01 0.51502559E+03</pdfrwt>
<pdfrwt beam="2">  1       -2 0.34887835E-01 0.51502559E+03</pdfrwt>
<totfact> 0.10286021E+03</totfact>
</mgrwt>
</event>
<event>
 4    1  0.6346694E-005  0.4205363E+03  0.7818608E-02  0.1036892E+00
          2   -1    0    0  501    0  0.00000000000E+00  0.00000000000E+00  0.94167559445E+03  0.94167559446E+03  0.25500000000E-02 0.  1.
         -2   -1    0    0    0  501 -0.00000000000E+00 -0.00000000000E+00 -0.46951086972E+02  0.46951087041E+02  0.25500000000E-02 0. -1.
    5000001    1    1    2    0    0 -0.82191568192E+02  0.57362616062E+01  0.55458709250E+03  0.59135370274E+03  0.18800000000E+03 0.  0.
   -5000001    1    1    2    0    0  0.82191568192E+02 -0.57362616062E+01  0.34013741498E+03  0.39727297875E+03  0.18800000000E+03 0.  0.
<mgrwt>
<rscale>  0 0.42053629E+03</rscale>
<asrwt>0</asrwt>
<pdfrwt beam="1">  1        2 0.13452509E+00 0.42053629E+03</pdfrwt>
<pdfrwt beam="2">  1       -2 0.67072981E-02 0.42053629E+03</pdfrwt>
<totfact> 0.39571579E+03</totfact>
</mgrwt>
</event>
<event>
 4    1  0.6346694E-005  0.9686382E+03  0.7818608E-02  0.9343627E-01
         -2   -1    0    0    0  501 -0.00000000000E+00  0.00000000000E+00  0.11421573681E+03  0.11421573684E+03  0.25500000000E-02 0.  1.
          2   -1    0    0  501    0  0.00000000000E+00 -0.00000000000E+00 -0.20537009970E+04  0.20537009970E+04  0.25500000000E-02 0. -1.
    5000001    1    1    2    0    0  0.25163934213E+03 -0.36344440007E+03 -0.83165332827E+03  0.96041941300E+03  0.18800000000E+03 0.  0.
   -5000001    1    1    2    0    0 -0.25163934213E+03  0.36344440007E+03 -0.11078319319E+04  0.12074973209E+04  0.18800000000E+03 0.  0.
<mgrwt>
<rscale>  0 0.96863816E+03</rscale>
<asrwt>0</asrwt>
<pdfrwt beam="1">  1        2 0.29338583E+00 0.96863816E+03</pdfrwt>
<pdfrwt beam="2">  1       -2 0.16316535E-01 0.96863816E+03</pdfrwt>
<totfact> 0.22973188E+02</totfact>
</mgrwt>
</event>
<event>
 4    1  0.6346694E-005  0.6440421E+03  0.7818608E-02  0.9818023E-01
         -2   -1    0    0    0  501 -0.00000000000E+00  0.00000000000E+00  0.13125735979E+03  0.13125735982E+03  0.25500000000E-02 0. -1.
          2   -1    0    0  501    0  0.00000000000E+00 -0.00000000000E+00 -0.79003229669E+03  0.79003229669E+03  0.25500000000E-02 0.  1.
    5000001    1    1    2    0    0  0.13340333846E+03  0.21212043824E+03 -0.22270370910E+03  0.38435982241E+03  0.18800000000E+03 0.  0.
   -5000001    1    1    2    0    0 -0.13340333846E+03 -0.21212043824E+03 -0.43607122780E+03  0.53692983410E+03  0.18800000000E+03 0.  0.
<mgrwt>
<rscale>  0 0.64404209E+03</rscale>
<asrwt>0</asrwt>
<pdfrwt beam="1">  1        2 0.11286175E+00 0.64404209E+03</pdfrwt>
<pdfrwt beam="2">  1       -2 0.18751052E-01 0.64404209E+03</pdfrwt>
<totfact> 0.92551367E+02</totfact>
</mgrwt>
</event>
<event>
 4    1  0.6346694E-005  0.7840081E+03  0.7818608E-02  0.9583458E-01
         -2   -1    0    0    0  501 -0.00000000000E+00  0.00000000000E+00  0.93605493537E+02  0.93605493571E+02  0.25500000000E-02 0. -1.
          2   -1    0    0  501    0  0.00000000000E+00 -0.00000000000E+00 -0.16416469319E+04  0.16416469319E+04  0.25500000000E-02 0.  1.
    5000001    1    1    2    0    0  0.26273677699E+03 -0.18718013802E+03 -0.10382879378E+04  0.11033824630E+04  0.18800000000E+03 0.  0.
   -5000001    1    1    2    0    0 -0.26273677699E+03  0.18718013802E+03 -0.50975350062E+03  0.63186996244E+03  0.18800000000E+03 0.  0.
<mgrwt>
<rscale>  0 0.78400809E+03</rscale>
<asrwt>0</asrwt>
<pdfrwt beam="1">  1        2 0.23452097E+00 0.78400809E+03</pdfrwt>
<pdfrwt beam="2">  1       -2 0.13372214E-01 0.78400809E+03</pdfrwt>
<totfact> 0.52850442E+02</totfact>
</mgrwt>
</event>
<event>
 4    1  0.6346694E-005  0.4335118E+03  0.7818608E-02  0.1032756E+00
          2   -1    0    0  501    0  0.00000000000E+00  0.00000000000E+00  0.33227744158E+03  0.33227744159E+03  0.25500000000E-02 0.  1.
         -2   -1    0    0    0  501 -0.00000000000E+00 -0.00000000000E+00 -0.14139726794E+03  0.14139726797E+03  0.25500000000E-02 0. -1.
    5000001    1    1    2    0    0 -0.72921870296E+02 -0.76218505211E+02  0.12017017406E+03  0.24680301951E+03  0.18800000000E+03 0.  0.
   -5000001    1    1    2    0    0  0.72921870296E+02  0.76218505211E+02  0.70709999576E+02  0.22687169005E+03  0.18800000000E+03 0.  0.
<mgrwt>
<rscale>  0 0.43351181E+03</rscale>
<asrwt>0</asrwt>
<pdfrwt beam="1">  1        2 0.47468206E-01 0.43351181E+03</pdfrwt>
<pdfrwt beam="2">  1       -2 0.20199610E-01 0.43351181E+03</pdfrwt>
<totfact> 0.22085696E+03</totfact>
</mgrwt>
</event>
<event>
 4    1  0.6346694E-005  0.7646385E+03  0.7818608E-02  0.9612661E-01
         -2   -1    0    0    0  501 -0.00000000000E+00  0.00000000000E+00  0.72113224597E+03  0.72113224597E+03  0.25500000000E-02 0. -1.
          2   -1    0    0  501    0  0.00000000000E+00 -0.00000000000E+00 -0.20269236597E+03  0.20269236599E+03  0.25500000000E-02 0.  1.
    5000001    1    1    2    0    0 -0.81045972841E+02  0.31826273363E+03  0.32500095850E+03  0.49882786646E+03  0.18800000000E+03 0.  0.
   -5000001    1    1    2    0    0  0.81045972841E+02 -0.31826273363E+03  0.19343892149E+03  0.42499674550E+03  0.18800000000E+03 0.  0.
<mgrwt>
<rscale>  0 0.76463848E+03</rscale>
<asrwt>0</asrwt>
<pdfrwt beam="1">  1        2 0.28956052E-01 0.76463848E+03</pdfrwt>
<pdfrwt beam="2">  1       -2 0.10301889E+00 0.76463848E+03</pdfrwt>
<totfact> 0.14374722E+02</totfact>
</mgrwt>
</event>
<event>
 4    1  0.6346694E-005  0.4685296E+03  0.7818608E-02  0.1022336E+00
          2   -1    0    0  501    0  0.00000000000E+00  0.00000000000E+00  0.18640102998E+03  0.18640103000E+03  0.25500000000E-02 0.  1.
         -2   -1    0    0    0  501 -0.00000000000E+00 -0.00000000000E+00 -0.29441890463E+03  0.29441890464E+03  0.25500000000E-02 0. -1.
    5000001    1    1    2    0    0 -0.13820088183E+03 -0.11216918771E+01 -0.75418728764E+02  0.24521975161E+03  0.18800000000E+03 0.  0.
   -5000001    1    1    2    0    0  0.13820088183E+03  0.11216918771E+01 -0.32599145888E+02  0.23560018303E+03  0.18800000000E+03 0.  0.
<mgrwt>
<rscale>  0 0.46852956E+03</rscale>
<asrwt>0</asrwt>
<pdfrwt beam="1">  1        2 0.26628719E-01 0.46852956E+03</pdfrwt>
<pdfrwt beam="2">  1       -2 0.42059843E-01 0.46852956E+03</pdfrwt>
<totfact> 0.10921110E+03</totfact>
</mgrwt>
</event>
<event>
 4    1  0.6346694E-005  0.4595193E+03  0.7818608E-02  0.1024921E+00
          2   -1    0    0  501    0  0.00000000000E+00  0.00000000000E+00  0.77375795394E+03  0.77375795395E+03  0.25500000000E-02 0.  1.
         -2   -1    0    0    0  501 -0.00000000000E+00 -0.00000000000E+00 -0.68224826474E+02  0.68224826522E+02  0.25500000000E-02 0. -1.
    5000001    1    1    2    0    0  0.70822298029E+02  0.65205692534E+02  0.51846595423E+03  0.55983794614E+03  0.18800000000E+03 0.  0.
   -5000001    1    1    2    0    0 -0.70822298029E+02 -0.65205692534E+02  0.18706717323E+03  0.28214483433E+03  0.18800000000E+03 0.  0.
<mgrwt>
<rscale>  0 0.45951932E+03</rscale>
<asrwt>0</asrwt>
<pdfrwt beam="1">  1        2 0.11053686E+00 0.45951932E+03</pdfrwt>
<pdfrwt beam="2">  1       -2 0.97464032E-02 0.45951932E+03</pdfrwt>
<totfact> 0.28258527E+03</totfact>
</mgrwt>
</event>
<event>
 4    1  0.6346694E-005  0.9606663E+03  0.7818608E-02  0.9352769E-01
         -2   -1    0    0    0  501 -0.00000000000E+00  0.00000000000E+00  0.25354481523E+03  0.25354481525E+03  0.25500000000E-02 0. -1.
          2   -1    0    0  501    0  0.00000000000E+00 -0.00000000000E+00 -0.90997695896E+03  0.90997695896E+03  0.25500000000E-02 0.  1.
    5000001    1    1    2    0    0 -0.24162277527E+03 -0.21412635319E+03  0.37434841011E+02  0.37546907726E+03  0.18800000000E+03 0.  0.
   -5000001    1    1    2    0    0  0.24162277527E+03  0.21412635319E+03 -0.69386698474E+03  0.78805269695E+03  0.18800000000E+03 0.  0.
<mgrwt>
<rscale>  0 0.96066631E+03</rscale>
<asrwt>0</asrwt>
<pdfrwt beam="1">  1        2 0.12999671E+00 0.96066631E+03</pdfrwt>
<pdfrwt beam="2">  1       -2 0.36220688E-01 0.96066631E+03</pdfrwt>
<totfact> 0.22932420E+02</totfact>
</mgrwt>
</event>
<event>
 4    1  0.6346694E-005  0.6721418E+03  0.7818608E-02  0.9766096E-01
          2   -1    0    0  501    0  0.00000000000E+00  0.00000000000E+00  0.64688480454E+03  0.64688480454E+03  0.25500000000E-02 0.  1.
         -2   -1    0    0    0  501 -0.00000000000E+00 -0.00000000000E+00 -0.17459621234E+03  0.17459621236E+03  0.25500000000E-02 0. -1.
    5000001    1    1    2    0    0  0.16101532401E+03 -0.20255640859E+03  0.11004827102E+03  0.33824496328E+03  0.18800000000E+03 0.  0.
   -5000001    1    1    2    0    0 -0.16101532401E+03  0.20255640859E+03  0.36224032118E+03  0.48323605362E+03  0.18800000000E+03 0.  0.
<mgrwt>
<rscale>  0 0.67214176E+03</rscale>
<asrwt>0</asrwt>
<pdfrwt beam="1">  1        2 0.92412114E-01 0.67214176E+03</pdfrwt>
<pdfrwt beam="2">  1       -2 0.24942316E-01 0.67214176E+03</pdfrwt>
<totfact> 0.71606683E+02</totfact>
</mgrwt>
</event>
<event>
 4    1  0.6346694E-005  0.4425759E+03  0.7818608E-02  0.1029959E+00
         -2   -1    0    0    0  501 -0.00000000000E+00  0.00000000000E+00  0.63409801376E+02  0.63409801428E+02  0.25500000000E-02 0. -1.
          2   -1    0    0  501    0  0.00000000000E+00 -0.00000000000E+00 -0.77225206445E+03  0.77225206445E+03  0.25500000000E-02 0.  1.
    5000001    1    1    2    0    0 -0.59725323701E+02  0.99807705095E+02 -0.37288841202E+03  0.43349562871E+03  0.18800000000E+03 0.  0.
   -5000001    1    1    2    0    0  0.59725323701E+02 -0.99807705095E+02 -0.33595385105E+03  0.40216623718E+03  0.18800000000E+03 0.  0.
<mgrwt>
<rscale>  0 0.44257587E+03</rscale>
<asrwt>0</asrwt>
<pdfrwt beam="1">  1        2 0.11032172E+00 0.44257587E+03</pdfrwt>
<pdfrwt beam="2">  1       -2 0.90585435E-02 0.44257587E+03</pdfrwt>
<totfact> 0.31841681E+03</totfact>
</mgrwt>
</event>
<event>
 4    1  0.6346694E-005  0.4040185E+03  0.7818608E-02  0.1042397E+00
         -2   -1    0    0    0  501 -0.00000000000E+00  0.00000000000E+00  0.83405272491E+02  0.83405272530E+02  0.25500000000E-02 0. -1.
          2   -1    0    0  501    0  0.00000000000E+00 -0.00000000000E+00 -0.48927042706E+03  0.48927042706E+03  0.25500000000E-02 0.  1.
    5000001    1    1    2    0    0 -0.73877632164E+02 -0.23976953504E+01 -0.20333305690E+03  0.28662167662E+03  0.18800000000E+03 0.  0.
   -5000001    1    1    2    0    0  0.73877632164E+02  0.23976953504E+01 -0.20253209766E+03  0.28605402297E+03  0.18800000000E+03 0.  0.
<mgrwt>
<rscale>  0 0.40401848E+03</rscale>
<asrwt>0</asrwt>
<pdfrwt beam="1">  1        2 0.69895773E-01 0.40401848E+03</pdfrwt>
<pdfrwt beam="2">  1       -2 0.11915039E-01 0.40401848E+03</pdfrwt>
<totfact> 0.34918583E+03</totfact>
</mgrwt>
</event>
<event>
 4    1  0.6346694E-005  0.4549084E+03  0.7818608E-02  0.1026268E+00
         -2   -1    0    0    0  501 -0.00000000000E+00  0.00000000000E+00  0.60929461358E+02  0.60929461411E+02  0.25500000000E-02 0. -1.
          2   -1    0    0  501    0  0.00000000000E+00 -0.00000000000E+00 -0.84910331929E+03  0.84910331929E+03  0.25500000000E-02 0.  1.
    5000001    1    1    2    0    0 -0.93567688978E+02 -0.84453303138E+02 -0.34917036155E+03  0.41611442442E+03  0.18800000000E+03 0.  0.
   -5000001    1    1    2    0    0  0.93567688978E+02  0.84453303138E+02 -0.43900349638E+03  0.49391835628E+03  0.18800000000E+03 0.  0.
<mgrwt>
<rscale>  0 0.45490838E+03</rscale>
<asrwt>0</asrwt>
<pdfrwt beam="1">  1        2 0.12130047E+00 0.45490838E+03</pdfrwt>
<pdfrwt beam="2">  1       -2 0.87042092E-02 0.45490838E+03</pdfrwt>
<totfact> 0.30089917E+03</totfact>
</mgrwt>
</event>
<event>
 4    1  0.6346694E-005  0.8521978E+03  0.7818608E-02  0.9487392E-01
         -2   -1    0    0    0  501 -0.00000000000E+00  0.00000000000E+00  0.14705075991E+03  0.14705075993E+03  0.25500000000E-02 0. -1.
          2   -1    0    0  501    0  0.00000000000E+00 -0.00000000000E+00 -0.12346776869E+04  0.12346776869E+04  0.25500000000E-02 0.  1.
    5000001    1    1    2    0    0  0.17332735161E+03 -0.28154609570E+03 -0.85529269326E+03  0.93604495938E+03  0.18800000000E+03 0.  0.
   -5000001    1    1    2    0    0 -0.17332735161E+03  0.28154609570E+03 -0.23233423371E+03  0.44568348744E+03  0.18800000000E+03 0.  0.
<mgrwt>
<rscale>  0 0.85219785E+03</rscale>
<asrwt>0</asrwt>
<pdfrwt beam="1">  1        2 0.17638252E+00 0.85219785E+03</pdfrwt>
<pdfrwt beam="2">  1       -2 0.21007252E-01 0.85219785E+03</pdfrwt>
<totfact> 0.40051763E+02</totfact>
</mgrwt>
</event>
<event>
 4    1  0.6346694E-005  0.6580255E+03  0.7818608E-02  0.9791835E-01
         -2   -1    0    0    0  501 -0.00000000000E+00  0.00000000000E+00  0.38317637744E+02  0.38317637829E+02  0.25500000000E-02 0. -1.
          2   -1    0    0  501    0  0.00000000000E+00 -0.00000000000E+00 -0.28250541784E+04  0.28250541784E+04  0.25500000000E-02 0.  1.
    5000001    1    1    2    0    0 -0.87682517225E+02  0.25325846519E+03 -0.15361948760E+04  0.15706899029E+04  0.18800000000E+03 0.  0.
   -5000001    1    1    2    0    0  0.87682517225E+02 -0.25325846519E+03 -0.12505416647E+04  0.12926819134E+04  0.18800000000E+03 0.  0.
<mgrwt>
<rscale>  0 0.65802554E+03</rscale>
<asrwt>0</asrwt>
<pdfrwt beam="1">  1        2 0.40357904E+00 0.65802554E+03</pdfrwt>
<pdfrwt beam="2">  1       -2 0.54739501E-02 0.65802554E+03</pdfrwt>
<totfact> 0.55537259E+02</totfact>
</mgrwt>
</event>
<event>
 4    1  0.6346694E-005  0.4103802E+03  0.7818608E-02  0.1040244E+00
         -2   -1    0    0    0  501 -0.00000000000E+00  0.00000000000E+00  0.52896597975E+02  0.52896598036E+02  0.25500000000E-02 0. -1.
          2   -1    0    0  501    0  0.00000000000E+00 -0.00000000000E+00 -0.79594862628E+03  0.79594862629E+03  0.25500000000E-02 0.  1.
    5000001    1    1    2    0    0 -0.55164971408E+02 -0.22461482297E+01 -0.49752680781E+03  0.53471968707E+03  0.18800000000E+03 0.  0.
   -5000001    1    1    2    0    0  0.55164971408E+02  0.22461482297E+01 -0.24552522049E+03  0.31412553725E+03  0.18800000000E+03 0.  0.
<mgrwt>
<rscale>  0 0.41038019E+03</rscale>
<asrwt>0</asrwt>
<pdfrwt beam="1">  1        2 0.11370694E+00 0.41038019E+03</pdfrwt>
<pdfrwt beam="2">  1       -2 0.75566573E-02 0.41038019E+03</pdfrwt>
<totfact> 0.40826318E+03</totfact>
</mgrwt>
</event>
<event>
 4    1  0.6346694E-005  0.1004341E+04  0.7818608E-02  0.9303796E-01
          2   -1    0    0  501    0  0.00000000000E+00  0.00000000000E+00  0.72264620654E+03  0.72264620654E+03  0.25500000000E-02 0.  1.
         -2   -1    0    0    0  501 -0.00000000000E+00 -0.00000000000E+00 -0.34896091431E+03  0.34896091432E+03  0.25500000000E-02 0. -1.
    5000001    1    1    2    0    0  0.23548828536E+03  0.40093908740E+03  0.16018114430E+03  0.52650629943E+03  0.18800000000E+03 0.  0.
   -5000001    1    1    2    0    0 -0.23548828536E+03 -0.40093908740E+03  0.21350414792E+03  0.54510082144E+03  0.18800000000E+03 0.  0.
<mgrwt>
<rscale>  0 0.10043411E+04</rscale>
<asrwt>0</asrwt>
<pdfrwt beam="1">  1        2 0.10323517E+00 0.10043411E+04</pdfrwt>
<pdfrwt beam="2">  1       -2 0.49851560E-01 0.10043411E+04</pdfrwt>
<totfact> 0.16435593E+02</totfact>
</mgrwt>
</event>
<event>
 4    1  0.6346694E-005  0.8719740E+03  0.7818608E-02  0.9461310E-01
         -2   -1    0    0    0  501 -0.00000000000E+00  0.00000000000E+00  0.37850435428E+03  0.37850435429E+03  0.25500000000E-02 0. -1.
          2   -1    0    0  501    0  0.00000000000E+00 -0.00000000000E+00 -0.50219944907E+03  0.50219944908E+03  0.25500000000E-02 0.  1.
    5000001    1    1    2    0    0 -0.14267565394E+03  0.34255318016E+03  0.70003080189E+02  0.42183344427E+03  0.18800000000E+03 0.  0.
   -5000001    1    1    2    0    0  0.14267565394E+03 -0.34255318016E+03 -0.19369817498E+03  0.45887035910E+03  0.18800000000E+03 0.  0.
<mgrwt>
<rscale>  0 0.87197403E+03</rscale>
<asrwt>0</asrwt>
<pdfrwt beam="1">  1        2 0.71742778E-01 0.87197403E+03</pdfrwt>
<pdfrwt beam="2">  1       -2 0.54072051E-01 0.87197403E+03</pdfrwt>
<totfact> 0.21609245E+02</totfact>
</mgrwt>
</event>
<event>
 4    1  0.6346694E-005  0.4872215E+03  0.7818608E-02  0.1017169E+00
         -2   -1    0    0    0  501 -0.00000000000E+00  0.00000000000E+00  0.32747122630E+02  0.32747122729E+02  0.25500000000E-02 0. -1.
          2   -1    0    0  501    0  0.00000000000E+00 -0.00000000000E+00 -0.18122564980E+04  0.18122564980E+04  0.25500000000E-02 0.  1.
    5000001    1    1    2    0    0 -0.11015716729E+03 -0.27562452335E+02 -0.12888592710E+04  0.13074389128E+04  0.18800000000E+03 0.  0.
   -5000001    1    1    2    0    0  0.11015716729E+03  0.27562452335E+02 -0.49065010437E+03  0.53756470792E+03  0.18800000000E+03 0.  0.
<mgrwt>
<rscale>  0 0.48722145E+03</rscale>
<asrwt>0</asrwt>
<pdfrwt beam="1">  1        2 0.25889372E+00 0.48722145E+03</pdfrwt>
<pdfrwt beam="2">  1       -2 0.46781615E-02 0.48722145E+03</pdfrwt>
<totfact> 0.23494573E+03</totfact>
</mgrwt>
</event>
<event>
 4    1  0.6346694E-005  0.7300528E+03  0.7818608E-02  0.9667175E-01
         -2   -1    0    0    0  501 -0.00000000000E+00  0.00000000000E+00  0.39505814123E+03  0.39505814123E+03  0.25500000000E-02 0. -1.
          2   -1    0    0  501    0  0.00000000000E+00 -0.00000000000E+00 -0.33727760402E+03  0.33727760403E+03  0.25500000000E-02 0.  1.
    5000001    1    1    2    0    0  0.13294334799E+03  0.18514651997E+03 -0.18613277719E+03  0.34920277544E+03  0.18800000000E+03 0.  0.
   -5000001    1    1    2    0    0 -0.13294334799E+03 -0.18514651997E+03  0.24391331439E+03  0.38313296983E+03  0.18800000000E+03 0.  0.
<mgrwt>
<rscale>  0 0.73005277E+03</rscale>
<asrwt>0</asrwt>
<pdfrwt beam="1">  1        2 0.48182515E-01 0.73005277E+03</pdfrwt>
<pdfrwt beam="2">  1       -2 0.56436877E-01 0.73005277E+03</pdfrwt>
<totfact> 0.31090850E+02</totfact>
</mgrwt>
</event>
<event>
 4    1  0.6346694E-005  0.6172809E+03  0.7818608E-02  0.9870188E-01
         -2   -1    0    0    0  501 -0.00000000000E+00  0.00000000000E+00  0.17692163041E+03  0.17692163043E+03  0.25500000000E-02 0. -1.
          2   -1    0    0  501    0  0.00000000000E+00 -0.00000000000E+00 -0.53842444506E+03  0.53842444507E+03  0.25500000000E-02 0.  1.
    5000001    1    1    2    0    0  0.20591742527E+03 -0.39934351405E+02 -0.32696246698E+03  0.43156134358E+03  0.18800000000E+03 0.  0.
   -5000001    1    1    2    0    0 -0.20591742527E+03  0.39934351405E+02 -0.34540347664E+02  0.28378473192E+03  0.18800000000E+03 0.  0.
<mgrwt>
<rscale>  0 0.61728091E+03</rscale>
<asrwt>0</asrwt>
<pdfrwt beam="1">  1        2 0.76917777E-01 0.61728091E+03</pdfrwt>
<pdfrwt beam="2">  1       -2 0.25274519E-01 0.61728091E+03</pdfrwt>
<totfact> 0.86856853E+02</totfact>
</mgrwt>
</event>
<event>
 4    1  0.6346694E-005  0.6497256E+03  0.7818608E-02  0.9807294E-01
         -2   -1    0    0    0  501 -0.00000000000E+00  0.00000000000E+00  0.15508136518E+03  0.15508136520E+03  0.25500000000E-02 0. -1.
          2   -1    0    0  501    0  0.00000000000E+00 -0.00000000000E+00 -0.68051905121E+03  0.68051905122E+03  0.25500000000E-02 0.  1.
    5000001    1    1    2    0    0 -0.14655812496E+03  0.17693985521E+03 -0.93049429853E+02  0.31110961533E+03  0.18800000000E+03 0.  0.
   -5000001    1    1    2    0    0  0.14655812496E+03 -0.17693985521E+03 -0.43238825618E+03  0.52449080109E+03  0.18800000000E+03 0.  0.
<mgrwt>
<rscale>  0 0.64972555E+03</rscale>
<asrwt>0</asrwt>
<pdfrwt beam="1">  1        2 0.97217006E-01 0.64972555E+03</pdfrwt>
<pdfrwt beam="2">  1       -2 0.22154481E-01 0.64972555E+03</pdfrwt>
<totfact> 0.83239525E+02</totfact>
</mgrwt>
</event>
<event>
 4    1  0.6346694E-005  0.6606986E+03  0.7818608E-02  0.9786909E-01
          2   -1    0    0  501    0  0.00000000000E+00  0.00000000000E+00  0.31661868431E+04  0.31661868431E+04  0.25500000000E-02 0.  1.
         -2   -1    0    0    0  501 -0.00000000000E+00 -0.00000000000E+00 -0.34467538871E+02  0.34467538965E+02  0.25500000000E-02 0. -1.
    5000001    1    1    2    0    0 -0.12215672496E+03 -0.17972099745E+03  0.77629377083E+03  0.82776682768E+03  0.18800000000E+03 0.  0.
   -5000001    1    1    2    0    0  0.12215672496E+03  0.17972099745E+03  0.23554255334E+04  0.23728875544E+04  0.18800000000E+03 0.  0.
<mgrwt>
<rscale>  0 0.66069862E+03</rscale>
<asrwt>0</asrwt>
<pdfrwt beam="1">  1        2 0.45231242E+00 0.66069862E+03</pdfrwt>
<pdfrwt beam="2">  1       -2 0.49239340E-02 0.66069862E+03</pdfrwt>
<totfact> 0.42655917E+02</totfact>
</mgrwt>
</event>
<event>
 4    1  0.6346694E-005  0.5618438E+03  0.7818608E-02  0.9987891E-01
         -2   -1    0    0    0  501 -0.00000000000E+00  0.00000000000E+00  0.28782848141E+03  0.28782848142E+03  0.25500000000E-02 0. -1.
          2   -1    0    0  501    0  0.00000000000E+00 -0.00000000000E+00 -0.27418099788E+03  0.27418099789E+03  0.25500000000E-02 0.  1.
    5000001    1    1    2    0    0  0.46805752986E+00 -0.20135564228E+03  0.61874387287E+02  0.28234155479E+03  0.18800000000E+03 0.  0.
   -5000001    1    1    2    0    0 -0.46805752986E+00  0.20135564228E+03 -0.48226903757E+02  0.27966792452E+03  0.18800000000E+03 0.  0.
<mgrwt>
<rscale>  0 0.56184375E+03</rscale>
<asrwt>0</asrwt>
<pdfrwt beam="1">  1        2 0.39168714E-01 0.56184375E+03</pdfrwt>
<pdfrwt beam="2">  1       -2 0.41118355E-01 0.56184375E+03</pdfrwt>
<totfact> 0.74237342E+02</totfact>
</mgrwt>
</event>
<event>
 4    1  0.6346694E-005  0.1719674E+04  0.7818608E-02  0.8750223E-01
          2   -1    0    0  501    0  0.00000000000E+00  0.00000000000E+00  0.11402155336E+04  0.11402155336E+04  0.25500000000E-02 0.  1.
         -2   -1    0    0    0  501 -0.00000000000E+00 -0.00000000000E+00 -0.64840320860E+03  0.64840320861E+03  0.25500000000E-02 0. -1.
    5000001    1    1    2    0    0 -0.52602655850E+03 -0.29940084025E+03 -0.35844955086E+03  0.72813108978E+03  0.18800000000E+03 0.  0.
   -5000001    1    1    2    0    0  0.52602655850E+03  0.29940084025E+03  0.85026187581E+03  0.10604876524E+04  0.18800000000E+03 0.  0.
<mgrwt>
<rscale>  0 0.17196737E+04</rscale>
<asrwt>0</asrwt>
<pdfrwt beam="1">  1        2 0.16288793E+00 0.17196737E+04</pdfrwt>
<pdfrwt beam="2">  1       -2 0.92629030E-01 0.17196737E+04</pdfrwt>
<totfact> 0.21796800E+01</totfact>
</mgrwt>
</event>
<event>
 4    1  0.6346694E-005  0.8544923E+03  0.7818608E-02  0.9484327E-01
         -2   -1    0    0    0  501 -0.00000000000E+00  0.00000000000E+00  0.93071863905E+02  0.93071863940E+02  0.25500000000E-02 0. -1.
          2   -1    0    0  501    0  0.00000000000E+00 -0.00000000000E+00 -0.19612721259E+04  0.19612721259E+04  0.25500000000E-02 0.  1.
    5000001    1    1    2    0    0  0.11021857832E+03  0.26161971599E+03 -0.31364631555E+03  0.46293738459E+03  0.18800000000E+03 0.  0.
   -5000001    1    1    2    0    0 -0.11021857832E+03 -0.26161971599E+03 -0.15545539464E+04  0.15914066052E+04  0.18800000000E+03 0.  0.
<mgrwt>
<rscale>  0 0.85449225E+03</rscale>
<asrwt>0</asrwt>
<pdfrwt beam="1">  1        2 0.28018171E+00 0.85449225E+03</pdfrwt>
<pdfrwt beam="2">  1       -2 0.13295982E-01 0.85449225E+03</pdfrwt>
<totfact> 0.36481354E+02</totfact>
</mgrwt>
</event>
<event>
 4    1  0.6346694E-005  0.8452931E+03  0.7818608E-02  0.9496676E-01
          2   -1    0    0  501    0  0.00000000000E+00  0.00000000000E+00  0.21043751913E+04  0.21043751913E+04  0.25500000000E-02 0.  1.
         -2   -1    0    0    0  501 -0.00000000000E+00 -0.00000000000E+00 -0.84885108877E+02  0.84885108915E+02  0.25500000000E-02 0. -1.
    5000001    1    1    2    0    0 -0.17150938045E+03 -0.27539690069E+03  0.50469173274E+03  0.62874212964E+03  0.18800000000E+03 0.  0.
   -5000001    1    1    2    0    0  0.17150938045E+03  0.27539690069E+03  0.15147983497E+04  0.15605181705E+04  0.18800000000E+03 0.  0.
<mgrwt>
<rscale>  0 0.84529313E+03</rscale>
<asrwt>0</asrwt>
<pdfrwt beam="1">  1        2 0.30062502E+00 0.84529313E+03</pdfrwt>
<pdfrwt beam="2">  1       -2 0.12126445E-01 0.84529313E+03</pdfrwt>
<totfact> 0.35996374E+02</totfact>
</mgrwt>
</event>
<event>
 4    1  0.6346694E-005  0.6652944E+03  0.7818608E-02  0.9778496E-01
         -2   -1    0    0    0  501 -0.00000000000E+00  0.00000000000E+00  0.40423146882E+02  0.40423146962E+02  0.25500000000E-02 0. -1.
          2   -1    0    0  501    0  0.00000000000E+00 -0.00000000000E+00 -0.27373962652E+04  0.27373962652E+04  0.25500000000E-02 0.  1.
    5000001    1    1    2    0    0 -0.17326624829E+03 -0.58646461008E+02 -0.49433365071E+03  0.55961625996E+03  0.18800000000E+03 0.  0.
   -5000001    1    1    2    0    0  0.17326624829E+03  0.58646461008E+02 -0.22026394676E+04  0.22182031522E+04  0.18800000000E+03 0.  0.
<mgrwt>
<rscale>  0 0.66529444E+03</rscale>
<asrwt>0</asrwt>
<pdfrwt beam="1">  1        2 0.39105649E+00 0.66529444E+03</pdfrwt>
<pdfrwt beam="2">  1       -2 0.57747370E-02 0.66529444E+03</pdfrwt>
<totfact> 0.56810772E+02</totfact>
</mgrwt>
</event>
<event>
 4    1  0.6346694E-005  0.6108278E+03  0.7818608E-02  0.9883193E-01
          2   -1    0    0  501    0  0.00000000000E+00  0.00000000000E+00  0.10123047948E+04  0.10123047948E+04  0.25500000000E-02 0. -1.
         -2   -1    0    0    0  501 -0.00000000000E+00 -0.00000000000E+00 -0.92143846077E+02  0.92143846112E+02  0.25500000000E-02 0.  1.
    5000001    1    1    2    0    0  0.21905706509E+03  0.65027400155E+02  0.59681885546E+03  0.66614661057E+03  0.18800000000E+03 0.  0.
   -5000001    1    1    2    0    0 -0.21905706509E+03 -0.65027400155E+02  0.32334209327E+03  0.43830203036E+03  0.18800000000E+03 0.  0.
<mgrwt>
<rscale>  0 0.61082782E+03</rscale>
<asrwt>0</asrwt>
<pdfrwt beam="1">  1        2 0.14461496E+00 0.61082782E+03</pdfrwt>
<pdfrwt beam="2">  1       -2 0.13163407E-01 0.61082782E+03</pdfrwt>
<totfact> 0.12102341E+03</totfact>
</mgrwt>
</event>
<event>
 4    1  0.6346694E-005  0.5945848E+03  0.7818608E-02  0.9916705E-01
         -2   -1    0    0    0  501 -0.00000000000E+00  0.00000000000E+00  0.35611036060E+02  0.35611036152E+02  0.25500000000E-02 0.  1.
          2   -1    0    0  501    0  0.00000000000E+00 -0.00000000000E+00 -0.24818924170E+04  0.24818924170E+04  0.25500000000E-02 0. -1.
    5000001    1    1    2    0    0 -0.17963128050E+03 -0.14400963663E+03 -0.11989701791E+04  0.12352650172E+04  0.18800000000E+03 0.  0.
   -5000001    1    1    2    0    0  0.17963128050E+03  0.14400963663E+03 -0.12473112019E+04  0.12822384360E+04  0.18800000000E+03 0.  0.
<mgrwt>
<rscale>  0 0.59458476E+03</rscale>
<asrwt>0</asrwt>
<pdfrwt beam="1">  1        2 0.35455595E+00 0.59458476E+03</pdfrwt>
<pdfrwt beam="2">  1       -2 0.50872924E-02 0.59458476E+03</pdfrwt>
<totfact> 0.94487800E+02</totfact>
</mgrwt>
</event>
<event>
 4    1  0.6346694E-005  0.5002819E+03  0.7818608E-02  0.1013705E+00
         -2   -1    0    0    0  501 -0.00000000000E+00  0.00000000000E+00  0.16844292873E+03  0.16844292875E+03  0.25500000000E-02 0. -1.
          2   -1    0    0  501    0  0.00000000000E+00 -0.00000000000E+00 -0.37146405246E+03  0.37146405247E+03  0.25500000000E-02 0.  1.
    5000001    1    1    2    0    0 -0.13688047303E+03  0.65293796486E+02 -0.31346023585E+02  0.24356953207E+03  0.18800000000E+03 0.  0.
   -5000001    1    1    2    0    0  0.13688047303E+03 -0.65293796486E+02 -0.17167510015E+03  0.29633744915E+03  0.18800000000E+03 0.  0.
<mgrwt>
<rscale>  0 0.50028189E+03</rscale>
<asrwt>0</asrwt>
<pdfrwt beam="1">  1        2 0.53066293E-01 0.50028189E+03</pdfrwt>
<pdfrwt beam="2">  1       -2 0.24063276E-01 0.50028189E+03</pdfrwt>
<totfact> 0.14391445E+03</totfact>
</mgrwt>
</event>
<event>
 4    1  0.6346694E-005  0.4195776E+03  0.7818608E-02  0.1037204E+00
         -2   -1    0    0    0  501 -0.00000000000E+00  0.00000000000E+00  0.17243669575E+02  0.17243669764E+02  0.25500000000E-02 0. -1.
          2   -1    0    0  501    0  0.00000000000E+00 -0.00000000000E+00 -0.25523184510E+04  0.25523184510E+04  0.25500000000E-02 0.  1.
    5000001    1    1    2    0    0  0.19776932073E+02  0.44943231548E+02 -0.17519396471E+04  0.17626819192E+04  0.18800000000E+03 0.  0.
   -5000001    1    1    2    0    0 -0.19776932073E+02 -0.44943231548E+02 -0.78313513431E+03  0.80688020157E+03  0.18800000000E+03 0.  0.
<mgrwt>
<rscale>  0 0.41957758E+03</rscale>
<asrwt>0</asrwt>
<pdfrwt beam="1">  1        2 0.36461668E+00 0.41957758E+03</pdfrwt>
<pdfrwt beam="2">  1       -2 0.24633830E-02 0.41957758E+03</pdfrwt>
<totfact> 0.26560047E+03</totfact>
</mgrwt>
</event>
<event>
 4    1  0.6346694E-005  0.4474707E+03  0.7818608E-02  0.1028479E+00
         -2   -1    0    0    0  501 -0.00000000000E+00  0.00000000000E+00  0.23042367914E+03  0.23042367915E+03  0.25500000000E-02 0. -1.
          2   -1    0    0  501    0  0.00000000000E+00 -0.00000000000E+00 -0.21724117623E+03  0.21724117625E+03  0.25500000000E-02 0.  1.
    5000001    1    1    2    0    0 -0.51536453679E+02 -0.10980043246E+03  0.54202440759E+01  0.22379794474E+03  0.18800000000E+03 0.  0.
   -5000001    1    1    2    0    0  0.51536453679E+02  0.10980043246E+03  0.77622588274E+01  0.22386691066E+03  0.18800000000E+03 0.  0.
<mgrwt>
<rscale>  0 0.44747072E+03</rscale>
<asrwt>0</asrwt>
<pdfrwt beam="1">  1        2 0.31034454E-01 0.44747072E+03</pdfrwt>
<pdfrwt beam="2">  1       -2 0.32917668E-01 0.44747072E+03</pdfrwt>
<totfact> 0.14675098E+03</totfact>
</mgrwt>
</event>
<event>
 4    1  0.6346694E-005  0.7165426E+03  0.7818608E-02  0.9689353E-01
          2   -1    0    0  501    0  0.00000000000E+00  0.00000000000E+00  0.51780654717E+03  0.51780654718E+03  0.25500000000E-02 0.  1.
         -2   -1    0    0    0  501 -0.00000000000E+00 -0.00000000000E+00 -0.24788855481E+03  0.24788855482E+03  0.25500000000E-02 0. -1.
    5000001    1    1    2    0    0  0.12286069204E+03  0.23984147230E+03 -0.17650825310E+02  0.32905050238E+03  0.18800000000E+03 0.  0.
   -5000001    1    1    2    0    0 -0.12286069204E+03 -0.23984147230E+03  0.28756881767E+03  0.43664459962E+03  0.18800000000E+03 0.  0.
<mgrwt>
<rscale>  0 0.71654258E+03</rscale>
<asrwt>0</asrwt>
<pdfrwt beam="1">  1        2 0.73972364E-01 0.71654258E+03</pdfrwt>
<pdfrwt beam="2">  1       -2 0.35412651E-01 0.71654258E+03</pdfrwt>
<totfact> 0.48567077E+02</totfact>
</mgrwt>
</event>
<event>
 4    1  0.6346694E-005  0.6777293E+03  0.7818608E-02  0.9756095E-01
          2   -1    0    0  501    0  0.00000000000E+00  0.00000000000E+00  0.13863489010E+04  0.13863489010E+04  0.25500000000E-02 0.  1.
         -2   -1    0    0    0  501 -0.00000000000E+00 -0.00000000000E+00 -0.82828532861E+02  0.82828532900E+02  0.25500000000E-02 0. -1.
    5000001    1    1    2    0    0 -0.65508605268E+02 -0.23540808182E+03  0.95661786489E+03  0.10050721774E+04  0.18800000000E+03 0.  0.
   -5000001    1    1    2    0    0  0.65508605268E+02  0.23540808182E+03  0.34690250324E+03  0.46410525649E+03  0.18800000000E+03 0.  0.
<mgrwt>
<rscale>  0 0.67772928E+03</rscale>
<asrwt>0</asrwt>
<pdfrwt beam="1">  1        2 0.19804984E+00 0.67772928E+03</pdfrwt>
<pdfrwt beam="2">  1       -2 0.11832648E-01 0.67772928E+03</pdfrwt>
<totfact> 0.88567581E+02</totfact>
</mgrwt>
</event>
<event>
 4    1  0.6346694E-005  0.5049184E+03  0.7818608E-02  0.1012503E+00
         -2   -1    0    0    0  501 -0.00000000000E+00  0.00000000000E+00  0.49946062620E+02  0.49946062686E+02  0.25500000000E-02 0. -1.
          2   -1    0    0  501    0  0.00000000000E+00 -0.00000000000E+00 -0.12760896808E+04  0.12760896808E+04  0.25500000000E-02 0.  1.
    5000001    1    1    2    0    0  0.66514031731E+02  0.15430550615E+03 -0.58012853955E+03  0.63255626472E+03  0.18800000000E+03 0.  0.
   -5000001    1    1    2    0    0 -0.66514031731E+02 -0.15430550615E+03 -0.64601507863E+03  0.69347947876E+03  0.18800000000E+03 0.  0.
<mgrwt>
<rscale>  0 0.50491843E+03</rscale>
<asrwt>0</asrwt>
<pdfrwt beam="1">  1        2 0.18229851E+00 0.50491843E+03</pdfrwt>
<pdfrwt beam="2">  1       -2 0.71351525E-02 0.50491843E+03</pdfrwt>
<totfact> 0.23044578E+03</totfact>
</mgrwt>
</event>
<event>
 4    1  0.6346694E-005  0.5584074E+03  0.7818608E-02  0.9995665E-01
         -2   -1    0    0    0  501 -0.00000000000E+00  0.00000000000E+00  0.31229362367E+02  0.31229362472E+02  0.25500000000E-02 0. -1.
          2   -1    0    0  501    0  0.00000000000E+00 -0.00000000000E+00 -0.24961989932E+04  0.24961989932E+04  0.25500000000E-02 0.  1.
    5000001    1    1    2    0    0 -0.19661185706E+03 -0.33973591497E+02 -0.99297236211E+03  0.10301206430E+04  0.18800000000E+03 0.  0.
   -5000001    1    1    2    0    0  0.19661185706E+03  0.33973591497E+02 -0.14719972688E+04  0.14973077127E+04  0.18800000000E+03 0.  0.
<mgrwt>
<rscale>  0 0.55840739E+03</rscale>
<asrwt>0</asrwt>
<pdfrwt beam="1">  1        2 0.35659973E+00 0.55840739E+03</pdfrwt>
<pdfrwt beam="2">  1       -2 0.44613391E-02 0.55840739E+03</pdfrwt>
<totfact> 0.11412752E+03</totfact>
</mgrwt>
</event>
<event>
 4    1  0.6346694E-005  0.5311166E+03  0.7818608E-02  0.1005962E+00
          2   -1    0    0  501    0  0.00000000000E+00  0.00000000000E+00  0.20518487171E+03  0.20518487172E+03  0.25500000000E-02 0.  1.
         -2   -1    0    0    0  501 -0.00000000000E+00 -0.00000000000E+00 -0.34369596495E+03  0.34369596496E+03  0.25500000000E-02 0. -1.
    5000001    1    1    2    0    0 -0.14792765767E+03 -0.11507391192E+03 -0.76751804293E+02  0.27633211281E+03  0.18800000000E+03 0.  0.
   -5000001    1    1    2    0    0  0.14792765767E+03  0.11507391192E+03 -0.61759288946E+02  0.27254872386E+03  0.18800000000E+03 0.  0.
<mgrwt>
<rscale>  0 0.53111661E+03</rscale>
<asrwt>0</asrwt>
<pdfrwt beam="1">  1        2 0.29312125E-01 0.53111661E+03</pdfrwt>
<pdfrwt beam="2">  1       -2 0.49099423E-01 0.53111661E+03</pdfrwt>
<totfact> 0.72138925E+02</totfact>
</mgrwt>
</event>
<event>
 4    1  0.6346694E-005  0.4447840E+03  0.7818608E-02  0.1029289E+00
          2   -1    0    0  501    0  0.00000000000E+00  0.00000000000E+00  0.39745143210E+03  0.39745143211E+03  0.25500000000E-02 0.  1.
         -2   -1    0    0    0  501 -0.00000000000E+00 -0.00000000000E+00 -0.12443837354E+03  0.12443837357E+03  0.25500000000E-02 0. -1.
    5000001    1    1    2    0    0 -0.21726169181E+02  0.56241764559E+02  0.16393388957E+02  0.19811084198E+03  0.18800000000E+03 0.  0.
   -5000001    1    1    2    0    0  0.21726169181E+02 -0.56241764559E+02  0.25661966960E+03  0.32377896370E+03  0.18800000000E+03 0.  0.
<mgrwt>
<rscale>  0 0.44478404E+03</rscale>
<asrwt>0</asrwt>
<pdfrwt beam="1">  1        2 0.56778777E-01 0.44478404E+03</pdfrwt>
<pdfrwt beam="2">  1       -2 0.17776910E-01 0.44478404E+03</pdfrwt>
<totfact> 0.22608024E+03</totfact>
</mgrwt>
</event>
<event>
 4    1  0.6346694E-005  0.6067139E+03  0.7818608E-02  0.9891574E-01
          2   -1    0    0  501    0  0.00000000000E+00  0.00000000000E+00  0.29358386427E+03  0.29358386428E+03  0.25500000000E-02 0.  1.
         -2   -1    0    0    0  501 -0.00000000000E+00 -0.00000000000E+00 -0.31345538805E+03  0.31345538806E+03  0.25500000000E-02 0. -1.
    5000001    1    1    2    0    0  0.77228819344E+02  0.20205797265E+03  0.89564682160E+02  0.30026246375E+03  0.18800000000E+03 0.  0.
   -5000001    1    1    2    0    0 -0.77228819344E+02 -0.20205797265E+03 -0.10943620594E+03  0.30677678859E+03  0.18800000000E+03 0.  0.
<mgrwt>
<rscale>  0 0.60671392E+03</rscale>
<asrwt>0</asrwt>
<pdfrwt beam="1">  1        2 0.41940552E-01 0.60671392E+03</pdfrwt>
<pdfrwt beam="2">  1       -2 0.44779341E-01 0.60671392E+03</pdfrwt>
<totfact> 0.58180836E+02</totfact>
</mgrwt>
</event>
<event>
 4    1  0.6346694E-005  0.5431581E+03  0.7818608E-02  0.1003090E+00
          2   -1    0    0  501    0  0.00000000000E+00  0.00000000000E+00  0.30494450878E+04  0.30494450878E+04  0.25500000000E-02 0.  1.
         -2   -1    0    0    0  501 -0.00000000000E+00 -0.00000000000E+00 -0.24186428543E+02  0.24186428678E+02  0.25500000000E-02 0. -1.
    5000001    1    1    2    0    0 -0.13595935147E+03  0.26136252978E+02  0.72764053160E+03  0.76418112526E+03  0.18800000000E+03 0.  0.
   -5000001    1    1    2    0    0  0.13595935147E+03 -0.26136252978E+02  0.22976181277E+04  0.23094503912E+04  0.18800000000E+03 0.  0.
<mgrwt>
<rscale>  0 0.54315812E+03</rscale>
<asrwt>0</asrwt>
<pdfrwt beam="1">  1        2 0.43563487E+00 0.54315812E+03</pdfrwt>
<pdfrwt beam="2">  1       -2 0.34552052E-02 0.54315812E+03</pdfrwt>
<totfact> 0.86360872E+02</totfact>
</mgrwt>
</event>
<event>
 4    1  0.6346694E-005  0.6523947E+03  0.7818608E-02  0.9802296E-01
         -2   -1    0    0    0  501 -0.00000000000E+00  0.00000000000E+00  0.46625583633E+03  0.46625583634E+03  0.25500000000E-02 0. -1.
          2   -1    0    0  501    0  0.00000000000E+00 -0.00000000000E+00 -0.22821102529E+03  0.22821102530E+03  0.25500000000E-02 0.  1.
    5000001    1    1    2    0    0 -0.14764842244E+03 -0.18105667724E+03 -0.17627212836E+02  0.30039356793E+03  0.18800000000E+03 0.  0.
   -5000001    1    1    2    0    0  0.14764842244E+03  0.18105667724E+03  0.25567202388E+03  0.39407329371E+03  0.18800000000E+03 0.  0.
<mgrwt>
<rscale>  0 0.65239473E+03</rscale>
<asrwt>0</asrwt>
<pdfrwt beam="1">  1        2 0.32601575E-01 0.65239473E+03</pdfrwt>
<pdfrwt beam="2">  1       -2 0.66607977E-01 0.65239473E+03</pdfrwt>
<totfact> 0.33867781E+02</totfact>
</mgrwt>
</event>
<event>
 4    1  0.6346694E-005  0.8018317E+03  0.7818608E-02  0.9557370E-01
          2   -1    0    0  501    0  0.00000000000E+00  0.00000000000E+00  0.88635510421E+03  0.88635510421E+03  0.25500000000E-02 0.  1.
         -2   -1    0    0    0  501 -0.00000000000E+00 -0.00000000000E+00 -0.18134211657E+03  0.18134211659E+03  0.25500000000E-02 0. -1.
    5000001    1    1    2    0    0  0.40483873349E+02 -0.34144492393E+03  0.46522655072E+03  0.60827898498E+03  0.18800000000E+03 0.  0.
   -5000001    1    1    2    0    0 -0.40483873349E+02  0.34144492393E+03  0.23978643692E+03  0.45941823582E+03  0.18800000000E+03 0.  0.
<mgrwt>
<rscale>  0 0.80183168E+03</rscale>
<asrwt>0</asrwt>
<pdfrwt beam="1">  1        2 0.12662216E+00 0.80183168E+03</pdfrwt>
<pdfrwt beam="2">  1       -2 0.25906017E-01 0.80183168E+03</pdfrwt>
<totfact> 0.44708556E+02</totfact>
</mgrwt>
</event>
<event>
 4    1  0.6346694E-005  0.6155933E+03  0.7818608E-02  0.9873573E-01
          2   -1    0    0  501    0  0.00000000000E+00  0.00000000000E+00  0.51508188665E+03  0.51508188666E+03  0.25500000000E-02 0.  1.
         -2   -1    0    0    0  501 -0.00000000000E+00 -0.00000000000E+00 -0.18392955387E+03  0.18392955389E+03  0.25500000000E-02 0. -1.
    5000001    1    1    2    0    0 -0.20226267876E+03  0.10338766921E+03  0.65319187352E+02  0.30200959852E+03  0.18800000000E+03 0.  0.
   -5000001    1    1    2    0    0  0.20226267876E+03 -0.10338766921E+03  0.26583314543E+03  0.39700184203E+03  0.18800000000E+03 0.  0.
<mgrwt>
<rscale>  0 0.61559331E+03</rscale>
<asrwt>0</asrwt>
<pdfrwt beam="1">  1        2 0.73583127E-01 0.61559331E+03</pdfrwt>
<pdfrwt beam="2">  1       -2 0.26275650E-01 0.61559331E+03</pdfrwt>
<totfact> 0.85208191E+02</totfact>
</mgrwt>
</event>
<event>
 4    1  0.6346694E-005  0.7707471E+03  0.7818608E-02  0.9603352E-01
         -2   -1    0    0    0  501 -0.00000000000E+00  0.00000000000E+00  0.41601042555E+02  0.41601042633E+02  0.25500000000E-02 0. -1.
          2   -1    0    0  501    0  0.00000000000E+00 -0.00000000000E+00 -0.35699288815E+04  0.35699288815E+04  0.25500000000E-02 0.  1.
    5000001    1    1    2    0    0  0.30895907486E+03 -0.23535469337E+02 -0.23779641263E+04  0.24054244977E+04  0.18800000000E+03 0.  0.
   -5000001    1    1    2    0    0 -0.30895907486E+03  0.23535469337E+02 -0.11503637126E+04  0.12061054264E+04  0.18800000000E+03 0.  0.
<mgrwt>
<rscale>  0 0.77074708E+03</rscale>
<asrwt>0</asrwt>
<pdfrwt beam="1">  1        2 0.50998965E+00 0.77074708E+03</pdfrwt>
<pdfrwt beam="2">  1       -2 0.59430083E-02 0.77074708E+03</pdfrwt>
<totfact> 0.18281615E+02</totfact>
</mgrwt>
</event>
<event>
 4    1  0.6346694E-005  0.8296847E+03  0.7818608E-02  0.9518016E-01
          2   -1    0    0  501    0  0.00000000000E+00  0.00000000000E+00  0.95578492149E+03  0.95578492149E+03  0.25500000000E-02 0.  1.
         -2   -1    0    0    0  501 -0.00000000000E+00 -0.00000000000E+00 -0.18005535768E+03  0.18005535770E+03  0.25500000000E-02 0. -1.
    5000001    1    1    2    0    0  0.27785736075E+03  0.74732316794E+02  0.70587596871E+03  0.78510796410E+03  0.18800000000E+03 0.  0.
   -5000001    1    1    2    0    0 -0.27785736075E+03 -0.74732316794E+02  0.69853595101E+02  0.35073231508E+03  0.18800000000E+03 0.  0.
<mgrwt>
<rscale>  0 0.82968475E+03</rscale>
<asrwt>0</asrwt>
<pdfrwt beam="1">  1        2 0.13654071E+00 0.82968475E+03</pdfrwt>
<pdfrwt beam="2">  1       -2 0.25722193E-01 0.82968475E+03</pdfrwt>
<totfact> 0.40816153E+02</totfact>
</mgrwt>
</event>
<event>
 4    1  0.6346694E-005  0.4472936E+03  0.7818608E-02  0.1028532E+00
         -2   -1    0    0    0  501 -0.00000000000E+00  0.00000000000E+00  0.33058133417E+02  0.33058133515E+02  0.25500000000E-02 0. -1.
          2   -1    0    0  501    0  0.00000000000E+00 -0.00000000000E+00 -0.15130281507E+04  0.15130281507E+04  0.25500000000E-02 0.  1.
    5000001    1    1    2    0    0  0.73645505102E+02 -0.72156094411E+01 -0.40847887431E+03  0.45571341455E+03  0.18800000000E+03 0.  0.
   -5000001    1    1    2    0    0 -0.73645505102E+02  0.72156094411E+01 -0.10714911430E+04  0.10903728697E+04  0.18800000000E+03 0.  0.
<mgrwt>
<rscale>  0 0.44729358E+03</rscale>
<asrwt>0</asrwt>
<pdfrwt beam="1">  1        2 0.21614684E+00 0.44729358E+03</pdfrwt>
<pdfrwt beam="2">  1       -2 0.47225914E-02 0.44729358E+03</pdfrwt>
<totfact> 0.32847277E+03</totfact>
</mgrwt>
</event>
<event>
 4    1  0.6346694E-005  0.7661664E+03  0.7818608E-02  0.9610324E-01
          2   -1    0    0  501    0  0.00000000000E+00  0.00000000000E+00  0.34172982357E+03  0.34172982358E+03  0.25500000000E-02 0.  1.
         -2   -1    0    0    0  501 -0.00000000000E+00 -0.00000000000E+00 -0.42944085433E+03  0.42944085434E+03  0.25500000000E-02 0. -1.
    5000001    1    1    2    0    0 -0.81400392343E+02  0.27285628823E+03  0.13144335973E+03  0.36564728184E+03  0.18800000000E+03 0.  0.
   -5000001    1    1    2    0    0  0.81400392343E+02 -0.27285628823E+03 -0.21915439049E+03  0.40552339608E+03  0.18800000000E+03 0.  0.
<mgrwt>
<rscale>  0 0.76616642E+03</rscale>
<asrwt>0</asrwt>
<pdfrwt beam="1">  1        2 0.48818546E-01 0.76616642E+03</pdfrwt>
<pdfrwt beam="2">  1       -2 0.61348694E-01 0.76616642E+03</pdfrwt>
<totfact> 0.25684078E+02</totfact>
</mgrwt>
</event>
<event>
 4    1  0.6346694E-005  0.5895075E+03  0.7818608E-02  0.9927417E-01
          2   -1    0    0  501    0  0.00000000000E+00  0.00000000000E+00  0.33069874747E+03  0.33069874748E+03  0.25500000000E-02 0.  1.
         -2   -1    0    0    0  501 -0.00000000000E+00 -0.00000000000E+00 -0.26271572945E+03  0.26271572947E+03  0.25500000000E-02 0. -1.
    5000001    1    1    2    0    0 -0.22903621228E+02  0.22392641301E+03  0.43318737520E+01  0.29330935791E+03  0.18800000000E+03 0.  0.
   -5000001    1    1    2    0    0  0.22903621228E+02 -0.22392641301E+03  0.63651144269E+02  0.30010511904E+03  0.18800000000E+03 0.  0.
<mgrwt>
<rscale>  0 0.58950746E+03</rscale>
<asrwt>0</asrwt>
<pdfrwt beam="1">  1        2 0.47242678E-01 0.58950746E+03</pdfrwt>
<pdfrwt beam="2">  1       -2 0.37530818E-01 0.58950746E+03</pdfrwt>
<totfact> 0.72008811E+02</totfact>
</mgrwt>
</event>
<event>
 4    1  0.6346694E-005  0.5771416E+03  0.7818608E-02  0.9953999E-01
         -2   -1    0    0    0  501 -0.00000000000E+00  0.00000000000E+00  0.38808752528E+02  0.38808752611E+02  0.25500000000E-02 0. -1.
          2   -1    0    0  501    0  0.00000000000E+00 -0.00000000000E+00 -0.21457298402E+04  0.21457298402E+04  0.25500000000E-02 0.  1.
    5000001    1    1    2    0    0 -0.12657125304E+03  0.17511354797E+03 -0.11869657862E+04  0.12210310456E+04  0.18800000000E+03 0.  0.
   -5000001    1    1    2    0    0  0.12657125304E+03 -0.17511354797E+03 -0.91995530151E+03  0.96350754722E+03  0.18800000000E+03 0.  0.
<mgrwt>
<rscale>  0 0.57714157E+03</rscale>
<asrwt>0</asrwt>
<pdfrwt beam="1">  1        2 0.30653276E+00 0.57714157E+03</pdfrwt>
<pdfrwt beam="2">  1       -2 0.55441089E-02 0.57714157E+03</pdfrwt>
<totfact> 0.12247720E+03</totfact>
</mgrwt>
</event>
<event>
 4    1  0.6346694E-005  0.4586762E+03  0.7818608E-02  0.1025166E+00
         -2   -1    0    0    0  501 -0.00000000000E+00  0.00000000000E+00  0.34372496739E+02  0.34372496834E+02  0.25500000000E-02 0. -1.
          2   -1    0    0  501    0  0.00000000000E+00 -0.00000000000E+00 -0.15301757427E+04  0.15301757427E+04  0.25500000000E-02 0.  1.
    5000001    1    1    2    0    0  0.45168241301E+02 -0.11847544493E+03 -0.63096025519E+03  0.67047106180E+03  0.18800000000E+03 0.  0.
   -5000001    1    1    2    0    0 -0.45168241301E+02  0.11847544493E+03 -0.86484299076E+03  0.89407717773E+03  0.18800000000E+03 0.  0.
<mgrwt>
<rscale>  0 0.45867619E+03</rscale>
<asrwt>0</asrwt>
<pdfrwt beam="1">  1        2 0.21859649E+00 0.45867619E+03</pdfrwt>
<pdfrwt beam="2">  1       -2 0.49103577E-02 0.45867619E+03</pdfrwt>
<totfact> 0.30310452E+03</totfact>
</mgrwt>
</event>
<event>
 4    1  0.6346694E-005  0.8243002E+03  0.7818608E-02  0.9525495E-01
         -2   -1    0    0    0  501 -0.00000000000E+00  0.00000000000E+00  0.12182072918E+03  0.12182072921E+03  0.25500000000E-02 0. -1.
          2   -1    0    0  501    0  0.00000000000E+00 -0.00000000000E+00 -0.13944070726E+04  0.13944070726E+04  0.25500000000E-02 0.  1.
    5000001    1    1    2    0    0  0.16634844258E+03 -0.31776436445E+03 -0.49527261030E+03  0.63975382311E+03  0.18800000000E+03 0.  0.
   -5000001    1    1    2    0    0 -0.16634844258E+03  0.31776436445E+03 -0.77731373315E+03  0.87647397874E+03  0.18800000000E+03 0.  0.
<mgrwt>
<rscale>  0 0.82430016E+03</rscale>
<asrwt>0</asrwt>
<pdfrwt beam="1">  1        2 0.19920100E+00 0.82430016E+03</pdfrwt>
<pdfrwt beam="2">  1       -2 0.17402962E-01 0.82430016E+03</pdfrwt>
<totfact> 0.45502076E+02</totfact>
</mgrwt>
</event>
<event>
 4    1  0.6346694E-005  0.7856872E+03  0.7818608E-02  0.9580969E-01
          2   -1    0    0  501    0  0.00000000000E+00  0.00000000000E+00  0.12197425297E+04  0.12197425297E+04  0.25500000000E-02 0.  1.
         -2   -1    0    0    0  501 -0.00000000000E+00 -0.00000000000E+00 -0.12652349802E+03  0.12652349804E+03  0.25500000000E-02 0. -1.
    5000001    1    1    2    0    0 -0.15630468745E+03 -0.23348825288E+03  0.88945358243E+03  0.95153538812E+03  0.18800000000E+03 0.  0.
   -5000001    1    1    2    0    0  0.15630468745E+03  0.23348825288E+03  0.20376544926E+03  0.39473063963E+03  0.18800000000E+03 0.  0.
<mgrwt>
<rscale>  0 0.78568719E+03</rscale>
<asrwt>0</asrwt>
<pdfrwt beam="1">  1        2 0.17424893E+00 0.78568719E+03</pdfrwt>
<pdfrwt beam="2">  1       -2 0.18074786E-01 0.78568719E+03</pdfrwt>
<totfact> 0.53247406E+02</totfact>
</mgrwt>
</event>
<event>
 4    1  0.6346694E-005  0.7816779E+03  0.7818608E-02  0.9586923E-01
          2   -1    0    0  501    0  0.00000000000E+00  0.00000000000E+00  0.23660806700E+04  0.23660806700E+04  0.25500000000E-02 0.  1.
         -2   -1    0    0    0  501 -0.00000000000E+00 -0.00000000000E+00 -0.64560392399E+02  0.64560392449E+02  0.25500000000E-02 0. -1.
    5000001    1    1    2    0    0 -0.28776712873E+03 -0.18601334203E+03  0.11521944885E+04  0.12166786853E+04  0.18800000000E+03 0.  0.
   -5000001    1    1    2    0    0  0.28776712873E+03  0.18601334203E+03  0.11493257890E+04  0.12139623771E+04  0.18800000000E+03 0.  0.
<mgrwt>
<rscale>  0 0.78167793E+03</rscale>
<asrwt>0</asrwt>
<pdfrwt beam="1">  1        2 0.33801155E+00 0.78167793E+03</pdfrwt>
<pdfrwt beam="2">  1       -2 0.92229126E-02 0.78167793E+03</pdfrwt>
<totfact> 0.41644334E+02</totfact>
</mgrwt>
</event>
<event>
 4    1  0.6346694E-005  0.5266297E+03  0.7818608E-02  0.1007053E+00
          2   -1    0    0  501    0  0.00000000000E+00  0.00000000000E+00  0.67921341913E+03  0.67921341913E+03  0.25500000000E-02 0.  1.
         -2   -1    0    0    0  501 -0.00000000000E+00 -0.00000000000E+00 -0.10208089662E+03  0.10208089666E+03  0.25500000000E-02 0. -1.
    5000001    1    1    2    0    0 -0.12725770056E+03  0.11060875222E+03  0.17792407457E+03  0.30891713247E+03  0.18800000000E+03 0.  0.
   -5000001    1    1    2    0    0  0.12725770056E+03 -0.11060875222E+03  0.39920844794E+03  0.47237718332E+03  0.18800000000E+03 0.  0.
<mgrwt>
<rscale>  0 0.52662972E+03</rscale>
<asrwt>0</asrwt>
<pdfrwt beam="1">  1        2 0.97030488E-01 0.52662972E+03</pdfrwt>
<pdfrwt beam="2">  1       -2 0.14582985E-01 0.52662972E+03</pdfrwt>
<totfact> 0.17142730E+03</totfact>
</mgrwt>
</event>
<event>
 4    1  0.6346694E-005  0.7182015E+03  0.7818608E-02  0.9686602E-01
         -2   -1    0    0    0  501 -0.00000000000E+00  0.00000000000E+00  0.56639948605E+03  0.56639948606E+03  0.25500000000E-02 0. -1.
          2   -1    0    0  501    0  0.00000000000E+00 -0.00000000000E+00 -0.22767206689E+03  0.22767206691E+03  0.25500000000E-02 0.  1.
    5000001    1    1    2    0    0 -0.19944044665E+03  0.20461449844E+03  0.29030745966E+03  0.44862680021E+03  0.18800000000E+03 0.  0.
   -5000001    1    1    2    0    0  0.19944044665E+03 -0.20461449844E+03  0.48419959499E+02  0.34544475276E+03  0.18800000000E+03 0.  0.
<mgrwt>
<rscale>  0 0.71820148E+03</rscale>
<asrwt>0</asrwt>
<pdfrwt beam="1">  1        2 0.32524581E-01 0.71820148E+03</pdfrwt>
<pdfrwt beam="2">  1       -2 0.80914213E-01 0.71820148E+03</pdfrwt>
<totfact> 0.22088069E+02</totfact>
</mgrwt>
</event>
<event>
 4    1  0.6346694E-005  0.8926361E+03  0.7818608E-02  0.9434834E-01
          2   -1    0    0  501    0  0.00000000000E+00  0.00000000000E+00  0.10274036733E+04  0.10274036733E+04  0.25500000000E-02 0.  1.
         -2   -1    0    0    0  501 -0.00000000000E+00 -0.00000000000E+00 -0.19388659291E+03  0.19388659293E+03  0.25500000000E-02 0. -1.
    5000001    1    1    2    0    0  0.79031890143E+02 -0.38421472668E+03  0.55350029651E+03  0.70396986732E+03  0.18800000000E+03 0.  0.
   -5000001    1    1    2    0    0 -0.79031890143E+02  0.38421472668E+03  0.28001678385E+03  0.51732039888E+03  0.18800000000E+03 0.  0.
<mgrwt>
<rscale>  0 0.89263609E+03</rscale>
<asrwt>0</asrwt>
<pdfrwt beam="1">  1        2 0.14677195E+00 0.89263609E+03</pdfrwt>
<pdfrwt beam="2">  1       -2 0.27698085E-01 0.89263609E+03</pdfrwt>
<totfact> 0.32111127E+02</totfact>
</mgrwt>
</event>
<event>
 4    1  0.6346694E-005  0.3952587E+03  0.7818608E-02  0.1045434E+00
         -2   -1    0    0    0  501 -0.00000000000E+00  0.00000000000E+00  0.62419814639E+02  0.62419814691E+02  0.25500000000E-02 0. -1.
          2   -1    0    0  501    0  0.00000000000E+00 -0.00000000000E+00 -0.62572067083E+03  0.62572067084E+03  0.25500000000E-02 0.  1.
    5000001    1    1    2    0    0  0.50026923311E+02  0.31247460597E+02 -0.25500299892E+03  0.32225708108E+03  0.18800000000E+03 0.  0.
   -5000001    1    1    2    0    0 -0.50026923311E+02 -0.31247460597E+02 -0.30829785728E+03  0.36588340445E+03  0.18800000000E+03 0.  0.
<mgrwt>
<rscale>  0 0.39525874E+03</rscale>
<asrwt>0</asrwt>
<pdfrwt beam="1">  1        2 0.89388664E-01 0.39525874E+03</pdfrwt>
<pdfrwt beam="2">  1       -2 0.89171167E-02 0.39525874E+03</pdfrwt>
<totfact> 0.42018927E+03</totfact>
</mgrwt>
</event>
<event>
 4    1  0.6346694E-005  0.6335720E+03  0.7818608E-02  0.9838103E-01
         -2   -1    0    0    0  501 -0.00000000000E+00  0.00000000000E+00  0.27886262874E+02  0.27886262991E+02  0.25500000000E-02 0. -1.
          2   -1    0    0  501    0  0.00000000000E+00 -0.00000000000E+00 -0.35986667346E+04  0.35986667346E+04  0.25500000000E-02 0.  1.
    5000001    1    1    2    0    0 -0.26150385977E+02 -0.23887181668E+03 -0.22732996071E+04  0.22936823431E+04  0.18800000000E+03 0.  0.
   -5000001    1    1    2    0    0  0.26150385977E+02  0.23887181668E+03 -0.12974808647E+04  0.13328706545E+04  0.18800000000E+03 0.  0.
<mgrwt>
<rscale>  0 0.63357199E+03</rscale>
<asrwt>0</asrwt>
<pdfrwt beam="1">  1        2 0.51409495E+00 0.63357199E+03</pdfrwt>
<pdfrwt beam="2">  1       -2 0.39837541E-02 0.63357199E+03</pdfrwt>
<totfact> 0.33245798E+02</totfact>
</mgrwt>
</event>
<event>
 4    1  0.6346694E-005  0.5256066E+03  0.7818608E-02  0.1007303E+00
          2   -1    0    0  501    0  0.00000000000E+00  0.00000000000E+00  0.19097672115E+04  0.19097672115E+04  0.25500000000E-02 0. -1.
         -2   -1    0    0    0  501 -0.00000000000E+00 -0.00000000000E+00 -0.36164396764E+02  0.36164396854E+02  0.25500000000E-02 0.  1.
    5000001    1    1    2    0    0  0.62219135023E+02  0.15711023354E+03  0.67068309700E+03  0.71673890842E+03  0.18800000000E+03 0.  0.
   -5000001    1    1    2    0    0 -0.62219135023E+02 -0.15711023354E+03  0.12029197177E+04  0.12291926999E+04  0.18800000000E+03 0.  0.
<mgrwt>
<rscale>  0 0.52560662E+03</rscale>
<asrwt>0</asrwt>
<pdfrwt beam="1">  1        2 0.27282390E+00 0.52560662E+03</pdfrwt>
<pdfrwt beam="2">  1       -2 0.51663421E-02 0.52560662E+03</pdfrwt>
<totfact> 0.17988048E+03</totfact>
</mgrwt>
</event>
<event>
 4    1  0.6346694E-005  0.9294144E+03  0.7818608E-02  0.9389541E-01
          2   -1    0    0  501    0  0.00000000000E+00  0.00000000000E+00  0.62899904020E+03  0.62899904021E+03  0.25500000000E-02 0.  1.
         -2   -1    0    0    0  501 -0.00000000000E+00 -0.00000000000E+00 -0.34332765896E+03  0.34332765897E+03  0.25500000000E-02 0. -1.
    5000001    1    1    2    0    0 -0.25791313520E+03 -0.19396518037E+03 -0.14645876729E+03  0.40116810320E+03  0.18800000000E+03 0.  0.
   -5000001    1    1    2    0    0  0.25791313520E+03  0.19396518037E+03  0.43213014853E+03  0.57115859599E+03  0.18800000000E+03 0.  0.
<mgrwt>
<rscale>  0 0.92941437E+03</rscale>
<asrwt>0</asrwt>
<pdfrwt beam="1">  1        2 0.89857005E-01 0.92941437E+03</pdfrwt>
<pdfrwt beam="2">  1       -2 0.49046809E-01 0.92941437E+03</pdfrwt>
<totfact> 0.20211822E+02</totfact>
</mgrwt>
</event>
<event>
 4    1  0.6346694E-005  0.6684644E+03  0.7818608E-02  0.9772736E-01
          2   -1    0    0  501    0  0.00000000000E+00  0.00000000000E+00  0.69206512786E+03  0.69206512787E+03  0.25500000000E-02 0.  1.
         -2   -1    0    0    0  501 -0.00000000000E+00 -0.00000000000E+00 -0.16141710926E+03  0.16141710928E+03  0.25500000000E-02 0. -1.
    5000001    1    1    2    0    0  0.15458656244E+03 -0.18904845643E+03  0.43047262785E+03  0.52942138934E+03  0.18800000000E+03 0.  0.
   -5000001    1    1    2    0    0 -0.15458656244E+03  0.18904845643E+03  0.10017539076E+03  0.32406084780E+03  0.18800000000E+03 0.  0.
<mgrwt>
<rscale>  0 0.66846437E+03</rscale>
<asrwt>0</asrwt>
<pdfrwt beam="1">  1        2 0.98866448E-01 0.66846437E+03</pdfrwt>
<pdfrwt beam="2">  1       -2 0.23059587E-01 0.66846437E+03</pdfrwt>
<totfact> 0.75926334E+02</totfact>
</mgrwt>
</event>
<event>
 4    1  0.6346694E-005  0.4882849E+03  0.7818608E-02  0.1016883E+00
          2   -1    0    0  501    0  0.00000000000E+00  0.00000000000E+00  0.19238067060E+04  0.19238067060E+04  0.25500000000E-02 0.  1.
         -2   -1    0    0    0  501 -0.00000000000E+00 -0.00000000000E+00 -0.30983118892E+02  0.30983118997E+02  0.25500000000E-02 0. -1.
    5000001    1    1    2    0    0 -0.13953715542E+02 -0.15395108884E+03  0.86983434135E+03  0.90324494204E+03  0.18800000000E+03 0.  0.
   -5000001    1    1    2    0    0  0.13953715542E+02  0.15395108884E+03  0.10229892457E+04  0.10515448829E+04  0.18800000000E+03 0.  0.
<mgrwt>
<rscale>  0 0.48828488E+03</rscale>
<asrwt>0</asrwt>
<pdfrwt beam="1">  1        2 0.27482947E+00 0.48828488E+03</pdfrwt>
<pdfrwt beam="2">  1       -2 0.44261608E-02 0.48828488E+03</pdfrwt>
<totfact> 0.22499291E+03</totfact>
</mgrwt>
</event>
<event>
 4    1  0.6346694E-005  0.4114582E+03  0.7818608E-02  0.1039883E+00
          2   -1    0    0  501    0  0.00000000000E+00  0.00000000000E+00  0.14968342770E+04  0.14968342770E+04  0.25500000000E-02 0.  1.
         -2   -1    0    0    0  501 -0.00000000000E+00 -0.00000000000E+00 -0.28275984152E+02  0.28275984267E+02  0.25500000000E-02 0. -1.
    5000001    1    1    2    0    0  0.44022641465E+02 -0.54728662059E+02  0.56656866073E+03  0.60106344652E+03  0.18800000000E+03 0.  0.
   -5000001    1    1    2    0    0 -0.44022641465E+02  0.54728662059E+02  0.90198963207E+03  0.92404681471E+03  0.18800000000E+03 0.  0.
<mgrwt>
<rscale>  0 0.41145820E+03</rscale>
<asrwt>0</asrwt>
<pdfrwt beam="1">  1        2 0.21383358E+00 0.41145820E+03</pdfrwt>
<pdfrwt beam="2">  1       -2 0.40394242E-02 0.41145820E+03</pdfrwt>
<totfact> 0.42523590E+03</totfact>
</mgrwt>
</event>
<event>
 4    1  0.6346694E-005  0.1294037E+04  0.7818608E-02  0.9034307E-01
          2   -1    0    0  501    0  0.00000000000E+00  0.00000000000E+00  0.18793488413E+04  0.18793488413E+04  0.25500000000E-02 0.  1.
         -2   -1    0    0    0  501 -0.00000000000E+00 -0.00000000000E+00 -0.22275432144E+03  0.22275432145E+03  0.25500000000E-02 0. -1.
    5000001    1    1    2    0    0  0.55953436737E+03  0.17220830438E+03  0.50116175389E+03  0.79324744685E+03  0.18800000000E+03 0.  0.
   -5000001    1    1    2    0    0 -0.55953436737E+03 -0.17220830438E+03  0.11554327660E+04  0.13088557159E+04  0.18800000000E+03 0.  0.
<mgrwt>
<rscale>  0 0.12940372E+04</rscale>
<asrwt>0</asrwt>
<pdfrwt beam="1">  1        2 0.26847842E+00 0.12940372E+04</pdfrwt>
<pdfrwt beam="2">  1       -2 0.31822044E-01 0.12940372E+04</pdfrwt>
<totfact> 0.83374315E+01</totfact>
</mgrwt>
</event>
<event>
 4    1  0.6346694E-005  0.6008484E+03  0.7818608E-02  0.9903647E-01
         -2   -1    0    0    0  501 -0.00000000000E+00  0.00000000000E+00  0.11280895692E+03  0.11280895695E+03  0.25500000000E-02 0.  1.
          2   -1    0    0  501    0  0.00000000000E+00 -0.00000000000E+00 -0.80006686063E+03  0.80006686064E+03  0.25500000000E-02 0. -1.
    5000001    1    1    2    0    0 -0.12263269313E+03 -0.15483495504E+03 -0.15206272745E+03  0.31221741432E+03  0.18800000000E+03 0.  0.
   -5000001    1    1    2    0    0  0.12263269313E+03  0.15483495504E+03 -0.53519517626E+03  0.60065840327E+03  0.18800000000E+03 0.  0.
<mgrwt>
<rscale>  0 0.60084843E+03</rscale>
<asrwt>0</asrwt>
<pdfrwt beam="1">  1        2 0.11429526E+00 0.60084843E+03</pdfrwt>
<pdfrwt beam="2">  1       -2 0.16115566E-01 0.60084843E+03</pdfrwt>
<totfact> 0.11814348E+03</totfact>
</mgrwt>
</event>
<event>
 4    1  0.6346694E-005  0.4466237E+03  0.7818608E-02  0.1028734E+00
          2   -1    0    0  501    0  0.00000000000E+00  0.00000000000E+00  0.50707519944E+03  0.50707519944E+03  0.25500000000E-02 0.  1.
         -2   -1    0    0    0  501 -0.00000000000E+00 -0.00000000000E+00 -0.98344760811E+02  0.98344760844E+02  0.25500000000E-02 0. -1.
    5000001    1    1    2    0    0  0.10444088916E+03 -0.53437364658E+02  0.16697719817E+03  0.27746862161E+03  0.18800000000E+03 0.  0.
   -5000001    1    1    2    0    0 -0.10444088916E+03  0.53437364658E+02  0.24175324046E+03  0.32795133868E+03  0.18800000000E+03 0.  0.
<mgrwt>
<rscale>  0 0.44662373E+03</rscale>
<asrwt>0</asrwt>
<pdfrwt beam="1">  1        2 0.72439314E-01 0.44662373E+03</pdfrwt>
<pdfrwt beam="2">  1       -2 0.14049252E-01 0.44662373E+03</pdfrwt>
<totfact> 0.25614845E+03</totfact>
</mgrwt>
</event>
<event>
 4    1  0.6346694E-005  0.7009234E+03  0.7818608E-02  0.9715654E-01
          2   -1    0    0  501    0  0.00000000000E+00  0.00000000000E+00  0.72711278889E+03  0.72711278889E+03  0.25500000000E-02 0.  1.
         -2   -1    0    0    0  501 -0.00000000000E+00 -0.00000000000E+00 -0.16891934543E+03  0.16891934545E+03  0.25500000000E-02 0. -1.
    5000001    1    1    2    0    0 -0.25609821194E+03 -0.61320565668E+02  0.10695475483E+03  0.34077826444E+03  0.18800000000E+03 0.  0.
   -5000001    1    1    2    0    0  0.25609821194E+03  0.61320565668E+02  0.45123868862E+03  0.55525386990E+03  0.18800000000E+03 0.  0.
<mgrwt>
<rscale>  0 0.70092344E+03</rscale>
<asrwt>0</asrwt>
<pdfrwt beam="1">  1        2 0.10387326E+00 0.70092344E+03</pdfrwt>
<pdfrwt beam="2">  1       -2 0.24131335E-01 0.70092344E+03</pdfrwt>
<totfact> 0.65817990E+02</totfact>
</mgrwt>
</event>
<event>
 4    1  0.6346694E-005  0.5075915E+03  0.7818608E-02  0.1011816E+00
         -2   -1    0    0    0  501 -0.00000000000E+00  0.00000000000E+00  0.80263411509E+02  0.80263411550E+02  0.25500000000E-02 0. -1.
          2   -1    0    0  501    0  0.00000000000E+00 -0.00000000000E+00 -0.80251113659E+03  0.80251113659E+03  0.25500000000E-02 0.  1.
    5000001    1    1    2    0    0  0.13466510386E+03 -0.12078736156E+02 -0.54175799046E+03  0.58917425801E+03  0.18800000000E+03 0.  0.
   -5000001    1    1    2    0    0 -0.13466510386E+03  0.12078736156E+02 -0.18048973461E+03  0.29360029013E+03  0.18800000000E+03 0.  0.
<mgrwt>
<rscale>  0 0.50759150E+03</rscale>
<asrwt>0</asrwt>
<pdfrwt beam="1">  1        2 0.11464444E+00 0.50759150E+03</pdfrwt>
<pdfrwt beam="2">  1       -2 0.11466202E-01 0.50759150E+03</pdfrwt>
<totfact> 0.20749503E+03</totfact>
</mgrwt>
</event>
<event>
 4    1  0.6346694E-005  0.7797250E+03  0.7818608E-02  0.9589837E-01
         -2   -1    0    0    0  501 -0.00000000000E+00  0.00000000000E+00  0.13810865245E+03  0.13810865247E+03  0.25500000000E-02 0. -1.
          2   -1    0    0  501    0  0.00000000000E+00 -0.00000000000E+00 -0.11005305270E+04  0.11005305271E+04  0.25500000000E-02 0.  1.
    5000001    1    1    2    0    0  0.14363753701E+03 -0.25829086255E+03 -0.20928010431E+03  0.40802950111E+03  0.18800000000E+03 0.  0.
   -5000001    1    1    2    0    0 -0.14363753701E+03  0.25829086255E+03 -0.75314177029E+03  0.83060967841E+03  0.18800000000E+03 0.  0.
<mgrwt>
<rscale>  0 0.77972505E+03</rscale>
<asrwt>0</asrwt>
<pdfrwt beam="1">  1        2 0.15721864E+00 0.77972505E+03</pdfrwt>
<pdfrwt beam="2">  1       -2 0.19729808E-01 0.77972505E+03</pdfrwt>
<totfact> 0.53543349E+02</totfact>
</mgrwt>
</event>
<event>
 4    1  0.6346694E-005  0.8670165E+03  0.7818608E-02  0.9467778E-01
         -2   -1    0    0    0  501 -0.00000000000E+00  0.00000000000E+00  0.55165526424E+03  0.55165526425E+03  0.25500000000E-02 0. -1.
          2   -1    0    0  501    0  0.00000000000E+00 -0.00000000000E+00 -0.34066456504E+03  0.34066456505E+03  0.25500000000E-02 0.  1.
    5000001    1    1    2    0    0 -0.14846543244E+03 -0.33488006971E+03 -0.34105287881E+02  0.41315108178E+03  0.18800000000E+03 0.  0.
   -5000001    1    1    2    0    0  0.14846543244E+03  0.33488006971E+03  0.24509598708E+03  0.47916874752E+03  0.18800000000E+03 0.  0.
<mgrwt>
<rscale>  0 0.86701650E+03</rscale>
<asrwt>0</asrwt>
<pdfrwt beam="1">  1        2 0.48666367E-01 0.86701650E+03</pdfrwt>
<pdfrwt beam="2">  1       -2 0.78807894E-01 0.86701650E+03</pdfrwt>
<totfact> 0.14874586E+02</totfact>
</mgrwt>
</event>
<event>
 4    1  0.6346694E-005  0.6681367E+03  0.7818608E-02  0.9773330E-01
         -2   -1    0    0    0  501 -0.00000000000E+00  0.00000000000E+00  0.58901284264E+02  0.58901284319E+02  0.25500000000E-02 0. -1.
          2   -1    0    0  501    0  0.00000000000E+00 -0.00000000000E+00 -0.18947238470E+04  0.18947238470E+04  0.25500000000E-02 0.  1.
    5000001    1    1    2    0    0 -0.12433139323E+03  0.19002897272E+03 -0.45847844179E+03  0.54508328483E+03  0.18800000000E+03 0.  0.
   -5000001    1    1    2    0    0  0.12433139323E+03 -0.19002897272E+03 -0.13773441209E+04  0.14085418464E+04  0.18800000000E+03 0.  0.
<mgrwt>
<rscale>  0 0.66813672E+03</rscale>
<asrwt>0</asrwt>
<pdfrwt beam="1">  1        2 0.27067480E+00 0.66813672E+03</pdfrwt>
<pdfrwt beam="2">  1       -2 0.84144703E-02 0.66813672E+03</pdfrwt>
<totfact> 0.84307992E+02</totfact>
</mgrwt>
</event>
<event>
 4    1  0.6346694E-005  0.4025231E+03  0.7818608E-02  0.1042909E+00
          2   -1    0    0  501    0  0.00000000000E+00  0.00000000000E+00  0.61807086403E+03  0.61807086403E+03  0.25500000000E-02 0.  1.
         -2   -1    0    0    0  501 -0.00000000000E+00 -0.00000000000E+00 -0.65536528068E+02  0.65536528117E+02  0.25500000000E-02 0. -1.
    5000001    1    1    2    0    0 -0.61213853947E+02  0.11748742888E+02  0.21557679607E+03  0.29274993404E+03  0.18800000000E+03 0.  0.
   -5000001    1    1    2    0    0  0.61213853947E+02 -0.11748742888E+02  0.33695753989E+03  0.39085745811E+03  0.18800000000E+03 0.  0.
<mgrwt>
<rscale>  0 0.40252313E+03</rscale>
<asrwt>0</asrwt>
<pdfrwt beam="1">  1        2 0.88295837E-01 0.40252313E+03</pdfrwt>
<pdfrwt beam="2">  1       -2 0.93623613E-02 0.40252313E+03</pdfrwt>
<totfact> 0.39455429E+03</totfact>
</mgrwt>
</event>
<event>
 4    1  0.6346694E-005  0.5116740E+03  0.7818608E-02  0.1010776E+00
         -2   -1    0    0    0  501 -0.00000000000E+00  0.00000000000E+00  0.66548448776E+03  0.66548448777E+03  0.25500000000E-02 0. -1.
          2   -1    0    0  501    0  0.00000000000E+00 -0.00000000000E+00 -0.98353258040E+02  0.98353258073E+02  0.25500000000E-02 0.  1.
    5000001    1    1    2    0    0  0.25497608366E+02 -0.16755943221E+03  0.33906717514E+03  0.42312745197E+03  0.18800000000E+03 0.  0.
   -5000001    1    1    2    0    0 -0.25497608366E+02  0.16755943221E+03  0.22806405458E+03  0.34071029387E+03  0.18800000000E+03 0.  0.
<mgrwt>
<rscale>  0 0.51167399E+03</rscale>
<asrwt>0</asrwt>
<pdfrwt beam="1">  1        2 0.14050465E-01 0.51167399E+03</pdfrwt>
<pdfrwt beam="2">  1       -2 0.95069213E-01 0.51167399E+03</pdfrwt>
<totfact> 0.40831515E+02</totfact>
</mgrwt>
</event>
<event>
 4    1  0.6346694E-005  0.6123374E+03  0.7818608E-02  0.9880135E-01
         -2   -1    0    0    0  501 -0.00000000000E+00  0.00000000000E+00  0.20562494520E+03  0.20562494522E+03  0.25500000000E-02 0. -1.
          2   -1    0    0  501    0  0.00000000000E+00 -0.00000000000E+00 -0.45587499258E+03  0.45587499259E+03  0.25500000000E-02 0.  1.
    5000001    1    1    2    0    0  0.69642638375E+02 -0.22556285694E+03 -0.18090978670E+03  0.35185373443E+03  0.18800000000E+03 0.  0.
   -5000001    1    1    2    0    0 -0.69642638375E+02  0.22556285694E+03 -0.69340260681E+02  0.30964620337E+03  0.18800000000E+03 0.  0.
<mgrwt>
<rscale>  0 0.61233739E+03</rscale>
<asrwt>0</asrwt>
<pdfrwt beam="1">  1        2 0.65124999E-01 0.61233739E+03</pdfrwt>
<pdfrwt beam="2">  1       -2 0.29374992E-01 0.61233739E+03</pdfrwt>
<totfact> 0.79843530E+02</totfact>
</mgrwt>
</event>
<event>
 4    1  0.6346694E-005  0.1155034E+04  0.7818608E-02  0.9153152E-01
          2   -1    0    0  501    0  0.00000000000E+00  0.00000000000E+00  0.23300507489E+03  0.23300507490E+03  0.25500000000E-02 0.  1.
         -2   -1    0    0    0  501 -0.00000000000E+00 -0.00000000000E+00 -0.14314108650E+04  0.14314108650E+04  0.25500000000E-02 0. -1.
    5000001    1    1    2    0    0 -0.23008342510E+03  0.41614564213E+03 -0.98604478255E+03  0.11107402447E+04  0.18800000000E+03 0.  0.
   -5000001    1    1    2    0    0  0.23008342510E+03 -0.41614564213E+03 -0.21236100760E+03  0.55367569526E+03  0.18800000000E+03 0.  0.
<mgrwt>
<rscale>  0 0.11550342E+04</rscale>
<asrwt>0</asrwt>
<pdfrwt beam="1">  1        2 0.33286440E-01 0.11550342E+04</pdfrwt>
<pdfrwt beam="2">  1       -2 0.20448726E+00 0.11550342E+04</pdfrwt>
<totfact> 0.19493193E+01</totfact>
</mgrwt>
</event>
<event>
 4    1  0.6346694E-005  0.4283897E+03  0.7818608E-02  0.1034370E+00
          2   -1    0    0  501    0  0.00000000000E+00  0.00000000000E+00  0.15848293975E+04  0.15848293975E+04  0.25500000000E-02 0.  1.
         -2   -1    0    0    0  501 -0.00000000000E+00 -0.00000000000E+00 -0.28949125048E+02  0.28949125160E+02  0.25500000000E-02 0. -1.
    5000001    1    1    2    0    0 -0.78439389430E+02  0.63732932057E+02  0.84541191717E+03  0.87194032717E+03  0.18800000000E+03 0.  0.
   -5000001    1    1    2    0    0  0.78439389430E+02 -0.63732932057E+02  0.71046835531E+03  0.74183819552E+03  0.18800000000E+03 0.  0.
<mgrwt>
<rscale>  0 0.42838966E+03</rscale>
<asrwt>0</asrwt>
<pdfrwt beam="1">  1        2 0.22640420E+00 0.42838966E+03</pdfrwt>
<pdfrwt beam="2">  1       -2 0.41355893E-02 0.42838966E+03</pdfrwt>
<totfact> 0.36990541E+03</totfact>
</mgrwt>
</event>
<event>
 4    1  0.6346694E-005  0.4684790E+03  0.7818608E-02  0.1022350E+00
         -2   -1    0    0    0  501 -0.00000000000E+00  0.00000000000E+00  0.58373795655E+02  0.58373795711E+02  0.25500000000E-02 0. -1.
          2   -1    0    0  501    0  0.00000000000E+00 -0.00000000000E+00 -0.93994469546E+03  0.93994469547E+03  0.25500000000E-02 0.  1.
    5000001    1    1    2    0    0  0.30096309039E+02  0.13555692694E+03 -0.40758925878E+03  0.46984515761E+03  0.18800000000E+03 0.  0.
   -5000001    1    1    2    0    0 -0.30096309039E+02 -0.13555692694E+03 -0.47398164103E+03  0.52847333357E+03  0.18800000000E+03 0.  0.
<mgrwt>
<rscale>  0 0.46847898E+03</rscale>
<asrwt>0</asrwt>
<pdfrwt beam="1">  1        2 0.13427780E+00 0.46847898E+03</pdfrwt>
<pdfrwt beam="2">  1       -2 0.83391142E-02 0.46847898E+03</pdfrwt>
<totfact> 0.28170321E+03</totfact>
</mgrwt>
</event>
<event>
 4    1  0.6346694E-005  0.4024290E+03  0.7818608E-02  0.1042942E+00
         -2   -1    0    0    0  501 -0.00000000000E+00  0.00000000000E+00  0.31520969550E+03  0.31520969551E+03  0.25500000000E-02 0. -1.
          2   -1    0    0  501    0  0.00000000000E+00 -0.00000000000E+00 -0.12844550997E+03  0.12844550999E+03  0.25500000000E-02 0.  1.
    5000001    1    1    2    0    0 -0.42032780771E+02  0.57101736799E+02  0.81513169141E+02  0.21683117799E+03  0.18800000000E+03 0.  0.
   -5000001    1    1    2    0    0  0.42032780771E+02 -0.57101736799E+02  0.10525101639E+03  0.22682402751E+03  0.18800000000E+03 0.  0.
<mgrwt>
<rscale>  0 0.40242898E+03</rscale>
<asrwt>0</asrwt>
<pdfrwt beam="1">  1        2 0.18349359E-01 0.40242898E+03</pdfrwt>
<pdfrwt beam="2">  1       -2 0.45029956E-01 0.40242898E+03</pdfrwt>
<totfact> 0.14637279E+03</totfact>
</mgrwt>
</event>
<event>
 4    1  0.6346694E-005  0.4949326E+03  0.7818608E-02  0.1015110E+00
          2   -1    0    0  501    0  0.00000000000E+00  0.00000000000E+00  0.14647906157E+04  0.14647906157E+04  0.25500000000E-02 0.  1.
         -2   -1    0    0    0  501 -0.00000000000E+00 -0.00000000000E+00 -0.41807726005E+02  0.41807726083E+02  0.25500000000E-02 0. -1.
    5000001    1    1    2    0    0  0.11038522064E+03  0.11531244228E+03  0.77340684172E+03  0.81177829430E+03  0.18800000000E+03 0.  0.
   -5000001    1    1    2    0    0 -0.11038522064E+03 -0.11531244228E+03  0.64957604796E+03  0.69482004747E+03  0.18800000000E+03 0.  0.
<mgrwt>
<rscale>  0 0.49493258E+03</rscale>
<asrwt>0</asrwt>
<pdfrwt beam="1">  1        2 0.20925584E+00 0.49493258E+03</pdfrwt>
<pdfrwt beam="2">  1       -2 0.59725313E-02 0.49493258E+03</pdfrwt>
<totfact> 0.24178297E+03</totfact>
</mgrwt>
</event>
<event>
 4    1  0.6346694E-005  0.4911710E+03  0.7818608E-02  0.1016109E+00
          2   -1    0    0  501    0  0.00000000000E+00  0.00000000000E+00  0.16500675113E+04  0.16500675113E+04  0.25500000000E-02 0.  1.
         -2   -1    0    0    0  501 -0.00000000000E+00 -0.00000000000E+00 -0.36551368646E+02  0.36551368735E+02  0.25500000000E-02 0. -1.
    5000001    1    1    2    0    0  0.11598865603E+03  0.77362149177E+02  0.55140263845E+03  0.59902181942E+03  0.18800000000E+03 0.  0.
   -5000001    1    1    2    0    0 -0.11598865603E+03 -0.77362149177E+02  0.10621135042E+04  0.10875970606E+04  0.18800000000E+03 0.  0.
<mgrwt>
<rscale>  0 0.49117095E+03</rscale>
<asrwt>0</asrwt>
<pdfrwt beam="1">  1        2 0.23572391E+00 0.49117095E+03</pdfrwt>
<pdfrwt beam="2">  1       -2 0.52216246E-02 0.49117095E+03</pdfrwt>
<totfact> 0.23931105E+03</totfact>
</mgrwt>
</event>
<event>
 4    1  0.6346694E-005  0.3980367E+03  0.7818608E-02  0.1044462E+00
          2   -1    0    0  501    0  0.00000000000E+00  0.00000000000E+00  0.59456740819E+02  0.59456740874E+02  0.25500000000E-02 0. -1.
         -2   -1    0    0    0  501 -0.00000000000E+00 -0.00000000000E+00 -0.66617022229E+03  0.66617022229E+03  0.25500000000E-02 0.  1.
    5000001    1    1    2    0    0 -0.34818829115E+01  0.65183065898E+02 -0.30669573657E+03  0.36560529321E+03  0.18800000000E+03 0.  0.
   -5000001    1    1    2    0    0  0.34818829115E+01 -0.65183065898E+02 -0.30001774489E+03  0.36002166996E+03  0.18800000000E+03 0.  0.
<mgrwt>
<rscale>  0 0.39803673E+03</rscale>
<asrwt>0</asrwt>
<pdfrwt beam="1">  1        2 0.84938205E-02 0.39803673E+03</pdfrwt>
<pdfrwt beam="2">  1       -2 0.95167170E-01 0.39803673E+03</pdfrwt>
<totfact> 0.76334773E+02</totfact>
</mgrwt>
</event>
<event>
 4    1  0.6346694E-005  0.7270135E+03  0.7818608E-02  0.9672119E-01
          2   -1    0    0  501    0  0.00000000000E+00  0.00000000000E+00  0.16152325812E+04  0.16152325812E+04  0.25500000000E-02 0.  1.
         -2   -1    0    0    0  501 -0.00000000000E+00 -0.00000000000E+00 -0.81806901026E+02  0.81806901065E+02  0.25500000000E-02 0. -1.
    5000001    1    1    2    0    0  0.29616377478E+03  0.76860062801E+02  0.63523111256E+03  0.72971433939E+03  0.18800000000E+03 0.  0.
   -5000001    1    1    2    0    0 -0.29616377478E+03 -0.76860062801E+02  0.89819456759E+03  0.96732514286E+03  0.18800000000E+03 0.  0.
<mgrwt>
<rscale>  0 0.72701354E+03</rscale>
<asrwt>0</asrwt>
<pdfrwt beam="1">  1        2 0.23074752E+00 0.72701354E+03</pdfrwt>
<pdfrwt beam="2">  1       -2 0.11686700E-01 0.72701354E+03</pdfrwt>
<totfact> 0.68408104E+02</totfact>
</mgrwt>
</event>
<event>
 4    1  0.6346694E-005  0.4019510E+03  0.7818608E-02  0.1043106E+00
         -2   -1    0    0    0  501 -0.00000000000E+00  0.00000000000E+00  0.30680711477E+03  0.30680711479E+03  0.25500000000E-02 0. -1.
          2   -1    0    0  501    0  0.00000000000E+00 -0.00000000000E+00 -0.13164999615E+03  0.13164999618E+03  0.25500000000E-02 0.  1.
    5000001    1    1    2    0    0 -0.33389403579E+02 -0.62369332611E+02  0.94678929501E+02  0.22206504816E+03  0.18800000000E+03 0.  0.
   -5000001    1    1    2    0    0  0.33389403579E+02  0.62369332611E+02  0.80478189119E+02  0.21639206281E+03  0.18800000000E+03 0.  0.
<mgrwt>
<rscale>  0 0.40195102E+03</rscale>
<asrwt>0</asrwt>
<pdfrwt beam="1">  1        2 0.18807142E-01 0.40195102E+03</pdfrwt>
<pdfrwt beam="2">  1       -2 0.43829588E-01 0.40195102E+03</pdfrwt>
<totfact> 0.14996689E+03</totfact>
</mgrwt>
</event>
<event>
 4    1  0.6346694E-005  0.7057870E+03  0.7818608E-02  0.9707387E-01
          2   -1    0    0  501    0  0.00000000000E+00  0.00000000000E+00  0.83584163346E+03  0.83584163346E+03  0.25500000000E-02 0.  1.
         -2   -1    0    0    0  501 -0.00000000000E+00 -0.00000000000E+00 -0.14899211381E+03  0.14899211383E+03  0.25500000000E-02 0. -1.
    5000001    1    1    2    0    0  0.17273996337E+03  0.11945031204E+03  0.47151463236E+02  0.28578791520E+03  0.18800000000E+03 0.  0.
   -5000001    1    1    2    0    0 -0.17273996337E+03 -0.11945031204E+03  0.63969805641E+03  0.69904583209E+03  0.18800000000E+03 0.  0.
<mgrwt>
<rscale>  0 0.70578697E+03</rscale>
<asrwt>0</asrwt>
<pdfrwt beam="1">  1        2 0.11940595E+00 0.70578697E+03</pdfrwt>
<pdfrwt beam="2">  1       -2 0.21284588E-01 0.70578697E+03</pdfrwt>
<totfact> 0.68872191E+02</totfact>
</mgrwt>
</event>
<event>
 4    1  0.6346694E-005  0.6222925E+03  0.7818608E-02  0.9860206E-01
         -2   -1    0    0    0  501 -0.00000000000E+00  0.00000000000E+00  0.49639070537E+03  0.49639070537E+03  0.25500000000E-02 0. -1.
          2   -1    0    0  501    0  0.00000000000E+00 -0.00000000000E+00 -0.19503182469E+03  0.19503182471E+03  0.25500000000E-02 0.  1.
    5000001    1    1    2    0    0  0.13127599039E+03  0.21022109103E+03  0.15785369407E+03  0.34883818813E+03  0.18800000000E+03 0.  0.
   -5000001    1    1    2    0    0 -0.13127599039E+03 -0.21022109103E+03  0.14350518660E+03  0.34258434195E+03  0.18800000000E+03 0.  0.
<mgrwt>
<rscale>  0 0.62229249E+03</rscale>
<asrwt>0</asrwt>
<pdfrwt beam="1">  1        2 0.27861689E-01 0.62229249E+03</pdfrwt>
<pdfrwt beam="2">  1       -2 0.70912958E-01 0.62229249E+03</pdfrwt>
<totfact> 0.35314442E+02</totfact>
</mgrwt>
</event>
<event>
 4    1  0.6346694E-005  0.6912013E+03  0.7818608E-02  0.9732399E-01
          2   -1    0    0  501    0  0.00000000000E+00  0.00000000000E+00  0.31152734665E+03  0.31152734666E+03  0.25500000000E-02 0.  1.
         -2   -1    0    0    0  501 -0.00000000000E+00 -0.00000000000E+00 -0.38340067038E+03  0.38340067039E+03  0.25500000000E-02 0. -1.
    5000001    1    1    2    0    0  0.23890324623E+03  0.15043681183E+03  0.30676121215E+02  0.34057454371E+03  0.18800000000E+03 0.  0.
   -5000001    1    1    2    0    0 -0.23890324623E+03 -0.15043681183E+03 -0.10254944495E+03  0.35435347334E+03  0.18800000000E+03 0.  0.
<mgrwt>
<rscale>  0 0.69120125E+03</rscale>
<asrwt>0</asrwt>
<pdfrwt beam="1">  1        2 0.44503906E-01 0.69120125E+03</pdfrwt>
<pdfrwt beam="2">  1       -2 0.54771525E-01 0.69120125E+03</pdfrwt>
<totfact> 0.36169179E+02</totfact>
</mgrwt>
</event>
<event>
 4    1  0.6346694E-005  0.5892664E+03  0.7818608E-02  0.9927928E-01
         -2   -1    0    0    0  501 -0.00000000000E+00  0.00000000000E+00  0.40967138840E+02  0.40967138919E+02  0.25500000000E-02 0. -1.
          2   -1    0    0  501    0  0.00000000000E+00 -0.00000000000E+00 -0.21189843274E+04  0.21189843274E+04  0.25500000000E-02 0.  1.
    5000001    1    1    2    0    0 -0.16007775563E+03  0.15979530258E+03 -0.11030549983E+04  0.11415926401E+04  0.18800000000E+03 0.  0.
   -5000001    1    1    2    0    0  0.16007775563E+03 -0.15979530258E+03 -0.97496219021E+03  0.10183588262E+04  0.18800000000E+03 0.  0.
<mgrwt>
<rscale>  0 0.58926641E+03</rscale>
<asrwt>0</asrwt>
<pdfrwt beam="1">  1        2 0.30271198E+00 0.58926641E+03</pdfrwt>
<pdfrwt beam="2">  1       -2 0.58524498E-02 0.58926641E+03</pdfrwt>
<totfact> 0.11601097E+03</totfact>
</mgrwt>
</event>
<event>
 4    1  0.6346694E-005  0.6647815E+03  0.7818608E-02  0.9779431E-01
         -2   -1    0    0    0  501 -0.00000000000E+00  0.00000000000E+00  0.14618372088E+03  0.14618372090E+03  0.25500000000E-02 0. -1.
          2   -1    0    0  501    0  0.00000000000E+00 -0.00000000000E+00 -0.75578596190E+03  0.75578596190E+03  0.25500000000E-02 0.  1.
    5000001    1    1    2    0    0  0.46538063686E+02  0.35508046010E+02 -0.66814006268E+03  0.69654989488E+03  0.18800000000E+03 0.  0.
   -5000001    1    1    2    0    0 -0.46538063686E+02 -0.35508046010E+02  0.58537821663E+02  0.20541978792E+03  0.18800000000E+03 0.  0.
<mgrwt>
<rscale>  0 0.66478148E+03</rscale>
<asrwt>0</asrwt>
<pdfrwt beam="1">  1        2 0.10796942E+00 0.66478148E+03</pdfrwt>
<pdfrwt beam="2">  1       -2 0.20883389E-01 0.66478148E+03</pdfrwt>
<totfact> 0.81103860E+02</totfact>
</mgrwt>
</event>
<event>
 4    1  0.6346694E-005  0.8163555E+03  0.7818608E-02  0.9536640E-01
          2   -1    0    0  501    0  0.00000000000E+00  0.00000000000E+00  0.26568614162E+03  0.26568614164E+03  0.25500000000E-02 0.  1.
         -2   -1    0    0    0  501 -0.00000000000E+00 -0.00000000000E+00 -0.62708986183E+03  0.62708986184E+03  0.25500000000E-02 0. -1.
    5000001    1    1    2    0    0  0.11928865408E+03 -0.33101502483E+03 -0.86217625395E+02  0.40813993751E+03  0.18800000000E+03 0.  0.
   -5000001    1    1    2    0    0 -0.11928865408E+03  0.33101502483E+03 -0.27518609482E+03  0.48463606597E+03  0.18800000000E+03 0.  0.
<mgrwt>
<rscale>  0 0.81635553E+03</rscale>
<asrwt>0</asrwt>
<pdfrwt beam="1">  1        2 0.37955163E-01 0.81635553E+03</pdfrwt>
<pdfrwt beam="2">  1       -2 0.89584265E-01 0.81635553E+03</pdfrwt>
<totfact> 0.14687688E+02</totfact>
</mgrwt>
</event>
<event>
 4    1  0.6346694E-005  0.6753263E+03  0.7818608E-02  0.9760383E-01
          2   -1    0    0  501    0  0.00000000000E+00  0.00000000000E+00  0.30082958978E+03  0.30082958979E+03  0.25500000000E-02 0.  1.
         -2   -1    0    0    0  501 -0.00000000000E+00 -0.00000000000E+00 -0.37900659479E+03  0.37900659480E+03  0.25500000000E-02 0. -1.
    5000001    1    1    2    0    0 -0.25410077270E+03  0.80243521101E+02  0.49052894855E+02  0.32978237045E+03  0.18800000000E+03 0.  0.
   -5000001    1    1    2    0    0  0.25410077270E+03 -0.80243521101E+02 -0.12722989987E+03  0.35005381413E+03  0.18800000000E+03 0.  0.
<mgrwt>
<rscale>  0 0.67532629E+03</rscale>
<asrwt>0</asrwt>
<pdfrwt beam="1">  1        2 0.42975656E-01 0.67532629E+03</pdfrwt>
<pdfrwt beam="2">  1       -2 0.54143799E-01 0.67532629E+03</pdfrwt>
<totfact> 0.38517371E+02</totfact>
</mgrwt>
</event>
<event>
 4    1  0.6346694E-005  0.6578026E+03  0.7818608E-02  0.9792247E-01
          2   -1    0    0  501    0  0.00000000000E+00  0.00000000000E+00  0.13764085713E+04  0.13764085713E+04  0.25500000000E-02 0.  1.
         -2   -1    0    0    0  501 -0.00000000000E+00 -0.00000000000E+00 -0.78592994871E+02  0.78592994912E+02  0.25500000000E-02 0. -1.
    5000001    1    1    2    0    0 -0.24024678352E+03  0.11316054098E+03  0.54263820391E+03  0.63271166053E+03  0.18800000000E+03 0.  0.
   -5000001    1    1    2    0    0  0.24024678352E+03 -0.11316054098E+03  0.75517737247E+03  0.82228990564E+03  0.18800000000E+03 0.  0.
<mgrwt>
<rscale>  0 0.65780262E+03</rscale>
<asrwt>0</asrwt>
<pdfrwt beam="1">  1        2 0.19662980E+00 0.65780262E+03</pdfrwt>
<pdfrwt beam="2">  1       -2 0.11227571E-01 0.65780262E+03</pdfrwt>
<totfact> 0.97815513E+02</totfact>
</mgrwt>
</event>
<event>
 4    1  0.6346694E-005  0.6160859E+03  0.7818608E-02  0.9872584E-01
         -2   -1    0    0    0  501 -0.00000000000E+00  0.00000000000E+00  0.14643755512E+03  0.14643755515E+03  0.25500000000E-02 0.  1.
          2   -1    0    0  501    0  0.00000000000E+00 -0.00000000000E+00 -0.64799266158E+03  0.64799266159E+03  0.25500000000E-02 0. -1.
    5000001    1    1    2    0    0 -0.19707195473E+03  0.51965827873E+02 -0.77734104611E+02  0.28796595915E+03  0.18800000000E+03 0.  0.
   -5000001    1    1    2    0    0  0.19707195473E+03 -0.51965827873E+02 -0.42382100185E+03  0.50646425759E+03  0.18800000000E+03 0.  0.
<mgrwt>
<rscale>  0 0.61608591E+03</rscale>
<asrwt>0</asrwt>
<pdfrwt beam="1">  1        2 0.92570379E-01 0.61608591E+03</pdfrwt>
<pdfrwt beam="2">  1       -2 0.20919651E-01 0.61608591E+03</pdfrwt>
<totfact> 0.97757472E+02</totfact>
</mgrwt>
</event>
<event>
 4    1  0.6346694E-005  0.8221154E+03  0.7818608E-02  0.9528546E-01
          2   -1    0    0  501    0  0.00000000000E+00  0.00000000000E+00  0.29009394921E+04  0.29009394921E+04  0.25500000000E-02 0.  1.
         -2   -1    0    0    0  501 -0.00000000000E+00 -0.00000000000E+00 -0.58246103035E+02  0.58246103091E+02  0.25500000000E-02 0. -1.
    5000001    1    1    2    0    0 -0.54102446264E+02 -0.32747394088E+03  0.87004865862E+03  0.94999732895E+03  0.18800000000E+03 0.  0.
   -5000001    1    1    2    0    0  0.54102446264E+02  0.32747394088E+03  0.19726447304E+04  0.20091882662E+04  0.18800000000E+03 0.  0.
<mgrwt>
<rscale>  0 0.82211537E+03</rscale>
<asrwt>0</asrwt>
<pdfrwt beam="1">  1        2 0.41442009E+00 0.82211537E+03</pdfrwt>
<pdfrwt beam="2">  1       -2 0.83208686E-02 0.82211537E+03</pdfrwt>
<totfact> 0.25664940E+02</totfact>
</mgrwt>
</event>
<event>
 4    1  0.6346694E-005  0.7358954E+03  0.7818608E-02  0.9657742E-01
         -2   -1    0    0    0  501 -0.00000000000E+00  0.00000000000E+00  0.10376278484E+03  0.10376278487E+03  0.25500000000E-02 0. -1.
          2   -1    0    0  501    0  0.00000000000E+00 -0.00000000000E+00 -0.13047598362E+04  0.13047598362E+04  0.25500000000E-02 0.  1.
    5000001    1    1    2    0    0  0.22571923418E+03  0.41603932480E+02 -0.18395513685E+03  0.34908960490E+03  0.18800000000E+03 0.  0.
   -5000001    1    1    2    0    0 -0.22571923418E+03 -0.41603932480E+02 -0.10170419145E+04  0.10594330162E+04  0.18800000000E+03 0.  0.
<mgrwt>
<rscale>  0 0.73589541E+03</rscale>
<asrwt>0</asrwt>
<pdfrwt beam="1">  1        2 0.18639425E+00 0.73589541E+03</pdfrwt>
<pdfrwt beam="2">  1       -2 0.14823256E-01 0.73589541E+03</pdfrwt>
<totfact> 0.67167403E+02</totfact>
</mgrwt>
</event>
<event>
 4    1  0.6346694E-005  0.5600769E+03  0.7818608E-02  0.9991881E-01
          2   -1    0    0  501    0  0.00000000000E+00  0.00000000000E+00  0.85937918085E+03  0.85937918086E+03  0.25500000000E-02 0.  1.
         -2   -1    0    0    0  501 -0.00000000000E+00 -0.00000000000E+00 -0.91253699481E+02  0.91253699517E+02  0.25500000000E-02 0. -1.
    5000001    1    1    2    0    0 -0.17333229735E+03 -0.99886511749E+02  0.47789475125E+03  0.55113409784E+03  0.18800000000E+03 0.  0.
   -5000001    1    1    2    0    0  0.17333229735E+03  0.99886511749E+02  0.29023073012E+03  0.39949878253E+03  0.18800000000E+03 0.  0.
<mgrwt>
<rscale>  0 0.56007689E+03</rscale>
<asrwt>0</asrwt>
<pdfrwt beam="1">  1        2 0.12276845E+00 0.56007689E+03</pdfrwt>
<pdfrwt beam="2">  1       -2 0.13036243E-01 0.56007689E+03</pdfrwt>
<totfact> 0.15376747E+03</totfact>
</mgrwt>
</event>
<event>
 4    1  0.6346694E-005  0.4948411E+03  0.7818608E-02  0.1015134E+00
          2   -1    0    0  501    0  0.00000000000E+00  0.00000000000E+00  0.10866823604E+03  0.10866823607E+03  0.25500000000E-02 0.  1.
         -2   -1    0    0    0  501 -0.00000000000E+00 -0.00000000000E+00 -0.56333790881E+03  0.56333790882E+03  0.25500000000E-02 0. -1.
    5000001    1    1    2    0    0 -0.14696374267E+03 -0.64129823040E+02 -0.21005209349E+03  0.32430981767E+03  0.18800000000E+03 0.  0.
   -5000001    1    1    2    0    0  0.14696374267E+03  0.64129823040E+02 -0.24461757929E+03  0.34769632721E+03  0.18800000000E+03 0.  0.
<mgrwt>
<rscale>  0 0.49484113E+03</rscale>
<asrwt>0</asrwt>
<pdfrwt beam="1">  1        2 0.15524034E-01 0.49484113E+03</pdfrwt>
<pdfrwt beam="2">  1       -2 0.80476842E-01 0.49484113E+03</pdfrwt>
<totfact> 0.52894208E+02</totfact>
</mgrwt>
</event>
<event>
 4    1  0.6346694E-005  0.7049214E+03  0.7818608E-02  0.9708853E-01
          2   -1    0    0  501    0  0.00000000000E+00  0.00000000000E+00  0.23842072022E+04  0.23842072022E+04  0.25500000000E-02 0.  1.
         -2   -1    0    0    0  501 -0.00000000000E+00 -0.00000000000E+00 -0.52104760879E+02  0.52104760941E+02  0.25500000000E-02 0. -1.
    5000001    1    1    2    0    0  0.29019863711E+03  0.67403567189E+00  0.14022060505E+04  0.14442096494E+04  0.18800000000E+03 0.  0.
   -5000001    1    1    2    0    0 -0.29019863711E+03 -0.67403567189E+00  0.92989639080E+03  0.99210231374E+03  0.18800000000E+03 0.  0.
<mgrwt>
<rscale>  0 0.70492140E+03</rscale>
<asrwt>0</asrwt>
<pdfrwt beam="1">  1        2 0.34060094E+00 0.70492140E+03</pdfrwt>
<pdfrwt beam="2">  1       -2 0.74435392E-02 0.70492140E+03</pdfrwt>
<totfact> 0.57827738E+02</totfact>
</mgrwt>
</event>
<event>
 4    1  0.6346694E-005  0.4076100E+03  0.7818608E-02  0.1041176E+00
          2   -1    0    0  501    0  0.00000000000E+00  0.00000000000E+00  0.47630091500E+03  0.47630091501E+03  0.25500000000E-02 0.  1.
         -2   -1    0    0    0  501 -0.00000000000E+00 -0.00000000000E+00 -0.87206393862E+02  0.87206393899E+02  0.25500000000E-02 0. -1.
    5000001    1    1    2    0    0 -0.51978195967E+02  0.18929319280E+02  0.11717316311E+03  0.22832783916E+03  0.18800000000E+03 0.  0.
   -5000001    1    1    2    0    0  0.51978195967E+02 -0.18929319280E+02  0.27192135803E+03  0.33517946974E+03  0.18800000000E+03 0.  0.
<mgrwt>
<rscale>  0 0.40761004E+03</rscale>
<asrwt>0</asrwt>
<pdfrwt beam="1">  1        2 0.68042989E-01 0.40761004E+03</pdfrwt>
<pdfrwt beam="2">  1       -2 0.12458056E-01 0.40761004E+03</pdfrwt>
<totfact> 0.33461809E+03</totfact>
</mgrwt>
</event>
<event>
 4    1  0.6346694E-005  0.1175838E+04  0.7818608E-02  0.9134273E-01
          2   -1    0    0  501    0  0.00000000000E+00  0.00000000000E+00  0.26956161066E+04  0.26956161066E+04  0.25500000000E-02 0.  1.
         -2   -1    0    0    0  501 -0.00000000000E+00 -0.00000000000E+00 -0.12822617633E+03  0.12822617636E+03  0.25500000000E-02 0. -1.
    5000001    1    1    2    0    0 -0.33506314055E+02 -0.40664234492E+03  0.21944646549E+04  0.22399776319E+04  0.18800000000E+03 0.  0.
   -5000001    1    1    2    0    0  0.33506314055E+02  0.40664234492E+03  0.37292527540E+03  0.58386465109E+03  0.18800000000E+03 0.  0.
<mgrwt>
<rscale>  0 0.11758377E+04</rscale>
<asrwt>0</asrwt>
<pdfrwt beam="1">  1        2 0.38508797E+00 0.11758377E+04</pdfrwt>
<pdfrwt beam="2">  1       -2 0.18318027E-01 0.11758377E+04</pdfrwt>
<totfact> 0.86046565E+01</totfact>
</mgrwt>
</event>
<event>
 4    1  0.6346694E-005  0.9156298E+03  0.7818608E-02  0.9406252E-01
          2   -1    0    0  501    0  0.00000000000E+00  0.00000000000E+00  0.81467131635E+03  0.81467131636E+03  0.25500000000E-02 0.  1.
         -2   -1    0    0    0  501 -0.00000000000E+00 -0.00000000000E+00 -0.25727488139E+03  0.25727488140E+03  0.25500000000E-02 0. -1.
    5000001    1    1    2    0    0  0.31105245031E+01  0.16507368131E+03 -0.17014963736E+03  0.30257874135E+03  0.18800000000E+03 0.  0.
   -5000001    1    1    2    0    0 -0.31105245031E+01 -0.16507368131E+03  0.72754607233E+03  0.76936745641E+03  0.18800000000E+03 0.  0.
<mgrwt>
<rscale>  0 0.91562976E+03</rscale>
<asrwt>0</asrwt>
<pdfrwt beam="1">  1        2 0.11638162E+00 0.91562976E+03</pdfrwt>
<pdfrwt beam="2">  1       -2 0.36753554E-01 0.91562976E+03</pdfrwt>
<totfact> 0.25890666E+02</totfact>
</mgrwt>
</event>
<event>
 4    1  0.6346694E-005  0.7400792E+03  0.7818608E-02  0.9651044E-01
         -2   -1    0    0    0  501 -0.00000000000E+00  0.00000000000E+00  0.14914967502E+03  0.14914967504E+03  0.25500000000E-02 0. -1.
          2   -1    0    0  501    0  0.00000000000E+00 -0.00000000000E+00 -0.91806648474E+03  0.91806648474E+03  0.25500000000E-02 0.  1.
    5000001    1    1    2    0    0  0.31430419225E+03 -0.45507017150E+02 -0.42334788690E+03  0.56162749863E+03  0.18800000000E+03 0.  0.
   -5000001    1    1    2    0    0 -0.31430419225E+03  0.45507017150E+02 -0.34556892282E+03  0.50558866116E+03  0.18800000000E+03 0.  0.
<mgrwt>
<rscale>  0 0.74007923E+03</rscale>
<asrwt>0</asrwt>
<pdfrwt beam="1">  1        2 0.13115235E+00 0.74007923E+03</pdfrwt>
<pdfrwt beam="2">  1       -2 0.21307097E-01 0.74007923E+03</pdfrwt>
<totfact> 0.60603602E+02</totfact>
</mgrwt>
</event>
<event>
 4    1  0.6346694E-005  0.4294560E+03  0.7818608E-02  0.1034032E+00
         -2   -1    0    0    0  501 -0.00000000000E+00  0.00000000000E+00  0.79900487409E+02  0.79900487449E+02  0.25500000000E-02 0. -1.
          2   -1    0    0  501    0  0.00000000000E+00 -0.00000000000E+00 -0.57706917751E+03  0.57706917752E+03  0.25500000000E-02 0.  1.
    5000001    1    1    2    0    0  0.10312961687E+03  0.33547645384E+01 -0.23202770075E+03  0.31595541812E+03  0.18800000000E+03 0.  0.
   -5000001    1    1    2    0    0 -0.10312961687E+03 -0.33547645384E+01 -0.26514098935E+03  0.34101424685E+03  0.18800000000E+03 0.  0.
<mgrwt>
<rscale>  0 0.42945597E+03</rscale>
<asrwt>0</asrwt>
<pdfrwt beam="1">  1        2 0.82438452E-01 0.42945597E+03</pdfrwt>
<pdfrwt beam="2">  1       -2 0.11414356E-01 0.42945597E+03</pdfrwt>
<totfact> 0.31076314E+03</totfact>
</mgrwt>
</event>
